<event>
 5    1  0.1324057E-009  0.9118800E+02  0.7818608E-02  0.1130116E+00
         25   -1    0    0    0    0  0.00000000000E+00  0.00000000000E+00  0.99999998245E-14  0.12500000000E+03  0.12500000000E+03 0.  0.
        -13    1    3    3    0    0  0.29027697282E+02 -0.21680987619E+02 -0.49990456697E+02  0.61739204388E+02  0.10566000000E+00 0. -1.
         23    2    1    0    0    0  0.14419387758E+02 -0.15954102466E+02 -0.19778697673E+02  0.95782727532E+02  0.91217771750E+02 0.  0.
         13    1    3    3    0    0 -0.14608309525E+02  0.57268851525E+01  0.30211759024E+02  0.34043523144E+02  0.10566000000E+00 0.  1.
         22    1    1    0    0    0 -0.14419387758E+02  0.15954102466E+02  0.19778697673E+02  0.29217272468E+02  0.00000000000E+00 0. -1.
</event>
<event>
 5    1  0.1324057E-009  0.9118800E+02  0.7818608E-02  0.1130116E+00
         25   -1    0    0    0    0  0.00000000000E+00  0.00000000000E+00  0.99999998245E-14  0.12500000000E+03  0.12500000000E+03 0.  0.
        -13    1    3    3    0    0 -0.21167252487E+02 -0.54137034992E+02 -0.14180028332E+02  0.59832729364E+02  0.10566000000E+00 0. -1.
         23    2    1    0    0    0 -0.13499616364E+02 -0.17971551135E+02 -0.16864637351E+02  0.96899603470E+02  0.92735650467E+02 0.  0.
         13    1    3    3    0    0  0.76676361238E+01  0.36165483858E+02 -0.26846090186E+01  0.37066874106E+02  0.10566000000E+00 0.  1.
         22    1    1    0    0    0  0.13499616364E+02  0.17971551135E+02  0.16864637351E+02  0.28100396530E+02  0.00000000000E+00 0. -1.
</event>
<event>
 5    1  0.1324057E-009  0.9118800E+02  0.7818608E-02  0.1130116E+00
         25   -1    0    0    0    0  0.00000000000E+00  0.00000000000E+00  0.99999998245E-14  0.12500000000E+03  0.12500000000E+03 0.  0.
        -13    1    3    3    0    0  0.89790136719E+01 -0.16783963429E+02 -0.55119803171E+02  0.58314046168E+02  0.10566000000E+00 0.  1.
         23    2    1    0    0    0 -0.10082185564E+02 -0.81948703409E+00 -0.28587303913E+02  0.94675818729E+02  0.89688096658E+02 0.  0.
         13    1    3    3    0    0 -0.19061199236E+02  0.15964476394E+02  0.26532499257E+02  0.36361772560E+02  0.10566000000E+00 0. -1.
         22    1    1    0    0    0  0.10082185564E+02  0.81948703409E+00  0.28587303913E+02  0.30324181271E+02  0.00000000000E+00 0.  1.
</event>
<event>
 5    1  0.1324057E-009  0.9118800E+02  0.7818608E-02  0.1130116E+00
         25   -1    0    0    0    0  0.00000000000E+00  0.00000000000E+00  0.99999998245E-14  0.12500000000E+03  0.12500000000E+03 0.  0.
        -13    1    3    3    0    0  0.25545668492E+02  0.43295158055E+02 -0.31953678429E+02  0.59565935054E+02  0.10566000000E+00 0.  1.
         23    2    1    0    0    0  0.22963546705E+02  0.12919414042E+02 -0.11668996265E+02  0.96183317153E+02  0.91765076627E+02 0.  0.
         13    1    3    3    0    0 -0.25821217876E+01 -0.30375744013E+02  0.20284682164E+02  0.36617382099E+02  0.10566000000E+00 0. -1.
         22    1    1    0    0    0 -0.22963546705E+02 -0.12919414042E+02  0.11668996265E+02  0.28816682847E+02  0.00000000000E+00 0.  1.
</event>
<event>
 5    1  0.1324057E-009  0.9118800E+02  0.7818608E-02  0.1130116E+00
         25   -1    0    0    0    0  0.00000000000E+00  0.00000000000E+00  0.99999998245E-14  0.12500000000E+03  0.12500000000E+03 0.  0.
        -13    1    3    3    0    0 -0.46464676754E+02 -0.39851803506E+02 -0.67898170606E+01  0.61589327065E+02  0.10566000000E+00 0. -1.
         23    2    1    0    0    0 -0.39333476627E+02 -0.25499017055E+02 -0.69162344526E+01  0.77616917014E+02  0.61475436179E+02 0.  0.
         13    1    3    3    0    0  0.71312001269E+01  0.14352786452E+02 -0.12641739199E+00  0.16027589949E+02  0.10566000000E+00 0.  1.
         22    1    1    0    0    0  0.39333476627E+02  0.25499017055E+02  0.69162344526E+01  0.47383082986E+02  0.00000000000E+00 0. -1.
</event>
<event>
 5    1  0.1324057E-009  0.9118800E+02  0.7818608E-02  0.1130116E+00
         25   -1    0    0    0    0  0.00000000000E+00  0.00000000000E+00  0.99999998245E-14  0.12500000000E+03  0.12500000000E+03 0.  0.
        -13    1    3    3    0    0 -0.62083098875E+01  0.32328400102E+02 -0.94552541264E+01  0.34250278239E+02  0.10566000000E+00 0.  1.
         23    2    1    0    0    0 -0.71857875479E+01 -0.28186332520E+02 -0.81695485135E+01  0.94786651849E+02  0.89842434084E+02 0.  0.
         13    1    3    3    0    0 -0.97747766047E+00 -0.60514732622E+02  0.12857056129E+01  0.60536373610E+02  0.10566000000E+00 0. -1.
         22    1    1    0    0    0  0.71857875479E+01  0.28186332520E+02  0.81695485135E+01  0.30213348151E+02  0.00000000000E+00 0. -1.
</event>
<event>
 5    1  0.1324057E-009  0.9118800E+02  0.7818608E-02  0.1130116E+00
         25   -1    0    0    0    0  0.00000000000E+00  0.00000000000E+00  0.99999998245E-14  0.12500000000E+03  0.12500000000E+03 0.  0.
        -13    1    3    3    0    0 -0.37094413456E+02  0.49022901290E+01  0.33476633863E+02  0.50206813651E+02  0.10566000000E+00 0. -1.
         23    2    1    0    0    0 -0.36096014685E+02 -0.10817896328E+02 -0.12510303094E+00  0.87317579592E+02  0.78767981426E+02 0.  0.
         13    1    3    3    0    0  0.99839877115E+00 -0.15720186457E+02 -0.33601736894E+02  0.37110765941E+02  0.10566000000E+00 0.  1.
         22    1    1    0    0    0  0.36096014685E+02  0.10817896328E+02  0.12510303094E+00  0.37682420408E+02  0.00000000000E+00 0. -1.
</event>
<event>
 5    1  0.1324057E-009  0.9118800E+02  0.7818608E-02  0.1130116E+00
         25   -1    0    0    0    0  0.00000000000E+00  0.00000000000E+00  0.99999998245E-14  0.12500000000E+03  0.12500000000E+03 0.  0.
        -13    1    3    3    0    0  0.17107330032E+02 -0.44270382147E+02 -0.36630391500E+02  0.59952683190E+02  0.10566000000E+00 0.  1.
         23    2    1    0    0    0  0.16683628491E+02 -0.13836731262E+02 -0.23289695420E+02  0.93184775588E+02  0.87585352068E+02 0.  0.
         13    1    3    3    0    0 -0.42370154057E+00  0.30433650885E+02  0.13340696080E+02  0.33232092398E+02  0.10566000000E+00 0. -1.
         22    1    1    0    0    0 -0.16683628491E+02  0.13836731262E+02  0.23289695420E+02  0.31815224412E+02  0.00000000000E+00 0.  1.
</event>
<event>
 5    1  0.1324057E-009  0.9118800E+02  0.7818608E-02  0.1130116E+00
         25   -1    0    0    0    0  0.00000000000E+00  0.00000000000E+00  0.99999998245E-14  0.12500000000E+03  0.12500000000E+03 0.  0.
        -13    1    3    3    0    0  0.59302045349E+02 -0.38016441975E+00  0.29390027358E+01  0.59376140062E+02  0.10566000000E+00 0.  1.
         23    2    1    0    0    0  0.25546726104E+02  0.92800481909E+01  0.11454992015E+02  0.95504723240E+02  0.90836010536E+02 0.  0.
         13    1    3    3    0    0 -0.33755319245E+02  0.96602126107E+01  0.85159892797E+01  0.36128583178E+02  0.10566000000E+00 0. -1.
         22    1    1    0    0    0 -0.25546726104E+02 -0.92800481909E+01 -0.11454992015E+02  0.29495276760E+02  0.00000000000E+00 0.  1.
</event>
<event>
 5    1  0.1324057E-009  0.9118800E+02  0.7818608E-02  0.1130116E+00
         25   -1    0    0    0    0  0.00000000000E+00  0.00000000000E+00  0.99999998245E-14  0.12500000000E+03  0.12500000000E+03 0.  0.
        -13    1    3    3    0    0 -0.28837912560E+02 -0.18749626574E+02 -0.47188259073E+02  0.58394491657E+02  0.10566000000E+00 0.  1.
         23    2    1    0    0    0  0.35385701817E+00 -0.75178888344E+01 -0.29971498983E+02  0.94097983583E+02  0.88879108321E+02 0.  0.
         13    1    3    3    0    0  0.29191769578E+02  0.11231737740E+02  0.17216760090E+02  0.35703491927E+02  0.10566000000E+00 0. -1.
         22    1    1    0    0    0 -0.35385701817E+00  0.75178888344E+01  0.29971498983E+02  0.30902016417E+02  0.00000000000E+00 0.  1.
</event>
<event>
 5    1  0.1324057E-009  0.9118800E+02  0.7818608E-02  0.1130116E+00
         25   -1    0    0    0    0  0.00000000000E+00  0.00000000000E+00  0.99999998245E-14  0.12500000000E+03  0.12500000000E+03 0.  0.
        -13    1    3    3    0    0  0.20526246227E+02 -0.24858177967E+02  0.95275983296E+01  0.33616098672E+02  0.10566000000E+00 0.  1.
         23    2    1    0    0    0 -0.19591903220E+02  0.10314422535E+02 -0.20488734937E+02  0.94833491363E+02  0.89907579440E+02 0.  0.
         13    1    3    3    0    0 -0.40118149447E+02  0.35172600501E+02 -0.30016333267E+02  0.61217392691E+02  0.10566000000E+00 0. -1.
         22    1    1    0    0    0  0.19591903220E+02 -0.10314422535E+02  0.20488734937E+02  0.30166508637E+02  0.00000000000E+00 0. -1.
</event>
<event>
 5    1  0.1324057E-009  0.9118800E+02  0.7818608E-02  0.1130116E+00
         25   -1    0    0    0    0  0.00000000000E+00  0.00000000000E+00  0.99999998245E-14  0.12500000000E+03  0.12500000000E+03 0.  0.
        -13    1    3    3    0    0  0.27073939302E+02  0.52293715758E+02  0.11960671789E+02  0.60089098269E+02  0.10566000000E+00 0.  1.
         23    2    1    0    0    0  0.14166609456E+02  0.24825773259E+02 -0.66002284459E+01  0.95664443811E+02  0.91055537738E+02 0.  0.
         13    1    3    3    0    0 -0.12907329846E+02 -0.27467942499E+02 -0.18560900235E+02  0.35575345543E+02  0.10566000000E+00 0. -1.
         22    1    1    0    0    0 -0.14166609456E+02 -0.24825773259E+02  0.66002284459E+01  0.29335556189E+02  0.00000000000E+00 0.  1.
</event>
<event>
 5    1  0.1324057E-009  0.9118800E+02  0.7818608E-02  0.1130116E+00
         25   -1    0    0    0    0  0.00000000000E+00  0.00000000000E+00  0.99999998245E-14  0.12500000000E+03  0.12500000000E+03 0.  0.
        -13    1    3    3    0    0 -0.24383545104E+02 -0.17062585410E+01 -0.25450049230E+02  0.35287175573E+02  0.10566000000E+00 0.  1.
         23    2    1    0    0    0 -0.28793961335E+00 -0.23065921924E+01  0.29561379319E+02  0.95347370707E+02  0.90619218032E+02 0.  0.
         13    1    3    3    0    0  0.24095605490E+02 -0.60033365136E+00  0.55011428549E+02  0.60060195134E+02  0.10566000000E+00 0. -1.
         22    1    1    0    0    0  0.28793961335E+00  0.23065921924E+01 -0.29561379319E+02  0.29652629293E+02  0.00000000000E+00 0. -1.
</event>
<event>
 5    1  0.1324057E-009  0.9118800E+02  0.7818608E-02  0.1130116E+00
         25   -1    0    0    0    0  0.00000000000E+00  0.00000000000E+00  0.99999998245E-14  0.12500000000E+03  0.12500000000E+03 0.  0.
        -13    1    3    3    0    0  0.18735274123E+02  0.36446739645E+01  0.29624132678E+02  0.35240524197E+02  0.10566000000E+00 0.  1.
         23    2    1    0    0    0 -0.27664613743E+02 -0.60333624299E+01 -0.77976475923E+01  0.95631043197E+02  0.91009674206E+02 0.  0.
         13    1    3    3    0    0 -0.46399887866E+02 -0.96780363943E+01 -0.37421780270E+02  0.60390518999E+02  0.10566000000E+00 0. -1.
         22    1    1    0    0    0  0.27664613743E+02  0.60333624299E+01  0.77976475923E+01  0.29368956803E+02  0.00000000000E+00 0. -1.
</event>
<event>
 5    1  0.1324057E-009  0.9118800E+02  0.7818608E-02  0.1130116E+00
         25   -1    0    0    0    0  0.00000000000E+00  0.00000000000E+00  0.99999998245E-14  0.12500000000E+03  0.12500000000E+03 0.  0.
        -13    1    3    3    0    0  0.27378103633E+02  0.37927254083E+02 -0.15892748234E+01  0.46803569515E+02  0.10566000000E+00 0.  1.
         23    2    1    0    0    0 -0.19248623754E+02  0.21048078191E+02  0.10101477013E+01  0.96459651187E+02  0.92140722793E+02 0.  0.
         13    1    3    3    0    0 -0.46626727387E+02 -0.16879175891E+02  0.25994225246E+01  0.49656081673E+02  0.10566000000E+00 0. -1.
         22    1    1    0    0    0  0.19248623754E+02 -0.21048078191E+02 -0.10101477013E+01  0.28540348813E+02  0.00000000000E+00 0. -1.
</event>
<event>
 5    1  0.1324057E-009  0.9118800E+02  0.7818608E-02  0.1130116E+00
         25   -1    0    0    0    0  0.00000000000E+00  0.00000000000E+00  0.99999998245E-14  0.12500000000E+03  0.12500000000E+03 0.  0.
        -13    1    3    3    0    0 -0.19112740260E+02 -0.18784042935E+02  0.35154193632E+02  0.44203683140E+02  0.10566000000E+00 0. -1.
         23    2    1    0    0    0 -0.86039693675E+01 -0.21977597489E+02 -0.15975482612E+02  0.96499839913E+02  0.92195227524E+02 0.  0.
         13    1    3    3    0    0  0.10508770892E+02 -0.31935545546E+01 -0.51129676244E+02  0.52296156773E+02  0.10566000000E+00 0.  1.
         22    1    1    0    0    0  0.86039693675E+01  0.21977597489E+02  0.15975482612E+02  0.28500160087E+02  0.00000000000E+00 0.  1.
</event>
<event>
 5    1  0.1324057E-009  0.9118800E+02  0.7818608E-02  0.1130116E+00
         25   -1    0    0    0    0  0.00000000000E+00  0.00000000000E+00  0.99999998245E-14  0.12500000000E+03  0.12500000000E+03 0.  0.
        -13    1    3    3    0    0  0.23867949766E+02 -0.40055932079E+02 -0.17475473667E+02  0.49795181139E+02  0.10566000000E+00 0.  1.
         23    2    1    0    0    0 -0.16502654282E+02 -0.24161547256E+02 -0.27561070015E+01  0.95610986918E+02  0.90982123132E+02 0.  0.
         13    1    3    3    0    0 -0.40370604047E+02  0.15894384824E+02  0.14719366666E+02  0.45815805779E+02  0.10566000000E+00 0. -1.
         22    1    1    0    0    0  0.16502654282E+02  0.24161547256E+02  0.27561070015E+01  0.29389013082E+02  0.00000000000E+00 0.  1.
</event>
<event>
 5    1  0.1324057E-009  0.9118800E+02  0.7818608E-02  0.1130116E+00
         25   -1    0    0    0    0  0.00000000000E+00  0.00000000000E+00  0.99999998245E-14  0.12500000000E+03  0.12500000000E+03 0.  0.
        -13    1    3    3    0    0  0.21155287330E+01  0.31531148034E+02 -0.24437694263E+02  0.39948727428E+02  0.10566000000E+00 0. -1.
         23    2    1    0    0    0  0.32111883422E+01  0.92794176180E+01  0.27143141541E+02  0.96135325143E+02  0.91699679856E+02 0.  0.
         13    1    3    3    0    0  0.10956596092E+01 -0.22251730416E+02  0.51580835804E+02  0.56186597715E+02  0.10566000000E+00 0.  1.
         22    1    1    0    0    0 -0.32111883422E+01 -0.92794176180E+01 -0.27143141541E+02  0.28864674857E+02  0.00000000000E+00 0.  1.
</event>
<event>
 5    1  0.1324057E-009  0.9118800E+02  0.7818608E-02  0.1130116E+00
         25   -1    0    0    0    0  0.00000000000E+00  0.00000000000E+00  0.99999998245E-14  0.12500000000E+03  0.12500000000E+03 0.  0.
        -13    1    3    3    0    0  0.21667612121E+02 -0.18985085084E+02 -0.28343708448E+02  0.40414055022E+02  0.10566000000E+00 0.  1.
         23    2    1    0    0    0 -0.14450243631E+02  0.21171725578E+02 -0.76912827668E+01  0.98237949713E+02  0.94522417597E+02 0.  0.
         13    1    3    3    0    0 -0.36117855752E+02  0.40156810662E+02  0.20652425681E+02  0.57823894691E+02  0.10566000000E+00 0. -1.
         22    1    1    0    0    0  0.14450243631E+02 -0.21171725578E+02  0.76912827668E+01  0.26762050287E+02  0.00000000000E+00 0. -1.
</event>
<event>
 5    1  0.1324057E-009  0.9118800E+02  0.7818608E-02  0.1130116E+00
         25   -1    0    0    0    0  0.00000000000E+00  0.00000000000E+00  0.99999998245E-14  0.12500000000E+03  0.12500000000E+03 0.  0.
        -13    1    3    3    0    0  0.43396891692E+02  0.18649883038E+02  0.18364891011E+02  0.50679273196E+02  0.10566000000E+00 0.  1.
         23    2    1    0    0    0  0.21338124521E+01  0.29236950073E+02  0.55523888028E+01  0.95164091658E+02  0.90366049568E+02 0.  0.
         13    1    3    3    0    0 -0.41263079239E+02  0.10587067036E+02 -0.12812502208E+02  0.44484818462E+02  0.10566000000E+00 0. -1.
         22    1    1    0    0    0 -0.21338124521E+01 -0.29236950073E+02 -0.55523888028E+01  0.29835908342E+02  0.00000000000E+00 0.  1.
</event>
<event>
 5    1  0.1324057E-009  0.9118800E+02  0.7818608E-02  0.1130116E+00
         25   -1    0    0    0    0  0.00000000000E+00  0.00000000000E+00  0.99999998245E-14  0.12500000000E+03  0.12500000000E+03 0.  0.
        -13    1    3    3    0    0 -0.15182709229E+02 -0.35884747168E+02  0.18962016375E+02  0.43333577834E+02  0.10566000000E+00 0.  1.
         23    2    1    0    0    0  0.18348428833E+02 -0.15617176494E+02 -0.16189391440E+02  0.95971437557E+02  0.91476004445E+02 0.  0.
         13    1    3    3    0    0  0.33531138063E+02  0.20267570673E+02 -0.35151407816E+02  0.52637859723E+02  0.10566000000E+00 0. -1.
         22    1    1    0    0    0 -0.18348428833E+02  0.15617176494E+02  0.16189391440E+02  0.29028562443E+02  0.00000000000E+00 0. -1.
</event>
<event>
 5    1  0.1324057E-009  0.9118800E+02  0.7818608E-02  0.1130116E+00
         25   -1    0    0    0    0  0.00000000000E+00  0.00000000000E+00  0.99999998245E-14  0.12500000000E+03  0.12500000000E+03 0.  0.
        -13    1    3    3    0    0  0.42919776241E+02 -0.20177049171E+02 -0.22287671644E+02  0.52402022644E+02  0.10566000000E+00 0. -1.
         23    2    1    0    0    0  0.26052072577E+02 -0.55362217552E+01 -0.37192802006E+02  0.79254347115E+02  0.64719292168E+02 0.  0.
         13    1    3    3    0    0 -0.16867703665E+02  0.14640827416E+02 -0.14905130361E+02  0.26852324470E+02  0.10566000000E+00 0.  1.
         22    1    1    0    0    0 -0.26052072577E+02  0.55362217552E+01  0.37192802006E+02  0.45745652885E+02  0.00000000000E+00 0. -1.
</event>
<event>
 5    1  0.1324057E-009  0.9118800E+02  0.7818608E-02  0.1130116E+00
         25   -1    0    0    0    0  0.00000000000E+00  0.00000000000E+00  0.99999998245E-14  0.12500000000E+03  0.12500000000E+03 0.  0.
        -13    1    3    3    0    0  0.55395934048E+02 -0.13674095702E+02  0.53978593462E+01  0.57313510204E+02  0.10566000000E+00 0.  1.
         23    2    1    0    0    0  0.25223321737E+02 -0.23621661056E+01 -0.15103288658E+02  0.95505846063E+02  0.90837555647E+02 0.  0.
         13    1    3    3    0    0 -0.30172612311E+02  0.11311929596E+02 -0.20501148005E+02  0.38192335860E+02  0.10566000000E+00 0. -1.
         22    1    1    0    0    0 -0.25223321737E+02  0.23621661056E+01  0.15103288658E+02  0.29494153937E+02  0.00000000000E+00 0.  1.
</event>
<event>
 5    1  0.1324057E-009  0.9118800E+02  0.7818608E-02  0.1130116E+00
         25   -1    0    0    0    0  0.00000000000E+00  0.00000000000E+00  0.99999998245E-14  0.12500000000E+03  0.12500000000E+03 0.  0.
        -13    1    3    3    0    0  0.33925572813E+02  0.51567926169E+01  0.28598975890E+02  0.44670455412E+02  0.10566000000E+00 0. -1.
         23    2    1    0    0    0  0.20877043887E+02  0.78783202511E+01 -0.19981844502E+02  0.95046819849E+02  0.90203685968E+02 0.  0.
         13    1    3    3    0    0 -0.13048528925E+02  0.27215276342E+01 -0.48580820392E+02  0.50376364436E+02  0.10566000000E+00 0.  1.
         22    1    1    0    0    0 -0.20877043887E+02 -0.78783202511E+01  0.19981844502E+02  0.29953180151E+02  0.00000000000E+00 0.  1.
</event>
<event>
 5    1  0.1324057E-009  0.9118800E+02  0.7818608E-02  0.1130116E+00
         25   -1    0    0    0    0  0.00000000000E+00  0.00000000000E+00  0.99999998245E-14  0.12500000000E+03  0.12500000000E+03 0.  0.
        -13    1    3    3    0    0  0.30029966919E+02 -0.15862324870E+02 -0.17974073944E+01  0.34009617769E+02  0.10566000000E+00 0. -1.
         23    2    1    0    0    0 -0.20824632181E+02  0.18426926950E+02  0.78685559667E+01  0.96101364820E+02  0.91653375305E+02 0.  0.
         13    1    3    3    0    0 -0.50854599100E+02  0.34289251820E+02  0.96659633610E+01  0.62091747050E+02  0.10566000000E+00 0.  1.
         22    1    1    0    0    0  0.20824632181E+02 -0.18426926950E+02 -0.78685559667E+01  0.28898635180E+02  0.00000000000E+00 0.  1.
</event>
<event>
 5    1  0.1324057E-009  0.9118800E+02  0.7818608E-02  0.1130116E+00
         25   -1    0    0    0    0  0.00000000000E+00  0.00000000000E+00  0.99999998245E-14  0.12500000000E+03  0.12500000000E+03 0.  0.
        -13    1    3    3    0    0 -0.12167734905E+02  0.32244017136E+02 -0.21491122771E+02  0.40615390381E+02  0.10566000000E+00 0.  1.
         23    2    1    0    0    0  0.18866173351E+02 -0.13647671368E+02 -0.16945761827E+02  0.96201557775E+02  0.91789920164E+02 0.  0.
         13    1    3    3    0    0  0.31033908256E+02 -0.45891688504E+02  0.45453609444E+01  0.55586167394E+02  0.10566000000E+00 0. -1.
         22    1    1    0    0    0 -0.18866173351E+02  0.13647671368E+02  0.16945761827E+02  0.28798442225E+02  0.00000000000E+00 0. -1.
</event>
<event>
 5    1  0.1324057E-009  0.9118800E+02  0.7818608E-02  0.1130116E+00
         25   -1    0    0    0    0  0.00000000000E+00  0.00000000000E+00  0.99999998245E-14  0.12500000000E+03  0.12500000000E+03 0.  0.
        -13    1    3    3    0    0  0.31488654419E+02  0.25370857535E+01 -0.42216729579E+01  0.31871709208E+02  0.10566000000E+00 0. -1.
         23    2    1    0    0    0 -0.30717236738E+02  0.18070207226E+01 -0.28621971801E+01  0.94096826548E+02  0.88877481045E+02 0.  0.
         13    1    3    3    0    0 -0.62205891157E+02 -0.73006503089E+00  0.13594757778E+01  0.62225117340E+02  0.10566000000E+00 0.  1.
         22    1    1    0    0    0  0.30717236738E+02 -0.18070207226E+01  0.28621971801E+01  0.30903173452E+02  0.00000000000E+00 0.  1.
</event>
<event>
 5    1  0.1324057E-009  0.9118800E+02  0.7818608E-02  0.1130116E+00
         25   -1    0    0    0    0  0.00000000000E+00  0.00000000000E+00  0.99999998245E-14  0.12500000000E+03  0.12500000000E+03 0.  0.
        -13    1    3    3    0    0  0.25417302739E+01 -0.35950876922E+01  0.49462470307E+02  0.49658153220E+02  0.10566000000E+00 0. -1.
         23    2    1    0    0    0  0.28069128368E+02 -0.33998248539E+01  0.13742094356E+02  0.93563080087E+02  0.88123606495E+02 0.  0.
         13    1    3    3    0    0  0.25527398094E+02  0.19526283827E+00 -0.35720375951E+02  0.43904926866E+02  0.10566000000E+00 0.  1.
         22    1    1    0    0    0 -0.28069128368E+02  0.33998248539E+01 -0.13742094356E+02  0.31436919913E+02  0.00000000000E+00 0. -1.
</event>
<event>
 5    1  0.1324057E-009  0.9118800E+02  0.7818608E-02  0.1130116E+00
         25   -1    0    0    0    0  0.00000000000E+00  0.00000000000E+00  0.99999998245E-14  0.12500000000E+03  0.12500000000E+03 0.  0.
        -13    1    3    3    0    0 -0.33614593357E+00 -0.19915671673E+02  0.36257591510E+02  0.41368721015E+02  0.10566000000E+00 0. -1.
         23    2    1    0    0    0  0.30162403083E+02  0.90462300674E+01  0.66179060840E+01  0.92822344412E+02  0.87066561337E+02 0.  0.
         13    1    3    3    0    0  0.30498549017E+02  0.28961901740E+02 -0.29639685426E+02  0.51453623397E+02  0.10566000000E+00 0.  1.
         22    1    1    0    0    0 -0.30162403083E+02 -0.90462300674E+01 -0.66179060840E+01  0.32177655588E+02  0.00000000000E+00 0.  1.
</event>
<event>
 5    1  0.1324057E-009  0.9118800E+02  0.7818608E-02  0.1130116E+00
         25   -1    0    0    0    0  0.00000000000E+00  0.00000000000E+00  0.99999998245E-14  0.12500000000E+03  0.12500000000E+03 0.  0.
        -13    1    3    3    0    0  0.18084323743E+02 -0.32208017069E+02 -0.10771188384E+02  0.38476340679E+02  0.10566000000E+00 0.  1.
         23    2    1    0    0    0  0.84230160801E+01  0.24489889894E+02 -0.12974575272E+02  0.96033786744E+02  0.91561163634E+02 0.  0.
         13    1    3    3    0    0 -0.96613076632E+01  0.56697906963E+02 -0.22033868875E+01  0.57557446065E+02  0.10566000000E+00 0. -1.
         22    1    1    0    0    0 -0.84230160801E+01 -0.24489889894E+02  0.12974575272E+02  0.28966213256E+02  0.00000000000E+00 0. -1.
</event>
<event>
 5    1  0.1324057E-009  0.9118800E+02  0.7818608E-02  0.1130116E+00
         25   -1    0    0    0    0  0.00000000000E+00  0.00000000000E+00  0.99999998245E-14  0.12500000000E+03  0.12500000000E+03 0.  0.
        -13    1    3    3    0    0  0.20692936337E+02 -0.97276634352E+01 -0.46624455389E+02  0.51929529697E+02  0.10566000000E+00 0. -1.
         23    2    1    0    0    0  0.91449604800E+01 -0.25957746830E+02 -0.65075760376E+01  0.96719556783E+02  0.92492644009E+02 0.  0.
         13    1    3    3    0    0 -0.11547975857E+02 -0.16230083395E+02  0.40116879352E+02  0.44790027086E+02  0.10566000000E+00 0.  1.
         22    1    1    0    0    0 -0.91449604800E+01  0.25957746830E+02  0.65075760376E+01  0.28280443217E+02  0.00000000000E+00 0. -1.
</event>
<event>
 5    1  0.1324057E-009  0.9118800E+02  0.7818608E-02  0.1130116E+00
         25   -1    0    0    0    0  0.00000000000E+00  0.00000000000E+00  0.99999998245E-14  0.12500000000E+03  0.12500000000E+03 0.  0.
        -13    1    3    3    0    0 -0.16882235170E+02 -0.23359935912E+02  0.23383964668E+02  0.37114922036E+02  0.10566000000E+00 0.  1.
         23    2    1    0    0    0  0.30252296272E+02 -0.10931004523E+00 -0.26170033333E+00  0.94746374341E+02  0.89786377504E+02 0.  0.
         13    1    3    3    0    0  0.47134531442E+02  0.23250625867E+02 -0.23645665001E+02  0.57631452305E+02  0.10566000000E+00 0. -1.
         22    1    1    0    0    0 -0.30252296272E+02  0.10931004523E+00  0.26170033333E+00  0.30253625659E+02  0.00000000000E+00 0. -1.
</event>
<event>
 5    1  0.1324057E-009  0.9118800E+02  0.7818608E-02  0.1130116E+00
         25   -1    0    0    0    0  0.00000000000E+00  0.00000000000E+00  0.99999998245E-14  0.12500000000E+03  0.12500000000E+03 0.  0.
        -13    1    3    3    0    0  0.11517513842E+02 -0.41735088742E+02  0.42568047136E+02  0.60716723877E+02  0.10566000000E+00 0. -1.
         23    2    1    0    0    0  0.13137996488E+02 -0.12705642850E+02  0.22341618933E+02  0.96134999593E+02  0.91699236083E+02 0.  0.
         13    1    3    3    0    0  0.16204826459E+01  0.29029445892E+02 -0.20226428203E+02  0.35418275716E+02  0.10566000000E+00 0.  1.
         22    1    1    0    0    0 -0.13137996488E+02  0.12705642850E+02 -0.22341618933E+02  0.28865000407E+02  0.00000000000E+00 0. -1.
</event>
<event>
 5    1  0.1324057E-009  0.9118800E+02  0.7818608E-02  0.1130116E+00
         25   -1    0    0    0    0  0.00000000000E+00  0.00000000000E+00  0.99999998245E-14  0.12500000000E+03  0.12500000000E+03 0.  0.
        -13    1    3    3    0    0 -0.36934523802E+02  0.35314781664E+02  0.24798828074E+02  0.56800403963E+02  0.10566000000E+00 0.  1.
         23    2    1    0    0    0 -0.26669940822E+02  0.14227878103E+02 -0.46175349210E+01  0.94421578073E+02  0.89333053896E+02 0.  0.
         13    1    3    3    0    0  0.10264582980E+02 -0.21086903562E+02 -0.29416362995E+02  0.37621174110E+02  0.10566000000E+00 0. -1.
         22    1    1    0    0    0  0.26669940822E+02 -0.14227878103E+02  0.46175349210E+01  0.30578421927E+02  0.00000000000E+00 0.  1.
</event>
<event>
 5    1  0.1324057E-009  0.9118800E+02  0.7818608E-02  0.1130116E+00
         25   -1    0    0    0    0  0.00000000000E+00  0.00000000000E+00  0.99999998245E-14  0.12500000000E+03  0.12500000000E+03 0.  0.
        -13    1    3    3    0    0 -0.18770220401E+02  0.24127569771E+02  0.80545008612E+01  0.31612449211E+02  0.10566000000E+00 0. -1.
         23    2    1    0    0    0  0.14531631799E+02 -0.24906344050E+02 -0.11393694652E+02  0.93994991138E+02  0.88734141032E+02 0.  0.
         13    1    3    3    0    0  0.33301852201E+02 -0.49033913821E+02 -0.19448195514E+02  0.62382541927E+02  0.10566000000E+00 0.  1.
         22    1    1    0    0    0 -0.14531631799E+02  0.24906344050E+02  0.11393694652E+02  0.31005008862E+02  0.00000000000E+00 0.  1.
</event>
<event>
 5    1  0.1324057E-009  0.9118800E+02  0.7818608E-02  0.1130116E+00
         25   -1    0    0    0    0  0.00000000000E+00  0.00000000000E+00  0.99999998245E-14  0.12500000000E+03  0.12500000000E+03 0.  0.
        -13    1    3    3    0    0  0.21014545533E+02 -0.82973000038E+01  0.46230160174E+02  0.51455759493E+02  0.10566000000E+00 0. -1.
         23    2    1    0    0    0 -0.15896479077E+02  0.16724998433E+01  0.25381966764E+02  0.95004341321E+02  0.90144802015E+02 0.  0.
         13    1    3    3    0    0 -0.36911024610E+02  0.99697998470E+01 -0.20848193410E+02  0.43548581828E+02  0.10566000000E+00 0.  1.
         22    1    1    0    0    0  0.15896479077E+02 -0.16724998433E+01 -0.25381966764E+02  0.29995658679E+02  0.00000000000E+00 0. -1.
</event>
<event>
 5    1  0.1324057E-009  0.9118800E+02  0.7818608E-02  0.1130116E+00
         25   -1    0    0    0    0  0.00000000000E+00  0.00000000000E+00  0.99999998245E-14  0.12500000000E+03  0.12500000000E+03 0.  0.
        -13    1    3    3    0    0  0.14187837901E+02 -0.42246058042E+02 -0.39146976596E+01  0.44736564309E+02  0.10566000000E+00 0. -1.
         23    2    1    0    0    0 -0.10535815180E+02 -0.59587462463E+01  0.24939746554E+02  0.97278149115E+02  0.93244502673E+02 0.  0.
         13    1    3    3    0    0 -0.24723653080E+02  0.36287311795E+02  0.28854444214E+02  0.52541584806E+02  0.10566000000E+00 0.  1.
         22    1    1    0    0    0  0.10535815180E+02  0.59587462463E+01 -0.24939746554E+02  0.27721850885E+02  0.00000000000E+00 0.  1.
</event>
<event>
 5    1  0.1324057E-009  0.9118800E+02  0.7818608E-02  0.1130116E+00
         25   -1    0    0    0    0  0.00000000000E+00  0.00000000000E+00  0.99999998245E-14  0.12500000000E+03  0.12500000000E+03 0.  0.
        -13    1    3    3    0    0  0.19727545995E+02 -0.21429268538E+02  0.11157969132E+02  0.31191361949E+02  0.10566000000E+00 0.  1.
         23    2    1    0    0    0 -0.30541998168E+02  0.11552072509E+02  0.79078416404E+01  0.91402410938E+02  0.85003545423E+02 0.  0.
         13    1    3    3    0    0 -0.50269544163E+02  0.32981341047E+02 -0.32501274918E+01  0.60211048989E+02  0.10566000000E+00 0. -1.
         22    1    1    0    0    0  0.30541998168E+02 -0.11552072509E+02 -0.79078416404E+01  0.33597589062E+02  0.00000000000E+00 0. -1.
</event>
<event>
 5    1  0.1324057E-009  0.9118800E+02  0.7818608E-02  0.1130116E+00
         25   -1    0    0    0    0  0.00000000000E+00  0.00000000000E+00  0.99999998245E-14  0.12500000000E+03  0.12500000000E+03 0.  0.
        -13    1    3    3    0    0  0.12158349746E+02 -0.20484853876E+01  0.34354386863E+02  0.36500093447E+02  0.10566000000E+00 0.  1.
         23    2    1    0    0    0  0.18284137656E+02  0.93585294188E+01 -0.22338989773E+02  0.94653299573E+02  0.89656705791E+02 0.  0.
         13    1    3    3    0    0  0.61257879108E+01  0.11407014806E+02 -0.56693376636E+02  0.58153206126E+02  0.10566000000E+00 0. -1.
         22    1    1    0    0    0 -0.18284137656E+02 -0.93585294188E+01  0.22338989773E+02  0.30346700427E+02  0.00000000000E+00 0. -1.
</event>
<event>
 5    1  0.1324057E-009  0.9118800E+02  0.7818608E-02  0.1130116E+00
         25   -1    0    0    0    0  0.00000000000E+00  0.00000000000E+00  0.99999998245E-14  0.12500000000E+03  0.12500000000E+03 0.  0.
        -13    1    3    3    0    0  0.41502852118E+02  0.32508780171E+02 -0.27947600934E+02  0.59668979245E+02  0.10566000000E+00 0.  1.
         23    2    1    0    0    0  0.16218387825E+02  0.22901298065E+02 -0.24668865987E+01  0.96829251231E+02  0.92640772923E+02 0.  0.
         13    1    3    3    0    0 -0.25284464293E+02 -0.96074821061E+01  0.25480714335E+02  0.37160271986E+02  0.10566000000E+00 0. -1.
         22    1    1    0    0    0 -0.16218387825E+02 -0.22901298065E+02  0.24668865987E+01  0.28170748769E+02  0.00000000000E+00 0.  1.
</event>
<event>
 5    1  0.1324057E-009  0.9118800E+02  0.7818608E-02  0.1130116E+00
         25   -1    0    0    0    0  0.00000000000E+00  0.00000000000E+00  0.99999998245E-14  0.12500000000E+03  0.12500000000E+03 0.  0.
        -13    1    3    3    0    0  0.10914274876E+02  0.18033360042E+02 -0.69018345037E+01  0.22180395714E+02  0.10566000000E+00 0.  1.
         23    2    1    0    0    0 -0.34446172096E+02 -0.17676627406E+01 -0.32243111082E+02  0.77784731115E+02  0.61815716276E+02 0.  0.
         13    1    3    3    0    0 -0.45360446972E+02 -0.19801022783E+02 -0.25341276579E+02  0.55604335401E+02  0.10566000000E+00 0. -1.
         22    1    1    0    0    0  0.34446172096E+02  0.17676627406E+01  0.32243111082E+02  0.47215268885E+02  0.00000000000E+00 0. -1.
</event>
<event>
 5    1  0.1324057E-009  0.9118800E+02  0.7818608E-02  0.1130116E+00
         25   -1    0    0    0    0  0.00000000000E+00  0.00000000000E+00  0.99999998245E-14  0.12500000000E+03  0.12500000000E+03 0.  0.
        -13    1    3    3    0    0 -0.33729060109E+02 -0.13314498434E+02  0.38079552855E+02  0.52583161506E+02  0.10566000000E+00 0. -1.
         23    2    1    0    0    0  0.32749353948E+01  0.33784577359E+01  0.30820794914E+02  0.93822113964E+02  0.88490273426E+02 0.  0.
         13    1    3    3    0    0  0.37003995504E+02  0.16692956170E+02 -0.72587579401E+01  0.41238952458E+02  0.10566000000E+00 0.  1.
         22    1    1    0    0    0 -0.32749353948E+01 -0.33784577359E+01 -0.30820794914E+02  0.31177886036E+02  0.00000000000E+00 0. -1.
</event>
<event>
 5    1  0.1324057E-009  0.9118800E+02  0.7818608E-02  0.1130116E+00
         25   -1    0    0    0    0  0.00000000000E+00  0.00000000000E+00  0.99999998245E-14  0.12500000000E+03  0.12500000000E+03 0.  0.
        -13    1    3    3    0    0 -0.24954185317E+02  0.43801122354E+02 -0.21726222822E+02  0.54893438646E+02  0.10566000000E+00 0.  1.
         23    2    1    0    0    0 -0.27997591706E+02  0.90414811665E+01 -0.82546860131E+00  0.95567111568E+02  0.90921822969E+02 0.  0.
         13    1    3    3    0    0 -0.30434063892E+01 -0.34759641187E+02  0.20900754221E+02  0.40673672922E+02  0.10566000000E+00 0. -1.
         22    1    1    0    0    0  0.27997591706E+02 -0.90414811665E+01  0.82546860131E+00  0.29432888432E+02  0.00000000000E+00 0.  1.
</event>
<event>
 5    1  0.1324057E-009  0.9118800E+02  0.7818608E-02  0.1130116E+00
         25   -1    0    0    0    0  0.00000000000E+00  0.00000000000E+00  0.99999998245E-14  0.12500000000E+03  0.12500000000E+03 0.  0.
        -13    1    3    3    0    0 -0.16465350487E+02  0.17820521131E+02  0.24541439627E+02  0.34510464545E+02  0.10566000000E+00 0.  1.
         23    2    1    0    0    0 -0.37430076176E+01 -0.25487330317E+02 -0.15573300710E+02  0.94897810583E+02  0.89996959091E+02 0.  0.
         13    1    3    3    0    0  0.12722342870E+02 -0.43307851448E+02 -0.40114740337E+02  0.60387346038E+02  0.10566000000E+00 0. -1.
         22    1    1    0    0    0  0.37430076176E+01  0.25487330317E+02  0.15573300710E+02  0.30102189417E+02  0.00000000000E+00 0. -1.
</event>
<event>
 5    1  0.1324057E-009  0.9118800E+02  0.7818608E-02  0.1130116E+00
         25   -1    0    0    0    0  0.00000000000E+00  0.00000000000E+00  0.99999998245E-14  0.12500000000E+03  0.12500000000E+03 0.  0.
        -13    1    3    3    0    0  0.33168777133E+02 -0.10334590428E+02  0.31827298262E+02  0.47116447389E+02  0.10566000000E+00 0.  1.
         23    2    1    0    0    0  0.90582663073E+01 -0.28218971734E+02 -0.53323643679E+01  0.94886935327E+02  0.89981852791E+02 0.  0.
         13    1    3    3    0    0 -0.24110510826E+02 -0.17884381307E+02 -0.37159662630E+02  0.47770487938E+02  0.10566000000E+00 0. -1.
         22    1    1    0    0    0 -0.90582663073E+01  0.28218971734E+02  0.53323643679E+01  0.30113064673E+02  0.00000000000E+00 0.  1.
</event>
<event>
 5    1  0.1324057E-009  0.9118800E+02  0.7818608E-02  0.1130116E+00
         25   -1    0    0    0    0  0.00000000000E+00  0.00000000000E+00  0.99999998245E-14  0.12500000000E+03  0.12500000000E+03 0.  0.
        -13    1    3    3    0    0  0.30980781086E+02  0.22857345493E+02  0.18391417225E+01  0.38544268652E+02  0.10566000000E+00 0. -1.
         23    2    1    0    0    0 -0.34252359892E+00 -0.19694691663E+02 -0.21089326402E+02  0.96142455230E+02  0.91709398686E+02 0.  0.
         13    1    3    3    0    0 -0.31323304685E+02 -0.42552037155E+02 -0.22928468124E+02  0.57598186577E+02  0.10566000000E+00 0.  1.
         22    1    1    0    0    0  0.34252359892E+00  0.19694691663E+02  0.21089326402E+02  0.28857544770E+02  0.00000000000E+00 0.  1.
</event>
<event>
 5    1  0.1324057E-009  0.9118800E+02  0.7818608E-02  0.1130116E+00
         25   -1    0    0    0    0  0.00000000000E+00  0.00000000000E+00  0.99999998245E-14  0.12500000000E+03  0.12500000000E+03 0.  0.
        -13    1    3    3    0    0  0.47781332237E+01 -0.17926383367E+02  0.52247512409E+02  0.55443660546E+02  0.10566000000E+00 0.  1.
         23    2    1    0    0    0 -0.12762113948E+02  0.67281533818E+01  0.24868618556E+02  0.96249560190E+02  0.91855266847E+02 0.  0.
         13    1    3    3    0    0 -0.17540247172E+02  0.24654536749E+02 -0.27378893853E+02  0.40805899645E+02  0.10566000000E+00 0. -1.
         22    1    1    0    0    0  0.12762113948E+02 -0.67281533818E+01 -0.24868618556E+02  0.28750439810E+02  0.00000000000E+00 0.  1.
</event>
<event>
 5    1  0.1324057E-009  0.9118800E+02  0.7818608E-02  0.1130116E+00
         25   -1    0    0    0    0  0.00000000000E+00  0.00000000000E+00  0.99999998245E-14  0.12500000000E+03  0.12500000000E+03 0.  0.
        -13    1    3    3    0    0  0.68854927427E+01 -0.40768103205E+02  0.32414900874E+02  0.52537464841E+02  0.10566000000E+00 0.  1.
         23    2    1    0    0    0  0.15789270140E+02  0.73524896782E+00  0.24692065353E+02  0.95682091923E+02  0.91079761642E+02 0.  0.
         13    1    3    3    0    0  0.89037773976E+01  0.41503352173E+02 -0.77228355202E+01  0.43144627082E+02  0.10566000000E+00 0. -1.
         22    1    1    0    0    0 -0.15789270140E+02 -0.73524896782E+00 -0.24692065353E+02  0.29317908077E+02  0.00000000000E+00 0. -1.
</event>
<event>
 5    1  0.1324057E-009  0.9118800E+02  0.7818608E-02  0.1130116E+00
         25   -1    0    0    0    0  0.00000000000E+00  0.00000000000E+00  0.99999998245E-14  0.12500000000E+03  0.12500000000E+03 0.  0.
        -13    1    3    3    0    0 -0.48179771886E+02  0.49718936819E+01  0.22979830065E+02  0.53610576378E+02  0.10566000000E+00 0. -1.
         23    2    1    0    0    0 -0.26742034663E+02 -0.57603543431E+01 -0.11267080344E+02  0.95415118734E+02  0.90712621412E+02 0.  0.
         13    1    3    3    0    0  0.21437737224E+02 -0.10732248025E+02 -0.34246910409E+02  0.41804542355E+02  0.10566000000E+00 0.  1.
         22    1    1    0    0    0  0.26742034663E+02  0.57603543431E+01  0.11267080344E+02  0.29584881266E+02  0.00000000000E+00 0. -1.
</event>
<event>
 5    1  0.1324057E-009  0.9118800E+02  0.7818608E-02  0.1130116E+00
         25   -1    0    0    0    0  0.00000000000E+00  0.00000000000E+00  0.99999998245E-14  0.12500000000E+03  0.12500000000E+03 0.  0.
        -13    1    3    3    0    0  0.52544341405E+02  0.25122084994E+02 -0.15630882879E+01  0.58262177930E+02  0.10566000000E+00 0.  1.
         23    2    1    0    0    0  0.19822390953E+02  0.18321896047E+02  0.13381085195E+02  0.94872396397E+02  0.89961653494E+02 0.  0.
         13    1    3    3    0    0 -0.32721950451E+02 -0.68001889477E+01  0.14944173483E+02  0.36610218467E+02  0.10566000000E+00 0. -1.
         22    1    1    0    0    0 -0.19822390953E+02 -0.18321896047E+02 -0.13381085195E+02  0.30127603603E+02  0.00000000000E+00 0.  1.
</event>
<event>
 5    1  0.1324057E-009  0.9118800E+02  0.7818608E-02  0.1130116E+00
         25   -1    0    0    0    0  0.00000000000E+00  0.00000000000E+00  0.99999998245E-14  0.12500000000E+03  0.12500000000E+03 0.  0.
        -13    1    3    3    0    0 -0.12512739505E+01 -0.27975575744E+02 -0.54057025949E+02  0.60879978180E+02  0.10566000000E+00 0. -1.
         23    2    1    0    0    0 -0.72257135266E+01 -0.57537869717E+01 -0.27346532345E+02  0.96135665055E+02  0.91700143205E+02 0.  0.
         13    1    3    3    0    0 -0.59744395761E+01  0.22221788772E+02  0.26710493604E+02  0.35255686875E+02  0.10566000000E+00 0.  1.
         22    1    1    0    0    0  0.72257135266E+01  0.57537869717E+01  0.27346532345E+02  0.28864334945E+02  0.00000000000E+00 0. -1.
</event>
<event>
 5    1  0.1324057E-009  0.9118800E+02  0.7818608E-02  0.1130116E+00
         25   -1    0    0    0    0  0.00000000000E+00  0.00000000000E+00  0.99999998245E-14  0.12500000000E+03  0.12500000000E+03 0.  0.
        -13    1    3    3    0    0  0.43774010033E+02 -0.11799450525E+02  0.58535280621E+01  0.45712864074E+02  0.10566000000E+00 0. -1.
         23    2    1    0    0    0  0.85509972899E+01  0.18796306347E+02  0.21755818889E+02  0.95004394613E+02  0.90144875913E+02 0.  0.
         13    1    3    3    0    0 -0.35223012743E+02  0.30595756872E+02  0.15902290827E+02  0.49291530539E+02  0.10566000000E+00 0.  1.
         22    1    1    0    0    0 -0.85509972899E+01 -0.18796306347E+02 -0.21755818889E+02  0.29995605387E+02  0.00000000000E+00 0.  1.
</event>
<event>
 5    1  0.1324057E-009  0.9118800E+02  0.7818608E-02  0.1130116E+00
         25   -1    0    0    0    0  0.00000000000E+00  0.00000000000E+00  0.99999998245E-14  0.12500000000E+03  0.12500000000E+03 0.  0.
        -13    1    3    3    0    0 -0.25379614127E+02  0.14827395523E+02 -0.28403416375E+02  0.40874707302E+02  0.10566000000E+00 0.  1.
         23    2    1    0    0    0 -0.13536776778E+02  0.51026456883E+01  0.24826246768E+02  0.96266329035E+02  0.91878083669E+02 0.  0.
         13    1    3    3    0    0  0.11842837349E+02 -0.97247498352E+01  0.53229663143E+02  0.55391621732E+02  0.10566000000E+00 0. -1.
         22    1    1    0    0    0  0.13536776778E+02 -0.51026456883E+01 -0.24826246768E+02  0.28733670965E+02  0.00000000000E+00 0. -1.
</event>
<event>
 5    1  0.1324057E-009  0.9118800E+02  0.7818608E-02  0.1130116E+00
         25   -1    0    0    0    0  0.00000000000E+00  0.00000000000E+00  0.99999998245E-14  0.12500000000E+03  0.12500000000E+03 0.  0.
        -13    1    3    3    0    0 -0.42558811781E+02 -0.20965750894E+02  0.11142049866E+02  0.48733680448E+02  0.10566000000E+00 0.  1.
         23    2    1    0    0    0 -0.24109172741E+01 -0.58165319924E+01  0.29082187104E+02  0.95244022898E+02  0.90476547926E+02 0.  0.
         13    1    3    3    0    0  0.40147894507E+02  0.15149218901E+02  0.17940137238E+02  0.46510342450E+02  0.10566000000E+00 0. -1.
         22    1    1    0    0    0  0.24109172741E+01  0.58165319924E+01 -0.29082187104E+02  0.29755977102E+02  0.00000000000E+00 0. -1.
</event>
<event>
 5    1  0.1324057E-009  0.9118800E+02  0.7818608E-02  0.1130116E+00
         25   -1    0    0    0    0  0.00000000000E+00  0.00000000000E+00  0.99999998245E-14  0.12500000000E+03  0.12500000000E+03 0.  0.
        -13    1    3    3    0    0 -0.33048266304E+02  0.31702458051E+02  0.41200133940E+02  0.61601103504E+02  0.10566000000E+00 0. -1.
         23    2    1    0    0    0 -0.20547903777E+02  0.93687931964E+01  0.18679986132E+02  0.95692449480E+02  0.91093975487E+02 0.  0.
         13    1    3    3    0    0  0.12500362527E+02 -0.22333664855E+02 -0.22520147808E+02  0.34091345977E+02  0.10566000000E+00 0.  1.
         22    1    1    0    0    0  0.20547903777E+02 -0.93687931964E+01 -0.18679986132E+02  0.29307550520E+02  0.00000000000E+00 0. -1.
</event>
<event>
 5    1  0.1324057E-009  0.9118800E+02  0.7818608E-02  0.1130116E+00
         25   -1    0    0    0    0  0.00000000000E+00  0.00000000000E+00  0.99999998245E-14  0.12500000000E+03  0.12500000000E+03 0.  0.
        -13    1    3    3    0    0  0.32258759920E+02  0.12182572261E+01 -0.39868240033E+02  0.51299117630E+02  0.10566000000E+00 0. -1.
         23    2    1    0    0    0  0.26435097674E+02 -0.16605026828E+02 -0.18051082447E+01  0.93730210734E+02  0.88360356967E+02 0.  0.
         13    1    3    3    0    0 -0.58236622466E+01 -0.17823284054E+02  0.38063131788E+02  0.42431093104E+02  0.10566000000E+00 0.  1.
         22    1    1    0    0    0 -0.26435097674E+02  0.16605026828E+02  0.18051082447E+01  0.31269789266E+02  0.00000000000E+00 0. -1.
</event>
<event>
 5    1  0.1324057E-009  0.9118800E+02  0.7818608E-02  0.1130116E+00
         25   -1    0    0    0    0  0.00000000000E+00  0.00000000000E+00  0.99999998245E-14  0.12500000000E+03  0.12500000000E+03 0.  0.
        -13    1    3    3    0    0 -0.39177341268E+02 -0.87810491914E+01 -0.68179326726E+01  0.40724271187E+02  0.10566000000E+00 0.  1.
         23    2    1    0    0    0  0.89708026929E+01 -0.13310499379E+02 -0.27369598794E+02  0.93270839393E+02  0.87708094543E+02 0.  0.
         13    1    3    3    0    0  0.48148143961E+02 -0.45294501876E+01 -0.20551666121E+02  0.52546568206E+02  0.10566000000E+00 0. -1.
         22    1    1    0    0    0 -0.89708026929E+01  0.13310499379E+02  0.27369598794E+02  0.31729160607E+02  0.00000000000E+00 0. -1.
</event>
<event>
 5    1  0.1324057E-009  0.9118800E+02  0.7818608E-02  0.1130116E+00
         25   -1    0    0    0    0  0.00000000000E+00  0.00000000000E+00  0.99999998245E-14  0.12500000000E+03  0.12500000000E+03 0.  0.
        -13    1    3    3    0    0 -0.16384498993E+02 -0.12541500182E+02  0.28483749486E+02  0.35172093809E+02  0.10566000000E+00 0.  1.
         23    2    1    0    0    0  0.13700395413E+02 -0.14239645647E+02 -0.22908312054E+02  0.94746750525E+02  0.89786901223E+02 0.  0.
         13    1    3    3    0    0  0.30084894406E+02 -0.16981454654E+01 -0.51392061540E+02  0.59574656716E+02  0.10566000000E+00 0. -1.
         22    1    1    0    0    0 -0.13700395413E+02  0.14239645647E+02  0.22908312054E+02  0.30253249475E+02  0.00000000000E+00 0. -1.
</event>
<event>
 5    1  0.1324057E-009  0.9118800E+02  0.7818608E-02  0.1130116E+00
         25   -1    0    0    0    0  0.00000000000E+00  0.00000000000E+00  0.99999998245E-14  0.12500000000E+03  0.12500000000E+03 0.  0.
        -13    1    3    3    0    0 -0.16600482015E+02  0.23169706957E+02 -0.46393795638E+02  0.54450039131E+02  0.10566000000E+00 0.  1.
         23    2    1    0    0    0  0.78824975046E+01 -0.39275107485E+01 -0.28601505359E+02  0.95073336030E+02  0.90240423356E+02 0.  0.
         13    1    3    3    0    0  0.24482979520E+02 -0.27097217705E+02  0.17792290279E+02  0.40623296899E+02  0.10566000000E+00 0. -1.
         22    1    1    0    0    0 -0.78824975046E+01  0.39275107485E+01  0.28601505359E+02  0.29926663970E+02  0.00000000000E+00 0.  1.
</event>
<event>
 5    1  0.1324057E-009  0.9118800E+02  0.7818608E-02  0.1130116E+00
         25   -1    0    0    0    0  0.00000000000E+00  0.00000000000E+00  0.99999998245E-14  0.12500000000E+03  0.12500000000E+03 0.  0.
        -13    1    3    3    0    0 -0.23135813234E+02 -0.32634750817E+02 -0.20318820043E+01  0.40055368221E+02  0.10566000000E+00 0. -1.
         23    2    1    0    0    0  0.17036639131E+02  0.46640138767E+00 -0.23170194549E+02  0.96236785323E+02  0.91837880696E+02 0.  0.
         13    1    3    3    0    0  0.40172452365E+02  0.33101152204E+02 -0.21138312545E+02  0.56181417101E+02  0.10566000000E+00 0.  1.
         22    1    1    0    0    0 -0.17036639131E+02 -0.46640138767E+00  0.23170194549E+02  0.28763214677E+02  0.00000000000E+00 0.  1.
</event>
<event>
 5    1  0.1324057E-009  0.9118800E+02  0.7818608E-02  0.1130116E+00
         25   -1    0    0    0    0  0.00000000000E+00  0.00000000000E+00  0.99999998245E-14  0.12500000000E+03  0.12500000000E+03 0.  0.
        -13    1    3    3    0    0 -0.83605877609E+01  0.32822185874E+02 -0.69347879840E+01  0.34573078568E+02  0.10566000000E+00 0.  1.
         23    2    1    0    0    0  0.50042052821E+01  0.36850198544E+02  0.32002807463E+02  0.75937194447E+02  0.57959456620E+02 0.  0.
         13    1    3    3    0    0  0.13364793043E+02  0.40280126698E+01  0.38937595447E+02  0.41364115878E+02  0.10566000000E+00 0. -1.
         22    1    1    0    0    0 -0.50042052821E+01 -0.36850198544E+02 -0.32002807463E+02  0.49062805553E+02  0.00000000000E+00 0.  1.
</event>
<event>
 5    1  0.1324057E-009  0.9118800E+02  0.7818608E-02  0.1130116E+00
         25   -1    0    0    0    0  0.00000000000E+00  0.00000000000E+00  0.99999998245E-14  0.12500000000E+03  0.12500000000E+03 0.  0.
        -13    1    3    3    0    0 -0.32219768410E+02 -0.17837214894E+02 -0.28525960826E+02  0.46583487597E+02  0.10566000000E+00 0.  1.
         23    2    1    0    0    0  0.26522910323E+01  0.16208296733E+02 -0.24525581736E+02  0.95483094840E+02  0.90806242682E+02 0.  0.
         13    1    3    3    0    0  0.34872059443E+02  0.34045511627E+02  0.40003790901E+01  0.48899607244E+02  0.10566000000E+00 0. -1.
         22    1    1    0    0    0 -0.26522910323E+01 -0.16208296733E+02  0.24525581736E+02  0.29516905160E+02  0.00000000000E+00 0. -1.
</event>
<event>
 5    1  0.1324057E-009  0.9118800E+02  0.7818608E-02  0.1130116E+00
         25   -1    0    0    0    0  0.00000000000E+00  0.00000000000E+00  0.99999998245E-14  0.12500000000E+03  0.12500000000E+03 0.  0.
        -13    1    3    3    0    0  0.20707096544E+02 -0.43021193398E+01 -0.53904841761E+02  0.57905398776E+02  0.10566000000E+00 0. -1.
         23    2    1    0    0    0 -0.68845463919E+01 -0.11468961243E+01 -0.28879838706E+02  0.95288765872E+02  0.90538342529E+02 0.  0.
         13    1    3    3    0    0 -0.27591642936E+02  0.31552232155E+01  0.25025003055E+02  0.37383367095E+02  0.10566000000E+00 0.  1.
         22    1    1    0    0    0  0.68845463919E+01  0.11468961243E+01  0.28879838706E+02  0.29711234128E+02  0.00000000000E+00 0. -1.
</event>
<event>
 5    1  0.1324057E-009  0.9118800E+02  0.7818608E-02  0.1130116E+00
         25   -1    0    0    0    0  0.00000000000E+00  0.00000000000E+00  0.99999998245E-14  0.12500000000E+03  0.12500000000E+03 0.  0.
        -13    1    3    3    0    0  0.49560088183E+02  0.13604000636E+02 -0.32858413736E+02  0.60999653207E+02  0.10566000000E+00 0. -1.
         23    2    1    0    0    0  0.20638879215E+02  0.15447706377E+02 -0.13025596173E+02  0.96116421219E+02  0.91673907437E+02 0.  0.
         13    1    3    3    0    0 -0.28921208969E+02  0.18437057410E+01  0.19832817564E+02  0.35116768012E+02  0.10566000000E+00 0.  1.
         22    1    1    0    0    0 -0.20638879215E+02 -0.15447706377E+02  0.13025596173E+02  0.28883578781E+02  0.00000000000E+00 0. -1.
</event>
<event>
 5    1  0.1324057E-009  0.9118800E+02  0.7818608E-02  0.1130116E+00
         25   -1    0    0    0    0  0.00000000000E+00  0.00000000000E+00  0.99999998245E-14  0.12500000000E+03  0.12500000000E+03 0.  0.
        -13    1    3    3    0    0  0.44154733061E+01  0.30821484542E+02 -0.23131105736E+02  0.38788136466E+02  0.10566000000E+00 0. -1.
         23    2    1    0    0    0  0.10967918520E+02  0.16591626005E+01  0.26245422641E+02  0.96506662764E+02  0.92204477609E+02 0.  0.
         13    1    3    3    0    0  0.65524452144E+01 -0.29162321942E+02  0.49376528378E+02  0.57718526298E+02  0.10566000000E+00 0.  1.
         22    1    1    0    0    0 -0.10967918520E+02 -0.16591626005E+01 -0.26245422641E+02  0.28493337236E+02  0.00000000000E+00 0.  1.
</event>
<event>
 5    1  0.1324057E-009  0.9118800E+02  0.7818608E-02  0.1130116E+00
         25   -1    0    0    0    0  0.00000000000E+00  0.00000000000E+00  0.99999998245E-14  0.12500000000E+03  0.12500000000E+03 0.  0.
        -13    1    3    3    0    0 -0.84988836296E+01  0.16092089473E+02  0.39480026200E+02  0.43472635064E+02  0.10566000000E+00 0.  1.
         23    2    1    0    0    0 -0.24333178641E+02  0.11115676111E+02 -0.10594700736E+02  0.96226583070E+02  0.91823993419E+02 0.  0.
         13    1    3    3    0    0 -0.15834295011E+02 -0.49764133619E+01 -0.50074726936E+02  0.52753948006E+02  0.10566000000E+00 0. -1.
         22    1    1    0    0    0  0.24333178641E+02 -0.11115676111E+02  0.10594700736E+02  0.28773416930E+02  0.00000000000E+00 0. -1.
</event>
<event>
 5    1  0.1324057E-009  0.9118800E+02  0.7818608E-02  0.1130116E+00
         25   -1    0    0    0    0  0.00000000000E+00  0.00000000000E+00  0.99999998245E-14  0.12500000000E+03  0.12500000000E+03 0.  0.
        -13    1    3    3    0    0  0.30367394502E+02  0.22723783460E+00 -0.30910713768E+02  0.43332593686E+02  0.10566000000E+00 0. -1.
         23    2    1    0    0    0  0.21803912507E+02 -0.13112853861E+02  0.17398875740E+02  0.94176657968E+02  0.88989687561E+02 0.  0.
         13    1    3    3    0    0 -0.85634819948E+01 -0.13340091695E+02  0.48309589508E+02  0.50844064283E+02  0.10566000000E+00 0.  1.
         22    1    1    0    0    0 -0.21803912507E+02  0.13112853861E+02 -0.17398875740E+02  0.30823342032E+02  0.00000000000E+00 0.  1.
</event>
<event>
 5    1  0.1324057E-009  0.9118800E+02  0.7818608E-02  0.1130116E+00
         25   -1    0    0    0    0  0.00000000000E+00  0.00000000000E+00  0.99999998245E-14  0.12500000000E+03  0.12500000000E+03 0.  0.
        -13    1    3    3    0    0  0.38297298761E+02 -0.42681125843E+02  0.14751213863E+02  0.59211241079E+02  0.10566000000E+00 0. -1.
         23    2    1    0    0    0  0.21051171468E+02 -0.17248483456E+02 -0.70480591677E+01  0.96887064548E+02  0.92718747495E+02 0.  0.
         13    1    3    3    0    0 -0.17246127293E+02  0.25432642387E+02 -0.21799273031E+02  0.37675823469E+02  0.10566000000E+00 0.  1.
         22    1    1    0    0    0 -0.21051171468E+02  0.17248483456E+02  0.70480591677E+01  0.28112935452E+02  0.00000000000E+00 0. -1.
</event>
<event>
 5    1  0.1324057E-009  0.9118800E+02  0.7818608E-02  0.1130116E+00
         25   -1    0    0    0    0  0.00000000000E+00  0.00000000000E+00  0.99999998245E-14  0.12500000000E+03  0.12500000000E+03 0.  0.
        -13    1    3    3    0    0  0.38891093522E+02  0.14630913228E+02 -0.29062558023E+02  0.50707240313E+02  0.10566000000E+00 0.  1.
         23    2    1    0    0    0  0.20569542019E+02 -0.16947181951E+02  0.14806873090E+01  0.98307201910E+02  0.94613954983E+02 0.  0.
         13    1    3    3    0    0 -0.18321551503E+02 -0.31578095179E+02  0.30543245332E+02  0.47599961597E+02  0.10566000000E+00 0. -1.
         22    1    1    0    0    0 -0.20569542019E+02  0.16947181951E+02 -0.14806873090E+01  0.26692798090E+02  0.00000000000E+00 0.  1.
</event>
<event>
 5    1  0.1324057E-009  0.9118800E+02  0.7818608E-02  0.1130116E+00
         25   -1    0    0    0    0  0.00000000000E+00  0.00000000000E+00  0.99999998245E-14  0.12500000000E+03  0.12500000000E+03 0.  0.
        -13    1    3    3    0    0 -0.40417756070E+02  0.33963245701E+02 -0.25194844990E+02  0.58496909682E+02  0.10566000000E+00 0. -1.
         23    2    1    0    0    0 -0.15912085302E+02  0.69896803594E+01 -0.24518673647E+02  0.94946456987E+02  0.90064500480E+02 0.  0.
         13    1    3    3    0    0  0.24505670767E+02 -0.26973565342E+02  0.67617134270E+00  0.36449547305E+02  0.10566000000E+00 0.  1.
         22    1    1    0    0    0  0.15912085302E+02 -0.69896803594E+01  0.24518673647E+02  0.30053543013E+02  0.00000000000E+00 0. -1.
</event>
<event>
 5    1  0.1324057E-009  0.9118800E+02  0.7818608E-02  0.1130116E+00
         25   -1    0    0    0    0  0.00000000000E+00  0.00000000000E+00  0.99999998245E-14  0.12500000000E+03  0.12500000000E+03 0.  0.
        -13    1    3    3    0    0  0.38743332369E+02  0.34642308175E+02  0.32705987070E+01  0.52075361724E+02  0.10566000000E+00 0. -1.
         23    2    1    0    0    0  0.27823229084E+02 -0.38710850380E+01  0.14131875479E+02  0.93554375812E+02  0.88111258945E+02 0.  0.
         13    1    3    3    0    0 -0.10920103285E+02 -0.38513393213E+02  0.10861276772E+02  0.41479014088E+02  0.10566000000E+00 0.  1.
         22    1    1    0    0    0 -0.27823229084E+02  0.38710850380E+01 -0.14131875479E+02  0.31445624188E+02  0.00000000000E+00 0. -1.
</event>
<event>
 5    1  0.1324057E-009  0.9118800E+02  0.7818608E-02  0.1130116E+00
         25   -1    0    0    0    0  0.00000000000E+00  0.00000000000E+00  0.99999998245E-14  0.12500000000E+03  0.12500000000E+03 0.  0.
        -13    1    3    3    0    0  0.47519169461E+02 -0.21858485738E+02  0.16591363736E+02  0.54873940807E+02  0.10566000000E+00 0.  1.
         23    2    1    0    0    0  0.27753612179E+02 -0.11644779186E+01 -0.11464041966E+02  0.94949321871E+02  0.90068476549E+02 0.  0.
         13    1    3    3    0    0 -0.19765557282E+02  0.20694007820E+02 -0.28055405702E+02  0.40075381064E+02  0.10566000000E+00 0. -1.
         22    1    1    0    0    0 -0.27753612179E+02  0.11644779186E+01  0.11464041966E+02  0.30050678129E+02  0.00000000000E+00 0.  1.
</event>
<event>
 5    1  0.1324057E-009  0.9118800E+02  0.7818608E-02  0.1130116E+00
         25   -1    0    0    0    0  0.00000000000E+00  0.00000000000E+00  0.99999998245E-14  0.12500000000E+03  0.12500000000E+03 0.  0.
        -13    1    3    3    0    0 -0.27363129120E+02 -0.34510490178E+02 -0.37533078518E+02  0.57865861392E+02  0.10566000000E+00 0.  1.
         23    2    1    0    0    0  0.20121165919E+01 -0.14633929684E+02 -0.25883161131E+02  0.95198346668E+02  0.90413420834E+02 0.  0.
         13    1    3    3    0    0  0.29375245712E+02  0.19876560494E+02  0.11649917387E+02  0.37332485276E+02  0.10566000000E+00 0. -1.
         22    1    1    0    0    0 -0.20121165919E+01  0.14633929684E+02  0.25883161131E+02  0.29801653332E+02  0.00000000000E+00 0.  1.
</event>
<event>
 5    1  0.1324057E-009  0.9118800E+02  0.7818608E-02  0.1130116E+00
         25   -1    0    0    0    0  0.00000000000E+00  0.00000000000E+00  0.99999998245E-14  0.12500000000E+03  0.12500000000E+03 0.  0.
        -13    1    3    3    0    0  0.25434330409E+02  0.46598846154E+02  0.17522896772E+02  0.55905462180E+02  0.10566000000E+00 0. -1.
         23    2    1    0    0    0 -0.46533545694E+01  0.33686732947E+02  0.71593861376E+01  0.90247928188E+02  0.83288546914E+02 0.  0.
         13    1    3    3    0    0 -0.30087684978E+02 -0.12912113207E+02 -0.10363510634E+02  0.34342466008E+02  0.10566000000E+00 0.  1.
         22    1    1    0    0    0  0.46533545694E+01 -0.33686732947E+02 -0.71593861376E+01  0.34752071812E+02  0.00000000000E+00 0. -1.
</event>
<event>
 5    1  0.1324057E-009  0.9118800E+02  0.7818608E-02  0.1130116E+00
         25   -1    0    0    0    0  0.00000000000E+00  0.00000000000E+00  0.99999998245E-14  0.12500000000E+03  0.12500000000E+03 0.  0.
        -13    1    3    3    0    0  0.41019538766E+02 -0.40110894630E+01 -0.79683259901E+01  0.41978527635E+02  0.10566000000E+00 0. -1.
         23    2    1    0    0    0  0.35601317871E+01 -0.67289882466E+01  0.29203109691E+02  0.94820943739E+02  0.89890132577E+02 0.  0.
         13    1    3    3    0    0 -0.37459406979E+02 -0.27178987836E+01  0.37171435681E+02  0.52842416104E+02  0.10566000000E+00 0.  1.
         22    1    1    0    0    0 -0.35601317871E+01  0.67289882466E+01 -0.29203109691E+02  0.30179056261E+02  0.00000000000E+00 0.  1.
</event>
<event>
 5    1  0.1324057E-009  0.9118800E+02  0.7818608E-02  0.1130116E+00
         25   -1    0    0    0    0  0.00000000000E+00  0.00000000000E+00  0.99999998245E-14  0.12500000000E+03  0.12500000000E+03 0.  0.
        -13    1    3    3    0    0 -0.10637370711E+02 -0.33055982028E+01  0.33283274378E+02  0.35097979322E+02  0.10566000000E+00 0.  1.
         23    2    1    0    0    0 -0.11714314210E+02  0.50699825507E+01 -0.26558823874E+02  0.95533052313E+02  0.90874985987E+02 0.  0.
         13    1    3    3    0    0 -0.10769434987E+01  0.83755807535E+01 -0.59842098251E+02  0.60435072991E+02  0.10566000000E+00 0. -1.
         22    1    1    0    0    0  0.11714314210E+02 -0.50699825507E+01  0.26558823874E+02  0.29466947687E+02  0.00000000000E+00 0. -1.
</event>
<event>
 5    1  0.1324057E-009  0.9118800E+02  0.7818608E-02  0.1130116E+00
         25   -1    0    0    0    0  0.00000000000E+00  0.00000000000E+00  0.99999998245E-14  0.12500000000E+03  0.12500000000E+03 0.  0.
        -13    1    3    3    0    0 -0.41876248659E+02  0.19707798936E+02  0.22432863709E+02  0.51432111359E+02  0.10566000000E+00 0.  1.
         23    2    1    0    0    0  0.34932235491E+01  0.20876343622E+02  0.18326341618E+02  0.97002158460E+02  0.92873783250E+02 0.  0.
         13    1    3    3    0    0  0.45369472208E+02  0.11685446858E+01 -0.41065220911E+01  0.45570047101E+02  0.10566000000E+00 0. -1.
         22    1    1    0    0    0 -0.34932235491E+01 -0.20876343622E+02 -0.18326341618E+02  0.27997841540E+02  0.00000000000E+00 0. -1.
</event>
<event>
 5    1  0.1324057E-009  0.9118800E+02  0.7818608E-02  0.1130116E+00
         25   -1    0    0    0    0  0.00000000000E+00  0.00000000000E+00  0.99999998245E-14  0.12500000000E+03  0.12500000000E+03 0.  0.
        -13    1    3    3    0    0  0.29661394086E+02  0.17760413762E+02  0.50206682495E+02  0.60958614873E+02  0.10566000000E+00 0. -1.
         23    2    1    0    0    0  0.52016261767E+01  0.11215592806E+02  0.26996021898E+02  0.95307717582E+02  0.90564504059E+02 0.  0.
         13    1    3    3    0    0 -0.24459767909E+02 -0.65448209554E+01 -0.23210660597E+02  0.34349102709E+02  0.10566000000E+00 0.  1.
         22    1    1    0    0    0 -0.52016261767E+01 -0.11215592806E+02 -0.26996021898E+02  0.29692282418E+02  0.00000000000E+00 0. -1.
</event>
<event>
 5    1  0.1324057E-009  0.9118800E+02  0.7818608E-02  0.1130116E+00
         25   -1    0    0    0    0  0.00000000000E+00  0.00000000000E+00  0.99999998245E-14  0.12500000000E+03  0.12500000000E+03 0.  0.
        -13    1    3    3    0    0  0.34421547666E+02  0.15275744982E+02  0.25080661439E+02  0.45246459207E+02  0.10566000000E+00 0. -1.
         23    2    1    0    0    0 -0.15289259420E+02  0.14967900979E+02  0.20828560448E+02  0.95139851915E+02  0.90332513409E+02 0.  0.
         13    1    3    3    0    0 -0.49710807086E+02 -0.30784400301E+00 -0.42521009912E+01  0.49893392708E+02  0.10566000000E+00 0.  1.
         22    1    1    0    0    0  0.15289259420E+02 -0.14967900979E+02 -0.20828560448E+02  0.29860148085E+02  0.00000000000E+00 0. -1.
</event>
<event>
 5    1  0.1324057E-009  0.9118800E+02  0.7818608E-02  0.1130116E+00
         25   -1    0    0    0    0  0.00000000000E+00  0.00000000000E+00  0.99999998245E-14  0.12500000000E+03  0.12500000000E+03 0.  0.
        -13    1    3    3    0    0  0.19958848958E+02  0.26932181271E+02 -0.11298827777E+02  0.35374746825E+02  0.10566000000E+00 0.  1.
         23    2    1    0    0    0 -0.77438342781E+01 -0.12307689837E+02  0.25338222282E+02  0.95785761915E+02  0.91221929813E+02 0.  0.
         13    1    3    3    0    0 -0.27702683237E+02 -0.39239871109E+02  0.36637050059E+02  0.60411015090E+02  0.10566000000E+00 0. -1.
         22    1    1    0    0    0  0.77438342781E+01  0.12307689837E+02 -0.25338222282E+02  0.29214238085E+02  0.00000000000E+00 0. -1.
</event>
<event>
 5    1  0.1324057E-009  0.9118800E+02  0.7818608E-02  0.1130116E+00
         25   -1    0    0    0    0  0.00000000000E+00  0.00000000000E+00  0.99999998245E-14  0.12500000000E+03  0.12500000000E+03 0.  0.
        -13    1    3    3    0    0  0.25140294057E+02 -0.49484550250E+02  0.17966452680E+02  0.58340035007E+02  0.10566000000E+00 0.  1.
         23    2    1    0    0    0  0.45265613575E+01 -0.22733467076E+02  0.22835543209E+02  0.92461371930E+02  0.86546767603E+02 0.  0.
         13    1    3    3    0    0 -0.20613732699E+02  0.26751083174E+02  0.48690905290E+01  0.34121336923E+02  0.10566000000E+00 0. -1.
         22    1    1    0    0    0 -0.45265613575E+01  0.22733467076E+02 -0.22835543209E+02  0.32538628070E+02  0.00000000000E+00 0.  1.
</event>
<event>
 5    1  0.1324057E-009  0.9118800E+02  0.7818608E-02  0.1130116E+00
         25   -1    0    0    0    0  0.00000000000E+00  0.00000000000E+00  0.99999998245E-14  0.12500000000E+03  0.12500000000E+03 0.  0.
        -13    1    3    3    0    0 -0.40654183714E+02 -0.19253464588E+02  0.24390466321E+02  0.51169957626E+02  0.10566000000E+00 0. -1.
         23    2    1    0    0    0 -0.23555414578E+02  0.17368139357E+02  0.99793903703E+01  0.94079164745E+02  0.88852637475E+02 0.  0.
         13    1    3    3    0    0  0.17098769135E+02  0.36621603945E+02 -0.14411075951E+02  0.42909207119E+02  0.10566000000E+00 0.  1.
         22    1    1    0    0    0  0.23555414578E+02 -0.17368139357E+02 -0.99793903703E+01  0.30920835255E+02  0.00000000000E+00 0. -1.
</event>
<event>
 5    1  0.1324057E-009  0.9118800E+02  0.7818608E-02  0.1130116E+00
         25   -1    0    0    0    0  0.00000000000E+00  0.00000000000E+00  0.99999998245E-14  0.12500000000E+03  0.12500000000E+03 0.  0.
        -13    1    3    3    0    0 -0.24468356601E+02  0.29069565333E+02  0.28208793427E+01  0.38101294305E+02  0.10566000000E+00 0.  1.
         23    2    1    0    0    0 -0.96239649774E+01 -0.26786153884E+02 -0.38439264186E+01  0.96279023135E+02  0.91895352351E+02 0.  0.
         13    1    3    3    0    0  0.14844391624E+02 -0.55855719217E+02 -0.66648057613E+01  0.58177728830E+02  0.10566000000E+00 0. -1.
         22    1    1    0    0    0  0.96239649774E+01  0.26786153884E+02  0.38439264186E+01  0.28720976865E+02  0.00000000000E+00 0. -1.
</event>
<event>
 5    1  0.1324057E-009  0.9118800E+02  0.7818608E-02  0.1130116E+00
         25   -1    0    0    0    0  0.00000000000E+00  0.00000000000E+00  0.99999998245E-14  0.12500000000E+03  0.12500000000E+03 0.  0.
        -13    1    3    3    0    0  0.44224784010E+02  0.26470603445E+02 -0.19169984640E+02  0.54991125126E+02  0.10566000000E+00 0.  1.
         23    2    1    0    0    0  0.24446622702E+02 -0.91917813937E+01 -0.11392075869E+02  0.96506042758E+02  0.92203637073E+02 0.  0.
         13    1    3    3    0    0 -0.19778161308E+02 -0.35662384839E+02  0.77779087707E+01  0.41514917632E+02  0.10566000000E+00 0. -1.
         22    1    1    0    0    0 -0.24446622702E+02  0.91917813937E+01  0.11392075869E+02  0.28493957242E+02  0.00000000000E+00 0.  1.
</event>
<event>
 5    1  0.1324057E-009  0.9118800E+02  0.7818608E-02  0.1130116E+00
         25   -1    0    0    0    0  0.00000000000E+00  0.00000000000E+00  0.99999998245E-14  0.12500000000E+03  0.12500000000E+03 0.  0.
        -13    1    3    3    0    0 -0.72788905621E+01  0.80280103840E+01  0.43434201142E+02  0.44765747971E+02  0.10566000000E+00 0.  1.
         23    2    1    0    0    0 -0.25276993508E+02 -0.13200265104E+02 -0.15628555693E+00  0.96483376344E+02  0.92172903209E+02 0.  0.
         13    1    3    3    0    0 -0.17998102945E+02 -0.21228275488E+02 -0.43590486699E+02  0.51717628373E+02  0.10566000000E+00 0. -1.
         22    1    1    0    0    0  0.25276993508E+02  0.13200265104E+02  0.15628555693E+00  0.28516623656E+02  0.00000000000E+00 0. -1.
</event>
<event>
 5    1  0.1324057E-009  0.9118800E+02  0.7818608E-02  0.1130116E+00
         25   -1    0    0    0    0  0.00000000000E+00  0.00000000000E+00  0.99999998245E-14  0.12500000000E+03  0.12500000000E+03 0.  0.
        -13    1    3    3    0    0 -0.80604599733E+01 -0.48121694010E+02 -0.25961844118E+02  0.55269313036E+02  0.10566000000E+00 0.  1.
         23    2    1    0    0    0 -0.11469020040E+02 -0.89940502125E+01 -0.26731975756E+02  0.94552834488E+02  0.89516527088E+02 0.  0.
         13    1    3    3    0    0 -0.34085600665E+01  0.39127643798E+02 -0.77013163783E+00  0.39283521452E+02  0.10566000000E+00 0. -1.
         22    1    1    0    0    0  0.11469020040E+02  0.89940502125E+01  0.26731975756E+02  0.30447165512E+02  0.00000000000E+00 0.  1.
</event>
<event>
 5    1  0.1324057E-009  0.9118800E+02  0.7818608E-02  0.1130116E+00
         25   -1    0    0    0    0  0.00000000000E+00  0.00000000000E+00  0.99999998245E-14  0.12500000000E+03  0.12500000000E+03 0.  0.
        -13    1    3    3    0    0  0.25203107654E+02 -0.35583020012E+02 -0.23335848121E+02  0.49456252589E+02  0.10566000000E+00 0.  1.
         23    2    1    0    0    0  0.83077128267E+01  0.73529589317E+01 -0.27066975388E+02  0.95747559861E+02  0.91169567100E+02 0.  0.
         13    1    3    3    0    0 -0.16895394828E+02  0.42935978943E+02 -0.37311272669E+01  0.46291307272E+02  0.10566000000E+00 0. -1.
         22    1    1    0    0    0 -0.83077128267E+01 -0.73529589317E+01  0.27066975388E+02  0.29252440139E+02  0.00000000000E+00 0. -1.
</event>
<event>
 5    1  0.1324057E-009  0.9118800E+02  0.7818608E-02  0.1130116E+00
         25   -1    0    0    0    0  0.00000000000E+00  0.00000000000E+00  0.99999998245E-14  0.12500000000E+03  0.12500000000E+03 0.  0.
        -13    1    3    3    0    0  0.12416701540E+01 -0.15135863571E+02 -0.27794768947E+02  0.31673276680E+02  0.10566000000E+00 0.  1.
         23    2    1    0    0    0 -0.14565553468E+02  0.22326147265E+02  0.17939134315E+02  0.92868633090E+02  0.87132991871E+02 0.  0.
         13    1    3    3    0    0 -0.15807223622E+02  0.37462010836E+02  0.45733903262E+02  0.61195356410E+02  0.10566000000E+00 0. -1.
         22    1    1    0    0    0  0.14565553468E+02 -0.22326147265E+02 -0.17939134315E+02  0.32131366910E+02  0.00000000000E+00 0. -1.
</event>
<event>
 5    1  0.1324057E-009  0.9118800E+02  0.7818608E-02  0.1130116E+00
         25   -1    0    0    0    0  0.00000000000E+00  0.00000000000E+00  0.99999998245E-14  0.12500000000E+03  0.12500000000E+03 0.  0.
        -13    1    3    3    0    0  0.10076337147E+02  0.28545578793E+02 -0.18901433107E+02  0.35688345107E+02  0.10566000000E+00 0.  1.
         23    2    1    0    0    0  0.55481375410E+01 -0.28847431126E+02 -0.26775961659E+01  0.95502107974E+02  0.90832411580E+02 0.  0.
         13    1    3    3    0    0 -0.45281996065E+01 -0.57393009919E+02  0.16223836941E+02  0.59813762867E+02  0.10566000000E+00 0. -1.
         22    1    1    0    0    0 -0.55481375410E+01  0.28847431126E+02  0.26775961659E+01  0.29497892026E+02  0.00000000000E+00 0. -1.
</event>
<event>
 5    1  0.1324057E-009  0.9118800E+02  0.7818608E-02  0.1130116E+00
         25   -1    0    0    0    0  0.00000000000E+00  0.00000000000E+00  0.99999998245E-14  0.12500000000E+03  0.12500000000E+03 0.  0.
        -13    1    3    3    0    0 -0.20857662432E+02 -0.35476969719E+00 -0.46929379122E+02  0.51357041703E+02  0.10566000000E+00 0. -1.
         23    2    1    0    0    0 -0.26908632999E+02 -0.11808605695E+02 -0.50635685900E+01  0.95181257149E+02  0.90389790835E+02 0.  0.
         13    1    3    3    0    0 -0.60509705676E+01 -0.11453835998E+02  0.41865810532E+02  0.43824215446E+02  0.10566000000E+00 0.  1.
         22    1    1    0    0    0  0.26908632999E+02  0.11808605695E+02  0.50635685900E+01  0.29818742851E+02  0.00000000000E+00 0. -1.
</event>
<event>
 5    1  0.1324057E-009  0.9118800E+02  0.7818608E-02  0.1130116E+00
         25   -1    0    0    0    0  0.00000000000E+00  0.00000000000E+00  0.99999998245E-14  0.12500000000E+03  0.12500000000E+03 0.  0.
        -13    1    3    3    0    0 -0.32238222049E+02 -0.29298672615E+01 -0.29039731566E+02  0.43487978299E+02  0.10566000000E+00 0.  1.
         23    2    1    0    0    0  0.34864596282E+01 -0.30705382035E+02 -0.11169929256E+02  0.92140553775E+02  0.86082161008E+02 0.  0.
         13    1    3    3    0    0  0.35724681677E+02 -0.27775514773E+02  0.17869802311E+02  0.48652575476E+02  0.10566000000E+00 0. -1.
         22    1    1    0    0    0 -0.34864596282E+01  0.30705382035E+02  0.11169929256E+02  0.32859446225E+02  0.00000000000E+00 0. -1.
</event>
<event>
 5    1  0.1324057E-009  0.9118800E+02  0.7818608E-02  0.1130116E+00
         25   -1    0    0    0    0  0.00000000000E+00  0.00000000000E+00  0.99999998245E-14  0.12500000000E+03  0.12500000000E+03 0.  0.
        -13    1    3    3    0    0 -0.11401735677E+02  0.44220512561E+02 -0.23029656679E+02  0.51145181185E+02  0.10566000000E+00 0. -1.
         23    2    1    0    0    0 -0.25531229278E+02  0.12520921825E+02  0.54567313745E+01  0.96044981971E+02  0.91576446168E+02 0.  0.
         13    1    3    3    0    0 -0.14129493601E+02 -0.31699590736E+02  0.28486388053E+02  0.44899800786E+02  0.10566000000E+00 0.  1.
         22    1    1    0    0    0  0.25531229278E+02 -0.12520921825E+02 -0.54567313745E+01  0.28955018029E+02  0.00000000000E+00 0.  1.
</event>
<event>
 5    1  0.1324057E-009  0.9118800E+02  0.7818608E-02  0.1130116E+00
         25   -1    0    0    0    0  0.00000000000E+00  0.00000000000E+00  0.99999998245E-14  0.12500000000E+03  0.12500000000E+03 0.  0.
        -13    1    3    3    0    0 -0.29297360336E+02  0.26995100392E+02 -0.26735184397E+02  0.47977619955E+02  0.10566000000E+00 0. -1.
         23    2    1    0    0    0 -0.22888364675E+02  0.10687505108E+02  0.16635206869E+02  0.94753841393E+02  0.89796772482E+02 0.  0.
         13    1    3    3    0    0  0.64089956612E+01 -0.16307595284E+02  0.43370391266E+02  0.46776221437E+02  0.10566000000E+00 0.  1.
         22    1    1    0    0    0  0.22888364675E+02 -0.10687505108E+02 -0.16635206869E+02  0.30246158607E+02  0.00000000000E+00 0. -1.
</event>
<event>
 5    1  0.1324057E-009  0.9118800E+02  0.7818608E-02  0.1130116E+00
         25   -1    0    0    0    0  0.00000000000E+00  0.00000000000E+00  0.99999998245E-14  0.12500000000E+03  0.12500000000E+03 0.  0.
        -13    1    3    3    0    0 -0.13749209025E+02 -0.57679409030E+01 -0.40262201176E+02  0.42934437212E+02  0.10566000000E+00 0. -1.
         23    2    1    0    0    0 -0.14186331192E+02  0.24001065979E+02  0.45658281130E+01  0.96748452305E+02  0.92531686877E+02 0.  0.
         13    1    3    3    0    0 -0.43712216639E+00  0.29769006882E+02  0.44828029289E+02  0.53814015094E+02  0.10566000000E+00 0.  1.
         22    1    1    0    0    0  0.14186331192E+02 -0.24001065979E+02 -0.45658281130E+01  0.28251547695E+02  0.00000000000E+00 0.  1.
</event>
<event>
 5    1  0.1324057E-009  0.9118800E+02  0.7818608E-02  0.1130116E+00
         25   -1    0    0    0    0  0.00000000000E+00  0.00000000000E+00  0.99999998245E-14  0.12500000000E+03  0.12500000000E+03 0.  0.
        -13    1    3    3    0    0  0.26666697630E+02  0.48676829457E+02  0.17758377989E+02  0.58274502498E+02  0.10566000000E+00 0.  1.
         23    2    1    0    0    0  0.21155257600E+02  0.18947821209E+02 -0.50578976071E+01  0.96153038620E+02  0.91723822723E+02 0.  0.
         13    1    3    3    0    0 -0.55114400301E+01 -0.29729008248E+02 -0.22816275596E+02  0.37878536122E+02  0.10566000000E+00 0. -1.
         22    1    1    0    0    0 -0.21155257600E+02 -0.18947821209E+02  0.50578976071E+01  0.28846961380E+02  0.00000000000E+00 0.  1.
</event>
<event>
 5    1  0.1324057E-009  0.9118800E+02  0.7818608E-02  0.1130116E+00
         25   -1    0    0    0    0  0.00000000000E+00  0.00000000000E+00  0.99999998245E-14  0.12500000000E+03  0.12500000000E+03 0.  0.
        -13    1    3    3    0    0  0.24147123243E+02 -0.21700242615E+02 -0.55722392176E+01  0.32940022836E+02  0.10566000000E+00 0. -1.
         23    2    1    0    0    0  0.97218883901E+00  0.12102946026E+02  0.33378799389E+02  0.89481403430E+02  0.82130084972E+02 0.  0.
         13    1    3    3    0    0 -0.23174934404E+02  0.33803188641E+02  0.38951038607E+02  0.56541380594E+02  0.10566000000E+00 0.  1.
         22    1    1    0    0    0 -0.97218883901E+00 -0.12102946026E+02 -0.33378799389E+02  0.35518596570E+02  0.00000000000E+00 0.  1.
</event>
<event>
 5    1  0.1324057E-009  0.9118800E+02  0.7818608E-02  0.1130116E+00
         25   -1    0    0    0    0  0.00000000000E+00  0.00000000000E+00  0.99999998245E-14  0.12500000000E+03  0.12500000000E+03 0.  0.
        -13    1    3    3    0    0  0.22274091419E+02  0.10591337853E+02  0.27464205505E+02  0.36913484448E+02  0.10566000000E+00 0.  1.
         23    2    1    0    0    0 -0.20098266121E+02  0.16113383805E+02 -0.13334249591E+02  0.95993386084E+02  0.91505991722E+02 0.  0.
         13    1    3    3    0    0 -0.42372357540E+02  0.55220459523E+01 -0.40798455096E+02  0.59079901636E+02  0.10566000000E+00 0. -1.
         22    1    1    0    0    0  0.20098266121E+02 -0.16113383805E+02  0.13334249591E+02  0.29006613916E+02  0.00000000000E+00 0. -1.
</event>
<event>
 5    1  0.1324057E-009  0.9118800E+02  0.7818608E-02  0.1130116E+00
         25   -1    0    0    0    0  0.00000000000E+00  0.00000000000E+00  0.99999998245E-14  0.12500000000E+03  0.12500000000E+03 0.  0.
        -13    1    3    3    0    0  0.23644955236E+02  0.39234300180E+02  0.71158322970E+01  0.46357959964E+02  0.10566000000E+00 0. -1.
         23    2    1    0    0    0  0.27603503583E+02 -0.80556237073E+01 -0.60703076914E+01  0.95611309678E+02  0.90982566570E+02 0.  0.
         13    1    3    3    0    0  0.39585483470E+01 -0.47289923887E+02 -0.13186139988E+02  0.49253349715E+02  0.10566000000E+00 0.  1.
         22    1    1    0    0    0 -0.27603503583E+02  0.80556237073E+01  0.60703076914E+01  0.29388690322E+02  0.00000000000E+00 0.  1.
</event>
<event>
 5    1  0.1324057E-009  0.9118800E+02  0.7818608E-02  0.1130116E+00
         25   -1    0    0    0    0  0.00000000000E+00  0.00000000000E+00  0.99999998245E-14  0.12500000000E+03  0.12500000000E+03 0.  0.
        -13    1    3    3    0    0  0.30613331755E+02 -0.23299286636E+02 -0.99654080479E+01  0.39741079005E+02  0.10566000000E+00 0. -1.
         23    2    1    0    0    0  0.10989347851E+02  0.24581276101E+02  0.11446263019E+02  0.95742149122E+02  0.91162148287E+02 0.  0.
         13    1    3    3    0    0 -0.19623983905E+02  0.47880562737E+02  0.21411671067E+02  0.56001070116E+02  0.10566000000E+00 0.  1.
         22    1    1    0    0    0 -0.10989347851E+02 -0.24581276101E+02 -0.11446263019E+02  0.29257850878E+02  0.00000000000E+00 0.  1.
</event>
<event>
 5    1  0.1324057E-009  0.9118800E+02  0.7818608E-02  0.1130116E+00
         25   -1    0    0    0    0  0.00000000000E+00  0.00000000000E+00  0.99999998245E-14  0.12500000000E+03  0.12500000000E+03 0.  0.
        -13    1    3    3    0    0 -0.25792210442E+02  0.46773062885E+00  0.55083926970E+02  0.60825217352E+02  0.10566000000E+00 0.  1.
         23    2    1    0    0    0 -0.21107227838E+02 -0.24443066571E+01  0.21820579067E+02  0.94543024233E+02  0.89502827096E+02 0.  0.
         13    1    3    3    0    0  0.46849826034E+01 -0.29120372859E+01 -0.33263347903E+02  0.33717806881E+02  0.10566000000E+00 0. -1.
         22    1    1    0    0    0  0.21107227838E+02  0.24443066571E+01 -0.21820579067E+02  0.30456975767E+02  0.00000000000E+00 0.  1.
</event>
<event>
 5    1  0.1324057E-009  0.9118800E+02  0.7818608E-02  0.1130116E+00
         25   -1    0    0    0    0  0.00000000000E+00  0.00000000000E+00  0.99999998245E-14  0.12500000000E+03  0.12500000000E+03 0.  0.
        -13    1    3    3    0    0  0.48107153509E+02 -0.88911056966E+01 -0.14145624248E+02  0.50926023099E+02  0.10566000000E+00 0.  1.
         23    2    1    0    0    0  0.17204934518E+02  0.21398047257E+02  0.28078947915E+01  0.97399810303E+02  0.93407454604E+02 0.  0.
         13    1    3    3    0    0 -0.30902218991E+02  0.30289152953E+02  0.16953519039E+02  0.46473787204E+02  0.10566000000E+00 0. -1.
         22    1    1    0    0    0 -0.17204934518E+02 -0.21398047257E+02 -0.28078947915E+01  0.27600189697E+02  0.00000000000E+00 0.  1.
</event>
<event>
 5    1  0.1324057E-009  0.9118800E+02  0.7818608E-02  0.1130116E+00
         25   -1    0    0    0    0  0.00000000000E+00  0.00000000000E+00  0.99999998245E-14  0.12500000000E+03  0.12500000000E+03 0.  0.
        -13    1    3    3    0    0  0.39816447048E+02 -0.22577816295E+02 -0.14709079914E+02  0.48077806108E+02  0.10566000000E+00 0. -1.
         23    2    1    0    0    0  0.20825421086E+02  0.78023364330E+01  0.17845090533E+02  0.96486461578E+02  0.92177087145E+02 0.  0.
         13    1    3    3    0    0 -0.18991025962E+02  0.30380152728E+02  0.32554170446E+02  0.48408655470E+02  0.10566000000E+00 0.  1.
         22    1    1    0    0    0 -0.20825421086E+02 -0.78023364330E+01 -0.17845090533E+02  0.28513538422E+02  0.00000000000E+00 0. -1.
</event>
<event>
 5    1  0.1324057E-009  0.9118800E+02  0.7818608E-02  0.1130116E+00
         25   -1    0    0    0    0  0.00000000000E+00  0.00000000000E+00  0.99999998245E-14  0.12500000000E+03  0.12500000000E+03 0.  0.
        -13    1    3    3    0    0 -0.26770407759E+02  0.26297978643E+01 -0.49349698212E+02  0.56204754657E+02  0.10566000000E+00 0. -1.
         23    2    1    0    0    0 -0.20943427262E+02  0.15542338407E+02 -0.11730842357E+02  0.96402725811E+02  0.92063464266E+02 0.  0.
         13    1    3    3    0    0  0.58269804969E+01  0.12912540543E+02  0.37618855855E+02  0.40197971154E+02  0.10566000000E+00 0.  1.
         22    1    1    0    0    0  0.20943427262E+02 -0.15542338407E+02  0.11730842357E+02  0.28597274189E+02  0.00000000000E+00 0. -1.
</event>
<event>
 5    1  0.1324057E-009  0.9118800E+02  0.7818608E-02  0.1130116E+00
         25   -1    0    0    0    0  0.00000000000E+00  0.00000000000E+00  0.99999998245E-14  0.12500000000E+03  0.12500000000E+03 0.  0.
        -13    1    3    3    0    0  0.30943098357E+02 -0.88237744390E+01 -0.10504503823E+02  0.33848044196E+02  0.10566000000E+00 0. -1.
         23    2    1    0    0    0 -0.22079438702E+02  0.73370098636E+01  0.17438475442E+02  0.95923656474E+02  0.91410689301E+02 0.  0.
         13    1    3    3    0    0 -0.53022537059E+02  0.16160784303E+02  0.27942979265E+02  0.62075612278E+02  0.10566000000E+00 0.  1.
         22    1    1    0    0    0  0.22079438702E+02 -0.73370098636E+01 -0.17438475442E+02  0.29076343526E+02  0.00000000000E+00 0.  1.
</event>
<event>
 5    1  0.1324057E-009  0.9118800E+02  0.7818608E-02  0.1130116E+00
         25   -1    0    0    0    0  0.00000000000E+00  0.00000000000E+00  0.99999998245E-14  0.12500000000E+03  0.12500000000E+03 0.  0.
        -13    1    3    3    0    0 -0.34757861866E+02 -0.11619456633E+01  0.76638239474E+01  0.35611858148E+02  0.10566000000E+00 0. -1.
         23    2    1    0    0    0  0.17713864177E+02 -0.93648460558E+01  0.26336385071E+02  0.91907908735E+02  0.85743671391E+02 0.  0.
         13    1    3    3    0    0  0.52471726042E+02 -0.82029003924E+01  0.18672561123E+02  0.56296050587E+02  0.10566000000E+00 0.  1.
         22    1    1    0    0    0 -0.17713864177E+02  0.93648460558E+01 -0.26336385071E+02  0.33092091265E+02  0.00000000000E+00 0.  1.
</event>
<event>
 5    1  0.1324057E-009  0.9118800E+02  0.7818608E-02  0.1130116E+00
         25   -1    0    0    0    0  0.00000000000E+00  0.00000000000E+00  0.99999998245E-14  0.12500000000E+03  0.12500000000E+03 0.  0.
        -13    1    3    3    0    0  0.26421888497E+02 -0.15012383100E+02  0.39619532968E+02  0.49932017732E+02  0.10566000000E+00 0.  1.
         23    2    1    0    0    0  0.20915092447E+01  0.19539622847E+02  0.21384719988E+02  0.95957315536E+02  0.91456704970E+02 0.  0.
         13    1    3    3    0    0 -0.24330379252E+02  0.34552005947E+02 -0.18234812981E+02  0.46025297805E+02  0.10566000000E+00 0. -1.
         22    1    1    0    0    0 -0.20915092447E+01 -0.19539622847E+02 -0.21384719988E+02  0.29042684464E+02  0.00000000000E+00 0.  1.
</event>
<event>
 5    1  0.1324057E-009  0.9118800E+02  0.7818608E-02  0.1130116E+00
         25   -1    0    0    0    0  0.00000000000E+00  0.00000000000E+00  0.99999998245E-14  0.12500000000E+03  0.12500000000E+03 0.  0.
        -13    1    3    3    0    0  0.61088989783E+01  0.87784721222E+01 -0.35674969873E+02  0.37243722411E+02  0.10566000000E+00 0.  1.
         23    2    1    0    0    0 -0.21577683309E+02 -0.17411308807E+02  0.88908079677E+01  0.95883053772E+02  0.91355150063E+02 0.  0.
         13    1    3    3    0    0 -0.27686582287E+02 -0.26189780929E+02  0.44565777841E+02  0.58639331361E+02  0.10566000000E+00 0. -1.
         22    1    1    0    0    0  0.21577683309E+02  0.17411308807E+02 -0.88908079677E+01  0.29116946228E+02  0.00000000000E+00 0. -1.
</event>
<event>
 5    1  0.1324057E-009  0.9118800E+02  0.7818608E-02  0.1130116E+00
         25   -1    0    0    0    0  0.00000000000E+00  0.00000000000E+00  0.99999998245E-14  0.12500000000E+03  0.12500000000E+03 0.  0.
        -13    1    3    3    0    0  0.40680387287E+02 -0.23818458306E+01 -0.27577223832E+02  0.49204486967E+02  0.10566000000E+00 0.  1.
         23    2    1    0    0    0 -0.48997524346E+01 -0.20017010015E+02 -0.14516726664E+02  0.99792389702E+02  0.96556187920E+02 0.  0.
         13    1    3    3    0    0 -0.45580139722E+02 -0.17635164185E+02  0.13060497168E+02  0.50587902735E+02  0.10566000000E+00 0. -1.
         22    1    1    0    0    0  0.48997524346E+01  0.20017010015E+02  0.14516726664E+02  0.25207610298E+02  0.00000000000E+00 0. -1.
</event>
<event>
 5    1  0.1324057E-009  0.9118800E+02  0.7818608E-02  0.1130116E+00
         25   -1    0    0    0    0  0.00000000000E+00  0.00000000000E+00  0.99999998245E-14  0.12500000000E+03  0.12500000000E+03 0.  0.
        -13    1    3    3    0    0 -0.40054041440E+02  0.23814372345E+02 -0.18509505395E+02  0.50140437971E+02  0.10566000000E+00 0.  1.
         23    2    1    0    0    0  0.36945727858E+01  0.26980615257E+02  0.47578090710E-01  0.97767561046E+02  0.93898297437E+02 0.  0.
         13    1    3    3    0    0  0.43748614226E+02  0.31662429121E+01  0.18557083486E+02  0.47627123075E+02  0.10566000000E+00 0. -1.
         22    1    1    0    0    0 -0.36945727858E+01 -0.26980615257E+02 -0.47578090710E-01  0.27232438954E+02  0.00000000000E+00 0. -1.
</event>
<event>
 5    1  0.1324057E-009  0.9118800E+02  0.7818608E-02  0.1130116E+00
         25   -1    0    0    0    0  0.00000000000E+00  0.00000000000E+00  0.99999998245E-14  0.12500000000E+03  0.12500000000E+03 0.  0.
        -13    1    3    3    0    0 -0.40579561395E+01  0.11506691961E+02 -0.40037826826E+02  0.41855820490E+02  0.10566000000E+00 0.  1.
         23    2    1    0    0    0 -0.20510257768E+02 -0.21301983229E+02 -0.10373611899E+01  0.95410791132E+02  0.90706657876E+02 0.  0.
         13    1    3    3    0    0 -0.16452301628E+02 -0.32808675189E+02  0.39000465637E+02  0.53554970642E+02  0.10566000000E+00 0. -1.
         22    1    1    0    0    0  0.20510257768E+02  0.21301983229E+02  0.10373611899E+01  0.29589208868E+02  0.00000000000E+00 0. -1.
</event>
<event>
 5    1  0.1324057E-009  0.9118800E+02  0.7818608E-02  0.1130116E+00
         25   -1    0    0    0    0  0.00000000000E+00  0.00000000000E+00  0.99999998245E-14  0.12500000000E+03  0.12500000000E+03 0.  0.
        -13    1    3    3    0    0  0.24900964170E+02  0.15296702501E+02 -0.13607148024E+02  0.32236823128E+02  0.10566000000E+00 0.  1.
         23    2    1    0    0    0 -0.30892933586E+02 -0.65260591368E+01 -0.81222508050E+01  0.92397335208E+02  0.86454229521E+02 0.  0.
         13    1    3    3    0    0 -0.55793897755E+02 -0.21822761638E+02  0.54848972187E+01  0.60160512080E+02  0.10566000000E+00 0. -1.
         22    1    1    0    0    0  0.30892933586E+02  0.65260591368E+01  0.81222508050E+01  0.32602664792E+02  0.00000000000E+00 0. -1.
</event>
<event>
 5    1  0.1324057E-009  0.9118800E+02  0.7818608E-02  0.1130116E+00
         25   -1    0    0    0    0  0.00000000000E+00  0.00000000000E+00  0.99999998245E-14  0.12500000000E+03  0.12500000000E+03 0.  0.
        -13    1    3    3    0    0 -0.43315649524E+02 -0.20834446222E+02  0.26527845107E+02  0.54900431447E+02  0.10566000000E+00 0. -1.
         23    2    1    0    0    0 -0.21306505322E+01 -0.18788837271E+02  0.21382003787E+02  0.96456171181E+02  0.92136001624E+02 0.  0.
         13    1    3    3    0    0  0.41184998992E+02  0.20456089507E+01 -0.51458413194E+01  0.41555739734E+02  0.10566000000E+00 0.  1.
         22    1    1    0    0    0  0.21306505322E+01  0.18788837271E+02 -0.21382003787E+02  0.28543828819E+02  0.00000000000E+00 0. -1.
</event>
<event>
 5    1  0.1324057E-009  0.9118800E+02  0.7818608E-02  0.1130116E+00
         25   -1    0    0    0    0  0.00000000000E+00  0.00000000000E+00  0.99999998245E-14  0.12500000000E+03  0.12500000000E+03 0.  0.
        -13    1    3    3    0    0  0.63283447917E+01 -0.99527440847E+00 -0.42264906511E+02  0.42747771935E+02  0.10566000000E+00 0. -1.
         23    2    1    0    0    0  0.39844624832E+00 -0.29065651645E+02  0.23993446060E+01  0.95832762910E+02  0.91286311829E+02 0.  0.
         13    1    3    3    0    0 -0.59298985434E+01 -0.28070377236E+02  0.44664251117E+02  0.53084990975E+02  0.10566000000E+00 0.  1.
         22    1    1    0    0    0 -0.39844624832E+00  0.29065651645E+02 -0.23993446060E+01  0.29167237090E+02  0.00000000000E+00 0.  1.
</event>
<event>
 5    1  0.1324057E-009  0.9118800E+02  0.7818608E-02  0.1130116E+00
         25   -1    0    0    0    0  0.00000000000E+00  0.00000000000E+00  0.99999998245E-14  0.12500000000E+03  0.12500000000E+03 0.  0.
        -13    1    3    3    0    0 -0.19468404180E+02  0.83974399988E+01 -0.26763455180E+02  0.34144244860E+02  0.10566000000E+00 0. -1.
         23    2    1    0    0    0  0.33299798749E+02 -0.46898182682E+00 -0.94938280821E+01  0.90370109553E+02  0.83471716098E+02 0.  0.
         13    1    3    3    0    0  0.52768202930E+02 -0.88664218256E+01  0.17269627097E+02  0.56225864694E+02  0.10566000000E+00 0.  1.
         22    1    1    0    0    0 -0.33299798749E+02  0.46898182682E+00  0.94938280821E+01  0.34629890447E+02  0.00000000000E+00 0.  1.
</event>
<event>
 5    1  0.1324057E-009  0.9118800E+02  0.7818608E-02  0.1130116E+00
         25   -1    0    0    0    0  0.00000000000E+00  0.00000000000E+00  0.99999998245E-14  0.12500000000E+03  0.12500000000E+03 0.  0.
        -13    1    3    3    0    0  0.35880122998E+02 -0.99363228451E+00 -0.26680212707E+02  0.44723768240E+02  0.10566000000E+00 0. -1.
         23    2    1    0    0    0 -0.17481677561E+02 -0.39498108811E+00 -0.19885490149E+02  0.98519860671E+02  0.94894494929E+02 0.  0.
         13    1    3    3    0    0 -0.53361800559E+02  0.59865119640E+00  0.67947225585E+01  0.53796092431E+02  0.10566000000E+00 0.  1.
         22    1    1    0    0    0  0.17481677561E+02  0.39498108811E+00  0.19885490149E+02  0.26480139329E+02  0.00000000000E+00 0.  1.
</event>
<event>
 5    1  0.1324057E-009  0.9118800E+02  0.7818608E-02  0.1130116E+00
         25   -1    0    0    0    0  0.00000000000E+00  0.00000000000E+00  0.99999998245E-14  0.12500000000E+03  0.12500000000E+03 0.  0.
        -13    1    3    3    0    0 -0.13710617120E+02  0.26313695479E+02  0.42559696065E+02  0.51881889757E+02  0.10566000000E+00 0.  1.
         23    2    1    0    0    0  0.19340778413E+02  0.89814256576E+01  0.21426598364E+02  0.94770364972E+02  0.89819770891E+02 0.  0.
         13    1    3    3    0    0  0.33051395533E+02 -0.17332269821E+02 -0.21133097701E+02  0.42888475215E+02  0.10566000000E+00 0. -1.
         22    1    1    0    0    0 -0.19340778413E+02 -0.89814256576E+01 -0.21426598364E+02  0.30229635028E+02  0.00000000000E+00 0.  1.
</event>
<event>
 5    1  0.1324057E-009  0.9118800E+02  0.7818608E-02  0.1130116E+00
         25   -1    0    0    0    0  0.00000000000E+00  0.00000000000E+00  0.99999998245E-14  0.12500000000E+03  0.12500000000E+03 0.  0.
        -13    1    3    3    0    0 -0.24294439949E+02 -0.85654699781E+01 -0.30071978728E+02  0.39596996818E+02  0.10566000000E+00 0.  1.
         23    2    1    0    0    0  0.20949498178E+02  0.17127322617E+02 -0.16265859514E+02  0.93427783738E+02  0.87931484319E+02 0.  0.
         13    1    3    3    0    0  0.45243938128E+02  0.25692792595E+02  0.13806119213E+02  0.53830786920E+02  0.10566000000E+00 0. -1.
         22    1    1    0    0    0 -0.20949498178E+02 -0.17127322617E+02  0.16265859514E+02  0.31572216262E+02  0.00000000000E+00 0. -1.
</event>
<event>
 5    1  0.1324057E-009  0.9118800E+02  0.7818608E-02  0.1130116E+00
         25   -1    0    0    0    0  0.00000000000E+00  0.00000000000E+00  0.99999998245E-14  0.12500000000E+03  0.12500000000E+03 0.  0.
        -13    1    3    3    0    0 -0.37536130153E+01  0.45369283524E+02  0.33874200978E+02  0.56744463642E+02  0.10566000000E+00 0.  1.
         23    2    1    0    0    0  0.57248582117E+01  0.94441710047E+01  0.28688468629E+02  0.94259235537E+02  0.89105605235E+02 0.  0.
         13    1    3    3    0    0  0.94784712270E+01 -0.35925112519E+02 -0.51857323488E+01  0.37514771895E+02  0.10566000000E+00 0. -1.
         22    1    1    0    0    0 -0.57248582117E+01 -0.94441710047E+01 -0.28688468629E+02  0.30740764463E+02  0.00000000000E+00 0. -1.
</event>
<event>
 5    1  0.1324057E-009  0.9118800E+02  0.7818608E-02  0.1130116E+00
         25   -1    0    0    0    0  0.00000000000E+00  0.00000000000E+00  0.99999998245E-14  0.12500000000E+03  0.12500000000E+03 0.  0.
        -13    1    3    3    0    0 -0.11907075018E+02 -0.12434248916E+02 -0.32363961620E+02  0.36658234510E+02  0.10566000000E+00 0.  1.
         23    2    1    0    0    0  0.27749852564E+02  0.86014151321E+01  0.55557513372E+01  0.95421206371E+02  0.90721009655E+02 0.  0.
         13    1    3    3    0    0  0.39656927583E+02  0.21035664048E+02  0.37919712957E+02  0.58762971862E+02  0.10566000000E+00 0. -1.
         22    1    1    0    0    0 -0.27749852564E+02 -0.86014151321E+01 -0.55557513372E+01  0.29578793629E+02  0.00000000000E+00 0. -1.
</event>
<event>
 5    1  0.1324057E-009  0.9118800E+02  0.7818608E-02  0.1130116E+00
         25   -1    0    0    0    0  0.00000000000E+00  0.00000000000E+00  0.99999998245E-14  0.12500000000E+03  0.12500000000E+03 0.  0.
        -13    1    3    3    0    0  0.20752537204E+02  0.29348644724E+02  0.44479216865E+01  0.36218861369E+02  0.10566000000E+00 0. -1.
         23    2    1    0    0    0 -0.21717451754E+02 -0.18432578427E+01 -0.20998112550E+02  0.94735069126E+02  0.89770637078E+02 0.  0.
         13    1    3    3    0    0 -0.42469988958E+02 -0.31191902567E+02 -0.25446034236E+02  0.58516207756E+02  0.10566000000E+00 0.  1.
         22    1    1    0    0    0  0.21717451754E+02  0.18432578427E+01  0.20998112550E+02  0.30264930874E+02  0.00000000000E+00 0.  1.
</event>
<event>
 5    1  0.1324057E-009  0.9118800E+02  0.7818608E-02  0.1130116E+00
         25   -1    0    0    0    0  0.00000000000E+00  0.00000000000E+00  0.99999998245E-14  0.12500000000E+03  0.12500000000E+03 0.  0.
        -13    1    3    3    0    0  0.16459260257E+02  0.20887940602E+02 -0.17377696336E+02  0.31768046915E+02  0.10566000000E+00 0. -1.
         23    2    1    0    0    0 -0.91475786324E+01 -0.18000950879E+02  0.23703162955E+02  0.93862364228E+02  0.88547112076E+02 0.  0.
         13    1    3    3    0    0 -0.25606838889E+02 -0.38888891481E+02  0.41080859291E+02  0.62094317314E+02  0.10566000000E+00 0.  1.
         22    1    1    0    0    0  0.91475786324E+01  0.18000950879E+02 -0.23703162955E+02  0.31137635772E+02  0.00000000000E+00 0.  1.
</event>
<event>
 5    1  0.1324057E-009  0.9118800E+02  0.7818608E-02  0.1130116E+00
         25   -1    0    0    0    0  0.00000000000E+00  0.00000000000E+00  0.99999998245E-14  0.12500000000E+03  0.12500000000E+03 0.  0.
        -13    1    3    3    0    0 -0.28306486452E+02 -0.32207523075E+02  0.36440791891E+02  0.56271877484E+02  0.10566000000E+00 0.  1.
         23    2    1    0    0    0  0.15123365083E+01 -0.27137858399E+02  0.11452098733E+02  0.95505914397E+02  0.90837649679E+02 0.  0.
         13    1    3    3    0    0  0.29818822960E+02  0.50696646764E+01 -0.24988693159E+02  0.39234036913E+02  0.10566000000E+00 0. -1.
         22    1    1    0    0    0 -0.15123365083E+01  0.27137858399E+02 -0.11452098733E+02  0.29494085603E+02  0.00000000000E+00 0.  1.
</event>
<event>
 5    1  0.1324057E-009  0.9118800E+02  0.7818608E-02  0.1130116E+00
         25   -1    0    0    0    0  0.00000000000E+00  0.00000000000E+00  0.99999998245E-14  0.12500000000E+03  0.12500000000E+03 0.  0.
        -13    1    3    3    0    0  0.27929259793E+02  0.23619803760E+02 -0.16219049658E+02  0.40012590745E+02  0.10566000000E+00 0.  1.
         23    2    1    0    0    0  0.13209388128E+02 -0.24970240078E+02  0.70847493732E+01  0.95876221091E+02  0.91345800520E+02 0.  0.
         13    1    3    3    0    0 -0.14719871665E+02 -0.48590043838E+02  0.23303799032E+02  0.55863630346E+02  0.10566000000E+00 0. -1.
         22    1    1    0    0    0 -0.13209388128E+02  0.24970240078E+02 -0.70847493732E+01  0.29123778909E+02  0.00000000000E+00 0. -1.
</event>
<event>
 5    1  0.1324057E-009  0.9118800E+02  0.7818608E-02  0.1130116E+00
         25   -1    0    0    0    0  0.00000000000E+00  0.00000000000E+00  0.99999998245E-14  0.12500000000E+03  0.12500000000E+03 0.  0.
        -13    1    3    3    0    0 -0.51427201665E+01 -0.39753419569E+02  0.21136214287E+02  0.45315920564E+02  0.10566000000E+00 0. -1.
         23    2    1    0    0    0 -0.16047733972E+02 -0.15508617206E+02 -0.20487570311E+02  0.94704991987E+02  0.89728746769E+02 0.  0.
         13    1    3    3    0    0 -0.10905013806E+02  0.24244802363E+02 -0.41623784597E+02  0.49389071423E+02  0.10566000000E+00 0.  1.
         22    1    1    0    0    0  0.16047733972E+02  0.15508617206E+02  0.20487570311E+02  0.30295008013E+02  0.00000000000E+00 0.  1.
</event>
<event>
 5    1  0.1324057E-009  0.9118800E+02  0.7818608E-02  0.1130116E+00
         25   -1    0    0    0    0  0.00000000000E+00  0.00000000000E+00  0.99999998245E-14  0.12500000000E+03  0.12500000000E+03 0.  0.
        -13    1    3    3    0    0 -0.77456169120E+01 -0.94014724130E+01 -0.31097708990E+02  0.33398516933E+02  0.10566000000E+00 0.  1.
         23    2    1    0    0    0  0.15082873372E+02  0.10651599861E+01  0.25520454308E+02  0.95336533867E+02  0.90604268480E+02 0.  0.
         13    1    3    3    0    0  0.22828490284E+02  0.10466632399E+02  0.56618163298E+02  0.61938016934E+02  0.10566000000E+00 0. -1.
         22    1    1    0    0    0 -0.15082873372E+02 -0.10651599861E+01 -0.25520454308E+02  0.29663466133E+02  0.00000000000E+00 0. -1.
</event>
<event>
 5    1  0.1324057E-009  0.9118800E+02  0.7818608E-02  0.1130116E+00
         25   -1    0    0    0    0  0.00000000000E+00  0.00000000000E+00  0.99999998245E-14  0.12500000000E+03  0.12500000000E+03 0.  0.
        -13    1    3    3    0    0  0.24418385148E+02  0.49216883106E+02 -0.20030442854E+02  0.58478961352E+02  0.10566000000E+00 0.  1.
         23    2    1    0    0    0  0.14183995388E+01  0.20288593474E+02 -0.21420099553E+02  0.95462573788E+02  0.90777989882E+02 0.  0.
         13    1    3    3    0    0 -0.22999985609E+02 -0.28928289632E+02 -0.13896566986E+01  0.36983612436E+02  0.10566000000E+00 0. -1.
         22    1    1    0    0    0 -0.14183995388E+01 -0.20288593474E+02  0.21420099553E+02  0.29537426212E+02  0.00000000000E+00 0.  1.
</event>
<event>
 5    1  0.1324057E-009  0.9118800E+02  0.7818608E-02  0.1130116E+00
         25   -1    0    0    0    0  0.00000000000E+00  0.00000000000E+00  0.99999998245E-14  0.12500000000E+03  0.12500000000E+03 0.  0.
        -13    1    3    3    0    0  0.19290681429E+02  0.26509762592E+02  0.23640215992E+01  0.32870924308E+02  0.10566000000E+00 0. -1.
         23    2    1    0    0    0 -0.86596690889E+01 -0.28817000843E+02 -0.18365703181E+00  0.94909417815E+02  0.90013079348E+02 0.  0.
         13    1    3    3    0    0 -0.27950350518E+02 -0.55326763435E+02 -0.25476786310E+01  0.62038493508E+02  0.10566000000E+00 0.  1.
         22    1    1    0    0    0  0.86596690889E+01  0.28817000843E+02  0.18365703181E+00  0.30090582185E+02  0.00000000000E+00 0.  1.
</event>
<event>
 5    1  0.1324057E-009  0.9118800E+02  0.7818608E-02  0.1130116E+00
         25   -1    0    0    0    0  0.00000000000E+00  0.00000000000E+00  0.99999998245E-14  0.12500000000E+03  0.12500000000E+03 0.  0.
        -13    1    3    3    0    0  0.34605638743E+02  0.31474565818E+02 -0.14954620575E+02  0.49110593224E+02  0.10566000000E+00 0.  1.
         23    2    1    0    0    0  0.78436840883E+01  0.79876788629E+00 -0.31108858183E+02  0.92907594860E+02  0.87188868068E+02 0.  0.
         13    1    3    3    0    0 -0.26761954654E+02 -0.30675797931E+02 -0.16154237608E+02  0.43797001637E+02  0.10566000000E+00 0. -1.
         22    1    1    0    0    0 -0.78436840883E+01 -0.79876788629E+00  0.31108858183E+02  0.32092405140E+02  0.00000000000E+00 0. -1.
</event>
<event>
 5    1  0.1324057E-009  0.9118800E+02  0.7818608E-02  0.1130116E+00
         25   -1    0    0    0    0  0.00000000000E+00  0.00000000000E+00  0.99999998245E-14  0.12500000000E+03  0.12500000000E+03 0.  0.
        -13    1    3    3    0    0  0.44433277306E+02 -0.89302469843E+01  0.80653168006E+01  0.46033965097E+02  0.10566000000E+00 0. -1.
         23    2    1    0    0    0  0.87009467315E+01  0.25485947333E+02  0.11397694000E+02  0.95757096348E+02  0.91182641369E+02 0.  0.
         13    1    3    3    0    0 -0.35732330575E+02  0.34416194317E+02  0.33323771991E+01  0.49723131251E+02  0.10566000000E+00 0.  1.
         22    1    1    0    0    0 -0.87009467315E+01 -0.25485947333E+02 -0.11397694000E+02  0.29242903652E+02  0.00000000000E+00 0.  1.
</event>
<event>
 5    1  0.1324057E-009  0.9118800E+02  0.7818608E-02  0.1130116E+00
         25   -1    0    0    0    0  0.00000000000E+00  0.00000000000E+00  0.99999998245E-14  0.12500000000E+03  0.12500000000E+03 0.  0.
        -13    1    3    3    0    0 -0.23778219522E+01 -0.15147878564E+02 -0.31523491769E+02  0.35055013330E+02  0.10566000000E+00 0. -1.
         23    2    1    0    0    0  0.11683360374E+02 -0.44881450857E+01  0.26495100213E+02  0.95697530970E+02  0.91100948088E+02 0.  0.
         13    1    3    3    0    0  0.14061182327E+02  0.10659733478E+02  0.58018591982E+02  0.60642517641E+02  0.10566000000E+00 0.  1.
         22    1    1    0    0    0 -0.11683360374E+02  0.44881450857E+01 -0.26495100213E+02  0.29302469030E+02  0.00000000000E+00 0.  1.
</event>
<event>
 5    1  0.1324057E-009  0.9118800E+02  0.7818608E-02  0.1130116E+00
         25   -1    0    0    0    0  0.00000000000E+00  0.00000000000E+00  0.99999998245E-14  0.12500000000E+03  0.12500000000E+03 0.  0.
        -13    1    3    3    0    0 -0.33050541468E+02  0.15614907979E+02 -0.11935568319E+02  0.38452992051E+02  0.10566000000E+00 0.  1.
         23    2    1    0    0    0  0.24019577930E+02  0.21865045890E+01 -0.13989315665E+02  0.97117713885E+02  0.93029180751E+02 0.  0.
         13    1    3    3    0    0  0.57070119398E+02 -0.13428403390E+02 -0.20537473460E+01  0.58664721834E+02  0.10566000000E+00 0. -1.
         22    1    1    0    0    0 -0.24019577930E+02 -0.21865045890E+01  0.13989315665E+02  0.27882286115E+02  0.00000000000E+00 0. -1.
</event>
<event>
 5    1  0.1324057E-009  0.9118800E+02  0.7818608E-02  0.1130116E+00
         25   -1    0    0    0    0  0.00000000000E+00  0.00000000000E+00  0.99999998245E-14  0.12500000000E+03  0.12500000000E+03 0.  0.
        -13    1    3    3    0    0  0.45581885352E+02  0.97358217512E+01  0.41319739075E+01  0.46792936110E+02  0.10566000000E+00 0.  1.
         23    2    1    0    0    0  0.54732442568E+01  0.21923212077E+02 -0.19707598503E+02  0.95017120398E+02  0.90162520481E+02 0.  0.
         13    1    3    3    0    0 -0.40108641095E+02  0.12187390326E+02 -0.23839572411E+02  0.48224184288E+02  0.10566000000E+00 0. -1.
         22    1    1    0    0    0 -0.54732442568E+01 -0.21923212077E+02  0.19707598503E+02  0.29982879602E+02  0.00000000000E+00 0. -1.
</event>
<event>
 5    1  0.1324057E-009  0.9118800E+02  0.7818608E-02  0.1130116E+00
         25   -1    0    0    0    0  0.00000000000E+00  0.00000000000E+00  0.99999998245E-14  0.12500000000E+03  0.12500000000E+03 0.  0.
        -13    1    3    3    0    0  0.34277084797E+01 -0.28989167297E+02  0.15736768458E+02  0.33162901736E+02  0.10566000000E+00 0.  1.
         23    2    1    0    0    0  0.85584713775E+01  0.22004053369E+02 -0.18677086827E+02  0.94895857938E+02  0.89994246952E+02 0.  0.
         13    1    3    3    0    0  0.51307628978E+01  0.50993220666E+02 -0.34413855285E+02  0.61732956202E+02  0.10566000000E+00 0. -1.
         22    1    1    0    0    0 -0.85584713775E+01 -0.22004053369E+02  0.18677086827E+02  0.30104142062E+02  0.00000000000E+00 0. -1.
</event>
<event>
 5    1  0.1324057E-009  0.9118800E+02  0.7818608E-02  0.1130116E+00
         25   -1    0    0    0    0  0.00000000000E+00  0.00000000000E+00  0.99999998245E-14  0.12500000000E+03  0.12500000000E+03 0.  0.
        -13    1    3    3    0    0 -0.23346840426E+02 -0.10321752518E+02  0.27135006698E+02  0.37254976654E+02  0.10566000000E+00 0. -1.
         23    2    1    0    0    0  0.14328567931E+02 -0.14568249464E+02 -0.19087542510E+02  0.97037953750E+02  0.92921948094E+02 0.  0.
         13    1    3    3    0    0  0.37675408357E+02 -0.42464969461E+01 -0.46222549208E+02  0.59782977097E+02  0.10566000000E+00 0.  1.
         22    1    1    0    0    0 -0.14328567931E+02  0.14568249464E+02  0.19087542510E+02  0.27962046250E+02  0.00000000000E+00 0.  1.
</event>
<event>
 5    1  0.1324057E-009  0.9118800E+02  0.7818608E-02  0.1130116E+00
         25   -1    0    0    0    0  0.00000000000E+00  0.00000000000E+00  0.99999998245E-14  0.12500000000E+03  0.12500000000E+03 0.  0.
        -13    1    3    3    0    0 -0.23607747884E+02  0.90828462469E+01 -0.40471528634E+02  0.47726089826E+02  0.10566000000E+00 0. -1.
         23    2    1    0    0    0 -0.26774130184E+01 -0.24990195230E+02 -0.10218752510E+02  0.97868813130E+02  0.94032990394E+02 0.  0.
         13    1    3    3    0    0  0.20930334865E+02 -0.34073041477E+02  0.30252776124E+02  0.50142723304E+02  0.10566000000E+00 0.  1.
         22    1    1    0    0    0  0.26774130184E+01  0.24990195230E+02  0.10218752510E+02  0.27131186870E+02  0.00000000000E+00 0. -1.
</event>
<event>
 5    1  0.1324057E-009  0.9118800E+02  0.7818608E-02  0.1130116E+00
         25   -1    0    0    0    0  0.00000000000E+00  0.00000000000E+00  0.99999998245E-14  0.12500000000E+03  0.12500000000E+03 0.  0.
        -13    1    3    3    0    0 -0.12975707019E+02  0.27216697404E+02  0.19770373454E+02  0.36055463119E+02  0.10566000000E+00 0.  1.
         23    2    1    0    0    0 -0.93659422751E+01 -0.19997139480E+02 -0.17908530704E+02  0.96568996956E+02  0.92288944295E+02 0.  0.
         13    1    3    3    0    0  0.36097647439E+01 -0.47213836884E+02 -0.37678904158E+02  0.60513533837E+02  0.10566000000E+00 0. -1.
         22    1    1    0    0    0  0.93659422751E+01  0.19997139480E+02  0.17908530704E+02  0.28431003044E+02  0.00000000000E+00 0. -1.
</event>
<event>
 5    1  0.1324057E-009  0.9118800E+02  0.7818608E-02  0.1130116E+00
         25   -1    0    0    0    0  0.00000000000E+00  0.00000000000E+00  0.99999998245E-14  0.12500000000E+03  0.12500000000E+03 0.  0.
        -13    1    3    3    0    0 -0.53305321877E+02 -0.10346497781E+02 -0.28312149384E+01  0.54374022279E+02  0.10566000000E+00 0.  1.
         23    2    1    0    0    0 -0.17778632238E+02 -0.85406058914E+00 -0.22686005923E+02  0.96164881681E+02  0.91739960869E+02 0.  0.
         13    1    3    3    0    0  0.35526689638E+02  0.94924371916E+01 -0.19854790984E+02  0.41790859402E+02  0.10566000000E+00 0. -1.
         22    1    1    0    0    0  0.17778632238E+02  0.85406058914E+00  0.22686005923E+02  0.28835118319E+02  0.00000000000E+00 0.  1.
</event>
<event>
 5    1  0.1324057E-009  0.9118800E+02  0.7818608E-02  0.1130116E+00
         25   -1    0    0    0    0  0.00000000000E+00  0.00000000000E+00  0.99999998245E-14  0.12500000000E+03  0.12500000000E+03 0.  0.
        -13    1    3    3    0    0  0.43489729517E+02  0.34798197075E+01  0.59964051537E+01  0.44039002684E+02  0.10566000000E+00 0. -1.
         23    2    1    0    0    0  0.53412716948E+01  0.14092345630E+02 -0.26000086798E+02  0.94947913514E+02  0.90066521963E+02 0.  0.
         13    1    3    3    0    0 -0.38148457822E+02  0.10612525922E+02 -0.31996491952E+02  0.50908910830E+02  0.10566000000E+00 0.  1.
         22    1    1    0    0    0 -0.53412716948E+01 -0.14092345630E+02  0.26000086798E+02  0.30052086486E+02  0.00000000000E+00 0.  1.
</event>
<event>
 5    1  0.1324057E-009  0.9118800E+02  0.7818608E-02  0.1130116E+00
         25   -1    0    0    0    0  0.00000000000E+00  0.00000000000E+00  0.99999998245E-14  0.12500000000E+03  0.12500000000E+03 0.  0.
        -13    1    3    3    0    0  0.20720757138E+02  0.40487712891E+02 -0.14661347662E+02  0.47786723584E+02  0.10566000000E+00 0.  1.
         23    2    1    0    0    0 -0.50955563573E+01  0.19147796341E+02  0.20597856520E+02  0.96418983704E+02  0.92085535921E+02 0.  0.
         13    1    3    3    0    0 -0.25816313496E+02 -0.21339916550E+02  0.35259204181E+02  0.48632260120E+02  0.10566000000E+00 0. -1.
         22    1    1    0    0    0  0.50955563573E+01 -0.19147796341E+02 -0.20597856520E+02  0.28581016296E+02  0.00000000000E+00 0.  1.
</event>
<event>
 5    1  0.1324057E-009  0.9118800E+02  0.7818608E-02  0.1130116E+00
         25   -1    0    0    0    0  0.00000000000E+00  0.00000000000E+00  0.99999998245E-14  0.12500000000E+03  0.12500000000E+03 0.  0.
        -13    1    3    3    0    0 -0.27703882667E+02 -0.30009098210E+02  0.12871314851E+02  0.42822108779E+02  0.10566000000E+00 0. -1.
         23    2    1    0    0    0  0.49762510172E+00 -0.10291643105E+02 -0.27361038073E+02  0.95763174711E+02  0.91190973664E+02 0.  0.
         13    1    3    3    0    0  0.28201507769E+02  0.19717455106E+02 -0.40232352924E+02  0.52941065933E+02  0.10566000000E+00 0.  1.
         22    1    1    0    0    0 -0.49762510172E+00  0.10291643105E+02  0.27361038073E+02  0.29236825289E+02  0.00000000000E+00 0.  1.
</event>
<event>
 5    1  0.1324057E-009  0.9118800E+02  0.7818608E-02  0.1130116E+00
         25   -1    0    0    0    0  0.00000000000E+00  0.00000000000E+00  0.99999998245E-14  0.12500000000E+03  0.12500000000E+03 0.  0.
        -13    1    3    3    0    0 -0.21037684561E+01 -0.23607154650E+02 -0.25796040080E+02  0.35030992567E+02  0.10566000000E+00 0.  1.
         23    2    1    0    0    0 -0.11503091985E+01  0.18332112133E+01  0.29245219221E+02  0.95674810795E+02  0.91069768303E+02 0.  0.
         13    1    3    3    0    0  0.95345925758E+00  0.25440365863E+02  0.55041259301E+02  0.60643818228E+02  0.10566000000E+00 0. -1.
         22    1    1    0    0    0  0.11503091985E+01 -0.18332112133E+01 -0.29245219221E+02  0.29325189205E+02  0.00000000000E+00 0. -1.
</event>
<event>
 5    1  0.1324057E-009  0.9118800E+02  0.7818608E-02  0.1130116E+00
         25   -1    0    0    0    0  0.00000000000E+00  0.00000000000E+00  0.99999998245E-14  0.12500000000E+03  0.12500000000E+03 0.  0.
        -13    1    3    3    0    0  0.14893981253E+02 -0.25568923929E+02  0.25881350289E+02  0.39312288223E+02  0.10566000000E+00 0. -1.
         23    2    1    0    0    0  0.19035711044E+02 -0.67162502370E+01 -0.24494544631E+02  0.93259662432E+02  0.87692163892E+02 0.  0.
         13    1    3    3    0    0  0.41417297915E+01  0.18852673692E+02 -0.50375894921E+02  0.53947374210E+02  0.10566000000E+00 0.  1.
         22    1    1    0    0    0 -0.19035711044E+02  0.67162502370E+01  0.24494544631E+02  0.31740337568E+02  0.00000000000E+00 0.  1.
</event>
<event>
 5    1  0.1324057E-009  0.9118800E+02  0.7818608E-02  0.1130116E+00
         25   -1    0    0    0    0  0.00000000000E+00  0.00000000000E+00  0.99999998245E-14  0.12500000000E+03  0.12500000000E+03 0.  0.
        -13    1    3    3    0    0  0.23418633786E+02 -0.29668014227E+02  0.16293787724E+01  0.37832387128E+02  0.10566000000E+00 0. -1.
         23    2    1    0    0    0 -0.47575299347E-02  0.20251161367E+02  0.20568046098E+02  0.96135591473E+02  0.91700042902E+02 0.  0.
         13    1    3    3    0    0 -0.23423391316E+02  0.49919175595E+02  0.18938667325E+02  0.58303204345E+02  0.10566000000E+00 0.  1.
         22    1    1    0    0    0  0.47575299347E-02 -0.20251161367E+02 -0.20568046098E+02  0.28864408527E+02  0.00000000000E+00 0.  1.
</event>
<event>
 5    1  0.1324057E-009  0.9118800E+02  0.7818608E-02  0.1130116E+00
         25   -1    0    0    0    0  0.00000000000E+00  0.00000000000E+00  0.99999998245E-14  0.12500000000E+03  0.12500000000E+03 0.  0.
        -13    1    3    3    0    0 -0.18587119077E+02  0.25689720345E+02 -0.40132328350E+01  0.31961851148E+02  0.10566000000E+00 0.  1.
         23    2    1    0    0    0  0.15997333342E+02 -0.13059621147E+02 -0.28839758152E+02  0.89528884584E+02  0.82202318374E+02 0.  0.
         13    1    3    3    0    0  0.34584452420E+02 -0.38749341492E+02 -0.24826525317E+02  0.57567033436E+02  0.10566000000E+00 0. -1.
         22    1    1    0    0    0 -0.15997333342E+02  0.13059621147E+02  0.28839758152E+02  0.35471115416E+02  0.00000000000E+00 0. -1.
</event>
<event>
 5    1  0.1324057E-009  0.9118800E+02  0.7818608E-02  0.1130116E+00
         25   -1    0    0    0    0  0.00000000000E+00  0.00000000000E+00  0.99999998245E-14  0.12500000000E+03  0.12500000000E+03 0.  0.
        -13    1    3    3    0    0 -0.37172725476E+02 -0.26189346010E+02 -0.12234310636E+02  0.47089095176E+02  0.10566000000E+00 0.  1.
         23    2    1    0    0    0  0.56519940949E+01 -0.25533388113E+02  0.11919472074E+02  0.96260258172E+02  0.91869823898E+02 0.  0.
         13    1    3    3    0    0  0.42824719571E+02  0.65595789610E+00  0.24153782710E+02  0.49171162996E+02  0.10566000000E+00 0. -1.
         22    1    1    0    0    0 -0.56519940949E+01  0.25533388113E+02 -0.11919472074E+02  0.28739741828E+02  0.00000000000E+00 0.  1.
</event>
<event>
 5    1  0.1324057E-009  0.9118800E+02  0.7818608E-02  0.1130116E+00
         25   -1    0    0    0    0  0.00000000000E+00  0.00000000000E+00  0.99999998245E-14  0.12500000000E+03  0.12500000000E+03 0.  0.
        -13    1    3    3    0    0  0.22964176007E+02  0.49415545916E+01  0.26135244652E+02  0.35140212272E+02  0.10566000000E+00 0.  1.
         23    2    1    0    0    0 -0.27770298954E+02  0.70633438913E+01 -0.66508122293E+01  0.95583786202E+02  0.90944744490E+02 0.  0.
         13    1    3    3    0    0 -0.50734474961E+02  0.21217892997E+01 -0.32786056882E+02  0.60443573929E+02  0.10566000000E+00 0. -1.
         22    1    1    0    0    0  0.27770298954E+02 -0.70633438913E+01  0.66508122293E+01  0.29416213798E+02  0.00000000000E+00 0. -1.
</event>
<event>
 5    1  0.1324057E-009  0.9118800E+02  0.7818608E-02  0.1130116E+00
         25   -1    0    0    0    0  0.00000000000E+00  0.00000000000E+00  0.99999998245E-14  0.12500000000E+03  0.12500000000E+03 0.  0.
        -13    1    3    3    0    0  0.24814634074E+02  0.36771488368E+00  0.30065405935E+02  0.38985139176E+02  0.10566000000E+00 0. -1.
         23    2    1    0    0    0 -0.11477579869E+02 -0.18283238034E+02 -0.14178783006E+02  0.99172698162E+02  0.95750585067E+02 0.  0.
         13    1    3    3    0    0 -0.36292213943E+02 -0.18650952918E+02 -0.44244188942E+02  0.60187558987E+02  0.10566000000E+00 0.  1.
         22    1    1    0    0    0  0.11477579869E+02  0.18283238034E+02  0.14178783006E+02  0.25827301838E+02  0.00000000000E+00 0.  1.
</event>
<event>
 5    1  0.1324057E-009  0.9118800E+02  0.7818608E-02  0.1130116E+00
         25   -1    0    0    0    0  0.00000000000E+00  0.00000000000E+00  0.99999998245E-14  0.12500000000E+03  0.12500000000E+03 0.  0.
        -13    1    3    3    0    0 -0.39924491931E+01 -0.69140044903E+01  0.32045780895E+02  0.33025540811E+02  0.10566000000E+00 0.  1.
         23    2    1    0    0    0 -0.14574311238E+02  0.19991104133E+02 -0.20414447425E+02  0.92925018220E+02  0.87213843826E+02 0.  0.
         13    1    3    3    0    0 -0.10581862045E+02  0.26905108623E+02 -0.52460228321E+02  0.59899477409E+02  0.10566000000E+00 0. -1.
         22    1    1    0    0    0  0.14574311238E+02 -0.19991104133E+02  0.20414447425E+02  0.32074981780E+02  0.00000000000E+00 0. -1.
</event>
<event>
 5    1  0.1324057E-009  0.9118800E+02  0.7818608E-02  0.1130116E+00
         25   -1    0    0    0    0  0.00000000000E+00  0.00000000000E+00  0.99999998245E-14  0.12500000000E+03  0.12500000000E+03 0.  0.
        -13    1    3    3    0    0 -0.48223155374E+02 -0.12681748733E+02 -0.32338150573E+01  0.49967671439E+02  0.10566000000E+00 0. -1.
         23    2    1    0    0    0 -0.10601224729E+02 -0.13806355625E+02  0.23224974874E+02  0.95975856959E+02  0.91482043264E+02 0.  0.
         13    1    3    3    0    0  0.37621930645E+02 -0.11246068917E+01  0.26458789931E+02  0.46008185520E+02  0.10566000000E+00 0.  1.
         22    1    1    0    0    0  0.10601224729E+02  0.13806355625E+02 -0.23224974874E+02  0.29024143041E+02  0.00000000000E+00 0.  1.
</event>
<event>
 5    1  0.1324057E-009  0.9118800E+02  0.7818608E-02  0.1130116E+00
         25   -1    0    0    0    0  0.00000000000E+00  0.00000000000E+00  0.99999998245E-14  0.12500000000E+03  0.12500000000E+03 0.  0.
        -13    1    3    3    0    0  0.44731122545E+01 -0.31522301565E+02  0.52690117453E+02  0.61562357577E+02  0.10566000000E+00 0.  1.
         23    2    1    0    0    0  0.93630611152E+01 -0.12230975679E+02  0.24132371487E+02  0.96370731181E+02  0.92020013015E+02 0.  0.
         13    1    3    3    0    0  0.48899488607E+01  0.19291325885E+02 -0.28557745966E+02  0.34808373605E+02  0.10566000000E+00 0. -1.
         22    1    1    0    0    0 -0.93630611152E+01  0.12230975679E+02 -0.24132371487E+02  0.28629268819E+02  0.00000000000E+00 0.  1.
</event>
<event>
 5    1  0.1324057E-009  0.9118800E+02  0.7818608E-02  0.1130116E+00
         25   -1    0    0    0    0  0.00000000000E+00  0.00000000000E+00  0.99999998245E-14  0.12500000000E+03  0.12500000000E+03 0.  0.
        -13    1    3    3    0    0  0.22525906181E+02 -0.16630562259E+01 -0.34076678355E+02  0.40882922804E+02  0.10566000000E+00 0.  1.
         23    2    1    0    0    0 -0.10548192114E+02 -0.19504266809E+02  0.11554264895E+02  0.99996363907E+02  0.96819889365E+02 0.  0.
         13    1    3    3    0    0 -0.33074098295E+02 -0.17841210583E+02  0.45630943250E+02  0.59113441103E+02  0.10566000000E+00 0. -1.
         22    1    1    0    0    0  0.10548192114E+02  0.19504266809E+02 -0.11554264895E+02  0.25003636093E+02  0.00000000000E+00 0. -1.
</event>
<event>
 5    1  0.1324057E-009  0.9118800E+02  0.7818608E-02  0.1130116E+00
         25   -1    0    0    0    0  0.00000000000E+00  0.00000000000E+00  0.99999998245E-14  0.12500000000E+03  0.12500000000E+03 0.  0.
        -13    1    3    3    0    0  0.41399283257E+02 -0.26609388559E+02  0.12590625070E+02  0.50798574954E+02  0.10566000000E+00 0. -1.
         23    2    1    0    0    0  0.17303453817E+02  0.10728327494E+02  0.20694700388E+02  0.95969375670E+02  0.91473186878E+02 0.  0.
         13    1    3    3    0    0 -0.24095829440E+02  0.37337716054E+02  0.81040753186E+01  0.45170800716E+02  0.10566000000E+00 0.  1.
         22    1    1    0    0    0 -0.17303453817E+02 -0.10728327494E+02 -0.20694700388E+02  0.29030624330E+02  0.00000000000E+00 0. -1.
</event>
<event>
 5    1  0.1324057E-009  0.9118800E+02  0.7818608E-02  0.1130116E+00
         25   -1    0    0    0    0  0.00000000000E+00  0.00000000000E+00  0.99999998245E-14  0.12500000000E+03  0.12500000000E+03 0.  0.
        -13    1    3    3    0    0  0.34499446916E+02 -0.78177333389E+01  0.22504946531E+02  0.41926275466E+02  0.10566000000E+00 0.  1.
         23    2    1    0    0    0 -0.14439535187E+02  0.15788526921E+02  0.19019196708E+02  0.96372956803E+02  0.92023036251E+02 0.  0.
         13    1    3    3    0    0 -0.48938982103E+02  0.23606260260E+02 -0.34857498224E+01  0.54446681337E+02  0.10566000000E+00 0. -1.
         22    1    1    0    0    0  0.14439535187E+02 -0.15788526921E+02 -0.19019196708E+02  0.28627043197E+02  0.00000000000E+00 0. -1.
</event>
<event>
 5    1  0.1324057E-009  0.9118800E+02  0.7818608E-02  0.1130116E+00
         25   -1    0    0    0    0  0.00000000000E+00  0.00000000000E+00  0.99999998245E-14  0.12500000000E+03  0.12500000000E+03 0.  0.
        -13    1    3    3    0    0 -0.19049648450E+02  0.34039968598E+02 -0.89144893886E+01  0.40013595855E+02  0.10566000000E+00 0.  1.
         23    2    1    0    0    0  0.62022664797E+01 -0.11257537678E+02 -0.27129256117E+02  0.94980059935E+02  0.90111125749E+02 0.  0.
         13    1    3    3    0    0  0.25251914929E+02 -0.45297506276E+02 -0.18214766728E+02  0.54966464079E+02  0.10566000000E+00 0. -1.
         22    1    1    0    0    0 -0.62022664797E+01  0.11257537678E+02  0.27129256117E+02  0.30019940065E+02  0.00000000000E+00 0. -1.
</event>
<event>
 5    1  0.1324057E-009  0.9118800E+02  0.7818608E-02  0.1130116E+00
         25   -1    0    0    0    0  0.00000000000E+00  0.00000000000E+00  0.99999998245E-14  0.12500000000E+03  0.12500000000E+03 0.  0.
        -13    1    3    3    0    0 -0.36214456381E+02  0.16208276782E+02 -0.66281127082E+01  0.40226087671E+02  0.10566000000E+00 0.  1.
         23    2    1    0    0    0  0.17850278238E+02  0.21415459600E+02 -0.11674510977E+02  0.94775034332E+02  0.89826268892E+02 0.  0.
         13    1    3    3    0    0  0.54064734619E+02  0.52071828178E+01 -0.50463982691E+01  0.54548946661E+02  0.10566000000E+00 0. -1.
         22    1    1    0    0    0 -0.17850278238E+02 -0.21415459600E+02  0.11674510977E+02  0.30224965668E+02  0.00000000000E+00 0. -1.
</event>
<event>
 5    1  0.1324057E-009  0.9118800E+02  0.7818608E-02  0.1130116E+00
         25   -1    0    0    0    0  0.00000000000E+00  0.00000000000E+00  0.99999998245E-14  0.12500000000E+03  0.12500000000E+03 0.  0.
        -13    1    3    3    0    0 -0.60444426467E+00 -0.24573625483E+02 -0.33027387533E+02  0.41170959590E+02  0.10566000000E+00 0.  1.
         23    2    1    0    0    0  0.71817237526E+01  0.25436982880E+02 -0.11742178488E+02  0.96077759255E+02  0.91621175574E+02 0.  0.
         13    1    3    3    0    0  0.77861680173E+01  0.50010608363E+02  0.21285209045E+02  0.54906799664E+02  0.10566000000E+00 0. -1.
         22    1    1    0    0    0 -0.71817237526E+01 -0.25436982880E+02  0.11742178488E+02  0.28922240745E+02  0.00000000000E+00 0. -1.
</event>
<event>
 5    1  0.1324057E-009  0.9118800E+02  0.7818608E-02  0.1130116E+00
         25   -1    0    0    0    0  0.00000000000E+00  0.00000000000E+00  0.99999998245E-14  0.12500000000E+03  0.12500000000E+03 0.  0.
        -13    1    3    3    0    0  0.28508022477E+02 -0.11755456252E+02  0.44397707332E+02  0.54056134505E+02  0.10566000000E+00 0.  1.
         23    2    1    0    0    0  0.11412796816E+02  0.17291549219E+02  0.23307692071E+02  0.93815097960E+02  0.88480362171E+02 0.  0.
         13    1    3    3    0    0 -0.17095225661E+02  0.29047005471E+02 -0.21090015261E+02  0.39758963455E+02  0.10566000000E+00 0. -1.
         22    1    1    0    0    0 -0.11412796816E+02 -0.17291549219E+02 -0.23307692071E+02  0.31184902040E+02  0.00000000000E+00 0.  1.
</event>
<event>
 5    1  0.1324057E-009  0.9118800E+02  0.7818608E-02  0.1130116E+00
         25   -1    0    0    0    0  0.00000000000E+00  0.00000000000E+00  0.99999998245E-14  0.12500000000E+03  0.12500000000E+03 0.  0.
        -13    1    3    3    0    0 -0.18351493235E+01  0.11939300104E+02  0.57052019932E+02  0.58316882653E+02  0.10566000000E+00 0. -1.
         23    2    1    0    0    0  0.14954803248E+02  0.76830939907E+01  0.23134228632E+02  0.96401597810E+02  0.92061932700E+02 0.  0.
         13    1    3    3    0    0  0.16789952571E+02 -0.42562061129E+01 -0.33917791301E+02  0.38084715157E+02  0.10566000000E+00 0.  1.
         22    1    1    0    0    0 -0.14954803248E+02 -0.76830939907E+01 -0.23134228632E+02  0.28598402190E+02  0.00000000000E+00 0. -1.
</event>
<event>
 5    1  0.1324057E-009  0.9118800E+02  0.7818608E-02  0.1130116E+00
         25   -1    0    0    0    0  0.00000000000E+00  0.00000000000E+00  0.99999998245E-14  0.12500000000E+03  0.12500000000E+03 0.  0.
        -13    1    3    3    0    0 -0.87794370907E+01 -0.14733399236E+02  0.36149822515E+02  0.40012153161E+02  0.10566000000E+00 0.  1.
         23    2    1    0    0    0  0.27427910333E+02 -0.96946996519E+01 -0.54619035163E+01  0.95400847029E+02  0.90692953184E+02 0.  0.
         13    1    3    3    0    0  0.36207347424E+02  0.50386995841E+01 -0.41611726032E+02  0.55388693868E+02  0.10566000000E+00 0. -1.
         22    1    1    0    0    0 -0.27427910333E+02  0.96946996519E+01  0.54619035163E+01  0.29599152971E+02  0.00000000000E+00 0. -1.
</event>
<event>
 5    1  0.1324057E-009  0.9118800E+02  0.7818608E-02  0.1130116E+00
         25   -1    0    0    0    0  0.00000000000E+00  0.00000000000E+00  0.99999998245E-14  0.12500000000E+03  0.12500000000E+03 0.  0.
        -13    1    3    3    0    0 -0.51366055113E+02 -0.29621089035E+02  0.78110442906E+01  0.59807224567E+02  0.10566000000E+00 0. -1.
         23    2    1    0    0    0 -0.29104917399E+02 -0.18957176444E+01  0.34828327048E+01  0.95626200691E+02  0.91003022877E+02 0.  0.
         13    1    3    3    0    0  0.22261137713E+02  0.27725371390E+02 -0.43282115857E+01  0.35818976124E+02  0.10566000000E+00 0.  1.
         22    1    1    0    0    0  0.29104917399E+02  0.18957176444E+01 -0.34828327048E+01  0.29373799309E+02  0.00000000000E+00 0. -1.
</event>
<event>
 5    1  0.1324057E-009  0.9118800E+02  0.7818608E-02  0.1130116E+00
         25   -1    0    0    0    0  0.00000000000E+00  0.00000000000E+00  0.99999998245E-14  0.12500000000E+03  0.12500000000E+03 0.  0.
        -13    1    3    3    0    0  0.31060795953E+02 -0.16970674426E+02  0.50911837949E+02  0.62006477429E+02  0.10566000000E+00 0.  1.
         23    2    1    0    0    0  0.19515236986E+02 -0.60530024643E+01  0.22155854352E+02  0.94860902543E+02  0.89945681585E+02 0.  0.
         13    1    3    3    0    0 -0.11545558967E+02  0.10917671962E+02 -0.28755983597E+02  0.32854425114E+02  0.10566000000E+00 0. -1.
         22    1    1    0    0    0 -0.19515236986E+02  0.60530024643E+01 -0.22155854352E+02  0.30139097457E+02  0.00000000000E+00 0.  1.
</event>
<event>
 5    1  0.1324057E-009  0.9118800E+02  0.7818608E-02  0.1130116E+00
         25   -1    0    0    0    0  0.00000000000E+00  0.00000000000E+00  0.99999998245E-14  0.12500000000E+03  0.12500000000E+03 0.  0.
        -13    1    3    3    0    0  0.37536386457E+02  0.10004704711E+02  0.41164590708E+02  0.56600433892E+02  0.10566000000E+00 0. -1.
         23    2    1    0    0    0  0.28179404734E+02 -0.89100695157E+01  0.10892385888E+02  0.93502186421E+02  0.88037188762E+02 0.  0.
         13    1    3    3    0    0 -0.93569817226E+01 -0.18914774227E+02 -0.30272204820E+02  0.36901752529E+02  0.10566000000E+00 0.  1.
         22    1    1    0    0    0 -0.28179404734E+02  0.89100695157E+01 -0.10892385888E+02  0.31497813579E+02  0.00000000000E+00 0. -1.
</event>
<event>
 5    1  0.1324057E-009  0.9118800E+02  0.7818608E-02  0.1130116E+00
         25   -1    0    0    0    0  0.00000000000E+00  0.00000000000E+00  0.99999998245E-14  0.12500000000E+03  0.12500000000E+03 0.  0.
        -13    1    3    3    0    0  0.17700849463E+02 -0.10221055129E+02 -0.44796445732E+02  0.49239443071E+02  0.10566000000E+00 0. -1.
         23    2    1    0    0    0  0.28919739406E+02 -0.90000227759E+01 -0.75616352673E+00  0.94702747310E+02  0.89725619683E+02 0.  0.
         13    1    3    3    0    0  0.11218889943E+02  0.12210323531E+01  0.44040282205E+02  0.45463304239E+02  0.10566000000E+00 0.  1.
         22    1    1    0    0    0 -0.28919739406E+02  0.90000227759E+01  0.75616352673E+00  0.30297252690E+02  0.00000000000E+00 0. -1.
</event>
<event>
 5    1  0.1324057E-009  0.9118800E+02  0.7818608E-02  0.1130116E+00
         25   -1    0    0    0    0  0.00000000000E+00  0.00000000000E+00  0.99999998245E-14  0.12500000000E+03  0.12500000000E+03 0.  0.
        -13    1    3    3    0    0 -0.14694209901E+02  0.32512501254E+02  0.27197461345E+01  0.35782547778E+02  0.10566000000E+00 0. -1.
         23    2    1    0    0    0 -0.82622194152E+01 -0.26592124602E+02  0.93994867992E+01  0.95610278794E+02  0.90981150237E+02 0.  0.
         13    1    3    3    0    0  0.64319904858E+01 -0.59104625856E+02  0.66797406647E+01  0.59827731016E+02  0.10566000000E+00 0.  1.
         22    1    1    0    0    0  0.82622194152E+01  0.26592124602E+02 -0.93994867992E+01  0.29389721206E+02  0.00000000000E+00 0.  1.
</event>
<event>
 5    1  0.1324057E-009  0.9118800E+02  0.7818608E-02  0.1130116E+00
         25   -1    0    0    0    0  0.00000000000E+00  0.00000000000E+00  0.99999998245E-14  0.12500000000E+03  0.12500000000E+03 0.  0.
        -13    1    3    3    0    0  0.49924000955E+02  0.11431909611E+02  0.65725311332E+01  0.51636263984E+02  0.10566000000E+00 0. -1.
         23    2    1    0    0    0  0.11077870973E+02 -0.22956477745E+01  0.25595042608E+02  0.97016157696E+02  0.92892623087E+02 0.  0.
         13    1    3    3    0    0 -0.38846129983E+02 -0.13727557386E+02  0.19022511475E+02  0.45379893711E+02  0.10566000000E+00 0.  1.
         22    1    1    0    0    0 -0.11077870973E+02  0.22956477745E+01 -0.25595042608E+02  0.27983842304E+02  0.00000000000E+00 0. -1.
</event>
<event>
 5    1  0.1324057E-009  0.9118800E+02  0.7818608E-02  0.1130116E+00
         25   -1    0    0    0    0  0.00000000000E+00  0.00000000000E+00  0.99999998245E-14  0.12500000000E+03  0.12500000000E+03 0.  0.
        -13    1    3    3    0    0 -0.15201083707E+02 -0.33903030540E+02 -0.75581051381E+01  0.37916019609E+02  0.10566000000E+00 0. -1.
         23    2    1    0    0    0  0.24087070926E+02  0.97449059573E+01 -0.11091737545E+02  0.96747976715E+02  0.92531044406E+02 0.  0.
         13    1    3    3    0    0  0.39288154633E+02  0.43647936498E+02 -0.35336324066E+01  0.58831957106E+02  0.10566000000E+00 0.  1.
         22    1    1    0    0    0 -0.24087070926E+02 -0.97449059573E+01  0.11091737545E+02  0.28252023285E+02  0.00000000000E+00 0.  1.
</event>
<event>
 5    1  0.1324057E-009  0.9118800E+02  0.7818608E-02  0.1130116E+00
         25   -1    0    0    0    0  0.00000000000E+00  0.00000000000E+00  0.99999998245E-14  0.12500000000E+03  0.12500000000E+03 0.  0.
        -13    1    3    3    0    0 -0.46072228919E+01 -0.46012513086E+02 -0.14821204348E+02  0.48559830371E+02  0.10566000000E+00 0.  1.
         23    2    1    0    0    0 -0.27524820337E+02 -0.53508990880E+01 -0.87377118285E+01  0.95630024453E+02  0.91008274971E+02 0.  0.
         13    1    3    3    0    0 -0.22917597445E+02  0.40661613998E+02  0.60834925195E+01  0.47070194082E+02  0.10566000000E+00 0. -1.
         22    1    1    0    0    0  0.27524820337E+02  0.53508990880E+01  0.87377118285E+01  0.29369975547E+02  0.00000000000E+00 0. -1.
</event>
<event>
 5    1  0.1324057E-009  0.9118800E+02  0.7818608E-02  0.1130116E+00
         25   -1    0    0    0    0  0.00000000000E+00  0.00000000000E+00  0.99999998245E-14  0.12500000000E+03  0.12500000000E+03 0.  0.
        -13    1    3    3    0    0  0.12351572958E+02  0.22732960557E+02 -0.50806161353E+02  0.57014261774E+02  0.10566000000E+00 0.  1.
         23    2    1    0    0    0 -0.90049351339E+01  0.20777875215E+02 -0.18662581863E+02  0.95655478927E+02  0.91043230016E+02 0.  0.
         13    1    3    3    0    0 -0.21356508092E+02 -0.19550853415E+01  0.32143579490E+02  0.38641217153E+02  0.10566000000E+00 0. -1.
         22    1    1    0    0    0  0.90049351339E+01 -0.20777875215E+02  0.18662581863E+02  0.29344521073E+02  0.00000000000E+00 0.  1.
</event>
<event>
 5    1  0.1324057E-009  0.9118800E+02  0.7818608E-02  0.1130116E+00
         25   -1    0    0    0    0  0.00000000000E+00  0.00000000000E+00  0.99999998245E-14  0.12500000000E+03  0.12500000000E+03 0.  0.
        -13    1    3    3    0    0 -0.87852196434E+01 -0.33378753066E+01  0.48251171437E+02  0.49157992278E+02  0.10566000000E+00 0.  1.
         23    2    1    0    0    0 -0.12043074622E+02 -0.25729423418E+02  0.77467459947E+01  0.95554271120E+02  0.90904168111E+02 0.  0.
         13    1    3    3    0    0 -0.32578549784E+01 -0.22391548112E+02 -0.40504425442E+02  0.46396278842E+02  0.10566000000E+00 0. -1.
         22    1    1    0    0    0  0.12043074622E+02  0.25729423418E+02 -0.77467459947E+01  0.29445728880E+02  0.00000000000E+00 0.  1.
</event>
<event>
 5    1  0.1324057E-009  0.9118800E+02  0.7818608E-02  0.1130116E+00
         25   -1    0    0    0    0  0.00000000000E+00  0.00000000000E+00  0.99999998245E-14  0.12500000000E+03  0.12500000000E+03 0.  0.
        -13    1    3    3    0    0 -0.77247763150E+01  0.41206503126E+02  0.90782989781E+01  0.42896092426E+02  0.10566000000E+00 0. -1.
         23    2    1    0    0    0 -0.23258113426E+02 -0.11984527022E+02  0.38298672717E+01  0.98556917513E+02  0.94943295594E+02 0.  0.
         13    1    3    3    0    0 -0.15533337111E+02 -0.53191030148E+02 -0.52484317065E+01  0.55660825088E+02  0.10566000000E+00 0.  1.
         22    1    1    0    0    0  0.23258113426E+02  0.11984527022E+02 -0.38298672717E+01  0.26443082487E+02  0.00000000000E+00 0. -1.
</event>
<event>
 5    1  0.1324057E-009  0.9118800E+02  0.7818608E-02  0.1130116E+00
         25   -1    0    0    0    0  0.00000000000E+00  0.00000000000E+00  0.99999998245E-14  0.12500000000E+03  0.12500000000E+03 0.  0.
        -13    1    3    3    0    0  0.19080112730E+02 -0.29482157064E+02  0.21958807998E+02  0.41417975562E+02  0.10566000000E+00 0.  1.
         23    2    1    0    0    0 -0.21391905356E+02 -0.13364785798E+02 -0.12393284546E+02  0.96896181469E+02  0.92731037778E+02 0.  0.
         13    1    3    3    0    0 -0.40472018085E+02  0.16117371266E+02 -0.34352092545E+02  0.55478205907E+02  0.10566000000E+00 0. -1.
         22    1    1    0    0    0  0.21391905356E+02  0.13364785798E+02  0.12393284546E+02  0.28103818531E+02  0.00000000000E+00 0. -1.
</event>
<event>
 5    1  0.1324057E-009  0.9118800E+02  0.7818608E-02  0.1130116E+00
         25   -1    0    0    0    0  0.00000000000E+00  0.00000000000E+00  0.99999998245E-14  0.12500000000E+03  0.12500000000E+03 0.  0.
        -13    1    3    3    0    0  0.42448219197E+02 -0.14588590213E+02  0.35350818031E+02  0.57134663532E+02  0.10566000000E+00 0.  1.
         23    2    1    0    0    0  0.47210453876E+01 -0.12720142103E+02  0.25410141711E+02  0.96194348012E+02  0.91780101346E+02 0.  0.
         13    1    3    3    0    0 -0.37727173810E+02  0.18684481101E+01 -0.99406763196E+01  0.39059684481E+02  0.10566000000E+00 0. -1.
         22    1    1    0    0    0 -0.47210453876E+01  0.12720142103E+02 -0.25410141711E+02  0.28805651988E+02  0.00000000000E+00 0.  1.
</event>
<event>
 5    1  0.1324057E-009  0.9118800E+02  0.7818608E-02  0.1130116E+00
         25   -1    0    0    0    0  0.00000000000E+00  0.00000000000E+00  0.99999998245E-14  0.12500000000E+03  0.12500000000E+03 0.  0.
        -13    1    3    3    0    0  0.32092705767E+02  0.23375138669E+02 -0.21906618083E+02  0.45345892329E+02  0.10566000000E+00 0.  1.
         23    2    1    0    0    0 -0.17815798894E+02  0.14322887726E+02 -0.17406228874E+02  0.96268055989E+02  0.91880433158E+02 0.  0.
         13    1    3    3    0    0 -0.49908504662E+02 -0.90522509432E+01  0.45003892095E+01  0.50922163660E+02  0.10566000000E+00 0. -1.
         22    1    1    0    0    0  0.17815798894E+02 -0.14322887726E+02  0.17406228874E+02  0.28731944011E+02  0.00000000000E+00 0. -1.
</event>
<event>
 5    1  0.1324057E-009  0.9118800E+02  0.7818608E-02  0.1130116E+00
         25   -1    0    0    0    0  0.00000000000E+00  0.00000000000E+00  0.99999998245E-14  0.12500000000E+03  0.12500000000E+03 0.  0.
        -13    1    3    3    0    0  0.39047524154E+02 -0.16792861446E+02  0.37334114686E+02  0.56573462166E+02  0.10566000000E+00 0.  1.
         23    2    1    0    0    0  0.22931038550E+02 -0.18548844173E+02  0.20131114253E+01  0.95437443162E+02  0.90743378770E+02 0.  0.
         13    1    3    3    0    0 -0.16116485603E+02 -0.17559827274E+01 -0.35321003260E+02  0.38863980996E+02  0.10566000000E+00 0. -1.
         22    1    1    0    0    0 -0.22931038550E+02  0.18548844173E+02 -0.20131114253E+01  0.29562556838E+02  0.00000000000E+00 0.  1.
</event>
<event>
 5    1  0.1324057E-009  0.9118800E+02  0.7818608E-02  0.1130116E+00
         25   -1    0    0    0    0  0.00000000000E+00  0.00000000000E+00  0.99999998245E-14  0.12500000000E+03  0.12500000000E+03 0.  0.
        -13    1    3    3    0    0  0.12229154424E+02 -0.34274504084E+02  0.47942670622E+02  0.60189738981E+02  0.10566000000E+00 0. -1.
         23    2    1    0    0    0  0.16745915255E+02 -0.11341457895E+02  0.22983044699E+02  0.94385057756E+02  0.89281937922E+02 0.  0.
         13    1    3    3    0    0  0.45167608311E+01  0.22933046189E+02 -0.24959625923E+02  0.34195318775E+02  0.10566000000E+00 0.  1.
         22    1    1    0    0    0 -0.16745915255E+02  0.11341457895E+02 -0.22983044699E+02  0.30614942244E+02  0.00000000000E+00 0. -1.
</event>
<event>
 5    1  0.1324057E-009  0.9118800E+02  0.7818608E-02  0.1130116E+00
         25   -1    0    0    0    0  0.00000000000E+00  0.00000000000E+00  0.99999998245E-14  0.12500000000E+03  0.12500000000E+03 0.  0.
        -13    1    3    3    0    0 -0.22769581156E+02 -0.14973767882E+02 -0.23208591111E+02  0.35795494353E+02  0.10566000000E+00 0.  1.
         23    2    1    0    0    0  0.24924510406E+02  0.10048097785E+02  0.65643315017E+01  0.97336198089E+02  0.93322288454E+02 0.  0.
         13    1    3    3    0    0  0.47694091562E+02  0.25021865667E+02  0.29772922613E+02  0.61540703736E+02  0.10566000000E+00 0. -1.
         22    1    1    0    0    0 -0.24924510406E+02 -0.10048097785E+02 -0.65643315017E+01  0.27663801911E+02  0.00000000000E+00 0. -1.
</event>
<event>
 5    1  0.1324057E-009  0.9118800E+02  0.7818608E-02  0.1130116E+00
         25   -1    0    0    0    0  0.00000000000E+00  0.00000000000E+00  0.99999998245E-14  0.12500000000E+03  0.12500000000E+03 0.  0.
        -13    1    3    3    0    0  0.80353839003E+01 -0.27416890815E+02 -0.19780606264E+02  0.34749630855E+02  0.10566000000E+00 0.  1.
         23    2    1    0    0    0 -0.88220459926E+01  0.76502723580E+01  0.26992171701E+02  0.95590265289E+02  0.90953649306E+02 0.  0.
         13    1    3    3    0    0 -0.16857429893E+02  0.35067163173E+02  0.46772777965E+02  0.60840634433E+02  0.10566000000E+00 0. -1.
         22    1    1    0    0    0  0.88220459926E+01 -0.76502723580E+01 -0.26992171701E+02  0.29409734711E+02  0.00000000000E+00 0. -1.
</event>
<event>
 5    1  0.1324057E-009  0.9118800E+02  0.7818608E-02  0.1130116E+00
         25   -1    0    0    0    0  0.00000000000E+00  0.00000000000E+00  0.99999998245E-14  0.12500000000E+03  0.12500000000E+03 0.  0.
        -13    1    3    3    0    0  0.22717690342E+02 -0.20212643047E+02  0.12050872909E+02  0.32709006334E+02  0.10566000000E+00 0. -1.
         23    2    1    0    0    0 -0.19303310813E+02  0.23721491464E+02  0.17798007716E+01  0.94365139850E+02  0.89254047317E+02 0.  0.
         13    1    3    3    0    0 -0.42021001155E+02  0.43934134511E+02 -0.10271072137E+02  0.61656133516E+02  0.10566000000E+00 0.  1.
         22    1    1    0    0    0  0.19303310813E+02 -0.23721491464E+02 -0.17798007716E+01  0.30634860150E+02  0.00000000000E+00 0.  1.
</event>
<event>
 5    1  0.1324057E-009  0.9118800E+02  0.7818608E-02  0.1130116E+00
         25   -1    0    0    0    0  0.00000000000E+00  0.00000000000E+00  0.99999998245E-14  0.12500000000E+03  0.12500000000E+03 0.  0.
        -13    1    3    3    0    0 -0.38441457599E+01 -0.60377054902E+02 -0.60680228791E+01  0.60802946318E+02  0.10566000000E+00 0.  1.
         23    2    1    0    0    0  0.12875784913E+01 -0.31733154888E+02  0.66352890550E+01  0.92554999794E+02  0.86681889392E+02 0.  0.
         13    1    3    3    0    0  0.51317242512E+01  0.28643900014E+02  0.12703311934E+02  0.31752053476E+02  0.10566000000E+00 0. -1.
         22    1    1    0    0    0 -0.12875784913E+01  0.31733154888E+02 -0.66352890550E+01  0.32445000206E+02  0.00000000000E+00 0.  1.
</event>
<event>
 5    1  0.1324057E-009  0.9118800E+02  0.7818608E-02  0.1130116E+00
         25   -1    0    0    0    0  0.00000000000E+00  0.00000000000E+00  0.99999998245E-14  0.12500000000E+03  0.12500000000E+03 0.  0.
        -13    1    3    3    0    0  0.42649085801E+02 -0.31040295122E+02 -0.31833974105E+02  0.61610530855E+02  0.10566000000E+00 0.  1.
         23    2    1    0    0    0  0.21590938360E+02 -0.18466326712E+02 -0.88001552675E+01  0.95257495495E+02  0.90495159394E+02 0.  0.
         13    1    3    3    0    0 -0.21058147441E+02  0.12573968410E+02  0.23033818837E+02  0.33646964640E+02  0.10566000000E+00 0. -1.
         22    1    1    0    0    0 -0.21590938360E+02  0.18466326712E+02  0.88001552675E+01  0.29742504505E+02  0.00000000000E+00 0.  1.
</event>
<event>
 5    1  0.1324057E-009  0.9118800E+02  0.7818608E-02  0.1130116E+00
         25   -1    0    0    0    0  0.00000000000E+00  0.00000000000E+00  0.99999998245E-14  0.12500000000E+03  0.12500000000E+03 0.  0.
        -13    1    3    3    0    0  0.39544985506E+01 -0.62214251264E+01  0.35390184491E+02  0.36149972500E+02  0.10566000000E+00 0. -1.
         23    2    1    0    0    0  0.24870235631E+01  0.18593909456E+02 -0.20435088866E+02  0.97259927685E+02  0.93220072523E+02 0.  0.
         13    1    3    3    0    0 -0.14674749875E+01  0.24815334583E+02 -0.55825273357E+02  0.61109955185E+02  0.10566000000E+00 0.  1.
         22    1    1    0    0    0 -0.24870235631E+01 -0.18593909456E+02  0.20435088866E+02  0.27740072315E+02  0.00000000000E+00 0.  1.
</event>
<event>
 5    1  0.1324057E-009  0.9118800E+02  0.7818608E-02  0.1130116E+00
         25   -1    0    0    0    0  0.00000000000E+00  0.00000000000E+00  0.99999998245E-14  0.12500000000E+03  0.12500000000E+03 0.  0.
        -13    1    3    3    0    0  0.50908208526E+02  0.79092284223E+01 -0.90745310474E+01  0.52312138814E+02  0.10566000000E+00 0.  1.
         23    2    1    0    0    0  0.10716917050E+02  0.18023940589E+02 -0.20882626683E+02  0.95406101261E+02  0.90700194681E+02 0.  0.
         13    1    3    3    0    0 -0.40191291476E+02  0.10114712167E+02 -0.11808095636E+02  0.43093962446E+02  0.10566000000E+00 0. -1.
         22    1    1    0    0    0 -0.10716917050E+02 -0.18023940589E+02  0.20882626683E+02  0.29593898739E+02  0.00000000000E+00 0.  1.
</event>
<event>
 5    1  0.1324057E-009  0.9118800E+02  0.7818608E-02  0.1130116E+00
         25   -1    0    0    0    0  0.00000000000E+00  0.00000000000E+00  0.99999998245E-14  0.12500000000E+03  0.12500000000E+03 0.  0.
        -13    1    3    3    0    0 -0.24638292103E+02  0.14363856479E+02 -0.63764686715E+01  0.29223899935E+02  0.10566000000E+00 0. -1.
         23    2    1    0    0    0  0.23269300766E+02  0.82232384875E+01 -0.32543940997E+02  0.84156516983E+02  0.73580766819E+02 0.  0.
         13    1    3    3    0    0  0.47907592868E+02 -0.61406179910E+01 -0.26167472326E+02  0.54932617048E+02  0.10566000000E+00 0.  1.
         22    1    1    0    0    0 -0.23269300766E+02 -0.82232384875E+01  0.32543940997E+02  0.40843483017E+02  0.00000000000E+00 0. -1.
</event>
<event>
 5    1  0.1324057E-009  0.9118800E+02  0.7818608E-02  0.1130116E+00
         25   -1    0    0    0    0  0.00000000000E+00  0.00000000000E+00  0.99999998245E-14  0.12500000000E+03  0.12500000000E+03 0.  0.
        -13    1    3    3    0    0 -0.22805580457E+02  0.27482252298E+02  0.21578421542E+02  0.41725389533E+02  0.10566000000E+00 0.  1.
         23    2    1    0    0    0  0.22101939349E+01 -0.20900407974E+02  0.19651720149E+02  0.96226711771E+02  0.91824168620E+02 0.  0.
         13    1    3    3    0    0  0.25015774392E+02 -0.48382660272E+02 -0.19267013929E+01  0.54501322238E+02  0.10566000000E+00 0. -1.
         22    1    1    0    0    0 -0.22101939349E+01  0.20900407974E+02 -0.19651720149E+02  0.28773288229E+02  0.00000000000E+00 0.  1.
</event>
<event>
 5    1  0.1324057E-009  0.9118800E+02  0.7818608E-02  0.1130116E+00
         25   -1    0    0    0    0  0.00000000000E+00  0.00000000000E+00  0.99999998245E-14  0.12500000000E+03  0.12500000000E+03 0.  0.
        -13    1    3    3    0    0  0.17242103376E+02  0.53561097190E+02  0.11004606775E+02  0.57334054412E+02  0.10566000000E+00 0.  1.
         23    2    1    0    0    0 -0.95575332020E+01  0.27882289770E+02  0.24509650854E+01  0.95423391784E+02  0.90724020778E+02 0.  0.
         13    1    3    3    0    0 -0.26799636578E+02 -0.25678807421E+02 -0.85536416895E+01  0.38089337372E+02  0.10566000000E+00 0. -1.
         22    1    1    0    0    0  0.95575332020E+01 -0.27882289770E+02 -0.24509650854E+01  0.29576608216E+02  0.00000000000E+00 0.  1.
</event>
<event>
 5    1  0.1324057E-009  0.9118800E+02  0.7818608E-02  0.1130116E+00
         25   -1    0    0    0    0  0.00000000000E+00  0.00000000000E+00  0.99999998245E-14  0.12500000000E+03  0.12500000000E+03 0.  0.
        -13    1    3    3    0    0 -0.88951268559E+01 -0.17772468402E+02  0.57065479209E+02  0.60427344773E+02  0.10566000000E+00 0. -1.
         23    2    1    0    0    0 -0.13953781986E+02 -0.11726382032E+02  0.21700315061E+02  0.96660632664E+02  0.92412976178E+02 0.  0.
         13    1    3    3    0    0 -0.50586551297E+01  0.60460863693E+01 -0.35365164149E+02  0.36233287891E+02  0.10566000000E+00 0.  1.
         22    1    1    0    0    0  0.13953781986E+02  0.11726382032E+02 -0.21700315061E+02  0.28339367336E+02  0.00000000000E+00 0. -1.
</event>
<event>
 5    1  0.1324057E-009  0.9118800E+02  0.7818608E-02  0.1130116E+00
         25   -1    0    0    0    0  0.00000000000E+00  0.00000000000E+00  0.99999998245E-14  0.12500000000E+03  0.12500000000E+03 0.  0.
        -13    1    3    3    0    0  0.11573145914E+02  0.35033676882E+02  0.81496347514E+01  0.37785234323E+02  0.10566000000E+00 0. -1.
         23    2    1    0    0    0  0.12406245334E+02 -0.24121158809E+02  0.71262514694E+01  0.96954881252E+02  0.92810130443E+02 0.  0.
         13    1    3    3    0    0  0.83309942085E+00 -0.59154835691E+02 -0.10233832820E+01  0.59169646929E+02  0.10566000000E+00 0.  1.
         22    1    1    0    0    0 -0.12406245334E+02  0.24121158809E+02 -0.71262514694E+01  0.28045118748E+02  0.00000000000E+00 0.  1.
</event>
<event>
 5    1  0.1324057E-009  0.9118800E+02  0.7818608E-02  0.1130116E+00
         25   -1    0    0    0    0  0.00000000000E+00  0.00000000000E+00  0.99999998245E-14  0.12500000000E+03  0.12500000000E+03 0.  0.
        -13    1    3    3    0    0 -0.27827276306E+02 -0.24935170739E+01 -0.34428850758E+02  0.44338830189E+02  0.10566000000E+00 0. -1.
         23    2    1    0    0    0  0.21412020017E+02  0.84080030973E+00 -0.19827371981E+02  0.95805715867E+02  0.91249268308E+02 0.  0.
         13    1    3    3    0    0  0.49239296323E+02  0.33343173836E+01  0.14601478777E+02  0.51466885678E+02  0.10566000000E+00 0.  1.
         22    1    1    0    0    0 -0.21412020017E+02 -0.84080030973E+00  0.19827371981E+02  0.29194284133E+02  0.00000000000E+00 0. -1.
</event>
<event>
 5    1  0.1324057E-009  0.9118800E+02  0.7818608E-02  0.1130116E+00
         25   -1    0    0    0    0  0.00000000000E+00  0.00000000000E+00  0.99999998245E-14  0.12500000000E+03  0.12500000000E+03 0.  0.
        -13    1    3    3    0    0 -0.48637498972E+02 -0.87038504900E+01 -0.53483399126E+01  0.49698885536E+02  0.10566000000E+00 0.  1.
         23    2    1    0    0    0 -0.64988463383E+01 -0.12661153465E+02 -0.24899261993E+02  0.96320511535E+02  0.91951769335E+02 0.  0.
         13    1    3    3    0    0  0.42138652634E+02 -0.39573029752E+01 -0.19550922080E+02  0.46621626000E+02  0.10566000000E+00 0. -1.
         22    1    1    0    0    0  0.64988463383E+01  0.12661153465E+02  0.24899261993E+02  0.28679488465E+02  0.00000000000E+00 0. -1.
</event>
<event>
 5    1  0.1324057E-009  0.9118800E+02  0.7818608E-02  0.1130116E+00
         25   -1    0    0    0    0  0.00000000000E+00  0.00000000000E+00  0.99999998245E-14  0.12500000000E+03  0.12500000000E+03 0.  0.
        -13    1    3    3    0    0 -0.77021009145E+01 -0.27105203803E+02  0.26158631880E+02  0.38448662104E+02  0.10566000000E+00 0. -1.
         23    2    1    0    0    0 -0.21397248038E+02 -0.27032704322E+01 -0.22028485346E+02  0.94171375943E+02  0.88982267816E+02 0.  0.
         13    1    3    3    0    0 -0.13695147123E+02  0.24401933371E+02 -0.48187117226E+02  0.55722713839E+02  0.10566000000E+00 0.  1.
         22    1    1    0    0    0  0.21397248038E+02  0.27032704322E+01  0.22028485346E+02  0.30828624057E+02  0.00000000000E+00 0.  1.
</event>
<event>
 5    1  0.1324057E-009  0.9118800E+02  0.7818608E-02  0.1130116E+00
         25   -1    0    0    0    0  0.00000000000E+00  0.00000000000E+00  0.99999998245E-14  0.12500000000E+03  0.12500000000E+03 0.  0.
        -13    1    3    3    0    0 -0.43176824155E+02  0.39094824581E+02 -0.22237418758E+02  0.62347072187E+02  0.10566000000E+00 0. -1.
         23    2    1    0    0    0 -0.20402008828E+02  0.17362754785E+02 -0.13409164944E+02  0.95041479969E+02  0.90196285912E+02 0.  0.
         13    1    3    3    0    0  0.22774815327E+02 -0.21732069796E+02  0.88282538144E+01  0.32694407783E+02  0.10566000000E+00 0.  1.
         22    1    1    0    0    0  0.20402008828E+02 -0.17362754785E+02  0.13409164944E+02  0.29958520031E+02  0.00000000000E+00 0. -1.
</event>
<event>
 5    1  0.1324057E-009  0.9118800E+02  0.7818608E-02  0.1130116E+00
         25   -1    0    0    0    0  0.00000000000E+00  0.00000000000E+00  0.99999998245E-14  0.12500000000E+03  0.12500000000E+03 0.  0.
        -13    1    3    3    0    0  0.21967874562E+02 -0.25952129253E+02 -0.18391721117E+02  0.38657044574E+02  0.10566000000E+00 0.  1.
         23    2    1    0    0    0 -0.26477503009E+02 -0.10295232994E+02  0.72765526330E+01  0.95674273986E+02  0.91069031490E+02 0.  0.
         13    1    3    3    0    0 -0.48445377571E+02  0.15656896258E+02  0.25668273750E+02  0.57017229412E+02  0.10566000000E+00 0. -1.
         22    1    1    0    0    0  0.26477503009E+02  0.10295232994E+02 -0.72765526330E+01  0.29325726014E+02  0.00000000000E+00 0. -1.
</event>
<event>
 5    1  0.1324057E-009  0.9118800E+02  0.7818608E-02  0.1130116E+00
         25   -1    0    0    0    0  0.00000000000E+00  0.00000000000E+00  0.99999998245E-14  0.12500000000E+03  0.12500000000E+03 0.  0.
        -13    1    3    3    0    0 -0.26004670992E+02  0.47551620993E+02  0.24908181514E+02  0.59647533418E+02  0.10566000000E+00 0.  1.
         23    2    1    0    0    0 -0.14234678965E+00  0.27925912068E+02  0.12498989799E+02  0.94404222948E+02  0.89308766294E+02 0.  0.
         13    1    3    3    0    0  0.25862324203E+02 -0.19625708925E+02 -0.12409191716E+02  0.34756689529E+02  0.10566000000E+00 0. -1.
         22    1    1    0    0    0  0.14234678965E+00 -0.27925912068E+02 -0.12498989799E+02  0.30595777052E+02  0.00000000000E+00 0.  1.
</event>
<event>
 5    1  0.1324057E-009  0.9118800E+02  0.7818608E-02  0.1130116E+00
         25   -1    0    0    0    0  0.00000000000E+00  0.00000000000E+00  0.99999998245E-14  0.12500000000E+03  0.12500000000E+03 0.  0.
        -13    1    3    3    0    0  0.20387394548E+02  0.39014863402E+02 -0.30919899366E+02  0.53794579314E+02  0.10566000000E+00 0. -1.
         23    2    1    0    0    0 -0.39428465356E+01  0.65048414316E+01 -0.29617013418E+02  0.94421797230E+02  0.89333360551E+02 0.  0.
         13    1    3    3    0    0 -0.24330241084E+02 -0.32510021971E+02  0.13028859478E+01  0.40627217915E+02  0.10566000000E+00 0.  1.
         22    1    1    0    0    0  0.39428465356E+01 -0.65048414316E+01  0.29617013418E+02  0.30578202770E+02  0.00000000000E+00 0. -1.
</event>
<event>
 5    1  0.1324057E-009  0.9118800E+02  0.7818608E-02  0.1130116E+00
         25   -1    0    0    0    0  0.00000000000E+00  0.00000000000E+00  0.99999998245E-14  0.12500000000E+03  0.12500000000E+03 0.  0.
        -13    1    3    3    0    0  0.47436341122E+02 -0.29064555914E+02 -0.56739790805E+01  0.55921016373E+02  0.10566000000E+00 0. -1.
         23    2    1    0    0    0  0.85012949107E+01 -0.28653009177E+02 -0.33023232994E+01  0.94930542252E+02  0.90042409803E+02 0.  0.
         13    1    3    3    0    0 -0.38935046211E+02  0.41154673647E+00  0.23716557812E+01  0.39009525880E+02  0.10566000000E+00 0.  1.
         22    1    1    0    0    0 -0.85012949107E+01  0.28653009177E+02  0.33023232994E+01  0.30069457748E+02  0.00000000000E+00 0. -1.
</event>
<event>
 5    1  0.1324057E-009  0.9118800E+02  0.7818608E-02  0.1130116E+00
         25   -1    0    0    0    0  0.00000000000E+00  0.00000000000E+00  0.99999998245E-14  0.12500000000E+03  0.12500000000E+03 0.  0.
        -13    1    3    3    0    0  0.13622303325E+02 -0.22801114963E+02  0.22332330296E+02  0.34701615696E+02  0.10566000000E+00 0. -1.
         23    2    1    0    0    0  0.41783206243E+01  0.26941922264E+02 -0.11301431577E+02  0.95486479467E+02  0.90810901696E+02 0.  0.
         13    1    3    3    0    0 -0.94439827002E+01  0.49743037228E+02 -0.33633761873E+02  0.60784863771E+02  0.10566000000E+00 0.  1.
         22    1    1    0    0    0 -0.41783206243E+01 -0.26941922264E+02  0.11301431577E+02  0.29513520533E+02  0.00000000000E+00 0.  1.
</event>
<event>
 5    1  0.1324057E-009  0.9118800E+02  0.7818608E-02  0.1130116E+00
         25   -1    0    0    0    0  0.00000000000E+00  0.00000000000E+00  0.99999998245E-14  0.12500000000E+03  0.12500000000E+03 0.  0.
        -13    1    3    3    0    0  0.22482621907E+02  0.54784945134E+02 -0.16994899147E+02  0.61609222217E+02  0.10566000000E+00 0.  1.
         23    2    1    0    0    0  0.16501466706E+02  0.20850272867E+02 -0.82499755512E+01  0.97159483147E+02  0.93085287702E+02 0.  0.
         13    1    3    3    0    0 -0.59811552008E+01 -0.33934672267E+02  0.87449235960E+01  0.35550260929E+02  0.10566000000E+00 0. -1.
         22    1    1    0    0    0 -0.16501466706E+02 -0.20850272867E+02  0.82499755512E+01  0.27840516853E+02  0.00000000000E+00 0.  1.
</event>
<event>
 5    1  0.1324057E-009  0.9118800E+02  0.7818608E-02  0.1130116E+00
         25   -1    0    0    0    0  0.00000000000E+00  0.00000000000E+00  0.99999998245E-14  0.12500000000E+03  0.12500000000E+03 0.  0.
        -13    1    3    3    0    0  0.11709509024E+02 -0.71073699472E+01 -0.41840945707E+02  0.44026165071E+02  0.10566000000E+00 0. -1.
         23    2    1    0    0    0 -0.15928083140E+02 -0.24420587816E+02 -0.16318428821E+01  0.95798427217E+02  0.91239283229E+02 0.  0.
         13    1    3    3    0    0 -0.27637592165E+02 -0.17313217869E+02  0.40209102825E+02  0.51772262146E+02  0.10566000000E+00 0.  1.
         22    1    1    0    0    0  0.15928083140E+02  0.24420587816E+02  0.16318428821E+01  0.29201572783E+02  0.00000000000E+00 0.  1.
</event>
<event>
 5    1  0.1324057E-009  0.9118800E+02  0.7818608E-02  0.1130116E+00
         25   -1    0    0    0    0  0.00000000000E+00  0.00000000000E+00  0.99999998245E-14  0.12500000000E+03  0.12500000000E+03 0.  0.
        -13    1    3    3    0    0 -0.11027641437E+02  0.14586248199E+02  0.51379616578E+02  0.54536626921E+02  0.10566000000E+00 0. -1.
         23    2    1    0    0    0  0.11569203285E+02  0.20097330331E+02  0.16191453867E+02  0.96717278606E+02  0.92489565095E+02 0.  0.
         13    1    3    3    0    0  0.22596844722E+02  0.55110821322E+01 -0.35188162710E+02  0.42180651686E+02  0.10566000000E+00 0.  1.
         22    1    1    0    0    0 -0.11569203285E+02 -0.20097330331E+02 -0.16191453867E+02  0.28282721394E+02  0.00000000000E+00 0. -1.
</event>
<event>
 5    1  0.1324057E-009  0.9118800E+02  0.7818608E-02  0.1130116E+00
         25   -1    0    0    0    0  0.00000000000E+00  0.00000000000E+00  0.99999998245E-14  0.12500000000E+03  0.12500000000E+03 0.  0.
        -13    1    3    3    0    0  0.33193344327E+01 -0.43081027074E+01  0.39682052933E+02  0.40053142437E+02  0.10566000000E+00 0. -1.
         23    2    1    0    0    0  0.59735923129E+01 -0.26645592602E+02 -0.11044773132E+02  0.95543957771E+02  0.90889985382E+02 0.  0.
         13    1    3    3    0    0  0.26542578803E+01 -0.22337489895E+02 -0.50726826066E+02  0.55490815334E+02  0.10566000000E+00 0.  1.
         22    1    1    0    0    0 -0.59735923129E+01  0.26645592602E+02  0.11044773132E+02  0.29456042229E+02  0.00000000000E+00 0.  1.
</event>
<event>
 5    1  0.1324057E-009  0.9118800E+02  0.7818608E-02  0.1130116E+00
         25   -1    0    0    0    0  0.00000000000E+00  0.00000000000E+00  0.99999998245E-14  0.12500000000E+03  0.12500000000E+03 0.  0.
        -13    1    3    3    0    0 -0.30431892123E+02 -0.20896405561E+02  0.18186542840E+02  0.41152415823E+02  0.10566000000E+00 0. -1.
         23    2    1    0    0    0  0.14167042823E+02  0.16316135492E+02  0.13709480207E+02  0.99409548122E+02  0.96059289143E+02 0.  0.
         13    1    3    3    0    0  0.44598934946E+02  0.37212541053E+02 -0.44770626338E+01  0.58257132300E+02  0.10566000000E+00 0.  1.
         22    1    1    0    0    0 -0.14167042823E+02 -0.16316135492E+02 -0.13709480207E+02  0.25590451878E+02  0.00000000000E+00 0.  1.
</event>
<event>
 5    1  0.1324057E-009  0.9118800E+02  0.7818608E-02  0.1130116E+00
         25   -1    0    0    0    0  0.00000000000E+00  0.00000000000E+00  0.99999998245E-14  0.12500000000E+03  0.12500000000E+03 0.  0.
        -13    1    3    3    0    0 -0.42007686600E+02 -0.23814223964E+02 -0.14619503631E+02  0.50452988484E+02  0.10566000000E+00 0. -1.
         23    2    1    0    0    0 -0.22111063150E+02  0.32743404922E+01  0.17245952750E+02  0.96768044603E+02  0.92558150105E+02 0.  0.
         13    1    3    3    0    0  0.19896623450E+02  0.27088564457E+02  0.31865456380E+02  0.46315056120E+02  0.10566000000E+00 0.  1.
         22    1    1    0    0    0  0.22111063150E+02 -0.32743404922E+01 -0.17245952750E+02  0.28231955397E+02  0.00000000000E+00 0.  1.
</event>
<event>
 5    1  0.1324057E-009  0.9118800E+02  0.7818608E-02  0.1130116E+00
         25   -1    0    0    0    0  0.00000000000E+00  0.00000000000E+00  0.99999998245E-14  0.12500000000E+03  0.12500000000E+03 0.  0.
        -13    1    3    3    0    0 -0.60349472596E+02 -0.13819912189E+02 -0.71610381118E+01  0.62324477105E+02  0.10566000000E+00 0. -1.
         23    2    1    0    0    0 -0.28213031844E+02 -0.73325867393E+01 -0.15656126601E+00  0.95849245198E+02  0.91308878536E+02 0.  0.
         13    1    3    3    0    0  0.32136440752E+02  0.64873254500E+01  0.70044768457E+01  0.33524768092E+02  0.10566000000E+00 0.  1.
         22    1    1    0    0    0  0.28213031844E+02  0.73325867393E+01  0.15656126601E+00  0.29150754802E+02  0.00000000000E+00 0. -1.
</event>
<event>
 5    1  0.1324057E-009  0.9118800E+02  0.7818608E-02  0.1130116E+00
         25   -1    0    0    0    0  0.00000000000E+00  0.00000000000E+00  0.99999998245E-14  0.12500000000E+03  0.12500000000E+03 0.  0.
        -13    1    3    3    0    0  0.92229749278E+01  0.36585928822E+02  0.59904997167E+01  0.38203281341E+02  0.10566000000E+00 0. -1.
         23    2    1    0    0    0 -0.27401035463E+02 -0.54334415609E+01 -0.85088131911E+01  0.95798305981E+02  0.91239117134E+02 0.  0.
         13    1    3    3    0    0 -0.36624010391E+02 -0.42019370383E+02 -0.14499312908E+02  0.57595024641E+02  0.10566000000E+00 0.  1.
         22    1    1    0    0    0  0.27401035463E+02  0.54334415609E+01  0.85088131911E+01  0.29201694019E+02  0.00000000000E+00 0.  1.
</event>
<event>
 5    1  0.1324057E-009  0.9118800E+02  0.7818608E-02  0.1130116E+00
         25   -1    0    0    0    0  0.00000000000E+00  0.00000000000E+00  0.99999998245E-14  0.12500000000E+03  0.12500000000E+03 0.  0.
        -13    1    3    3    0    0  0.36784986112E+01 -0.56418723897E+02 -0.13043492692E+02  0.58023681578E+02  0.10566000000E+00 0.  1.
         23    2    1    0    0    0  0.41768892604E+01 -0.17250149939E+02  0.11126429722E+02  0.10405217159E+03  0.10192174889E+03 0.  0.
         13    1    3    3    0    0  0.49839064919E+00  0.39168573958E+02  0.24169922413E+02  0.46028490011E+02  0.10566000000E+00 0. -1.
         22    1    1    0    0    0 -0.41768892604E+01  0.17250149939E+02 -0.11126429722E+02  0.20947828412E+02  0.00000000000E+00 0.  1.
</event>
<event>
 5    1  0.1324057E-009  0.9118800E+02  0.7818608E-02  0.1130116E+00
         25   -1    0    0    0    0  0.00000000000E+00  0.00000000000E+00  0.99999998245E-14  0.12500000000E+03  0.12500000000E+03 0.  0.
        -13    1    3    3    0    0  0.39645794124E+00  0.56026530905E+02  0.18081764376E+02  0.58873514513E+02  0.10566000000E+00 0.  1.
         23    2    1    0    0    0 -0.12185490389E+02  0.26957289510E+02 -0.13993934482E+00  0.95416200096E+02  0.90714111493E+02 0.  0.
         13    1    3    3    0    0 -0.12581948330E+02 -0.29069241395E+02 -0.18221703720E+02  0.36542685582E+02  0.10566000000E+00 0. -1.
         22    1    1    0    0    0  0.12185490389E+02 -0.26957289510E+02  0.13993934482E+00  0.29583799904E+02  0.00000000000E+00 0.  1.
</event>
<event>
 5    1  0.1324057E-009  0.9118800E+02  0.7818608E-02  0.1130116E+00
         25   -1    0    0    0    0  0.00000000000E+00  0.00000000000E+00  0.99999998245E-14  0.12500000000E+03  0.12500000000E+03 0.  0.
        -13    1    3    3    0    0  0.15106248772E+02  0.26554380965E+02  0.17090633677E+02  0.35006211219E+02  0.10566000000E+00 0.  1.
         23    2    1    0    0    0  0.29400567688E+01 -0.27844546245E+02 -0.76224178802E+01  0.95981661941E+02  0.91489974780E+02 0.  0.
         13    1    3    3    0    0 -0.12166192004E+02 -0.54398927210E+02 -0.24713051557E+02  0.60975450722E+02  0.10566000000E+00 0. -1.
         22    1    1    0    0    0 -0.29400567688E+01  0.27844546245E+02  0.76224178802E+01  0.29018338059E+02  0.00000000000E+00 0. -1.
</event>
<event>
 5    1  0.1324057E-009  0.9118800E+02  0.7818608E-02  0.1130116E+00
         25   -1    0    0    0    0  0.00000000000E+00  0.00000000000E+00  0.99999998245E-14  0.12500000000E+03  0.12500000000E+03 0.  0.
        -13    1    3    3    0    0 -0.57298182234E+02 -0.24610277616E+00  0.51058312885E+01  0.57525845766E+02  0.10566000000E+00 0.  1.
         23    2    1    0    0    0 -0.25201336308E+02 -0.10945225896E+02  0.16166455526E+02  0.93121173078E+02  0.87494532798E+02 0.  0.
         13    1    3    3    0    0  0.32096845926E+02 -0.10699123120E+02  0.11060624237E+02  0.35595327312E+02  0.10566000000E+00 0. -1.
         22    1    1    0    0    0  0.25201336308E+02  0.10945225896E+02 -0.16166455526E+02  0.31878826922E+02  0.00000000000E+00 0.  1.
</event>
<event>
 5    1  0.1324057E-009  0.9118800E+02  0.7818608E-02  0.1130116E+00
         25   -1    0    0    0    0  0.00000000000E+00  0.00000000000E+00  0.99999998245E-14  0.12500000000E+03  0.12500000000E+03 0.  0.
        -13    1    3    3    0    0 -0.50486810498E+02  0.26976817386E+02  0.41916259193E+01  0.57395536433E+02  0.10566000000E+00 0. -1.
         23    2    1    0    0    0 -0.26117588469E+02  0.67219745653E+00  0.15033996244E+02  0.94856985554E+02  0.89940237872E+02 0.  0.
         13    1    3    3    0    0  0.24369222029E+02 -0.26304619929E+02  0.10842370325E+02  0.37461449121E+02  0.10566000000E+00 0.  1.
         22    1    1    0    0    0  0.26117588469E+02 -0.67219745653E+00 -0.15033996244E+02  0.30143014446E+02  0.00000000000E+00 0. -1.
</event>
<event>
 5    1  0.1324057E-009  0.9118800E+02  0.7818608E-02  0.1130116E+00
         25   -1    0    0    0    0  0.00000000000E+00  0.00000000000E+00  0.99999998245E-14  0.12500000000E+03  0.12500000000E+03 0.  0.
        -13    1    3    3    0    0 -0.17684556689E+02  0.11111251139E+02 -0.27048094433E+02  0.34173294013E+02  0.10566000000E+00 0. -1.
         23    2    1    0    0    0  0.23331362032E+02  0.54783084473E+01  0.17753109412E+02  0.95174889581E+02  0.90380984700E+02 0.  0.
         13    1    3    3    0    0  0.41015918721E+02 -0.56329426922E+01  0.44801203845E+02  0.61001595568E+02  0.10566000000E+00 0.  1.
         22    1    1    0    0    0 -0.23331362032E+02 -0.54783084473E+01 -0.17753109412E+02  0.29825110419E+02  0.00000000000E+00 0.  1.
</event>
<event>
 5    1  0.1324057E-009  0.9118800E+02  0.7818608E-02  0.1130116E+00
         25   -1    0    0    0    0  0.00000000000E+00  0.00000000000E+00  0.99999998245E-14  0.12500000000E+03  0.12500000000E+03 0.  0.
        -13    1    3    3    0    0  0.96458482907E+01  0.59288152383E+01  0.35954040891E+02  0.37694793537E+02  0.10566000000E+00 0.  1.
         23    2    1    0    0    0  0.80246543692E+01 -0.25893948978E+02 -0.12067627147E+02  0.95326454604E+02  0.90590361799E+02 0.  0.
         13    1    3    3    0    0 -0.16211939215E+01 -0.31822764217E+02 -0.48021668038E+02  0.57631661067E+02  0.10566000000E+00 0. -1.
         22    1    1    0    0    0 -0.80246543692E+01  0.25893948978E+02  0.12067627147E+02  0.29673545396E+02  0.00000000000E+00 0. -1.
</event>
<event>
 5    1  0.1324057E-009  0.9118800E+02  0.7818608E-02  0.1130116E+00
         25   -1    0    0    0    0  0.00000000000E+00  0.00000000000E+00  0.99999998245E-14  0.12500000000E+03  0.12500000000E+03 0.  0.
        -13    1    3    3    0    0 -0.38777095891E+02  0.94364293339E+01 -0.32799017548E+02  0.51657488135E+02  0.10566000000E+00 0.  1.
         23    2    1    0    0    0 -0.58329165445E+00  0.24135911363E+02 -0.16743838291E+02  0.95619078177E+02  0.90993239003E+02 0.  0.
         13    1    3    3    0    0  0.38193804236E+02  0.14699482029E+02  0.16055179257E+02  0.43961590041E+02  0.10566000000E+00 0. -1.
         22    1    1    0    0    0  0.58329165445E+00 -0.24135911363E+02  0.16743838291E+02  0.29380921823E+02  0.00000000000E+00 0.  1.
</event>
<event>
 5    1  0.1324057E-009  0.9118800E+02  0.7818608E-02  0.1130116E+00
         25   -1    0    0    0    0  0.00000000000E+00  0.00000000000E+00  0.99999998245E-14  0.12500000000E+03  0.12500000000E+03 0.  0.
        -13    1    3    3    0    0  0.25330996500E+02  0.17315876596E+02 -0.52278251184E+02  0.60617865987E+02  0.10566000000E+00 0. -1.
         23    2    1    0    0    0  0.97629000414E+01  0.17924642793E+02 -0.20181155482E+02  0.96296584297E+02  0.91919236693E+02 0.  0.
         13    1    3    3    0    0 -0.15568096459E+02  0.60876619631E+00  0.32097095702E+02  0.35678718309E+02  0.10566000000E+00 0.  1.
         22    1    1    0    0    0 -0.97629000414E+01 -0.17924642793E+02  0.20181155482E+02  0.28703415703E+02  0.00000000000E+00 0. -1.
</event>
<event>
 5    1  0.1324057E-009  0.9118800E+02  0.7818608E-02  0.1130116E+00
         25   -1    0    0    0    0  0.00000000000E+00  0.00000000000E+00  0.99999998245E-14  0.12500000000E+03  0.12500000000E+03 0.  0.
        -13    1    3    3    0    0  0.25655617069E+02 -0.68428930433E+01  0.36797516317E+02  0.45377353862E+02  0.10566000000E+00 0.  1.
         23    2    1    0    0    0 -0.20123922950E+02  0.37775481296E+01  0.22673988349E+02  0.94449191624E+02  0.89371684028E+02 0.  0.
         13    1    3    3    0    0 -0.45779540019E+02  0.10620441173E+02 -0.14123527968E+02  0.49071837762E+02  0.10566000000E+00 0. -1.
         22    1    1    0    0    0  0.20123922950E+02 -0.37775481296E+01 -0.22673988349E+02  0.30550808376E+02  0.00000000000E+00 0. -1.
</event>
<event>
 5    1  0.1324057E-009  0.9118800E+02  0.7818608E-02  0.1130116E+00
         25   -1    0    0    0    0  0.00000000000E+00  0.00000000000E+00  0.99999998245E-14  0.12500000000E+03  0.12500000000E+03 0.  0.
        -13    1    3    3    0    0  0.16492397485E+02  0.81816501434E+01  0.20124326933E+02  0.27275231849E+02  0.10566000000E+00 0.  1.
         23    2    1    0    0    0 -0.73700699586E+01 -0.72514358869E+01 -0.34572742574E+02  0.88914327182E+02  0.81262425484E+02 0.  0.
         13    1    3    3    0    0 -0.23862467443E+02 -0.15433086030E+02 -0.54697069507E+02  0.61639095334E+02  0.10566000000E+00 0. -1.
         22    1    1    0    0    0  0.73700699586E+01  0.72514358869E+01  0.34572742574E+02  0.36085672818E+02  0.00000000000E+00 0. -1.
</event>
<event>
 5    1  0.1324057E-009  0.9118800E+02  0.7818608E-02  0.1130116E+00
         25   -1    0    0    0    0  0.00000000000E+00  0.00000000000E+00  0.99999998245E-14  0.12500000000E+03  0.12500000000E+03 0.  0.
        -13    1    3    3    0    0  0.84671520034E+01  0.53535665475E+02 -0.18372528340E+02  0.57230421128E+02  0.10566000000E+00 0.  1.
         23    2    1    0    0    0 -0.13907482161E+02  0.26903253460E+02 -0.61708031178E+01  0.94092364731E+02  0.88871205589E+02 0.  0.
         13    1    3    3    0    0 -0.22374634165E+02 -0.26632412015E+02  0.12201725222E+02  0.36861943603E+02  0.10566000000E+00 0. -1.
         22    1    1    0    0    0  0.13907482161E+02 -0.26903253460E+02  0.61708031178E+01  0.30907635269E+02  0.00000000000E+00 0.  1.
</event>
<event>
 5    1  0.1324057E-009  0.9118800E+02  0.7818608E-02  0.1130116E+00
         25   -1    0    0    0    0  0.00000000000E+00  0.00000000000E+00  0.99999998245E-14  0.12500000000E+03  0.12500000000E+03 0.  0.
        -13    1    3    3    0    0 -0.25510951345E+02  0.53789100014E+02 -0.16587431938E+02  0.61799918941E+02  0.10566000000E+00 0.  1.
         23    2    1    0    0    0 -0.71096659403E+01  0.26457658623E+02 -0.12091400694E+02  0.95054098439E+02  0.90213771730E+02 0.  0.
         13    1    3    3    0    0  0.18401285405E+02 -0.27331441391E+02  0.44960312435E+01  0.33254179497E+02  0.10566000000E+00 0. -1.
         22    1    1    0    0    0  0.71096659403E+01 -0.26457658623E+02  0.12091400694E+02  0.29945901561E+02  0.00000000000E+00 0.  1.
</event>
<event>
 5    1  0.1324057E-009  0.9118800E+02  0.7818608E-02  0.1130116E+00
         25   -1    0    0    0    0  0.00000000000E+00  0.00000000000E+00  0.99999998245E-14  0.12500000000E+03  0.12500000000E+03 0.  0.
        -13    1    3    3    0    0  0.13444575725E+01  0.20447658872E+02 -0.33055642836E+02  0.38892171537E+02  0.10566000000E+00 0. -1.
         23    2    1    0    0    0 -0.27764331074E+02 -0.69087225126E+01  0.70876252526E+01  0.95524197068E+02  0.90862804640E+02 0.  0.
         13    1    3    3    0    0 -0.29108788646E+02 -0.27356381384E+02  0.40143268089E+02  0.56632025532E+02  0.10566000000E+00 0.  1.
         22    1    1    0    0    0  0.27764331074E+02  0.69087225126E+01 -0.70876252526E+01  0.29475802932E+02  0.00000000000E+00 0.  1.
</event>
<event>
 5    1  0.1324057E-009  0.9118800E+02  0.7818608E-02  0.1130116E+00
         25   -1    0    0    0    0  0.00000000000E+00  0.00000000000E+00  0.99999998245E-14  0.12500000000E+03  0.12500000000E+03 0.  0.
        -13    1    3    3    0    0  0.48967725985E+02  0.77427828822E+01 -0.27163767116E+02  0.56530259887E+02  0.10566000000E+00 0.  1.
         23    2    1    0    0    0  0.16172316655E+02  0.21791079863E+02 -0.10581370124E+02  0.95873373329E+02  0.91341903484E+02 0.  0.
         13    1    3    3    0    0 -0.32795409331E+02  0.14048296981E+02  0.16582396992E+02  0.39343113441E+02  0.10566000000E+00 0. -1.
         22    1    1    0    0    0 -0.16172316655E+02 -0.21791079863E+02  0.10581370124E+02  0.29126626671E+02  0.00000000000E+00 0.  1.
</event>
<event>
 5    1  0.1324057E-009  0.9118800E+02  0.7818608E-02  0.1130116E+00
         25   -1    0    0    0    0  0.00000000000E+00  0.00000000000E+00  0.99999998245E-14  0.12500000000E+03  0.12500000000E+03 0.  0.
        -13    1    3    3    0    0  0.98755934061E+01  0.59992663348E+02  0.25899721728E+01  0.60855288354E+02  0.10566000000E+00 0.  1.
         23    2    1    0    0    0  0.70074032772E+01  0.25731238183E+02  0.10840092969E+02  0.96212712272E+02  0.91805109161E+02 0.  0.
         13    1    3    3    0    0 -0.28681901289E+01 -0.34261425165E+02  0.82501207962E+01  0.35357423918E+02  0.10566000000E+00 0. -1.
         22    1    1    0    0    0 -0.70074032772E+01 -0.25731238183E+02 -0.10840092969E+02  0.28787287728E+02  0.00000000000E+00 0.  1.
</event>
<event>
 5    1  0.1324057E-009  0.9118800E+02  0.7818608E-02  0.1130116E+00
         25   -1    0    0    0    0  0.00000000000E+00  0.00000000000E+00  0.99999998245E-14  0.12500000000E+03  0.12500000000E+03 0.  0.
        -13    1    3    3    0    0 -0.86717164717E+01 -0.30031558552E+02 -0.43984727024E+02  0.53960731566E+02  0.10566000000E+00 0.  1.
         23    2    1    0    0    0 -0.16381871597E+00 -0.29414060671E+02 -0.34495252201E+01  0.95383905964E+02  0.90669600699E+02 0.  0.
         13    1    3    3    0    0  0.85078977558E+01  0.61749788148E+00  0.40535201804E+02  0.41423174398E+02  0.10566000000E+00 0. -1.
         22    1    1    0    0    0  0.16381871597E+00  0.29414060671E+02  0.34495252201E+01  0.29616094036E+02  0.00000000000E+00 0.  1.
</event>
<event>
 5    1  0.1324057E-009  0.9118800E+02  0.7818608E-02  0.1130116E+00
         25   -1    0    0    0    0  0.00000000000E+00  0.00000000000E+00  0.99999998245E-14  0.12500000000E+03  0.12500000000E+03 0.  0.
        -13    1    3    3    0    0  0.52217574249E+02 -0.33306557736E+02  0.10922211524E+01  0.61945185122E+02  0.10566000000E+00 0. -1.
         23    2    1    0    0    0  0.20025996227E+02 -0.19517963069E+02 -0.89011360761E+00  0.97021727904E+02  0.92900118278E+02 0.  0.
         13    1    3    3    0    0 -0.32191578022E+02  0.13788594668E+02 -0.19823347600E+01  0.35076542783E+02  0.10566000000E+00 0.  1.
         22    1    1    0    0    0 -0.20025996227E+02  0.19517963069E+02  0.89011360761E+00  0.27978272096E+02  0.00000000000E+00 0. -1.
</event>
<event>
 5    1  0.1324057E-009  0.9118800E+02  0.7818608E-02  0.1130116E+00
         25   -1    0    0    0    0  0.00000000000E+00  0.00000000000E+00  0.99999998245E-14  0.12500000000E+03  0.12500000000E+03 0.  0.
        -13    1    3    3    0    0  0.32233400223E+02 -0.81177510746E+01 -0.48219962327E+01  0.33587985712E+02  0.10566000000E+00 0.  1.
         23    2    1    0    0    0 -0.16204402536E+02  0.24258424973E+02  0.10774065484E+02  0.93901216571E+02  0.88601942093E+02 0.  0.
         13    1    3    3    0    0 -0.48437802759E+02  0.32376176047E+02  0.15596061717E+02  0.60313230859E+02  0.10566000000E+00 0. -1.
         22    1    1    0    0    0  0.16204402536E+02 -0.24258424973E+02 -0.10774065484E+02  0.31098783429E+02  0.00000000000E+00 0. -1.
</event>
<event>
 5    1  0.1324057E-009  0.9118800E+02  0.7818608E-02  0.1130116E+00
         25   -1    0    0    0    0  0.00000000000E+00  0.00000000000E+00  0.99999998245E-14  0.12500000000E+03  0.12500000000E+03 0.  0.
        -13    1    3    3    0    0 -0.13708782868E+02 -0.46838439634E+02  0.12903298789E+01  0.48820551721E+02  0.10566000000E+00 0.  1.
         23    2    1    0    0    0 -0.15973524501E+02 -0.16423245306E+01  0.21321008498E+02  0.98308501012E+02  0.94615671287E+02 0.  0.
         13    1    3    3    0    0 -0.22647416332E+01  0.45196115103E+02  0.20030678619E+02  0.49487949292E+02  0.10566000000E+00 0. -1.
         22    1    1    0    0    0  0.15973524501E+02  0.16423245306E+01 -0.21321008498E+02  0.26691498988E+02  0.00000000000E+00 0.  1.
</event>
<event>
 5    1  0.1324057E-009  0.9118800E+02  0.7818608E-02  0.1130116E+00
         25   -1    0    0    0    0  0.00000000000E+00  0.00000000000E+00  0.99999998245E-14  0.12500000000E+03  0.12500000000E+03 0.  0.
        -13    1    3    3    0    0 -0.58252029186E+02  0.20056589629E+01  0.11906280639E+02  0.59490270253E+02  0.10566000000E+00 0. -1.
         23    2    1    0    0    0 -0.27019140727E+02 -0.93900454092E+01 -0.35898828385E+01  0.96171295950E+02  0.91748700195E+02 0.  0.
         13    1    3    3    0    0  0.31232888458E+02 -0.11395704372E+02 -0.15496163477E+02  0.36681025696E+02  0.10566000000E+00 0.  1.
         22    1    1    0    0    0  0.27019140727E+02  0.93900454092E+01  0.35898828385E+01  0.28828704050E+02  0.00000000000E+00 0. -1.
</event>
<event>
 5    1  0.1324057E-009  0.9118800E+02  0.7818608E-02  0.1130116E+00
         25   -1    0    0    0    0  0.00000000000E+00  0.00000000000E+00  0.99999998245E-14  0.12500000000E+03  0.12500000000E+03 0.  0.
        -13    1    3    3    0    0  0.24017045293E+02 -0.18182838934E+02 -0.41954845625E+02  0.51649340091E+02  0.10566000000E+00 0.  1.
         23    2    1    0    0    0 -0.12762903745E+02 -0.14879630595E+02 -0.27326199594E+02  0.91369414176E+02  0.84955008940E+02 0.  0.
         13    1    3    3    0    0 -0.36779949038E+02  0.33032083396E+01  0.14628646031E+02  0.39720074085E+02  0.10566000000E+00 0. -1.
         22    1    1    0    0    0  0.12762903745E+02  0.14879630595E+02  0.27326199594E+02  0.33630585824E+02  0.00000000000E+00 0.  1.
</event>
<event>
 5    1  0.1324057E-009  0.9118800E+02  0.7818608E-02  0.1130116E+00
         25   -1    0    0    0    0  0.00000000000E+00  0.00000000000E+00  0.99999998245E-14  0.12500000000E+03  0.12500000000E+03 0.  0.
        -13    1    3    3    0    0 -0.13334014576E+02  0.21545827221E+02  0.24371933892E+02  0.35157089485E+02  0.10566000000E+00 0.  1.
         23    2    1    0    0    0  0.19067211484E+02  0.46704505334E+01 -0.22859356332E+02  0.94868258698E+02  0.89955904056E+02 0.  0.
         13    1    3    3    0    0  0.32401226061E+02 -0.16875376688E+02 -0.47231290224E+02  0.59711169213E+02  0.10566000000E+00 0. -1.
         22    1    1    0    0    0 -0.19067211484E+02 -0.46704505334E+01  0.22859356332E+02  0.30131741302E+02  0.00000000000E+00 0. -1.
</event>
<event>
 5    1  0.1324057E-009  0.9118800E+02  0.7818608E-02  0.1130116E+00
         25   -1    0    0    0    0  0.00000000000E+00  0.00000000000E+00  0.99999998245E-14  0.12500000000E+03  0.12500000000E+03 0.  0.
        -13    1    3    3    0    0  0.40434895329E+02  0.57436834025E+01  0.88535467052E+01  0.41789557459E+02  0.10566000000E+00 0.  1.
         23    2    1    0    0    0  0.68898505463E+01 -0.66886053436E+01 -0.29344467985E+02  0.94124357767E+02  0.88916193360E+02 0.  0.
         13    1    3    3    0    0 -0.33545044783E+02 -0.12432288746E+02 -0.38198014690E+02  0.52334800308E+02  0.10566000000E+00 0. -1.
         22    1    1    0    0    0 -0.68898505463E+01  0.66886053436E+01  0.29344467985E+02  0.30875642233E+02  0.00000000000E+00 0. -1.
</event>
<event>
 5    1  0.1324057E-009  0.9118800E+02  0.7818608E-02  0.1130116E+00
         25   -1    0    0    0    0  0.00000000000E+00  0.00000000000E+00  0.99999998245E-14  0.12500000000E+03  0.12500000000E+03 0.  0.
        -13    1    3    3    0    0 -0.21610721904E+02  0.20970834451E+02 -0.31464209448E+02  0.43552345964E+02  0.10566000000E+00 0. -1.
         23    2    1    0    0    0  0.24987523515E+02  0.10927232139E+02 -0.87304163567E+01  0.96364342100E+02  0.92011333677E+02 0.  0.
         13    1    3    3    0    0  0.46598245418E+02 -0.10043602313E+02  0.22733793091E+02  0.52811996136E+02  0.10566000000E+00 0.  1.
         22    1    1    0    0    0 -0.24987523515E+02 -0.10927232139E+02  0.87304163567E+01  0.28635657900E+02  0.00000000000E+00 0.  1.
</event>
<event>
 5    1  0.1324057E-009  0.9118800E+02  0.7818608E-02  0.1130116E+00
         25   -1    0    0    0    0  0.00000000000E+00  0.00000000000E+00  0.99999998245E-14  0.12500000000E+03  0.12500000000E+03 0.  0.
        -13    1    3    3    0    0 -0.47348785195E+02 -0.12523667327E+02  0.25502067548E+02  0.55218804007E+02  0.10566000000E+00 0. -1.
         23    2    1    0    0    0 -0.65746255274E+01 -0.69549255327E+01  0.26954071568E+02  0.96397226287E+02  0.92055996935E+02 0.  0.
         13    1    3    3    0    0  0.40774159667E+02  0.55687417941E+01  0.14520040202E+01  0.41178422280E+02  0.10566000000E+00 0.  1.
         22    1    1    0    0    0  0.65746255274E+01  0.69549255327E+01 -0.26954071568E+02  0.28602773713E+02  0.00000000000E+00 0. -1.
</event>
<event>
 5    1  0.1324057E-009  0.9118800E+02  0.7818608E-02  0.1130116E+00
         25   -1    0    0    0    0  0.00000000000E+00  0.00000000000E+00  0.99999998245E-14  0.12500000000E+03  0.12500000000E+03 0.  0.
        -13    1    3    3    0    0  0.83071129019E+01 -0.30007014343E+02  0.16265655919E+02  0.35128503541E+02  0.10566000000E+00 0.  1.
         23    2    1    0    0    0 -0.20085587795E+02  0.17073699308E+02 -0.10924735894E+02  0.96464199687E+02  0.92146893175E+02 0.  0.
         13    1    3    3    0    0 -0.28392700697E+02  0.47080713651E+02 -0.27190391813E+02  0.61335696146E+02  0.10566000000E+00 0. -1.
         22    1    1    0    0    0  0.20085587795E+02 -0.17073699308E+02  0.10924735894E+02  0.28535800313E+02  0.00000000000E+00 0. -1.
</event>
<event>
 5    1  0.1324057E-009  0.9118800E+02  0.7818608E-02  0.1130116E+00
         25   -1    0    0    0    0  0.00000000000E+00  0.00000000000E+00  0.99999998245E-14  0.12500000000E+03  0.12500000000E+03 0.  0.
        -13    1    3    3    0    0  0.24290949836E+02 -0.62602405193E+01  0.31300644766E+02  0.40112122632E+02  0.10566000000E+00 0.  1.
         23    2    1    0    0    0  0.11789158284E+02  0.19000788794E+02 -0.17592828396E+02  0.96547902735E+02  0.92260368976E+02 0.  0.
         13    1    3    3    0    0 -0.12501791552E+02  0.25261029313E+02 -0.48893473161E+02  0.56435780102E+02  0.10566000000E+00 0. -1.
         22    1    1    0    0    0 -0.11789158284E+02 -0.19000788794E+02  0.17592828396E+02  0.28452097265E+02  0.00000000000E+00 0. -1.
</event>
<event>
 5    1  0.1324057E-009  0.9118800E+02  0.7818608E-02  0.1130116E+00
         25   -1    0    0    0    0  0.00000000000E+00  0.00000000000E+00  0.99999998245E-14  0.12500000000E+03  0.12500000000E+03 0.  0.
        -13    1    3    3    0    0  0.86514600044E+01  0.33205843069E+02 -0.18717618371E+02  0.39087545019E+02  0.10566000000E+00 0.  1.
         23    2    1    0    0    0 -0.33647560482E+02  0.83962395683E+01 -0.53914720254E+01  0.89904086622E+02  0.82770898602E+02 0.  0.
         13    1    3    3    0    0 -0.42299020486E+02 -0.24809603501E+02  0.13326146345E+02  0.50816541602E+02  0.10566000000E+00 0. -1.
         22    1    1    0    0    0  0.33647560482E+02 -0.83962395683E+01  0.53914720254E+01  0.35095913378E+02  0.00000000000E+00 0.  1.
</event>
<event>
 5    1  0.1324057E-009  0.9118800E+02  0.7818608E-02  0.1130116E+00
         25   -1    0    0    0    0  0.00000000000E+00  0.00000000000E+00  0.99999998245E-14  0.12500000000E+03  0.12500000000E+03 0.  0.
        -13    1    3    3    0    0  0.24061446653E+02 -0.59272725401E+01  0.24934846386E+02  0.35154565893E+02  0.10566000000E+00 0.  1.
         23    2    1    0    0    0 -0.22784435894E+02 -0.11051943757E+02 -0.13803880321E+02  0.96158656555E+02  0.91731478451E+02 0.  0.
         13    1    3    3    0    0 -0.46845882547E+02 -0.51246712165E+01 -0.38738726707E+02  0.61004090662E+02  0.10566000000E+00 0. -1.
         22    1    1    0    0    0  0.22784435894E+02  0.11051943757E+02  0.13803880321E+02  0.28841343445E+02  0.00000000000E+00 0. -1.
</event>
<event>
 5    1  0.1324057E-009  0.9118800E+02  0.7818608E-02  0.1130116E+00
         25   -1    0    0    0    0  0.00000000000E+00  0.00000000000E+00  0.99999998245E-14  0.12500000000E+03  0.12500000000E+03 0.  0.
        -13    1    3    3    0    0  0.41453155698E+01  0.60267239693E+02 -0.11860573161E+02  0.61563042332E+02  0.10566000000E+00 0. -1.
         23    2    1    0    0    0 -0.37929077741E+01  0.27000550525E+02 -0.10473275346E+02  0.95792032346E+02  0.91230521682E+02 0.  0.
         13    1    3    3    0    0 -0.79382233439E+01 -0.33266689168E+02  0.13872978152E+01  0.34228990014E+02  0.10566000000E+00 0.  1.
         22    1    1    0    0    0  0.37929077741E+01 -0.27000550525E+02  0.10473275346E+02  0.29207967654E+02  0.00000000000E+00 0. -1.
</event>
<event>
 5    1  0.1324057E-009  0.9118800E+02  0.7818608E-02  0.1130116E+00
         25   -1    0    0    0    0  0.00000000000E+00  0.00000000000E+00  0.99999998245E-14  0.12500000000E+03  0.12500000000E+03 0.  0.
        -13    1    3    3    0    0  0.43400226491E+02 -0.40150872077E+00 -0.71784536209E+01  0.43991842757E+02  0.10566000000E+00 0.  1.
         23    2    1    0    0    0 -0.15927632974E+02  0.12160208117E+02 -0.22529787271E+01  0.10483478077E+03  0.10287708779E+03 0.  0.
         13    1    3    3    0    0 -0.59327859465E+02  0.12561716838E+02  0.49254748939E+01  0.60842938009E+02  0.10566000000E+00 0. -1.
         22    1    1    0    0    0  0.15927632974E+02 -0.12160208117E+02  0.22529787271E+01  0.20165219234E+02  0.00000000000E+00 0. -1.
</event>
<event>
 5    1  0.1324057E-009  0.9118800E+02  0.7818608E-02  0.1130116E+00
         25   -1    0    0    0    0  0.00000000000E+00  0.00000000000E+00  0.99999998245E-14  0.12500000000E+03  0.12500000000E+03 0.  0.
        -13    1    3    3    0    0 -0.56701850757E+02 -0.12315952174E+02  0.48110572776E+01  0.58223191199E+02  0.10566000000E+00 0. -1.
         23    2    1    0    0    0 -0.20373795102E+02 -0.20903490648E+02  0.37758478200E+01  0.95566949277E+02  0.90921599850E+02 0.  0.
         13    1    3    3    0    0  0.36328055655E+02 -0.85875384733E+01 -0.10352094576E+01  0.37343758078E+02  0.10566000000E+00 0.  1.
         22    1    1    0    0    0  0.20373795102E+02  0.20903490648E+02 -0.37758478200E+01  0.29433050723E+02  0.00000000000E+00 0. -1.
</event>
<event>
 5    1  0.1324057E-009  0.9118800E+02  0.7818608E-02  0.1130116E+00
         25   -1    0    0    0    0  0.00000000000E+00  0.00000000000E+00  0.99999998245E-14  0.12500000000E+03  0.12500000000E+03 0.  0.
        -13    1    3    3    0    0 -0.33603403036E+02  0.40523529880E+02 -0.28674398939E+02  0.59946455176E+02  0.10566000000E+00 0.  1.
         23    2    1    0    0    0 -0.10486078338E+02  0.26112650322E+02 -0.42356450143E+01  0.96543558999E+02  0.92254483630E+02 0.  0.
         13    1    3    3    0    0  0.23117324699E+02 -0.14410879558E+02  0.24438753925E+02  0.36597103824E+02  0.10566000000E+00 0. -1.
         22    1    1    0    0    0  0.10486078338E+02 -0.26112650322E+02  0.42356450143E+01  0.28456441001E+02  0.00000000000E+00 0.  1.
</event>
<event>
 5    1  0.1324057E-009  0.9118800E+02  0.7818608E-02  0.1130116E+00
         25   -1    0    0    0    0  0.00000000000E+00  0.00000000000E+00  0.99999998245E-14  0.12500000000E+03  0.12500000000E+03 0.  0.
        -13    1    3    3    0    0  0.56410088183E+02 -0.14835999292E+02  0.23201926028E+01  0.58374646736E+02  0.10566000000E+00 0. -1.
         23    2    1    0    0    0  0.26312560098E+02  0.42968763939E+01  0.12629211323E+02  0.95498967064E+02  0.90828089080E+02 0.  0.
         13    1    3    3    0    0 -0.30097528085E+02  0.19132875686E+02  0.10309018720E+02  0.37124320328E+02  0.10566000000E+00 0.  1.
         22    1    1    0    0    0 -0.26312560098E+02 -0.42968763939E+01 -0.12629211323E+02  0.29501032936E+02  0.00000000000E+00 0. -1.
</event>
<event>
 5    1  0.1324057E-009  0.9118800E+02  0.7818608E-02  0.1130116E+00
         25   -1    0    0    0    0  0.00000000000E+00  0.00000000000E+00  0.99999998245E-14  0.12500000000E+03  0.12500000000E+03 0.  0.
        -13    1    3    3    0    0  0.98651321862E+01  0.52545949454E+01 -0.29901433326E+02  0.31922382117E+02  0.10566000000E+00 0. -1.
         23    2    1    0    0    0 -0.88872253510E+01  0.36901789374E+01  0.29361825518E+02  0.94101505008E+02  0.88884060731E+02 0.  0.
         13    1    3    3    0    0 -0.18752357537E+02 -0.15644160080E+01  0.59263258843E+02  0.62179122891E+02  0.10566000000E+00 0.  1.
         22    1    1    0    0    0  0.88872253510E+01 -0.36901789374E+01 -0.29361825518E+02  0.30898494992E+02  0.00000000000E+00 0.  1.
</event>
<event>
 5    1  0.1324057E-009  0.9118800E+02  0.7818608E-02  0.1130116E+00
         25   -1    0    0    0    0  0.00000000000E+00  0.00000000000E+00  0.99999998245E-14  0.12500000000E+03  0.12500000000E+03 0.  0.
        -13    1    3    3    0    0  0.11292579392E+02  0.34020235577E+02  0.37024528027E+02  0.51533732814E+02  0.10566000000E+00 0.  1.
         23    2    1    0    0    0  0.20637207652E+02 -0.49016203101E+01  0.22402564306E+02  0.94148823218E+02  0.88950580687E+02 0.  0.
         13    1    3    3    0    0  0.93446282606E+01 -0.38921855887E+02 -0.14621963721E+02  0.42615090404E+02  0.10566000000E+00 0. -1.
         22    1    1    0    0    0 -0.20637207652E+02  0.49016203101E+01 -0.22402564306E+02  0.30851176782E+02  0.00000000000E+00 0.  1.
</event>
<event>
 5    1  0.1324057E-009  0.9118800E+02  0.7818608E-02  0.1130116E+00
         25   -1    0    0    0    0  0.00000000000E+00  0.00000000000E+00  0.99999998245E-14  0.12500000000E+03  0.12500000000E+03 0.  0.
        -13    1    3    3    0    0  0.34491141894E+02 -0.90862516068E+00 -0.20401059497E+02  0.40083398826E+02  0.10566000000E+00 0.  1.
         23    2    1    0    0    0 -0.17052576876E+02 -0.21049440354E+02 -0.68251408847E+01  0.97063431395E+02  0.92956214686E+02 0.  0.
         13    1    3    3    0    0 -0.51543718771E+02 -0.20140815193E+02  0.13575918612E+02  0.56980032569E+02  0.10566000000E+00 0. -1.
         22    1    1    0    0    0  0.17052576876E+02  0.21049440354E+02  0.68251408847E+01  0.27936568605E+02  0.00000000000E+00 0.  1.
</event>
<event>
 5    1  0.1324057E-009  0.9118800E+02  0.7818608E-02  0.1130116E+00
         25   -1    0    0    0    0  0.00000000000E+00  0.00000000000E+00  0.99999998245E-14  0.12500000000E+03  0.12500000000E+03 0.  0.
        -13    1    3    3    0    0  0.29152512455E+02  0.12629492969E+02  0.33274046506E+02  0.46005938856E+02  0.10566000000E+00 0. -1.
         23    2    1    0    0    0  0.22825930519E+02 -0.13101331147E+02 -0.10080741828E+02  0.96816860755E+02  0.92624052971E+02 0.  0.
         13    1    3    3    0    0 -0.63265819366E+01 -0.25730824117E+02 -0.43354788334E+02  0.50810921899E+02  0.10566000000E+00 0.  1.
         22    1    1    0    0    0 -0.22825930519E+02  0.13101331147E+02  0.10080741828E+02  0.28183139245E+02  0.00000000000E+00 0.  1.
</event>
<event>
 5    1  0.1324057E-009  0.9118800E+02  0.7818608E-02  0.1130116E+00
         25   -1    0    0    0    0  0.00000000000E+00  0.00000000000E+00  0.99999998245E-14  0.12500000000E+03  0.12500000000E+03 0.  0.
        -13    1    3    3    0    0  0.27585749670E+02  0.58875533734E+01  0.26612695654E+02  0.38779938158E+02  0.10566000000E+00 0.  1.
         23    2    1    0    0    0 -0.26101067359E+02  0.10335028472E+02  0.74752937589E+01  0.95949035342E+02  0.91445387174E+02 0.  0.
         13    1    3    3    0    0 -0.53686817029E+02  0.44474750985E+01 -0.19137401895E+02  0.57169097183E+02  0.10566000000E+00 0. -1.
         22    1    1    0    0    0  0.26101067359E+02 -0.10335028472E+02 -0.74752937589E+01  0.29050964658E+02  0.00000000000E+00 0. -1.
</event>
<event>
 5    1  0.1324057E-009  0.9118800E+02  0.7818608E-02  0.1130116E+00
         25   -1    0    0    0    0  0.00000000000E+00  0.00000000000E+00  0.99999998245E-14  0.12500000000E+03  0.12500000000E+03 0.  0.
        -13    1    3    3    0    0 -0.46855459313E+02 -0.23930519385E+02 -0.22722405944E+02  0.57309883279E+02  0.10566000000E+00 0. -1.
         23    2    1    0    0    0 -0.23543129983E+02  0.57634627497E+01 -0.16764157819E+02  0.95529108265E+02  0.90869560725E+02 0.  0.
         13    1    3    3    0    0  0.23312329330E+02  0.29693982135E+02  0.59582481254E+01  0.38219224987E+02  0.10566000000E+00 0.  1.
         22    1    1    0    0    0  0.23543129983E+02 -0.57634627497E+01  0.16764157819E+02  0.29470891735E+02  0.00000000000E+00 0. -1.
</event>
<event>
 5    1  0.1324057E-009  0.9118800E+02  0.7818608E-02  0.1130116E+00
         25   -1    0    0    0    0  0.00000000000E+00  0.00000000000E+00  0.99999998245E-14  0.12500000000E+03  0.12500000000E+03 0.  0.
        -13    1    3    3    0    0 -0.26717064768E+02 -0.14638207394E+02  0.23215050434E+02  0.38301806696E+02  0.10566000000E+00 0. -1.
         23    2    1    0    0    0 -0.48527227646E+01 -0.33066467244E+02 -0.16887511063E+02  0.87554997608E+02  0.79143852585E+02 0.  0.
         13    1    3    3    0    0  0.21864342004E+02 -0.18428259850E+02 -0.40102561497E+02  0.49253190912E+02  0.10566000000E+00 0.  1.
         22    1    1    0    0    0  0.48527227646E+01  0.33066467244E+02  0.16887511063E+02  0.37445002392E+02  0.00000000000E+00 0. -1.
</event>
<event>
 5    1  0.1324057E-009  0.9118800E+02  0.7818608E-02  0.1130116E+00
         25   -1    0    0    0    0  0.00000000000E+00  0.00000000000E+00  0.99999998245E-14  0.12500000000E+03  0.12500000000E+03 0.  0.
        -13    1    3    3    0    0 -0.21976884738E+02 -0.39449988501E+01  0.12403170412E+02  0.25542049233E+02  0.10566000000E+00 0.  1.
         23    2    1    0    0    0  0.35010135705E+02  0.13883606012E+02 -0.30319428713E+01  0.87215654093E+02  0.78606065436E+02 0.  0.
         13    1    3    3    0    0  0.56987020443E+02  0.17828604862E+02 -0.15435113283E+02  0.61673604860E+02  0.10566000000E+00 0. -1.
         22    1    1    0    0    0 -0.35010135705E+02 -0.13883606012E+02  0.30319428713E+01  0.37784345907E+02  0.00000000000E+00 0. -1.
</event>
<event>
 5    1  0.1324057E-009  0.9118800E+02  0.7818608E-02  0.1130116E+00
         25   -1    0    0    0    0  0.00000000000E+00  0.00000000000E+00  0.99999998245E-14  0.12500000000E+03  0.12500000000E+03 0.  0.
        -13    1    3    3    0    0 -0.37044611539E+01  0.33683452923E+02  0.26250841531E+02  0.42865089273E+02  0.10566000000E+00 0. -1.
         23    2    1    0    0    0 -0.26708120681E+02 -0.99471805191E+01  0.92620710439E+01  0.95032416336E+02  0.90183724053E+02 0.  0.
         13    1    3    3    0    0 -0.23003659528E+02 -0.43630633442E+02 -0.16988770488E+02  0.52167327063E+02  0.10566000000E+00 0.  1.
         22    1    1    0    0    0  0.26708120681E+02  0.99471805191E+01 -0.92620710439E+01  0.29967583664E+02  0.00000000000E+00 0. -1.
</event>
<event>
 5    1  0.1324057E-009  0.9118800E+02  0.7818608E-02  0.1130116E+00
         25   -1    0    0    0    0  0.00000000000E+00  0.00000000000E+00  0.99999998245E-14  0.12500000000E+03  0.12500000000E+03 0.  0.
        -13    1    3    3    0    0  0.29915067190E+02  0.29204606201E+02 -0.42746008499E+02  0.59791744204E+02  0.10566000000E+00 0. -1.
         23    2    1    0    0    0  0.28498647770E+01  0.10376042479E+02 -0.26190305774E+02  0.96685408297E+02  0.92446482217E+02 0.  0.
         13    1    3    3    0    0 -0.27065202413E+02 -0.18828563722E+02  0.16555702725E+02  0.36893664093E+02  0.10566000000E+00 0.  1.
         22    1    1    0    0    0 -0.28498647770E+01 -0.10376042479E+02  0.26190305774E+02  0.28314591703E+02  0.00000000000E+00 0. -1.
</event>
<event>
 5    1  0.1324057E-009  0.9118800E+02  0.7818608E-02  0.1130116E+00
         25   -1    0    0    0    0  0.00000000000E+00  0.00000000000E+00  0.99999998245E-14  0.12500000000E+03  0.12500000000E+03 0.  0.
        -13    1    3    3    0    0 -0.10651904763E+02 -0.57325626605E+02 -0.31980881950E+01  0.58394601402E+02  0.10566000000E+00 0. -1.
         23    2    1    0    0    0 -0.24603742715E-01 -0.32857174664E+02  0.13068005238E+02  0.89639467013E+02  0.82370302617E+02 0.  0.
         13    1    3    3    0    0  0.10627301021E+02  0.24468451941E+02  0.16266093433E+02  0.31244865610E+02  0.10566000000E+00 0.  1.
         22    1    1    0    0    0  0.24603742715E-01  0.32857174664E+02 -0.13068005238E+02  0.35360532987E+02  0.00000000000E+00 0. -1.
</event>
<event>
 5    1  0.1324057E-009  0.9118800E+02  0.7818608E-02  0.1130116E+00
         25   -1    0    0    0    0  0.00000000000E+00  0.00000000000E+00  0.99999998245E-14  0.12500000000E+03  0.12500000000E+03 0.  0.
        -13    1    3    3    0    0  0.33730275685E+02  0.32514393661E+02 -0.26884112214E+02  0.54015589847E+02  0.10566000000E+00 0. -1.
         23    2    1    0    0    0  0.29140737686E+02 -0.10402452842E+01 -0.25281608369E+01  0.95731308531E+02  0.91147282640E+02 0.  0.
         13    1    3    3    0    0 -0.45895379994E+01 -0.33554638945E+02  0.24355951377E+02  0.41715718684E+02  0.10566000000E+00 0.  1.
         22    1    1    0    0    0 -0.29140737686E+02  0.10402452842E+01  0.25281608369E+01  0.29268691469E+02  0.00000000000E+00 0. -1.
</event>
<event>
 5    1  0.1324057E-009  0.9118800E+02  0.7818608E-02  0.1130116E+00
         25   -1    0    0    0    0  0.00000000000E+00  0.00000000000E+00  0.99999998245E-14  0.12500000000E+03  0.12500000000E+03 0.  0.
        -13    1    3    3    0    0  0.45202524592E+02  0.14855814759E+02  0.10028507893E+02  0.48626593509E+02  0.10566000000E+00 0.  1.
         23    2    1    0    0    0  0.15696899433E+02 -0.36286602005E+01 -0.23199361862E+02  0.96755173616E+02  0.92540766174E+02 0.  0.
         13    1    3    3    0    0 -0.29505625160E+02 -0.18484474960E+02 -0.33227869755E+02  0.48128580107E+02  0.10566000000E+00 0. -1.
         22    1    1    0    0    0 -0.15696899433E+02  0.36286602005E+01  0.23199361862E+02  0.28244826384E+02  0.00000000000E+00 0.  1.
</event>
<event>
 5    1  0.1324057E-009  0.9118800E+02  0.7818608E-02  0.1130116E+00
         25   -1    0    0    0    0  0.00000000000E+00  0.00000000000E+00  0.99999998245E-14  0.12500000000E+03  0.12500000000E+03 0.  0.
        -13    1    3    3    0    0 -0.29856476357E+02  0.17132283621E+02  0.58076971616E+01  0.34909380299E+02  0.10566000000E+00 0. -1.
         23    2    1    0    0    0  0.87976537048E+01 -0.13813722194E+02 -0.26367257965E+02  0.93960510247E+02  0.88685554414E+02 0.  0.
         13    1    3    3    0    0  0.38654130062E+02 -0.30946005815E+02 -0.32174955126E+02  0.59051129948E+02  0.10566000000E+00 0.  1.
         22    1    1    0    0    0 -0.87976537048E+01  0.13813722194E+02  0.26367257965E+02  0.31039489753E+02  0.00000000000E+00 0.  1.
</event>
<event>
 5    1  0.1324057E-009  0.9118800E+02  0.7818608E-02  0.1130116E+00
         25   -1    0    0    0    0  0.00000000000E+00  0.00000000000E+00  0.99999998245E-14  0.12500000000E+03  0.12500000000E+03 0.  0.
        -13    1    3    3    0    0  0.43346712380E+02  0.87132295606E+01 -0.39447722477E+02  0.59253622811E+02  0.10566000000E+00 0.  1.
         23    2    1    0    0    0  0.27049129182E+02 -0.87858695885E+01 -0.18264202742E+02  0.91200177579E+02  0.84705633784E+02 0.  0.
         13    1    3    3    0    0 -0.16297583198E+02 -0.17499099149E+02  0.21183519735E+02  0.31946554768E+02  0.10566000000E+00 0. -1.
         22    1    1    0    0    0 -0.27049129182E+02  0.87858695885E+01  0.18264202742E+02  0.33799822421E+02  0.00000000000E+00 0.  1.
</event>
<event>
 5    1  0.1324057E-009  0.9118800E+02  0.7818608E-02  0.1130116E+00
         25   -1    0    0    0    0  0.00000000000E+00  0.00000000000E+00  0.99999998245E-14  0.12500000000E+03  0.12500000000E+03 0.  0.
        -13    1    3    3    0    0 -0.27542777167E+02 -0.49142804307E+02  0.25826862579E+02  0.61973040784E+02  0.10566000000E+00 0.  1.
         23    2    1    0    0    0 -0.77702927537E+01 -0.25413290860E+02  0.12959458229E+02  0.95433797007E+02  0.90738356012E+02 0.  0.
         13    1    3    3    0    0  0.19772484414E+02  0.23729513447E+02 -0.12867404350E+02  0.33460756223E+02  0.10566000000E+00 0. -1.
         22    1    1    0    0    0  0.77702927537E+01  0.25413290860E+02 -0.12959458229E+02  0.29566202993E+02  0.00000000000E+00 0.  1.
</event>
<event>
 5    1  0.1324057E-009  0.9118800E+02  0.7818608E-02  0.1130116E+00
         25   -1    0    0    0    0  0.00000000000E+00  0.00000000000E+00  0.99999998245E-14  0.12500000000E+03  0.12500000000E+03 0.  0.
        -13    1    3    3    0    0 -0.33516050044E+02  0.23367221369E+01  0.94081917542E+01  0.34889985914E+02  0.10566000000E+00 0. -1.
         23    2    1    0    0    0  0.44028850866E+01  0.27342258879E+02 -0.21592720586E+02  0.89882623959E+02  0.82738479499E+02 0.  0.
         13    1    3    3    0    0  0.37918935131E+02  0.25005536743E+02 -0.31000912340E+02  0.54992638045E+02  0.10566000000E+00 0.  1.
         22    1    1    0    0    0 -0.44028850866E+01 -0.27342258879E+02  0.21592720586E+02  0.35117376041E+02  0.00000000000E+00 0.  1.
</event>
<event>
 5    1  0.1324057E-009  0.9118800E+02  0.7818608E-02  0.1130116E+00
         25   -1    0    0    0    0  0.00000000000E+00  0.00000000000E+00  0.99999998245E-14  0.12500000000E+03  0.12500000000E+03 0.  0.
        -13    1    3    3    0    0  0.25463056769E+02 -0.24615662253E+02  0.12421349304E+02  0.37531309207E+02  0.10566000000E+00 0. -1.
         23    2    1    0    0    0 -0.23259311517E+02 -0.12344927576E+02 -0.14921861728E+02  0.94733603344E+02  0.89768596045E+02 0.  0.
         13    1    3    3    0    0 -0.48722368287E+02  0.12270734677E+02 -0.27343211032E+02  0.57202294137E+02  0.10566000000E+00 0.  1.
         22    1    1    0    0    0  0.23259311517E+02  0.12344927576E+02  0.14921861728E+02  0.30266396656E+02  0.00000000000E+00 0.  1.
</event>
<event>
 5    1  0.1324057E-009  0.9118800E+02  0.7818608E-02  0.1130116E+00
         25   -1    0    0    0    0  0.00000000000E+00  0.00000000000E+00  0.99999998245E-14  0.12500000000E+03  0.12500000000E+03 0.  0.
        -13    1    3    3    0    0 -0.25899041892E+02 -0.12397227446E+02 -0.41473947454E+01  0.29011440269E+02  0.10566000000E+00 0. -1.
         23    2    1    0    0    0  0.31141711884E+02  0.10977271268E+02  0.58643000021E+01  0.91463501702E+02  0.85093333614E+02 0.  0.
         13    1    3    3    0    0  0.57040753776E+02  0.23374498714E+02  0.10011694748E+02  0.62452061433E+02  0.10566000000E+00 0.  1.
         22    1    1    0    0    0 -0.31141711884E+02 -0.10977271268E+02 -0.58643000021E+01  0.33536498298E+02  0.00000000000E+00 0.  1.
</event>
<event>
 5    1  0.1324057E-009  0.9118800E+02  0.7818608E-02  0.1130116E+00
         25   -1    0    0    0    0  0.00000000000E+00  0.00000000000E+00  0.99999998245E-14  0.12500000000E+03  0.12500000000E+03 0.  0.
        -13    1    3    3    0    0 -0.60402095579E+02 -0.10589435188E+02 -0.10549436942E+02  0.62224200049E+02  0.10566000000E+00 0.  1.
         23    2    1    0    0    0 -0.25652025941E+02 -0.83092837734E+01 -0.28918495870E+01  0.97881124180E+02  0.94049354304E+02 0.  0.
         13    1    3    3    0    0  0.34750069638E+02  0.22801514143E+01  0.76575873548E+01  0.35656924131E+02  0.10566000000E+00 0. -1.
         22    1    1    0    0    0  0.25652025941E+02  0.83092837734E+01  0.28918495870E+01  0.27118875820E+02  0.00000000000E+00 0.  1.
</event>
<event>
 5    1  0.1324057E-009  0.9118800E+02  0.7818608E-02  0.1130116E+00
         25   -1    0    0    0    0  0.00000000000E+00  0.00000000000E+00  0.99999998245E-14  0.12500000000E+03  0.12500000000E+03 0.  0.
        -13    1    3    3    0    0  0.43472024225E+01  0.15750787441E+02  0.37149861802E+02  0.40584589068E+02  0.10566000000E+00 0. -1.
         23    2    1    0    0    0  0.25012617685E+01 -0.28799947039E+02  0.47454931973E+01  0.95704727931E+02  0.91110822534E+02 0.  0.
         13    1    3    3    0    0 -0.18459406540E+01 -0.44550734480E+02 -0.32404368605E+02  0.55120138863E+02  0.10566000000E+00 0.  1.
         22    1    1    0    0    0 -0.25012617685E+01  0.28799947039E+02 -0.47454931973E+01  0.29295272069E+02  0.00000000000E+00 0.  1.
</event>
<event>
 5    1  0.1324057E-009  0.9118800E+02  0.7818608E-02  0.1130116E+00
         25   -1    0    0    0    0  0.00000000000E+00  0.00000000000E+00  0.99999998245E-14  0.12500000000E+03  0.12500000000E+03 0.  0.
        -13    1    3    3    0    0  0.59723771942E+02 -0.16388955729E+02 -0.65654746757E+01  0.62278755821E+02  0.10566000000E+00 0.  1.
         23    2    1    0    0    0  0.25065992965E+02 -0.41283647226E+01 -0.15697630296E+00  0.99595826324E+02  0.96301384108E+02 0.  0.
         13    1    3    3    0    0 -0.34657778978E+02  0.12260591006E+02  0.64084983727E+01  0.37317070503E+02  0.10566000000E+00 0. -1.
         22    1    1    0    0    0 -0.25065992965E+02  0.41283647226E+01  0.15697630296E+00  0.25404173676E+02  0.00000000000E+00 0.  1.
</event>
<event>
 5    1  0.1324057E-009  0.9118800E+02  0.7818608E-02  0.1130116E+00
         25   -1    0    0    0    0  0.00000000000E+00  0.00000000000E+00  0.99999998245E-14  0.12500000000E+03  0.12500000000E+03 0.  0.
        -13    1    3    3    0    0 -0.40324831246E+02 -0.45430854394E+02  0.95328982950E+01  0.61489363795E+02  0.10566000000E+00 0.  1.
         23    2    1    0    0    0 -0.12466541237E+02 -0.25052707593E+02  0.73145955890E+01  0.96076720158E+02  0.91619757910E+02 0.  0.
         13    1    3    3    0    0  0.27858290009E+02  0.20378146800E+02 -0.22183027060E+01  0.34587356363E+02  0.10566000000E+00 0. -1.
         22    1    1    0    0    0  0.12466541237E+02  0.25052707593E+02 -0.73145955890E+01  0.28923279842E+02  0.00000000000E+00 0.  1.
</event>
<event>
 5    1  0.1324057E-009  0.9118800E+02  0.7818608E-02  0.1130116E+00
         25   -1    0    0    0    0  0.00000000000E+00  0.00000000000E+00  0.99999998245E-14  0.12500000000E+03  0.12500000000E+03 0.  0.
        -13    1    3    3    0    0  0.34623577132E+02 -0.33065557171E+02 -0.16244644595E+02  0.50557124191E+02  0.10566000000E+00 0. -1.
         23    2    1    0    0    0  0.63954843621E+00 -0.27852525473E+02  0.11621432361E+02  0.94813415438E+02  0.89879663214E+02 0.  0.
         13    1    3    3    0    0 -0.33984028696E+02  0.52130316984E+01  0.27866076956E+02  0.44256291246E+02  0.10566000000E+00 0.  1.
         22    1    1    0    0    0 -0.63954843621E+00  0.27852525473E+02 -0.11621432361E+02  0.30186584562E+02  0.00000000000E+00 0. -1.
</event>
<event>
 5    1  0.1324057E-009  0.9118800E+02  0.7818608E-02  0.1130116E+00
         25   -1    0    0    0    0  0.00000000000E+00  0.00000000000E+00  0.99999998245E-14  0.12500000000E+03  0.12500000000E+03 0.  0.
        -13    1    3    3    0    0 -0.48451453163E+02 -0.14461162391E+02  0.29326642914E+02  0.58452815843E+02  0.10566000000E+00 0.  1.
         23    2    1    0    0    0 -0.27619702570E+02 -0.46074435536E+01 -0.15202967852E+01  0.96957392980E+02  0.92813513267E+02 0.  0.
         13    1    3    3    0    0  0.20831750592E+02  0.98537188374E+01 -0.30846939700E+02  0.38504577138E+02  0.10566000000E+00 0. -1.
         22    1    1    0    0    0  0.27619702570E+02  0.46074435536E+01  0.15202967852E+01  0.28042607020E+02  0.00000000000E+00 0.  1.
</event>
<event>
 5    1  0.1324057E-009  0.9118800E+02  0.7818608E-02  0.1130116E+00
         25   -1    0    0    0    0  0.00000000000E+00  0.00000000000E+00  0.99999998245E-14  0.12500000000E+03  0.12500000000E+03 0.  0.
        -13    1    3    3    0    0 -0.16409934754E+02 -0.47846360415E+02 -0.61550680063E+01  0.50955433369E+02  0.10566000000E+00 0.  1.
         23    2    1    0    0    0  0.18647620433E+02 -0.27582831981E+02 -0.26038299171E+01  0.91603498715E+02  0.85298737849E+02 0.  0.
         13    1    3    3    0    0  0.35057555187E+02  0.20263528435E+02  0.35512380893E+01  0.40648065345E+02  0.10566000000E+00 0. -1.
         22    1    1    0    0    0 -0.18647620433E+02  0.27582831981E+02  0.26038299171E+01  0.33396501285E+02  0.00000000000E+00 0.  1.
</event>
<event>
 5    1  0.1324057E-009  0.9118800E+02  0.7818608E-02  0.1130116E+00
         25   -1    0    0    0    0  0.00000000000E+00  0.00000000000E+00  0.99999998245E-14  0.12500000000E+03  0.12500000000E+03 0.  0.
        -13    1    3    3    0    0 -0.10684337863E+01  0.41032334390E+02 -0.14790998177E+02  0.43630021858E+02  0.10566000000E+00 0.  1.
         23    2    1    0    0    0  0.29158673344E+02  0.79217949498E+00 -0.99031204401E+01  0.94195331945E+02  0.89015914231E+02 0.  0.
         13    1    3    3    0    0  0.30227107130E+02 -0.40240154895E+02  0.48878777373E+01  0.50565310087E+02  0.10566000000E+00 0. -1.
         22    1    1    0    0    0 -0.29158673344E+02 -0.79217949498E+00  0.99031204401E+01  0.30804668055E+02  0.00000000000E+00 0. -1.
</event>
<event>
 5    1  0.1324057E-009  0.9118800E+02  0.7818608E-02  0.1130116E+00
         25   -1    0    0    0    0  0.00000000000E+00  0.00000000000E+00  0.99999998245E-14  0.12500000000E+03  0.12500000000E+03 0.  0.
        -13    1    3    3    0    0  0.17551735149E+02 -0.11632785080E+02  0.45870659141E+02  0.50472899952E+02  0.10566000000E+00 0.  1.
         23    2    1    0    0    0  0.27694874568E+02 -0.51425377790E+01  0.11265480181E+01  0.96809205712E+02  0.92613721596E+02 0.  0.
         13    1    3    3    0    0  0.10143139419E+02  0.64902473013E+01 -0.44744111123E+02  0.46336305760E+02  0.10566000000E+00 0. -1.
         22    1    1    0    0    0 -0.27694874568E+02  0.51425377790E+01 -0.11265480181E+01  0.28190794288E+02  0.00000000000E+00 0.  1.
</event>
<event>
 5    1  0.1324057E-009  0.9118800E+02  0.7818608E-02  0.1130116E+00
         25   -1    0    0    0    0  0.00000000000E+00  0.00000000000E+00  0.99999998245E-14  0.12500000000E+03  0.12500000000E+03 0.  0.
        -13    1    3    3    0    0 -0.33976053565E+02 -0.38019583110E+00 -0.17522243153E+02  0.38230314331E+02  0.10566000000E+00 0.  1.
         23    2    1    0    0    0  0.13035632644E+02 -0.26225896722E+02  0.27577412233E+01  0.95583499291E+02  0.90944350142E+02 0.  0.
         13    1    3    3    0    0  0.47011686209E+02 -0.25845700891E+02  0.20279984376E+02  0.57353184960E+02  0.10566000000E+00 0. -1.
         22    1    1    0    0    0 -0.13035632644E+02  0.26225896722E+02 -0.27577412233E+01  0.29416500709E+02  0.00000000000E+00 0. -1.
</event>
<event>
 5    1  0.1324057E-009  0.9118800E+02  0.7818608E-02  0.1130116E+00
         25   -1    0    0    0    0  0.00000000000E+00  0.00000000000E+00  0.99999998245E-14  0.12500000000E+03  0.12500000000E+03 0.  0.
        -13    1    3    3    0    0  0.90962687908E+01  0.11788979019E+02  0.31152229572E+02  0.34528172607E+02  0.10566000000E+00 0. -1.
         23    2    1    0    0    0  0.39877699243E+01 -0.17237432626E+02 -0.22880807546E+02  0.96076605551E+02  0.91619601547E+02 0.  0.
         13    1    3    3    0    0 -0.51084988665E+01 -0.29026411645E+02 -0.54033037118E+02  0.61548432944E+02  0.10566000000E+00 0.  1.
         22    1    1    0    0    0 -0.39877699243E+01  0.17237432626E+02  0.22880807546E+02  0.28923394449E+02  0.00000000000E+00 0.  1.
</event>
<event>
 5    1  0.1324057E-009  0.9118800E+02  0.7818608E-02  0.1130116E+00
         25   -1    0    0    0    0  0.00000000000E+00  0.00000000000E+00  0.99999998245E-14  0.12500000000E+03  0.12500000000E+03 0.  0.
        -13    1    3    3    0    0 -0.59040121258E+01 -0.36326179138E+02  0.14507758253E+02  0.39559257621E+02  0.10566000000E+00 0. -1.
         23    2    1    0    0    0 -0.19996234645E+02  0.48314556646E+01 -0.20917404030E+02  0.95661797002E+02  0.91051904156E+02 0.  0.
         13    1    3    3    0    0 -0.14092222519E+02  0.41157634803E+02 -0.35425162284E+02  0.56102539380E+02  0.10566000000E+00 0.  1.
         22    1    1    0    0    0  0.19996234645E+02 -0.48314556646E+01  0.20917404030E+02  0.29338202998E+02  0.00000000000E+00 0.  1.
</event>
<event>
 5    1  0.1324057E-009  0.9118800E+02  0.7818608E-02  0.1130116E+00
         25   -1    0    0    0    0  0.00000000000E+00  0.00000000000E+00  0.99999998245E-14  0.12500000000E+03  0.12500000000E+03 0.  0.
        -13    1    3    3    0    0 -0.25620508061E+02 -0.88044981264E+01  0.26627865476E+02  0.37986629285E+02  0.10566000000E+00 0.  1.
         23    2    1    0    0    0  0.28105069169E+02 -0.73517909372E+01  0.10682973264E+02  0.94047299621E+02  0.88807797548E+02 0.  0.
         13    1    3    3    0    0  0.53725577230E+02  0.14527071891E+01 -0.15944892212E+02  0.56060670336E+02  0.10566000000E+00 0. -1.
         22    1    1    0    0    0 -0.28105069169E+02  0.73517909372E+01 -0.10682973264E+02  0.30952700379E+02  0.00000000000E+00 0. -1.
</event>
<event>
 5    1  0.1324057E-009  0.9118800E+02  0.7818608E-02  0.1130116E+00
         25   -1    0    0    0    0  0.00000000000E+00  0.00000000000E+00  0.99999998245E-14  0.12500000000E+03  0.12500000000E+03 0.  0.
        -13    1    3    3    0    0  0.42813884646E+02 -0.29008253658E+02 -0.39243807904E+01  0.51864433163E+02  0.10566000000E+00 0. -1.
         23    2    1    0    0    0  0.94218778868E+01 -0.95156044609E+01 -0.25540572801E+02  0.96161841769E+02  0.91735818752E+02 0.  0.
         13    1    3    3    0    0 -0.33392006759E+02  0.19492649197E+02 -0.21616192011E+02  0.44297408606E+02  0.10566000000E+00 0.  1.
         22    1    1    0    0    0 -0.94218778868E+01  0.95156044609E+01  0.25540572801E+02  0.28838158231E+02  0.00000000000E+00 0.  1.
</event>
<event>
 5    1  0.1324057E-009  0.9118800E+02  0.7818608E-02  0.1130116E+00
         25   -1    0    0    0    0  0.00000000000E+00  0.00000000000E+00  0.99999998245E-14  0.12500000000E+03  0.12500000000E+03 0.  0.
        -13    1    3    3    0    0 -0.19117999789E+01 -0.20708174656E+02 -0.53796079493E+02  0.57675929204E+02  0.10566000000E+00 0. -1.
         23    2    1    0    0    0  0.10932257904E+02 -0.81452158917E+01 -0.45566306915E+02  0.77437965449E+02  0.61110484879E+02 0.  0.
         13    1    3    3    0    0  0.12844057882E+02  0.12562958765E+02  0.82297725777E+01  0.19762036244E+02  0.10566000000E+00 0.  1.
         22    1    1    0    0    0 -0.10932257904E+02  0.81452158917E+01  0.45566306915E+02  0.47562034551E+02  0.00000000000E+00 0. -1.
</event>
<event>
 5    1  0.1324057E-009  0.9118800E+02  0.7818608E-02  0.1130116E+00
         25   -1    0    0    0    0  0.00000000000E+00  0.00000000000E+00  0.99999998245E-14  0.12500000000E+03  0.12500000000E+03 0.  0.
        -13    1    3    3    0    0 -0.32551173552E+01 -0.11395096950E+02  0.50286628364E+02  0.51664302761E+02  0.10566000000E+00 0. -1.
         23    2    1    0    0    0  0.15103448860E+01 -0.29318045872E+02  0.13869970413E+02  0.92531476248E+02  0.86647960518E+02 0.  0.
         13    1    3    3    0    0  0.47654622412E+01 -0.17922948922E+02 -0.36416657951E+02  0.40867173487E+02  0.10566000000E+00 0.  1.
         22    1    1    0    0    0 -0.15103448860E+01  0.29318045872E+02 -0.13869970413E+02  0.32468523752E+02  0.00000000000E+00 0.  1.
</event>
<event>
 5    1  0.1324057E-009  0.9118800E+02  0.7818608E-02  0.1130116E+00
         25   -1    0    0    0    0  0.00000000000E+00  0.00000000000E+00  0.99999998245E-14  0.12500000000E+03  0.12500000000E+03 0.  0.
        -13    1    3    3    0    0 -0.43435679080E+01 -0.48367518684E+02  0.45486002595E+01  0.48774833410E+02  0.10566000000E+00 0.  1.
         23    2    1    0    0    0 -0.24553213713E+02 -0.97952373279E+01  0.16382526603E+02  0.93900254730E+02  0.88600585114E+02 0.  0.
         13    1    3    3    0    0 -0.20209645805E+02  0.38572281356E+02  0.11833926343E+02  0.45125421320E+02  0.10566000000E+00 0. -1.
         22    1    1    0    0    0  0.24553213713E+02  0.97952373279E+01 -0.16382526603E+02  0.31099745270E+02  0.00000000000E+00 0.  1.
</event>
<event>
 5    1  0.1324057E-009  0.9118800E+02  0.7818608E-02  0.1130116E+00
         25   -1    0    0    0    0  0.00000000000E+00  0.00000000000E+00  0.99999998245E-14  0.12500000000E+03  0.12500000000E+03 0.  0.
        -13    1    3    3    0    0 -0.13784421767E+02 -0.50348561015E+02 -0.22790224173E+02  0.56959576558E+02  0.10566000000E+00 0.  1.
         23    2    1    0    0    0  0.12000117407E+02 -0.25675924437E+02 -0.11788419140E+02  0.94304353089E+02  0.89168875019E+02 0.  0.
         13    1    3    3    0    0  0.25784539174E+02  0.24672636578E+02  0.11001805033E+02  0.37344776531E+02  0.10566000000E+00 0. -1.
         22    1    1    0    0    0 -0.12000117407E+02  0.25675924437E+02  0.11788419140E+02  0.30695646911E+02  0.00000000000E+00 0.  1.
</event>
<event>
 5    1  0.1324057E-009  0.9118800E+02  0.7818608E-02  0.1130116E+00
         25   -1    0    0    0    0  0.00000000000E+00  0.00000000000E+00  0.99999998245E-14  0.12500000000E+03  0.12500000000E+03 0.  0.
        -13    1    3    3    0    0 -0.55013164352E+01 -0.56078893595E+02 -0.22748514289E+02  0.60766873013E+02  0.10566000000E+00 0.  1.
         23    2    1    0    0    0  0.78280325972E+00 -0.22366070010E+02 -0.19680872403E+02  0.95197473141E+02  0.90412213142E+02 0.  0.
         13    1    3    3    0    0  0.62841196949E+01  0.33712823585E+02  0.30676418853E+01  0.34430600128E+02  0.10566000000E+00 0. -1.
         22    1    1    0    0    0 -0.78280325972E+00  0.22366070010E+02  0.19680872403E+02  0.29802526859E+02  0.00000000000E+00 0.  1.
</event>
<event>
 5    1  0.1324057E-009  0.9118800E+02  0.7818608E-02  0.1130116E+00
         25   -1    0    0    0    0  0.00000000000E+00  0.00000000000E+00  0.99999998245E-14  0.12500000000E+03  0.12500000000E+03 0.  0.
        -13    1    3    3    0    0 -0.31187007634E+02 -0.32517898985E+02 -0.43278480730E+02  0.62474644921E+02  0.10566000000E+00 0.  1.
         23    2    1    0    0    0 -0.15611277341E+02 -0.15291136514E+02 -0.19519337577E+02  0.95699225684E+02  0.91103273382E+02 0.  0.
         13    1    3    3    0    0  0.15575730294E+02  0.17226762472E+02  0.23759143154E+02  0.33224580763E+02  0.10566000000E+00 0. -1.
         22    1    1    0    0    0  0.15611277341E+02  0.15291136514E+02  0.19519337577E+02  0.29300774316E+02  0.00000000000E+00 0.  1.
</event>
<event>
 5    1  0.1324057E-009  0.9118800E+02  0.7818608E-02  0.1130116E+00
         25   -1    0    0    0    0  0.00000000000E+00  0.00000000000E+00  0.99999998245E-14  0.12500000000E+03  0.12500000000E+03 0.  0.
        -13    1    3    3    0    0 -0.32230480917E+01 -0.28791770746E+02 -0.19527774872E+02  0.34938506796E+02  0.10566000000E+00 0.  1.
         23    2    1    0    0    0  0.22540100305E+01  0.29166249695E+02 -0.22705259355E+01  0.95658800800E+02  0.91047790748E+02 0.  0.
         13    1    3    3    0    0  0.54770581221E+01  0.57958020440E+02  0.17257248937E+02  0.60720294004E+02  0.10566000000E+00 0. -1.
         22    1    1    0    0    0 -0.22540100305E+01 -0.29166249695E+02  0.22705259355E+01  0.29341199200E+02  0.00000000000E+00 0. -1.
</event>
<event>
 5    1  0.1324057E-009  0.9118800E+02  0.7818608E-02  0.1130116E+00
         25   -1    0    0    0    0  0.00000000000E+00  0.00000000000E+00  0.99999998245E-14  0.12500000000E+03  0.12500000000E+03 0.  0.
        -13    1    3    3    0    0  0.26822819293E+02 -0.47177441787E+02 -0.11954465179E+02  0.55570631183E+02  0.10566000000E+00 0.  1.
         23    2    1    0    0    0  0.28552248565E+02 -0.89642507771E+01 -0.79730349955E+01  0.94029724297E+02  0.88783056233E+02 0.  0.
         13    1    3    3    0    0  0.17294292717E+01  0.38213191009E+02  0.39814301839E+01  0.38459093113E+02  0.10566000000E+00 0. -1.
         22    1    1    0    0    0 -0.28552248565E+02  0.89642507771E+01  0.79730349955E+01  0.30970275703E+02  0.00000000000E+00 0.  1.
</event>
<event>
 5    1  0.1324057E-009  0.9118800E+02  0.7818608E-02  0.1130116E+00
         25   -1    0    0    0    0  0.00000000000E+00  0.00000000000E+00  0.99999998245E-14  0.12500000000E+03  0.12500000000E+03 0.  0.
        -13    1    3    3    0    0 -0.39676072710E+02  0.10040108624E+02  0.15398690837E+02  0.43727855772E+02  0.10566000000E+00 0. -1.
         23    2    1    0    0    0 -0.22752560821E+01  0.20487138222E+02 -0.20003999205E+02  0.96276149162E+02  0.91891442966E+02 0.  0.
         13    1    3    3    0    0  0.37400816628E+02  0.10447029598E+02 -0.35402690043E+02  0.52548293389E+02  0.10566000000E+00 0.  1.
         22    1    1    0    0    0  0.22752560821E+01 -0.20487138222E+02  0.20003999205E+02  0.28723850838E+02  0.00000000000E+00 0.  1.
</event>
<event>
 5    1  0.1324057E-009  0.9118800E+02  0.7818608E-02  0.1130116E+00
         25   -1    0    0    0    0  0.00000000000E+00  0.00000000000E+00  0.99999998245E-14  0.12500000000E+03  0.12500000000E+03 0.  0.
        -13    1    3    3    0    0  0.49033446949E+02  0.81566943589E+01  0.33925636763E+01  0.49822999055E+02  0.10566000000E+00 0. -1.
         23    2    1    0    0    0  0.12190799418E+02 -0.96818631717E+01  0.24571842777E+02  0.95911694405E+02  0.91394330247E+02 0.  0.
         13    1    3    3    0    0 -0.36842647531E+02 -0.17838557531E+02  0.21179279100E+02  0.46088695350E+02  0.10566000000E+00 0.  1.
         22    1    1    0    0    0 -0.12190799418E+02  0.96818631717E+01 -0.24571842777E+02  0.29088305595E+02  0.00000000000E+00 0. -1.
</event>
<event>
 5    1  0.1324057E-009  0.9118800E+02  0.7818608E-02  0.1130116E+00
         25   -1    0    0    0    0  0.00000000000E+00  0.00000000000E+00  0.99999998245E-14  0.12500000000E+03  0.12500000000E+03 0.  0.
        -13    1    3    3    0    0 -0.25568557150E+02 -0.44191815726E+02  0.10214737872E+02  0.52067453613E+02  0.10566000000E+00 0. -1.
         23    2    1    0    0    0 -0.71767203407E+00 -0.20311616523E+02 -0.18946632170E+02  0.97214181863E+02  0.93158711165E+02 0.  0.
         13    1    3    3    0    0  0.24850885116E+02  0.23880199203E+02 -0.29161370042E+02  0.45146728251E+02  0.10566000000E+00 0.  1.
         22    1    1    0    0    0  0.71767203407E+00  0.20311616523E+02  0.18946632170E+02  0.27785818137E+02  0.00000000000E+00 0. -1.
</event>
<event>
 5    1  0.1324057E-009  0.9118800E+02  0.7818608E-02  0.1130116E+00
         25   -1    0    0    0    0  0.00000000000E+00  0.00000000000E+00  0.99999998245E-14  0.12500000000E+03  0.12500000000E+03 0.  0.
        -13    1    3    3    0    0  0.39066901235E+01  0.33754240759E+01 -0.37447235005E+02  0.37801617544E+02  0.10566000000E+00 0. -1.
         23    2    1    0    0    0 -0.25566617011E+02 -0.18159028924E+02  0.44018961708E+01  0.93333315192E+02  0.87797088779E+02 0.  0.
         13    1    3    3    0    0 -0.29473307134E+02 -0.21534453000E+02  0.41849131176E+02  0.55531697648E+02  0.10566000000E+00 0.  1.
         22    1    1    0    0    0  0.25566617011E+02  0.18159028924E+02 -0.44018961708E+01  0.31666684808E+02  0.00000000000E+00 0.  1.
</event>
<event>
 5    1  0.1324057E-009  0.9118800E+02  0.7818608E-02  0.1130116E+00
         25   -1    0    0    0    0  0.00000000000E+00  0.00000000000E+00  0.99999998245E-14  0.12500000000E+03  0.12500000000E+03 0.  0.
        -13    1    3    3    0    0 -0.39378722908E+02 -0.34779695399E+02  0.19531797064E+01  0.52575061625E+02  0.10566000000E+00 0.  1.
         23    2    1    0    0    0  0.22456855254E+01 -0.28030324870E+02  0.93070342868E+01  0.95379684286E+02  0.90663780373E+02 0.  0.
         13    1    3    3    0    0  0.41624408433E+02  0.67493705291E+01  0.73538545804E+01  0.42804622661E+02  0.10566000000E+00 0. -1.
         22    1    1    0    0    0 -0.22456855254E+01  0.28030324870E+02 -0.93070342868E+01  0.29620315714E+02  0.00000000000E+00 0.  1.
</event>
<event>
 5    1  0.1324057E-009  0.9118800E+02  0.7818608E-02  0.1130116E+00
         25   -1    0    0    0    0  0.00000000000E+00  0.00000000000E+00  0.99999998245E-14  0.12500000000E+03  0.12500000000E+03 0.  0.
        -13    1    3    3    0    0  0.13968789697E+02 -0.17148083169E+02  0.36628876593E+02  0.42788662125E+02  0.10566000000E+00 0.  1.
         23    2    1    0    0    0 -0.44290054728E+01 -0.25934924568E+02 -0.12419319013E+02  0.95905741347E+02  0.91386187889E+02 0.  0.
         13    1    3    3    0    0 -0.18397795169E+02 -0.87868413989E+01 -0.49048195606E+02  0.53117079222E+02  0.10566000000E+00 0. -1.
         22    1    1    0    0    0  0.44290054728E+01  0.25934924568E+02  0.12419319013E+02  0.29094258653E+02  0.00000000000E+00 0. -1.
</event>
<event>
 5    1  0.1324057E-009  0.9118800E+02  0.7818608E-02  0.1130116E+00
         25   -1    0    0    0    0  0.00000000000E+00  0.00000000000E+00  0.99999998245E-14  0.12500000000E+03  0.12500000000E+03 0.  0.
        -13    1    3    3    0    0  0.38736400750E+02  0.80169822144E+01  0.13921616555E+02  0.41935704578E+02  0.10566000000E+00 0. -1.
         23    2    1    0    0    0  0.87140980185E+01  0.77372487679E+01 -0.28673576433E+02  0.94048836722E+02  0.88809961043E+02 0.  0.
         13    1    3    3    0    0 -0.30022302732E+02 -0.27973344645E+00 -0.42595192988E+02  0.52113132144E+02  0.10566000000E+00 0.  1.
         22    1    1    0    0    0 -0.87140980185E+01 -0.77372487679E+01  0.28673576433E+02  0.30951163278E+02  0.00000000000E+00 0. -1.
</event>
<event>
 5    1  0.1324057E-009  0.9118800E+02  0.7818608E-02  0.1130116E+00
         25   -1    0    0    0    0  0.00000000000E+00  0.00000000000E+00  0.99999998245E-14  0.12500000000E+03  0.12500000000E+03 0.  0.
        -13    1    3    3    0    0  0.30946876698E+02 -0.15808323008E+02  0.19903592600E+02  0.40047177380E+02  0.10566000000E+00 0.  1.
         23    2    1    0    0    0 -0.20044571722E+02 -0.15635542359E+02 -0.82227200693E+01  0.98281688569E+02  0.94580241818E+02 0.  0.
         13    1    3    3    0    0 -0.50991448420E+02  0.17278064921E+00 -0.28126312669E+02  0.58234511190E+02  0.10566000000E+00 0. -1.
         22    1    1    0    0    0  0.20044571722E+02  0.15635542359E+02  0.82227200693E+01  0.26718311431E+02  0.00000000000E+00 0. -1.
</event>
<event>
 5    1  0.1324057E-009  0.9118800E+02  0.7818608E-02  0.1130116E+00
         25   -1    0    0    0    0  0.00000000000E+00  0.00000000000E+00  0.99999998245E-14  0.12500000000E+03  0.12500000000E+03 0.  0.
        -13    1    3    3    0    0 -0.36675940218E+02  0.19121608762E+02 -0.26211139209E+02  0.48967290053E+02  0.10566000000E+00 0.  1.
         23    2    1    0    0    0 -0.17231126399E+02 -0.20316731460E+02 -0.15326372769E+02  0.94265996088E+02  0.89115088633E+02 0.  0.
         13    1    3    3    0    0  0.19444813819E+02 -0.39438340223E+02  0.10884766440E+02  0.45298706035E+02  0.10566000000E+00 0. -1.
         22    1    1    0    0    0  0.17231126399E+02  0.20316731460E+02  0.15326372769E+02  0.30734003912E+02  0.00000000000E+00 0. -1.
</event>
<event>
 5    1  0.1324057E-009  0.9118800E+02  0.7818608E-02  0.1130116E+00
         25   -1    0    0    0    0  0.00000000000E+00  0.00000000000E+00  0.99999998245E-14  0.12500000000E+03  0.12500000000E+03 0.  0.
        -13    1    3    3    0    0  0.26104614202E+02 -0.18309389661E+02  0.37115508239E+02  0.48931142928E+02  0.10566000000E+00 0.  1.
         23    2    1    0    0    0  0.28582133111E+02 -0.63977226603E+01 -0.71601152814E+01  0.94848110520E+02  0.89927902399E+02 0.  0.
         13    1    3    3    0    0  0.24775189081E+01  0.11911667001E+02 -0.44275623520E+02  0.45916967591E+02  0.10566000000E+00 0. -1.
         22    1    1    0    0    0 -0.28582133111E+02  0.63977226603E+01  0.71601152814E+01  0.30151889480E+02  0.00000000000E+00 0.  1.
</event>
<event>
 5    1  0.1324057E-009  0.9118800E+02  0.7818608E-02  0.1130116E+00
         25   -1    0    0    0    0  0.00000000000E+00  0.00000000000E+00  0.99999998245E-14  0.12500000000E+03  0.12500000000E+03 0.  0.
        -13    1    3    3    0    0  0.77513857047E+01  0.65165706036E+01 -0.35839098485E+02  0.37242473293E+02  0.10566000000E+00 0. -1.
         23    2    1    0    0    0  0.19830997383E+02  0.19686684721E+01  0.21305604936E+02  0.95826845997E+02  0.91278209335E+02 0.  0.
         13    1    3    3    0    0  0.12079611679E+02 -0.45479021315E+01  0.57144703420E+02  0.58584372704E+02  0.10566000000E+00 0.  1.
         22    1    1    0    0    0 -0.19830997383E+02 -0.19686684721E+01 -0.21305604936E+02  0.29173154003E+02  0.00000000000E+00 0.  1.
</event>
<event>
 5    1  0.1324057E-009  0.9118800E+02  0.7818608E-02  0.1130116E+00
         25   -1    0    0    0    0  0.00000000000E+00  0.00000000000E+00  0.99999998245E-14  0.12500000000E+03  0.12500000000E+03 0.  0.
        -13    1    3    3    0    0  0.34936517649E+02 -0.95909775894E+01  0.30059437676E+02  0.47075769500E+02  0.10566000000E+00 0.  1.
         23    2    1    0    0    0 -0.11257246544E+02 -0.47310168987E+01  0.28997031293E+02  0.93536752481E+02  0.88086253867E+02 0.  0.
         13    1    3    3    0    0 -0.46193764193E+02  0.48599606907E+01 -0.10624063833E+01  0.46460982981E+02  0.10566000000E+00 0. -1.
         22    1    1    0    0    0  0.11257246544E+02  0.47310168987E+01 -0.28997031293E+02  0.31463247519E+02  0.00000000000E+00 0. -1.
</event>
<event>
 5    1  0.1324057E-009  0.9118800E+02  0.7818608E-02  0.1130116E+00
         25   -1    0    0    0    0  0.00000000000E+00  0.00000000000E+00  0.99999998245E-14  0.12500000000E+03  0.12500000000E+03 0.  0.
        -13    1    3    3    0    0 -0.43616681460E+02  0.25634237121E+02 -0.12690518224E+01  0.50607812351E+02  0.10566000000E+00 0.  1.
         23    2    1    0    0    0 -0.20472743519E+02 -0.14697059825E+02 -0.99384407444E+01  0.97909237753E+02  0.94086712336E+02 0.  0.
         13    1    3    3    0    0  0.23143937941E+02 -0.40331296946E+02 -0.86693889220E+01  0.47301425402E+02  0.10566000000E+00 0. -1.
         22    1    1    0    0    0  0.20472743519E+02  0.14697059825E+02  0.99384407444E+01  0.27090762247E+02  0.00000000000E+00 0.  1.
</event>
<event>
 5    1  0.1324057E-009  0.9118800E+02  0.7818608E-02  0.1130116E+00
         25   -1    0    0    0    0  0.00000000000E+00  0.00000000000E+00  0.99999998245E-14  0.12500000000E+03  0.12500000000E+03 0.  0.
        -13    1    3    3    0    0  0.39890079510E+01  0.29288968463E+02 -0.17998152992E+02  0.34607810293E+02  0.10566000000E+00 0. -1.
         23    2    1    0    0    0 -0.12183840456E+02 -0.21220474694E+02  0.14255414191E+02  0.96680901352E+02  0.92440388024E+02 0.  0.
         13    1    3    3    0    0 -0.16172848407E+02 -0.50509443157E+02  0.32253567183E+02  0.62073091060E+02  0.10566000000E+00 0.  1.
         22    1    1    0    0    0  0.12183840456E+02  0.21220474694E+02 -0.14255414191E+02  0.28319098648E+02  0.00000000000E+00 0.  1.
</event>
<event>
 5    1  0.1324057E-009  0.9118800E+02  0.7818608E-02  0.1130116E+00
         25   -1    0    0    0    0  0.00000000000E+00  0.00000000000E+00  0.99999998245E-14  0.12500000000E+03  0.12500000000E+03 0.  0.
        -13    1    3    3    0    0 -0.88396506350E+00  0.86268700946E+01  0.50967992487E+02  0.51700596747E+02  0.10566000000E+00 0.  1.
         23    2    1    0    0    0  0.24595223568E+02  0.10754392641E+02  0.22412616010E+02  0.90029907923E+02  0.82960695397E+02 0.  0.
         13    1    3    3    0    0  0.25479188631E+02  0.21275225465E+01 -0.28555376476E+02  0.38329311176E+02  0.10566000000E+00 0. -1.
         22    1    1    0    0    0 -0.24595223568E+02 -0.10754392641E+02 -0.22412616010E+02  0.34970092077E+02  0.00000000000E+00 0. -1.
</event>
<event>
 5    1  0.1324057E-009  0.9118800E+02  0.7818608E-02  0.1130116E+00
         25   -1    0    0    0    0  0.00000000000E+00  0.00000000000E+00  0.99999998245E-14  0.12500000000E+03  0.12500000000E+03 0.  0.
        -13    1    3    3    0    0 -0.31028714824E+02 -0.27223306972E+02  0.93475940403E+01  0.42323495419E+02  0.10566000000E+00 0.  1.
         23    2    1    0    0    0  0.16168804190E+02 -0.33481213918E+01  0.22751547773E+02  0.96888204044E+02  0.92720283709E+02 0.  0.
         13    1    3    3    0    0  0.47197519015E+02  0.23875185580E+02  0.13403953733E+02  0.54564708625E+02  0.10566000000E+00 0. -1.
         22    1    1    0    0    0 -0.16168804190E+02  0.33481213918E+01 -0.22751547773E+02  0.28111795956E+02  0.00000000000E+00 0. -1.
</event>
<event>
 5    1  0.1324057E-009  0.9118800E+02  0.7818608E-02  0.1130116E+00
         25   -1    0    0    0    0  0.00000000000E+00  0.00000000000E+00  0.99999998245E-14  0.12500000000E+03  0.12500000000E+03 0.  0.
        -13    1    3    3    0    0 -0.40345973419E+02 -0.10069254590E+02  0.82694076462E+01  0.42397897659E+02  0.10566000000E+00 0. -1.
         23    2    1    0    0    0  0.41037125319E+01  0.86692324272E+01  0.28666732930E+02  0.94771245075E+02  0.89820995702E+02 0.  0.
         13    1    3    3    0    0  0.44449685950E+02  0.18738487017E+02  0.20397325284E+02  0.52373347416E+02  0.10566000000E+00 0.  1.
         22    1    1    0    0    0 -0.41037125319E+01 -0.86692324272E+01 -0.28666732930E+02  0.30228754925E+02  0.00000000000E+00 0. -1.
</event>
<event>
 5    1  0.1324057E-009  0.9118800E+02  0.7818608E-02  0.1130116E+00
         25   -1    0    0    0    0  0.00000000000E+00  0.00000000000E+00  0.99999998245E-14  0.12500000000E+03  0.12500000000E+03 0.  0.
        -13    1    3    3    0    0 -0.16605541068E+02 -0.11322633545E+02  0.38702493427E+02  0.43610092709E+02  0.10566000000E+00 0.  1.
         23    2    1    0    0    0  0.82379917633E+01  0.24791221957E+02  0.23067895105E+02  0.90148931452E+02  0.83139839204E+02 0.  0.
         13    1    3    3    0    0  0.24843532832E+02  0.36113855502E+02 -0.15634598322E+02  0.46538838743E+02  0.10566000000E+00 0. -1.
         22    1    1    0    0    0 -0.82379917633E+01 -0.24791221957E+02 -0.23067895105E+02  0.34851068548E+02  0.00000000000E+00 0.  1.
</event>
<event>
 5    1  0.1324057E-009  0.9118800E+02  0.7818608E-02  0.1130116E+00
         25   -1    0    0    0    0  0.00000000000E+00  0.00000000000E+00  0.99999998245E-14  0.12500000000E+03  0.12500000000E+03 0.  0.
        -13    1    3    3    0    0 -0.24653228540E+02 -0.30255971699E+02  0.46009728253E+02  0.60333338702E+02  0.10566000000E+00 0. -1.
         23    2    1    0    0    0 -0.55766421044E+01 -0.22946812225E+02  0.16631694624E+02  0.96116295347E+02  0.91673735806E+02 0.  0.
         13    1    3    3    0    0  0.19076586436E+02  0.73091594748E+01 -0.29378033629E+02  0.35782956645E+02  0.10566000000E+00 0.  1.
         22    1    1    0    0    0  0.55766421044E+01  0.22946812225E+02 -0.16631694624E+02  0.28883704653E+02  0.00000000000E+00 0. -1.
</event>
<event>
 5    1  0.1324057E-009  0.9118800E+02  0.7818608E-02  0.1130116E+00
         25   -1    0    0    0    0  0.00000000000E+00  0.00000000000E+00  0.99999998245E-14  0.12500000000E+03  0.12500000000E+03 0.  0.
        -13    1    3    3    0    0 -0.89200313303E+01 -0.49340733208E+02  0.60786993230E+01  0.50507788131E+02  0.10566000000E+00 0.  1.
         23    2    1    0    0    0 -0.22581594854E+02 -0.20263089512E+02 -0.17145738050E+02  0.90150357878E+02  0.83141983796E+02 0.  0.
         13    1    3    3    0    0 -0.13661563524E+02  0.29077643696E+02 -0.23224437373E+02  0.39642569747E+02  0.10566000000E+00 0. -1.
         22    1    1    0    0    0  0.22581594854E+02  0.20263089512E+02  0.17145738050E+02  0.34849642122E+02  0.00000000000E+00 0.  1.
</event>
<event>
 5    1  0.1324057E-009  0.9118800E+02  0.7818608E-02  0.1130116E+00
         25   -1    0    0    0    0  0.00000000000E+00  0.00000000000E+00  0.99999998245E-14  0.12500000000E+03  0.12500000000E+03 0.  0.
        -13    1    3    3    0    0  0.22716990636E+02  0.24329212888E+01  0.48105583479E+02  0.53255413767E+02  0.10566000000E+00 0.  1.
         23    2    1    0    0    0  0.29175485155E+01 -0.21745518779E+02  0.21144351574E+02  0.94529304573E+02  0.89483664114E+02 0.  0.
         13    1    3    3    0    0 -0.19799442120E+02 -0.24178440068E+02 -0.26961231905E+02  0.41273890806E+02  0.10566000000E+00 0. -1.
         22    1    1    0    0    0 -0.29175485155E+01  0.21745518779E+02 -0.21144351574E+02  0.30470695427E+02  0.00000000000E+00 0.  1.
</event>
<event>
 5    1  0.1324057E-009  0.9118800E+02  0.7818608E-02  0.1130116E+00
         25   -1    0    0    0    0  0.00000000000E+00  0.00000000000E+00  0.99999998245E-14  0.12500000000E+03  0.12500000000E+03 0.  0.
        -13    1    3    3    0    0 -0.27594946545E+02 -0.27771150894E+02  0.60273702698E+01  0.39611339957E+02  0.10566000000E+00 0. -1.
         23    2    1    0    0    0 -0.16724403829E+01  0.12160115016E+02  0.29761072749E+02  0.92807036402E+02  0.87044581109E+02 0.  0.
         13    1    3    3    0    0  0.25922506162E+02  0.39931265910E+02  0.23733702480E+02  0.53195696445E+02  0.10566000000E+00 0.  1.
         22    1    1    0    0    0  0.16724403829E+01 -0.12160115016E+02 -0.29761072749E+02  0.32192963598E+02  0.00000000000E+00 0. -1.
</event>
<event>
 5    1  0.1324057E-009  0.9118800E+02  0.7818608E-02  0.1130116E+00
         25   -1    0    0    0    0  0.00000000000E+00  0.00000000000E+00  0.99999998245E-14  0.12500000000E+03  0.12500000000E+03 0.  0.
        -13    1    3    3    0    0  0.20636157843E+02  0.14612785321E+02  0.39064720207E+02  0.46534374760E+02  0.10566000000E+00 0.  1.
         23    2    1    0    0    0 -0.12156670670E+02 -0.16469979553E+02  0.22303861701E+02  0.94726131482E+02  0.89758191106E+02 0.  0.
         13    1    3    3    0    0 -0.32792828513E+02 -0.31082764874E+02 -0.16760858507E+02  0.48191756723E+02  0.10566000000E+00 0. -1.
         22    1    1    0    0    0  0.12156670670E+02  0.16469979553E+02 -0.22303861701E+02  0.30273868518E+02  0.00000000000E+00 0. -1.
</event>
<event>
 5    1  0.1324057E-009  0.9118800E+02  0.7818608E-02  0.1130116E+00
         25   -1    0    0    0    0  0.00000000000E+00  0.00000000000E+00  0.99999998245E-14  0.12500000000E+03  0.12500000000E+03 0.  0.
        -13    1    3    3    0    0  0.11010485376E+01  0.57408557168E+02  0.48200112260E+01  0.57621162920E+02  0.10566000000E+00 0.  1.
         23    2    1    0    0    0  0.99954070267E+01  0.25446636587E+02 -0.12376553898E+02  0.94989692411E+02  0.90124486698E+02 0.  0.
         13    1    3    3    0    0  0.88943584891E+01 -0.31961920581E+02 -0.17196565124E+02  0.37368529490E+02  0.10566000000E+00 0. -1.
         22    1    1    0    0    0 -0.99954070267E+01 -0.25446636587E+02  0.12376553898E+02  0.30010307589E+02  0.00000000000E+00 0.  1.
</event>
<event>
 5    1  0.1324057E-009  0.9118800E+02  0.7818608E-02  0.1130116E+00
         25   -1    0    0    0    0  0.00000000000E+00  0.00000000000E+00  0.99999998245E-14  0.12500000000E+03  0.12500000000E+03 0.  0.
        -13    1    3    3    0    0 -0.34512359912E+02 -0.39272271644E+02  0.22285916500E+02  0.56833859143E+02  0.10566000000E+00 0.  1.
         23    2    1    0    0    0 -0.20195009998E+02 -0.21540051445E+02 -0.76886210388E+01  0.94488901387E+02  0.89427206972E+02 0.  0.
         13    1    3    3    0    0  0.14317349915E+02  0.17732220198E+02 -0.29974537539E+02  0.37655042245E+02  0.10566000000E+00 0. -1.
         22    1    1    0    0    0  0.20195009998E+02  0.21540051445E+02  0.76886210388E+01  0.30511098613E+02  0.00000000000E+00 0.  1.
</event>
<event>
 5    1  0.1324057E-009  0.9118800E+02  0.7818608E-02  0.1130116E+00
         25   -1    0    0    0    0  0.00000000000E+00  0.00000000000E+00  0.99999998245E-14  0.12500000000E+03  0.12500000000E+03 0.  0.
        -13    1    3    3    0    0  0.48603992271E+02 -0.54465349551E+01  0.29341506042E+02  0.57034620614E+02  0.10566000000E+00 0.  1.
         23    2    1    0    0    0  0.13238834014E+02  0.66785055487E+01  0.26631407269E+02  0.94518841631E+02  0.89469047204E+02 0.  0.
         13    1    3    3    0    0 -0.35365158258E+02  0.12125040504E+02 -0.27100987732E+01  0.37484221016E+02  0.10566000000E+00 0. -1.
         22    1    1    0    0    0 -0.13238834014E+02 -0.66785055487E+01 -0.26631407269E+02  0.30481158369E+02  0.00000000000E+00 0.  1.
</event>
<event>
 5    1  0.1324057E-009  0.9118800E+02  0.7818608E-02  0.1130116E+00
         25   -1    0    0    0    0  0.00000000000E+00  0.00000000000E+00  0.99999998245E-14  0.12500000000E+03  0.12500000000E+03 0.  0.
        -13    1    3    3    0    0  0.51606873900E+02  0.96631344628E+01  0.21316763760E+02  0.56666226120E+02  0.10566000000E+00 0.  1.
         23    2    1    0    0    0  0.27079162090E+02 -0.11346634580E+02 -0.49106745404E+00  0.95635594965E+02  0.91015925756E+02 0.  0.
         13    1    3    3    0    0 -0.24527711810E+02 -0.21009769043E+02 -0.21807831214E+02  0.38969368845E+02  0.10566000000E+00 0. -1.
         22    1    1    0    0    0 -0.27079162090E+02  0.11346634580E+02  0.49106745404E+00  0.29364405035E+02  0.00000000000E+00 0.  1.
</event>
<event>
 5    1  0.1324057E-009  0.9118800E+02  0.7818608E-02  0.1130116E+00
         25   -1    0    0    0    0  0.00000000000E+00  0.00000000000E+00  0.99999998245E-14  0.12500000000E+03  0.12500000000E+03 0.  0.
        -13    1    3    3    0    0  0.58733137571E+02  0.11975211216E+02 -0.31968976448E+01  0.60026814435E+02  0.10566000000E+00 0. -1.
         23    2    1    0    0    0  0.27990544954E+02 -0.23218124392E+01  0.81079295162E+01  0.95766458633E+02  0.91195474988E+02 0.  0.
         13    1    3    3    0    0 -0.30742592618E+02 -0.14297023655E+02  0.11304827161E+02  0.35739644198E+02  0.10566000000E+00 0.  1.
         22    1    1    0    0    0 -0.27990544954E+02  0.23218124392E+01 -0.81079295162E+01  0.29233541367E+02  0.00000000000E+00 0. -1.
</event>
<event>
 5    1  0.1324057E-009  0.9118800E+02  0.7818608E-02  0.1130116E+00
         25   -1    0    0    0    0  0.00000000000E+00  0.00000000000E+00  0.99999998245E-14  0.12500000000E+03  0.12500000000E+03 0.  0.
        -13    1    3    3    0    0  0.41645141991E+02  0.16717896238E+02  0.37091880659E+02  0.58220483345E+02  0.10566000000E+00 0. -1.
         23    2    1    0    0    0  0.23227918564E+02 -0.80631799731E+01  0.14810231618E+02  0.96296445644E+02  0.91919048140E+02 0.  0.
         13    1    3    3    0    0 -0.18417223427E+02 -0.24781076211E+02 -0.22281649041E+02  0.38075962299E+02  0.10566000000E+00 0.  1.
         22    1    1    0    0    0 -0.23227918564E+02  0.80631799731E+01 -0.14810231618E+02  0.28703554356E+02  0.00000000000E+00 0. -1.
</event>
<event>
 5    1  0.1324057E-009  0.9118800E+02  0.7818608E-02  0.1130116E+00
         25   -1    0    0    0    0  0.00000000000E+00  0.00000000000E+00  0.99999998245E-14  0.12500000000E+03  0.12500000000E+03 0.  0.
        -13    1    3    3    0    0  0.12929762966E+01  0.47249730327E+02 -0.10299684296E+02  0.48376683064E+02  0.10566000000E+00 0.  1.
         23    2    1    0    0    0  0.15268253687E+02 -0.75078849994E+01 -0.10718013065E+02  0.10489120312E+03  0.10294562050E+03 0.  0.
         13    1    3    3    0    0  0.13975277391E+02 -0.54757615326E+02 -0.41832876926E+00  0.56514520058E+02  0.10566000000E+00 0. -1.
         22    1    1    0    0    0 -0.15268253687E+02  0.75078849994E+01  0.10718013065E+02  0.20108796878E+02  0.00000000000E+00 0. -1.
</event>
<event>
 5    1  0.1324057E-009  0.9118800E+02  0.7818608E-02  0.1130116E+00
         25   -1    0    0    0    0  0.00000000000E+00  0.00000000000E+00  0.99999998245E-14  0.12500000000E+03  0.12500000000E+03 0.  0.
        -13    1    3    3    0    0 -0.79891122408E+01  0.36138415839E+01 -0.33235355097E+02  0.34372747313E+02  0.10566000000E+00 0.  1.
         23    2    1    0    0    0 -0.39105659360E+01  0.16616208006E+02  0.25303534981E+02  0.94476897652E+02  0.89410426758E+02 0.  0.
         13    1    3    3    0    0  0.40785463048E+01  0.13002366422E+02  0.58538890077E+02  0.60104150339E+02  0.10566000000E+00 0. -1.
         22    1    1    0    0    0  0.39105659360E+01 -0.16616208006E+02 -0.25303534981E+02  0.30523102348E+02  0.00000000000E+00 0. -1.
</event>
<event>
 5    1  0.1324057E-009  0.9118800E+02  0.7818608E-02  0.1130116E+00
         25   -1    0    0    0    0  0.00000000000E+00  0.00000000000E+00  0.99999998245E-14  0.12500000000E+03  0.12500000000E+03 0.  0.
        -13    1    3    3    0    0  0.14738640281E+02 -0.61081670062E+01 -0.32845988340E+02  0.36515850470E+02  0.10566000000E+00 0. -1.
         23    2    1    0    0    0 -0.81241094236E+01  0.24441758293E+02  0.12987627859E+02  0.96154217296E+02  0.91725428994E+02 0.  0.
         13    1    3    3    0    0 -0.22862749704E+02  0.30549925299E+02  0.45833616199E+02  0.59638366826E+02  0.10566000000E+00 0.  1.
         22    1    1    0    0    0  0.81241094236E+01 -0.24441758293E+02 -0.12987627859E+02  0.28845782704E+02  0.00000000000E+00 0.  1.
</event>
<event>
 5    1  0.1324057E-009  0.9118800E+02  0.7818608E-02  0.1130116E+00
         25   -1    0    0    0    0  0.00000000000E+00  0.00000000000E+00  0.99999998245E-14  0.12500000000E+03  0.12500000000E+03 0.  0.
        -13    1    3    3    0    0  0.21337494257E+02  0.20790617192E+02  0.28847354952E+02  0.41469500554E+02  0.10566000000E+00 0.  1.
         23    2    1    0    0    0  0.91996235834E+00  0.16098693341E+02 -0.22725390596E+02  0.97135010573E+02  0.93052418793E+02 0.  0.
         13    1    3    3    0    0 -0.20417531899E+02 -0.46919238513E+01 -0.51572745548E+02  0.55665510019E+02  0.10566000000E+00 0. -1.
         22    1    1    0    0    0 -0.91996235834E+00 -0.16098693341E+02  0.22725390596E+02  0.27864989427E+02  0.00000000000E+00 0. -1.
</event>
<event>
 5    1  0.1324057E-009  0.9118800E+02  0.7818608E-02  0.1130116E+00
         25   -1    0    0    0    0  0.00000000000E+00  0.00000000000E+00  0.99999998245E-14  0.12500000000E+03  0.12500000000E+03 0.  0.
        -13    1    3    3    0    0 -0.13511312619E+02 -0.25849975046E+02  0.39537107027E+02  0.49132176571E+02  0.10566000000E+00 0.  1.
         23    2    1    0    0    0 -0.25793239066E+02  0.78821919801E+01  0.26114545841E+02  0.87458161521E+02  0.78990761360E+02 0.  0.
         13    1    3    3    0    0 -0.12281926447E+02  0.33732167026E+02 -0.13422561186E+02  0.38325984949E+02  0.10566000000E+00 0. -1.
         22    1    1    0    0    0  0.25793239066E+02 -0.78821919801E+01 -0.26114545841E+02  0.37541838479E+02  0.00000000000E+00 0. -1.
</event>
<event>
 5    1  0.1324057E-009  0.9118800E+02  0.7818608E-02  0.1130116E+00
         25   -1    0    0    0    0  0.00000000000E+00  0.00000000000E+00  0.99999998245E-14  0.12500000000E+03  0.12500000000E+03 0.  0.
        -13    1    3    3    0    0  0.50137876092E+02  0.22632512127E+02  0.14167242115E+02  0.56804569687E+02  0.10566000000E+00 0. -1.
         23    2    1    0    0    0  0.11502673844E+02  0.25487307622E+02  0.55611807439E+01  0.96489631944E+02  0.92181386332E+02 0.  0.
         13    1    3    3    0    0 -0.38635202247E+02  0.28547954949E+01 -0.86060613709E+01  0.39685062257E+02  0.10566000000E+00 0.  1.
         22    1    1    0    0    0 -0.11502673844E+02 -0.25487307622E+02 -0.55611807439E+01  0.28510368056E+02  0.00000000000E+00 0. -1.
</event>
<event>
 5    1  0.1324057E-009  0.9118800E+02  0.7818608E-02  0.1130116E+00
         25   -1    0    0    0    0  0.00000000000E+00  0.00000000000E+00  0.99999998245E-14  0.12500000000E+03  0.12500000000E+03 0.  0.
        -13    1    3    3    0    0 -0.36715305736E+02  0.45474335764E+02 -0.12580769408E+02  0.59784745641E+02  0.10566000000E+00 0.  1.
         23    2    1    0    0    0 -0.26211292801E+02  0.12337058650E+02 -0.86381191211E+01  0.94770015078E+02  0.89819283952E+02 0.  0.
         13    1    3    3    0    0  0.10504012935E+02 -0.33137277114E+02  0.39426502866E+01  0.34985269437E+02  0.10566000000E+00 0. -1.
         22    1    1    0    0    0  0.26211292801E+02 -0.12337058650E+02  0.86381191211E+01  0.30229984922E+02  0.00000000000E+00 0.  1.
</event>
<event>
 5    1  0.1324057E-009  0.9118800E+02  0.7818608E-02  0.1130116E+00
         25   -1    0    0    0    0  0.00000000000E+00  0.00000000000E+00  0.99999998245E-14  0.12500000000E+03  0.12500000000E+03 0.  0.
        -13    1    3    3    0    0 -0.28487556400E+02  0.39311028482E+01 -0.20647013068E+02  0.35402044459E+02  0.10566000000E+00 0. -1.
         23    2    1    0    0    0  0.15716250894E+02  0.11577326555E+02  0.20797672652E+02  0.96476707412E+02  0.92163858713E+02 0.  0.
         13    1    3    3    0    0  0.44203807294E+02  0.76462237073E+01  0.41444685720E+02  0.61074662952E+02  0.10566000000E+00 0.  1.
         22    1    1    0    0    0 -0.15716250894E+02 -0.11577326555E+02 -0.20797672652E+02  0.28523292588E+02  0.00000000000E+00 0.  1.
</event>
<event>
 5    1  0.1324057E-009  0.9118800E+02  0.7818608E-02  0.1130116E+00
         25   -1    0    0    0    0  0.00000000000E+00  0.00000000000E+00  0.99999998245E-14  0.12500000000E+03  0.12500000000E+03 0.  0.
        -13    1    3    3    0    0 -0.10308600343E+02 -0.29722941137E+02  0.17744616920E+02  0.36119289370E+02  0.10566000000E+00 0.  1.
         23    2    1    0    0    0 -0.65272834276E+01  0.28236756402E+02  0.69515208043E+01  0.95196586059E+02  0.90410986693E+02 0.  0.
         13    1    3    3    0    0  0.37813169158E+01  0.57959697538E+02 -0.10793096116E+02  0.59077296690E+02  0.10566000000E+00 0. -1.
         22    1    1    0    0    0  0.65272834276E+01 -0.28236756402E+02 -0.69515208043E+01  0.29803413941E+02  0.00000000000E+00 0. -1.
</event>
<event>
 5    1  0.1324057E-009  0.9118800E+02  0.7818608E-02  0.1130116E+00
         25   -1    0    0    0    0  0.00000000000E+00  0.00000000000E+00  0.99999998245E-14  0.12500000000E+03  0.12500000000E+03 0.  0.
        -13    1    3    3    0    0 -0.40771398448E+02  0.21131627141E+02  0.72495874734E+00  0.45928088641E+02  0.10566000000E+00 0.  1.
         23    2    1    0    0    0 -0.17441101434E+02 -0.22094260438E+02  0.83554634683E+01  0.95637402477E+02  0.91018408134E+02 0.  0.
         13    1    3    3    0    0  0.23330297014E+02 -0.43225887579E+02  0.76305047209E+01  0.49709313836E+02  0.10566000000E+00 0. -1.
         22    1    1    0    0    0  0.17441101434E+02  0.22094260438E+02 -0.83554634683E+01  0.29362597523E+02  0.00000000000E+00 0.  1.
</event>
<event>
 5    1  0.1324057E-009  0.9118800E+02  0.7818608E-02  0.1130116E+00
         25   -1    0    0    0    0  0.00000000000E+00  0.00000000000E+00  0.99999998245E-14  0.12500000000E+03  0.12500000000E+03 0.  0.
        -13    1    3    3    0    0 -0.21984304913E+02  0.17026210944E+01  0.35112024204E+02  0.41461717147E+02  0.10566000000E+00 0. -1.
         23    2    1    0    0    0 -0.19755957619E+02  0.76299797943E+01 -0.19363415622E+02  0.96304071410E+02  0.91929417775E+02 0.  0.
         13    1    3    3    0    0  0.22283472936E+01  0.59273586999E+01 -0.54475439826E+02  0.54842354262E+02  0.10566000000E+00 0.  1.
         22    1    1    0    0    0  0.19755957619E+02 -0.76299797943E+01  0.19363415622E+02  0.28695928590E+02  0.00000000000E+00 0.  1.
</event>
<event>
 5    1  0.1324057E-009  0.9118800E+02  0.7818608E-02  0.1130116E+00
         25   -1    0    0    0    0  0.00000000000E+00  0.00000000000E+00  0.99999998245E-14  0.12500000000E+03  0.12500000000E+03 0.  0.
        -13    1    3    3    0    0  0.25482148394E+02 -0.26349581886E+02  0.50475120860E+02  0.62381001452E+02  0.10566000000E+00 0. -1.
         23    2    1    0    0    0  0.10729915635E+02 -0.14655877811E+02  0.22857818681E+02  0.95804011940E+02  0.91246934113E+02 0.  0.
         13    1    3    3    0    0 -0.14752232759E+02  0.11693704075E+02 -0.27617302179E+02  0.33423010487E+02  0.10566000000E+00 0.  1.
         22    1    1    0    0    0 -0.10729915635E+02  0.14655877811E+02 -0.22857818681E+02  0.29195988060E+02  0.00000000000E+00 0. -1.
</event>
<event>
 5    1  0.1324057E-009  0.9118800E+02  0.7818608E-02  0.1130116E+00
         25   -1    0    0    0    0  0.00000000000E+00  0.00000000000E+00  0.99999998245E-14  0.12500000000E+03  0.12500000000E+03 0.  0.
        -13    1    3    3    0    0 -0.20147092813E+02  0.36313035887E+02 -0.18975684214E+02  0.45657745012E+02  0.10566000000E+00 0.  1.
         23    2    1    0    0    0 -0.13791504522E+02 -0.13598167777E+02 -0.21534467843E+02  0.96037108757E+02  0.91565698759E+02 0.  0.
         13    1    3    3    0    0  0.63555882905E+01 -0.49911203664E+02 -0.25587836287E+01  0.50379363745E+02  0.10566000000E+00 0. -1.
         22    1    1    0    0    0  0.13791504522E+02  0.13598167777E+02  0.21534467843E+02  0.28962891243E+02  0.00000000000E+00 0. -1.
</event>
<event>
 5    1  0.1324057E-009  0.9118800E+02  0.7818608E-02  0.1130116E+00
         25   -1    0    0    0    0  0.00000000000E+00  0.00000000000E+00  0.99999998245E-14  0.12500000000E+03  0.12500000000E+03 0.  0.
        -13    1    3    3    0    0  0.24584411944E+02  0.13630146241E+01  0.28952954657E+02  0.38007050227E+02  0.10566000000E+00 0.  1.
         23    2    1    0    0    0 -0.17069292244E+02  0.22371990850E+02 -0.59092066707E+01  0.96246123117E+02  0.91850589434E+02 0.  0.
         13    1    3    3    0    0 -0.41653704188E+02  0.21008976226E+02 -0.34862161328E+02  0.58239072891E+02  0.10566000000E+00 0. -1.
         22    1    1    0    0    0  0.17069292244E+02 -0.22371990850E+02  0.59092066707E+01  0.28753876883E+02  0.00000000000E+00 0. -1.
</event>
<event>
 5    1  0.1324057E-009  0.9118800E+02  0.7818608E-02  0.1130116E+00
         25   -1    0    0    0    0  0.00000000000E+00  0.00000000000E+00  0.99999998245E-14  0.12500000000E+03  0.12500000000E+03 0.  0.
        -13    1    3    3    0    0  0.11663888807E+02  0.24599435502E+02 -0.20706796702E+02  0.34204694456E+02  0.10566000000E+00 0.  1.
         23    2    1    0    0    0 -0.18716236047E+02 -0.10285734253E+02  0.19937894179E+02  0.95783336173E+02  0.91218605796E+02 0.  0.
         13    1    3    3    0    0 -0.30380124853E+02 -0.34885169755E+02  0.40644690881E+02  0.61578641718E+02  0.10566000000E+00 0. -1.
         22    1    1    0    0    0  0.18716236047E+02  0.10285734253E+02 -0.19937894179E+02  0.29216663827E+02  0.00000000000E+00 0. -1.
</event>
<event>
 5    1  0.1324057E-009  0.9118800E+02  0.7818608E-02  0.1130116E+00
         25   -1    0    0    0    0  0.00000000000E+00  0.00000000000E+00  0.99999998245E-14  0.12500000000E+03  0.12500000000E+03 0.  0.
        -13    1    3    3    0    0  0.53568683806E+02  0.18028600735E+02 -0.16944382346E+02  0.59006419873E+02  0.10566000000E+00 0. -1.
         23    2    1    0    0    0  0.12750086762E+02  0.15502006720E+02 -0.14987396713E+02  0.99950070159E+02  0.96760103037E+02 0.  0.
         13    1    3    3    0    0 -0.40818597044E+02 -0.25265940142E+01  0.19569856327E+01  0.40943650286E+02  0.10566000000E+00 0.  1.
         22    1    1    0    0    0 -0.12750086762E+02 -0.15502006720E+02  0.14987396713E+02  0.25049929841E+02  0.00000000000E+00 0. -1.
</event>
<event>
 5    1  0.1324057E-009  0.9118800E+02  0.7818608E-02  0.1130116E+00
         25   -1    0    0    0    0  0.00000000000E+00  0.00000000000E+00  0.99999998245E-14  0.12500000000E+03  0.12500000000E+03 0.  0.
        -13    1    3    3    0    0  0.23639709676E+02  0.22091087925E+02  0.18885818591E+02  0.37463813836E+02  0.10566000000E+00 0. -1.
         23    2    1    0    0    0  0.17653647888E+02 -0.21078586612E+02 -0.15910691146E+02  0.93233536708E+02  0.87654915305E+02 0.  0.
         13    1    3    3    0    0 -0.59860617882E+01 -0.43169674537E+02 -0.34796509737E+02  0.55769722872E+02  0.10566000000E+00 0.  1.
         22    1    1    0    0    0 -0.17653647888E+02  0.21078586612E+02  0.15910691146E+02  0.31766463292E+02  0.00000000000E+00 0. -1.
</event>
<event>
 5    1  0.1324057E-009  0.9118800E+02  0.7818608E-02  0.1130116E+00
         25   -1    0    0    0    0  0.00000000000E+00  0.00000000000E+00  0.99999998245E-14  0.12500000000E+03  0.12500000000E+03 0.  0.
        -13    1    3    3    0    0  0.46735466152E+02  0.35419212664E+02  0.14271461659E+02  0.60352383582E+02  0.10566000000E+00 0.  1.
         23    2    1    0    0    0  0.16664525380E+02  0.19403688200E+02  0.16609699450E+02  0.94502596214E+02  0.89446347346E+02 0.  0.
         13    1    3    3    0    0 -0.30070940772E+02 -0.16015524464E+02  0.23382377904E+01  0.34150212631E+02  0.10566000000E+00 0. -1.
         22    1    1    0    0    0 -0.16664525380E+02 -0.19403688200E+02 -0.16609699450E+02  0.30497403786E+02  0.00000000000E+00 0.  1.
</event>
<event>
 5    1  0.1324057E-009  0.9118800E+02  0.7818608E-02  0.1130116E+00
         25   -1    0    0    0    0  0.00000000000E+00  0.00000000000E+00  0.99999998245E-14  0.12500000000E+03  0.12500000000E+03 0.  0.
        -13    1    3    3    0    0 -0.21524913258E+02 -0.45461026741E+01  0.32572159149E+02  0.39305796722E+02  0.10566000000E+00 0.  1.
         23    2    1    0    0    0 -0.13683637132E+02 -0.60441713870E+00 -0.24436760146E+02  0.96986387387E+02  0.92852554336E+02 0.  0.
         13    1    3    3    0    0  0.78412761261E+01  0.39416855354E+01 -0.57008919295E+02  0.57680590664E+02  0.10566000000E+00 0. -1.
         22    1    1    0    0    0  0.13683637132E+02  0.60441713870E+00  0.24436760146E+02  0.28013612613E+02  0.00000000000E+00 0. -1.
</event>
<event>
 5    1  0.1324057E-009  0.9118800E+02  0.7818608E-02  0.1130116E+00
         25   -1    0    0    0    0  0.00000000000E+00  0.00000000000E+00  0.99999998245E-14  0.12500000000E+03  0.12500000000E+03 0.  0.
        -13    1    3    3    0    0 -0.29072166484E+01 -0.23713579465E+02 -0.19734531700E+02  0.30987879326E+02  0.10566000000E+00 0.  1.
         23    2    1    0    0    0  0.27506061269E+02  0.79446819636E+01  0.19900127974E+02  0.90132874058E+02  0.83115693552E+02 0.  0.
         13    1    3    3    0    0  0.30413277918E+02  0.31658261428E+02  0.39634659674E+02  0.59144994732E+02  0.10566000000E+00 0. -1.
         22    1    1    0    0    0 -0.27506061269E+02 -0.79446819636E+01 -0.19900127974E+02  0.34867125942E+02  0.00000000000E+00 0. -1.
</event>
<event>
 5    1  0.1324057E-009  0.9118800E+02  0.7818608E-02  0.1130116E+00
         25   -1    0    0    0    0  0.00000000000E+00  0.00000000000E+00  0.99999998245E-14  0.12500000000E+03  0.12500000000E+03 0.  0.
        -13    1    3    3    0    0 -0.41339992347E+02  0.62206561566E+01  0.18067170043E+02  0.45542566108E+02  0.10566000000E+00 0. -1.
         23    2    1    0    0    0  0.14604011670E+01 -0.21255262712E+02  0.19060419462E+02  0.96412965271E+02  0.92077365937E+02 0.  0.
         13    1    3    3    0    0  0.42800393514E+02 -0.27475918868E+02  0.99324941925E+00  0.50870399164E+02  0.10566000000E+00 0.  1.
         22    1    1    0    0    0 -0.14604011670E+01  0.21255262712E+02 -0.19060419462E+02  0.28587034729E+02  0.00000000000E+00 0.  1.
</event>
<event>
 5    1  0.1324057E-009  0.9118800E+02  0.7818608E-02  0.1130116E+00
         25   -1    0    0    0    0  0.00000000000E+00  0.00000000000E+00  0.99999998245E-14  0.12500000000E+03  0.12500000000E+03 0.  0.
        -13    1    3    3    0    0 -0.35572812513E+02  0.73210891421E+01  0.50466155820E+02  0.62176099778E+02  0.10566000000E+00 0. -1.
         23    2    1    0    0    0 -0.17212910468E+02 -0.90458513724E+00  0.25086452664E+02  0.94562643540E+02  0.89530223305E+02 0.  0.
         13    1    3    3    0    0  0.18359902045E+02 -0.82256742794E+01 -0.25379703157E+02  0.32386543762E+02  0.10566000000E+00 0.  1.
         22    1    1    0    0    0  0.17212910468E+02  0.90458513724E+00 -0.25086452664E+02  0.30437356460E+02  0.00000000000E+00 0. -1.
</event>
<event>
 5    1  0.1324057E-009  0.9118800E+02  0.7818608E-02  0.1130116E+00
         25   -1    0    0    0    0  0.00000000000E+00  0.00000000000E+00  0.99999998245E-14  0.12500000000E+03  0.12500000000E+03 0.  0.
        -13    1    3    3    0    0  0.17261618787E+01  0.40483755246E+02 -0.18129705270E+02  0.44391569592E+02  0.10566000000E+00 0.  1.
         23    2    1    0    0    0 -0.25123099286E+02 -0.47657390232E+00 -0.19195918413E+02  0.93379112534E+02  0.87862267974E+02 0.  0.
         13    1    3    3    0    0 -0.26849261165E+02 -0.40960329148E+02 -0.10662131429E+01  0.48987542942E+02  0.10566000000E+00 0. -1.
         22    1    1    0    0    0  0.25123099286E+02  0.47657390232E+00  0.19195918413E+02  0.31620887466E+02  0.00000000000E+00 0. -1.
</event>
<event>
 5    1  0.1324057E-009  0.9118800E+02  0.7818608E-02  0.1130116E+00
         25   -1    0    0    0    0  0.00000000000E+00  0.00000000000E+00  0.99999998245E-14  0.12500000000E+03  0.12500000000E+03 0.  0.
        -13    1    3    3    0    0  0.35741524981E+00 -0.46056789921E+02  0.28634431256E+02  0.54233729918E+02  0.10566000000E+00 0.  1.
         23    2    1    0    0    0 -0.76577731814E+01 -0.28693068601E+02 -0.68310840336E+01  0.94527104094E+02  0.89480590205E+02 0.  0.
         13    1    3    3    0    0 -0.80151884312E+01  0.17363721320E+02 -0.35465515290E+02  0.40293374176E+02  0.10566000000E+00 0. -1.
         22    1    1    0    0    0  0.76577731814E+01  0.28693068601E+02  0.68310840336E+01  0.30472895906E+02  0.00000000000E+00 0.  1.
</event>
<event>
 5    1  0.1324057E-009  0.9118800E+02  0.7818608E-02  0.1130116E+00
         25   -1    0    0    0    0  0.00000000000E+00  0.00000000000E+00  0.99999998245E-14  0.12500000000E+03  0.12500000000E+03 0.  0.
        -13    1    3    3    0    0 -0.19902073325E+01 -0.24484532127E+02  0.18741125856E+02  0.30898126174E+02  0.10566000000E+00 0.  1.
         23    2    1    0    0    0  0.79796924523E+01 -0.28679674874E+02 -0.31128939461E+02  0.81927849897E+02  0.69691911111E+02 0.  0.
         13    1    3    3    0    0  0.99698997848E+01 -0.41951427472E+01 -0.49870065318E+02  0.51029723723E+02  0.10566000000E+00 0. -1.
         22    1    1    0    0    0 -0.79796924523E+01  0.28679674874E+02  0.31128939461E+02  0.43072150103E+02  0.00000000000E+00 0. -1.
</event>
<event>
 5    1  0.1324057E-009  0.9118800E+02  0.7818608E-02  0.1130116E+00
         25   -1    0    0    0    0  0.00000000000E+00  0.00000000000E+00  0.99999998245E-14  0.12500000000E+03  0.12500000000E+03 0.  0.
        -13    1    3    3    0    0  0.20901857594E+02  0.15173434372E+02 -0.56164193906E+02  0.61818675194E+02  0.10566000000E+00 0.  1.
         23    2    1    0    0    0  0.47074456725E+01  0.39989439910E+01 -0.28936392935E+02  0.95411717963E+02  0.90707935103E+02 0.  0.
         13    1    3    3    0    0 -0.16194411921E+02 -0.11174490381E+02  0.27227800971E+02  0.33593042769E+02  0.10566000000E+00 0. -1.
         22    1    1    0    0    0 -0.47074456725E+01 -0.39989439910E+01  0.28936392935E+02  0.29588282037E+02  0.00000000000E+00 0.  1.
</event>
<event>
 5    1  0.1324057E-009  0.9118800E+02  0.7818608E-02  0.1130116E+00
         25   -1    0    0    0    0  0.00000000000E+00  0.00000000000E+00  0.99999998245E-14  0.12500000000E+03  0.12500000000E+03 0.  0.
        -13    1    3    3    0    0 -0.31637495718E+02  0.16647792900E+02 -0.49890455460E+02  0.61377103661E+02  0.10566000000E+00 0. -1.
         23    2    1    0    0    0 -0.11584427313E+02  0.12220938802E+01 -0.27393197264E+02  0.95232908675E+02  0.90461191507E+02 0.  0.
         13    1    3    3    0    0  0.20053068406E+02 -0.15425699020E+02  0.22497258197E+02  0.33855805014E+02  0.10566000000E+00 0.  1.
         22    1    1    0    0    0  0.11584427313E+02 -0.12220938802E+01  0.27393197264E+02  0.29767091325E+02  0.00000000000E+00 0. -1.
</event>
<event>
 5    1  0.1324057E-009  0.9118800E+02  0.7818608E-02  0.1130116E+00
         25   -1    0    0    0    0  0.00000000000E+00  0.00000000000E+00  0.99999998245E-14  0.12500000000E+03  0.12500000000E+03 0.  0.
        -13    1    3    3    0    0  0.29869434058E+02 -0.30669447051E+01 -0.39740956947E+02  0.49809076120E+02  0.10566000000E+00 0. -1.
         23    2    1    0    0    0 -0.14305991228E+01 -0.23840973846E+02 -0.25703448591E+02  0.89912881035E+02  0.82784178795E+02 0.  0.
         13    1    3    3    0    0 -0.31300033181E+02 -0.20774029141E+02  0.14037508356E+02  0.40103804916E+02  0.10566000000E+00 0.  1.
         22    1    1    0    0    0  0.14305991228E+01  0.23840973846E+02  0.25703448591E+02  0.35087118965E+02  0.00000000000E+00 0. -1.
</event>
<event>
 5    1  0.1324057E-009  0.9118800E+02  0.7818608E-02  0.1130116E+00
         25   -1    0    0    0    0  0.00000000000E+00  0.00000000000E+00  0.99999998245E-14  0.12500000000E+03  0.12500000000E+03 0.  0.
        -13    1    3    3    0    0 -0.21629678587E+02 -0.36713292762E+02 -0.45010502817E+02  0.61981169633E+02  0.10566000000E+00 0. -1.
         23    2    1    0    0    0 -0.47757676998E+01 -0.19225191331E+02 -0.19564323046E+02  0.97157969272E+02  0.93083254766E+02 0.  0.
         13    1    3    3    0    0  0.16853910888E+02  0.17488101431E+02  0.25446179771E+02  0.35176799639E+02  0.10566000000E+00 0.  1.
         22    1    1    0    0    0  0.47757676998E+01  0.19225191331E+02  0.19564323046E+02  0.27842030728E+02  0.00000000000E+00 0. -1.
</event>
<event>
 5    1  0.1324057E-009  0.9118800E+02  0.7818608E-02  0.1130116E+00
         25   -1    0    0    0    0  0.00000000000E+00  0.00000000000E+00  0.99999998245E-14  0.12500000000E+03  0.12500000000E+03 0.  0.
        -13    1    3    3    0    0  0.93564276232E+00  0.38107060955E+02 -0.11314564599E+02  0.39762470473E+02  0.10566000000E+00 0.  1.
         23    2    1    0    0    0  0.22516177814E+02 -0.13916860773E+02 -0.11634925519E+02  0.96085837918E+02  0.91632196740E+02 0.  0.
         13    1    3    3    0    0  0.21580535051E+02 -0.52023921728E+02 -0.32036091931E+00  0.56323367444E+02  0.10566000000E+00 0. -1.
         22    1    1    0    0    0 -0.22516177814E+02  0.13916860773E+02  0.11634925519E+02  0.28914162082E+02  0.00000000000E+00 0. -1.
</event>
<event>
 5    1  0.1324057E-009  0.9118800E+02  0.7818608E-02  0.1130116E+00
         25   -1    0    0    0    0  0.00000000000E+00  0.00000000000E+00  0.99999998245E-14  0.12500000000E+03  0.12500000000E+03 0.  0.
        -13    1    3    3    0    0  0.57804031113E+02 -0.77846125125E+01 -0.99033949394E+01  0.59160752195E+02  0.10566000000E+00 0.  1.
         23    2    1    0    0    0  0.15570826676E+02 -0.10086272635E+02 -0.14147280604E+02  0.10166913873E+03  0.98955973457E+02 0.  0.
         13    1    3    3    0    0 -0.42233204437E+02 -0.23016601226E+01 -0.42438856647E+01  0.42508386536E+02  0.10566000000E+00 0. -1.
         22    1    1    0    0    0 -0.15570826676E+02  0.10086272635E+02  0.14147280604E+02  0.23330861269E+02  0.00000000000E+00 0.  1.
</event>
<event>
 5    1  0.1324057E-009  0.9118800E+02  0.7818608E-02  0.1130116E+00
         25   -1    0    0    0    0  0.00000000000E+00  0.00000000000E+00  0.99999998245E-14  0.12500000000E+03  0.12500000000E+03 0.  0.
        -13    1    3    3    0    0  0.63053380862E+01  0.33467759664E+02  0.14097535483E+02  0.36859190116E+02  0.10566000000E+00 0.  1.
         23    2    1    0    0    0 -0.25291715855E+02 -0.14266173071E+02  0.10149577421E+02  0.94239497618E+02  0.89077911990E+02 0.  0.
         13    1    3    3    0    0 -0.31597053941E+02 -0.47733932735E+02 -0.39479580621E+01  0.57380307502E+02  0.10566000000E+00 0. -1.
         22    1    1    0    0    0  0.25291715855E+02  0.14266173071E+02 -0.10149577421E+02  0.30760502382E+02  0.00000000000E+00 0. -1.
</event>
<event>
 5    1  0.1324057E-009  0.9118800E+02  0.7818608E-02  0.1130116E+00
         25   -1    0    0    0    0  0.00000000000E+00  0.00000000000E+00  0.99999998245E-14  0.12500000000E+03  0.12500000000E+03 0.  0.
        -13    1    3    3    0    0  0.22404384140E+02  0.19973925595E+02 -0.29178988017E+02  0.41860944066E+02  0.10566000000E+00 0. -1.
         23    2    1    0    0    0  0.38247195553E+02 -0.12005159093E+02 -0.58737379748E+01  0.84484908857E+02  0.74136544391E+02 0.  0.
         13    1    3    3    0    0  0.15842811413E+02 -0.31979084688E+02  0.23305250042E+02  0.42623964791E+02  0.10566000000E+00 0.  1.
         22    1    1    0    0    0 -0.38247195553E+02  0.12005159093E+02  0.58737379748E+01  0.40515091143E+02  0.00000000000E+00 0.  1.
</event>
<event>
 5    1  0.1324057E-009  0.9118800E+02  0.7818608E-02  0.1130116E+00
         25   -1    0    0    0    0  0.00000000000E+00  0.00000000000E+00  0.99999998245E-14  0.12500000000E+03  0.12500000000E+03 0.  0.
        -13    1    3    3    0    0 -0.97823573549E+00 -0.42589772422E+02  0.89995950890E+01  0.43541354319E+02  0.10566000000E+00 0.  1.
         23    2    1    0    0    0 -0.53520384809E+01 -0.65591056681E+01 -0.28225505826E+02  0.95532299679E+02  0.90873950721E+02 0.  0.
         13    1    3    3    0    0 -0.43738027454E+01  0.36030666754E+02 -0.37225100915E+02  0.51990945360E+02  0.10566000000E+00 0. -1.
         22    1    1    0    0    0  0.53520384809E+01  0.65591056681E+01  0.28225505826E+02  0.29467700321E+02  0.00000000000E+00 0. -1.
</event>
<event>
 5    1  0.1324057E-009  0.9118800E+02  0.7818608E-02  0.1130116E+00
         25   -1    0    0    0    0  0.00000000000E+00  0.00000000000E+00  0.99999998245E-14  0.12500000000E+03  0.12500000000E+03 0.  0.
        -13    1    3    3    0    0  0.96731914418E+01  0.15928253763E+02 -0.42225111975E+02  0.46154643818E+02  0.10566000000E+00 0. -1.
         23    2    1    0    0    0  0.23191705074E+02 -0.17556923114E+02 -0.10973522313E+02  0.93911112509E+02  0.88615902225E+02 0.  0.
         13    1    3    3    0    0  0.13518513633E+02 -0.33485176877E+02  0.31251589662E+02  0.47756468691E+02  0.10566000000E+00 0.  1.
         22    1    1    0    0    0 -0.23191705074E+02  0.17556923114E+02  0.10973522313E+02  0.31088887491E+02  0.00000000000E+00 0. -1.
</event>
<event>
 5    1  0.1324057E-009  0.9118800E+02  0.7818608E-02  0.1130116E+00
         25   -1    0    0    0    0  0.00000000000E+00  0.00000000000E+00  0.99999998245E-14  0.12500000000E+03  0.12500000000E+03 0.  0.
        -13    1    3    3    0    0 -0.48986695293E+01 -0.11641370793E+02  0.35580914665E+02  0.37756206503E+02  0.10566000000E+00 0. -1.
         23    2    1    0    0    0 -0.36502575345E+00  0.28706541098E+02 -0.57798624194E+01  0.95715096804E+02  0.91125047056E+02 0.  0.
         13    1    3    3    0    0  0.45336437759E+01  0.40347911891E+02 -0.41360777084E+02  0.57958890301E+02  0.10566000000E+00 0.  1.
         22    1    1    0    0    0  0.36502575345E+00 -0.28706541098E+02  0.57798624194E+01  0.29284903196E+02  0.00000000000E+00 0.  1.
</event>
<event>
 5    1  0.1324057E-009  0.9118800E+02  0.7818608E-02  0.1130116E+00
         25   -1    0    0    0    0  0.00000000000E+00  0.00000000000E+00  0.99999998245E-14  0.12500000000E+03  0.12500000000E+03 0.  0.
        -13    1    3    3    0    0 -0.45509718665E+01  0.43592967538E+02  0.40588653714E+02  0.59736991371E+02  0.10566000000E+00 0. -1.
         23    2    1    0    0    0 -0.58237907001E+00  0.97824510354E+01  0.26796861339E+02  0.96467434548E+02  0.92151281255E+02 0.  0.
         13    1    3    3    0    0  0.39685927965E+01 -0.33810516503E+02 -0.13791792375E+02  0.36730443176E+02  0.10566000000E+00 0.  1.
         22    1    1    0    0    0  0.58237907001E+00 -0.97824510354E+01 -0.26796861339E+02  0.28532565452E+02  0.00000000000E+00 0. -1.
</event>
<event>
 5    1  0.1324057E-009  0.9118800E+02  0.7818608E-02  0.1130116E+00
         25   -1    0    0    0    0  0.00000000000E+00  0.00000000000E+00  0.99999998245E-14  0.12500000000E+03  0.12500000000E+03 0.  0.
        -13    1    3    3    0    0 -0.82568780633E+01  0.23949512538E+02  0.46643729330E+02  0.53079222263E+02  0.10566000000E+00 0. -1.
         23    2    1    0    0    0 -0.18198829629E+02 -0.88547138518E+01  0.20534801078E+02  0.96168048756E+02  0.91744276056E+02 0.  0.
         13    1    3    3    0    0 -0.99419515652E+01 -0.32804226390E+02 -0.26108928253E+02  0.43088826493E+02  0.10566000000E+00 0.  1.
         22    1    1    0    0    0  0.18198829629E+02  0.88547138518E+01 -0.20534801078E+02  0.28831951244E+02  0.00000000000E+00 0. -1.
</event>
<event>
 5    1  0.1324057E-009  0.9118800E+02  0.7818608E-02  0.1130116E+00
         25   -1    0    0    0    0  0.00000000000E+00  0.00000000000E+00  0.99999998245E-14  0.12500000000E+03  0.12500000000E+03 0.  0.
        -13    1    3    3    0    0 -0.11334547742E+02  0.37919113436E+02  0.79829242481E+01  0.40374117698E+02  0.10566000000E+00 0. -1.
         23    2    1    0    0    0 -0.21249701157E+02 -0.17665105096E+02  0.50261055966E+01  0.96913215300E+02  0.92753996276E+02 0.  0.
         13    1    3    3    0    0 -0.99151534141E+01 -0.55584218532E+02 -0.29568186516E+01  0.56539097602E+02  0.10566000000E+00 0.  1.
         22    1    1    0    0    0  0.21249701157E+02  0.17665105096E+02 -0.50261055966E+01  0.28086784700E+02  0.00000000000E+00 0.  1.
</event>
<event>
 5    1  0.1324057E-009  0.9118800E+02  0.7818608E-02  0.1130116E+00
         25   -1    0    0    0    0  0.00000000000E+00  0.00000000000E+00  0.99999998245E-14  0.12500000000E+03  0.12500000000E+03 0.  0.
        -13    1    3    3    0    0 -0.93113286253E+01  0.46642480905E+02  0.35236117538E+02  0.59193048654E+02  0.10566000000E+00 0. -1.
         23    2    1    0    0    0  0.31423415811E+01  0.14044878734E+02  0.25987242308E+02  0.95293608566E+02  0.90545028254E+02 0.  0.
         13    1    3    3    0    0  0.12453670206E+02 -0.32597602171E+02 -0.92488752299E+01  0.36100559912E+02  0.10566000000E+00 0.  1.
         22    1    1    0    0    0 -0.31423415811E+01 -0.14044878734E+02 -0.25987242308E+02  0.29706391434E+02  0.00000000000E+00 0. -1.
</event>
<event>
 5    1  0.1324057E-009  0.9118800E+02  0.7818608E-02  0.1130116E+00
         25   -1    0    0    0    0  0.00000000000E+00  0.00000000000E+00  0.99999998245E-14  0.12500000000E+03  0.12500000000E+03 0.  0.
        -13    1    3    3    0    0  0.29192869681E+01 -0.27754879566E+02 -0.18061363587E+02  0.33242737474E+02  0.10566000000E+00 0.  1.
         23    2    1    0    0    0 -0.89024758188E+01  0.14783076666E+02  0.24807176818E+02  0.94780975312E+02  0.89834535831E+02 0.  0.
         13    1    3    3    0    0 -0.11821762787E+02  0.42537956232E+02  0.42868540405E+02  0.61538237838E+02  0.10566000000E+00 0. -1.
         22    1    1    0    0    0  0.89024758188E+01 -0.14783076666E+02 -0.24807176818E+02  0.30219024688E+02  0.00000000000E+00 0. -1.
</event>
<event>
 5    1  0.1324057E-009  0.9118800E+02  0.7818608E-02  0.1130116E+00
         25   -1    0    0    0    0  0.00000000000E+00  0.00000000000E+00  0.99999998245E-14  0.12500000000E+03  0.12500000000E+03 0.  0.
        -13    1    3    3    0    0  0.37999379487E+02 -0.36006294447E+02  0.38724196507E+01  0.52492026816E+02  0.10566000000E+00 0. -1.
         23    2    1    0    0    0  0.70902085418E+01 -0.11680625689E+02  0.24530621010E+02  0.96920480047E+02  0.92763786101E+02 0.  0.
         13    1    3    3    0    0 -0.30909170946E+02  0.24325668759E+02  0.20658201359E+02  0.44428453231E+02  0.10566000000E+00 0.  1.
         22    1    1    0    0    0 -0.70902085418E+01  0.11680625689E+02 -0.24530621010E+02  0.28079519953E+02  0.00000000000E+00 0. -1.
</event>
<event>
 5    1  0.1324057E-009  0.9118800E+02  0.7818608E-02  0.1130116E+00
         25   -1    0    0    0    0  0.00000000000E+00  0.00000000000E+00  0.99999998245E-14  0.12500000000E+03  0.12500000000E+03 0.  0.
        -13    1    3    3    0    0  0.16544185755E+02  0.34318469751E+02 -0.11376059764E+02  0.39760449547E+02  0.10566000000E+00 0.  1.
         23    2    1    0    0    0 -0.49483153893E+00 -0.17204733828E+02 -0.23989483711E+02  0.95474704861E+02  0.90794692660E+02 0.  0.
         13    1    3    3    0    0 -0.17039017294E+02 -0.51523203580E+02 -0.12613423947E+02  0.55714255314E+02  0.10566000000E+00 0. -1.
         22    1    1    0    0    0  0.49483153893E+00  0.17204733828E+02  0.23989483711E+02  0.29525295139E+02  0.00000000000E+00 0. -1.
</event>
<event>
 5    1  0.1324057E-009  0.9118800E+02  0.7818608E-02  0.1130116E+00
         25   -1    0    0    0    0  0.00000000000E+00  0.00000000000E+00  0.99999998245E-14  0.12500000000E+03  0.12500000000E+03 0.  0.
        -13    1    3    3    0    0  0.55266787280E+02  0.11161926375E+02  0.24937832913E+01  0.56437899462E+02  0.10566000000E+00 0. -1.
         23    2    1    0    0    0  0.15986384664E+02  0.20031325555E+02 -0.81797066191E+01  0.98097842122E+02  0.94336952095E+02 0.  0.
         13    1    3    3    0    0 -0.39280402616E+02  0.88693991807E+01 -0.10673489910E+02  0.41659942660E+02  0.10566000000E+00 0.  1.
         22    1    1    0    0    0 -0.15986384664E+02 -0.20031325555E+02  0.81797066191E+01  0.26902157878E+02  0.00000000000E+00 0. -1.
</event>
<event>
 5    1  0.1324057E-009  0.9118800E+02  0.7818608E-02  0.1130116E+00
         25   -1    0    0    0    0  0.00000000000E+00  0.00000000000E+00  0.99999998245E-14  0.12500000000E+03  0.12500000000E+03 0.  0.
        -13    1    3    3    0    0 -0.81576170360E+01  0.25386077384E+02  0.36049769839E+02  0.44839677855E+02  0.10566000000E+00 0.  1.
         23    2    1    0    0    0  0.10365622656E+02 -0.18821672201E+02  0.20686385795E+02  0.95173367023E+02  0.90378878926E+02 0.  0.
         13    1    3    3    0    0  0.18523239692E+02 -0.44207749584E+02 -0.15363384044E+02  0.50333689169E+02  0.10566000000E+00 0. -1.
         22    1    1    0    0    0 -0.10365622656E+02  0.18821672201E+02 -0.20686385795E+02  0.29826632977E+02  0.00000000000E+00 0.  1.
</event>
<event>
 5    1  0.1324057E-009  0.9118800E+02  0.7818608E-02  0.1130116E+00
         25   -1    0    0    0    0  0.00000000000E+00  0.00000000000E+00  0.99999998245E-14  0.12500000000E+03  0.12500000000E+03 0.  0.
        -13    1    3    3    0    0 -0.37491897925E+02 -0.11660783381E+02  0.18755042829E+00  0.39264011744E+02  0.10566000000E+00 0.  1.
         23    2    1    0    0    0  0.29503560638E+01  0.21034089263E+02 -0.20732068754E+02  0.95319093901E+02  0.90580204655E+02 0.  0.
         13    1    3    3    0    0  0.40442253989E+02  0.32694872643E+02 -0.20919619183E+02  0.56055082157E+02  0.10566000000E+00 0. -1.
         22    1    1    0    0    0 -0.29503560638E+01 -0.21034089263E+02  0.20732068754E+02  0.29680906099E+02  0.00000000000E+00 0. -1.
</event>
<event>
 5    1  0.1324057E-009  0.9118800E+02  0.7818608E-02  0.1130116E+00
         25   -1    0    0    0    0  0.00000000000E+00  0.00000000000E+00  0.99999998245E-14  0.12500000000E+03  0.12500000000E+03 0.  0.
        -13    1    3    3    0    0 -0.30357523942E+02 -0.52814304743E+02  0.10241329167E+02  0.61772372728E+02  0.10566000000E+00 0. -1.
         23    2    1    0    0    0 -0.19736622520E+02 -0.20960644452E+02  0.38439306869E+01  0.95954196732E+02  0.91452442193E+02 0.  0.
         13    1    3    3    0    0  0.10620901422E+02  0.31853660291E+02 -0.63973984801E+01  0.34181824004E+02  0.10566000000E+00 0.  1.
         22    1    1    0    0    0  0.19736622520E+02  0.20960644452E+02 -0.38439306869E+01  0.29045803268E+02  0.00000000000E+00 0. -1.
</event>
<event>
 5    1  0.1324057E-009  0.9118800E+02  0.7818608E-02  0.1130116E+00
         25   -1    0    0    0    0  0.00000000000E+00  0.00000000000E+00  0.99999998245E-14  0.12500000000E+03  0.12500000000E+03 0.  0.
        -13    1    3    3    0    0 -0.15947447330E+02 -0.26031542744E+02  0.20929117388E+02  0.37013530129E+02  0.10566000000E+00 0.  1.
         23    2    1    0    0    0  0.14187285974E+02  0.23223858809E+02  0.22924984562E+01  0.97689155076E+02  0.93793863174E+02 0.  0.
         13    1    3    3    0    0  0.30134733305E+02  0.49255401552E+02 -0.18636618932E+02  0.60675624947E+02  0.10566000000E+00 0. -1.
         22    1    1    0    0    0 -0.14187285974E+02 -0.23223858809E+02 -0.22924984562E+01  0.27310844924E+02  0.00000000000E+00 0. -1.
</event>
<event>
 5    1  0.1324057E-009  0.9118800E+02  0.7818608E-02  0.1130116E+00
         25   -1    0    0    0    0  0.00000000000E+00  0.00000000000E+00  0.99999998245E-14  0.12500000000E+03  0.12500000000E+03 0.  0.
        -13    1    3    3    0    0 -0.54321713489E+02  0.15659542380E+01  0.34537565057E+01  0.54454020670E+02  0.10566000000E+00 0. -1.
         23    2    1    0    0    0 -0.18265872995E+02  0.36197483964E+01  0.22910772435E+02  0.95476311404E+02  0.90796904413E+02 0.  0.
         13    1    3    3    0    0  0.36055840494E+02  0.20537941584E+01  0.19457015930E+02  0.41022290734E+02  0.10566000000E+00 0.  1.
         22    1    1    0    0    0  0.18265872995E+02 -0.36197483964E+01 -0.22910772435E+02  0.29523688596E+02  0.00000000000E+00 0. -1.
</event>
<event>
 5    1  0.1324057E-009  0.9118800E+02  0.7818608E-02  0.1130116E+00
         25   -1    0    0    0    0  0.00000000000E+00  0.00000000000E+00  0.99999998245E-14  0.12500000000E+03  0.12500000000E+03 0.  0.
        -13    1    3    3    0    0  0.15760542881E+01 -0.14750050946E+02 -0.55606355428E+02  0.57551071911E+02  0.10566000000E+00 0. -1.
         23    2    1    0    0    0  0.16522829784E+02 -0.12078304029E+02 -0.19453987099E+02  0.96762667507E+02  0.92550888039E+02 0.  0.
         13    1    3    3    0    0  0.14946775496E+02  0.26717469168E+01  0.36152368330E+02  0.39211595596E+02  0.10566000000E+00 0.  1.
         22    1    1    0    0    0 -0.16522829784E+02  0.12078304029E+02  0.19453987099E+02  0.28237332493E+02  0.00000000000E+00 0. -1.
</event>
<event>
 5    1  0.1324057E-009  0.9118800E+02  0.7818608E-02  0.1130116E+00
         25   -1    0    0    0    0  0.00000000000E+00  0.00000000000E+00  0.99999998245E-14  0.12500000000E+03  0.12500000000E+03 0.  0.
        -13    1    3    3    0    0  0.25938654885E+02  0.43310137499E+02 -0.25249458685E+02  0.56445798385E+02  0.10566000000E+00 0. -1.
         23    2    1    0    0    0  0.17765422254E+02  0.45374005518E+01 -0.22227407614E+02  0.96185838883E+02  0.91768511597E+02 0.  0.
         13    1    3    3    0    0 -0.81732326304E+01 -0.38772736948E+02  0.30220510703E+01  0.39740040498E+02  0.10566000000E+00 0.  1.
         22    1    1    0    0    0 -0.17765422254E+02 -0.45374005518E+01  0.22227407614E+02  0.28814161117E+02  0.00000000000E+00 0.  1.
</event>
<event>
 5    1  0.1324057E-009  0.9118800E+02  0.7818608E-02  0.1130116E+00
         25   -1    0    0    0    0  0.00000000000E+00  0.00000000000E+00  0.99999998245E-14  0.12500000000E+03  0.12500000000E+03 0.  0.
        -13    1    3    3    0    0 -0.42477083001E+01 -0.40415411518E+02 -0.15977354070E+01  0.40669551712E+02  0.10566000000E+00 0.  1.
         23    2    1    0    0    0  0.15902228035E+02  0.64636342478E+01  0.22171321059E+02  0.96960262097E+02  0.92817377275E+02 0.  0.
         13    1    3    3    0    0  0.20149936335E+02  0.46879045766E+02  0.23769056466E+02  0.56290710385E+02  0.10566000000E+00 0. -1.
         22    1    1    0    0    0 -0.15902228035E+02 -0.64636342478E+01 -0.22171321059E+02  0.28039737903E+02  0.00000000000E+00 0. -1.
</event>
<event>
 5    1  0.1324057E-009  0.9118800E+02  0.7818608E-02  0.1130116E+00
         25   -1    0    0    0    0  0.00000000000E+00  0.00000000000E+00  0.99999998245E-14  0.12500000000E+03  0.12500000000E+03 0.  0.
        -13    1    3    3    0    0  0.22256383937E+02  0.31561395250E+02  0.17856269615E+02  0.42547923859E+02  0.10566000000E+00 0.  1.
         23    2    1    0    0    0 -0.25556366539E+02  0.93618240378E+01  0.10736615329E+02  0.95741727175E+02  0.91161569719E+02 0.  0.
         13    1    3    3    0    0 -0.47812750476E+02 -0.22199571212E+02 -0.71196542863E+01  0.53193803316E+02  0.10566000000E+00 0. -1.
         22    1    1    0    0    0  0.25556366539E+02 -0.93618240378E+01 -0.10736615329E+02  0.29258272825E+02  0.00000000000E+00 0. -1.
</event>
<event>
 5    1  0.1324057E-009  0.9118800E+02  0.7818608E-02  0.1130116E+00
         25   -1    0    0    0    0  0.00000000000E+00  0.00000000000E+00  0.99999998245E-14  0.12500000000E+03  0.12500000000E+03 0.  0.
        -13    1    3    3    0    0 -0.11587683515E+02 -0.60265608514E+01 -0.30718002654E+02  0.33379644936E+02  0.10566000000E+00 0. -1.
         23    2    1    0    0    0  0.10513025406E+02 -0.44888211797E+01  0.27256738855E+02  0.95443223589E+02  0.90751341022E+02 0.  0.
         13    1    3    3    0    0  0.22100708922E+02  0.15377396717E+01  0.57974741509E+02  0.62063578653E+02  0.10566000000E+00 0.  1.
         22    1    1    0    0    0 -0.10513025406E+02  0.44888211797E+01 -0.27256738855E+02  0.29556776411E+02  0.00000000000E+00 0.  1.
</event>
<event>
 5    1  0.1324057E-009  0.9118800E+02  0.7818608E-02  0.1130116E+00
         25   -1    0    0    0    0  0.00000000000E+00  0.00000000000E+00  0.99999998245E-14  0.12500000000E+03  0.12500000000E+03 0.  0.
        -13    1    3    3    0    0  0.25553644360E+02  0.54531606085E+02 -0.84539712627E+01  0.60812544729E+02  0.10566000000E+00 0.  1.
         23    2    1    0    0    0  0.18675584607E+02  0.30758518545E+02  0.44819402543E+01  0.88737737082E+02  0.80990334426E+02 0.  0.
         13    1    3    3    0    0 -0.68780597535E+01 -0.23773087539E+02  0.12935911517E+02  0.27925192353E+02  0.10566000000E+00 0. -1.
         22    1    1    0    0    0 -0.18675584607E+02 -0.30758518545E+02 -0.44819402543E+01  0.36262262918E+02  0.00000000000E+00 0.  1.
</event>
<event>
 5    1  0.1324057E-009  0.9118800E+02  0.7818608E-02  0.1130116E+00
         25   -1    0    0    0    0  0.00000000000E+00  0.00000000000E+00  0.99999998245E-14  0.12500000000E+03  0.12500000000E+03 0.  0.
        -13    1    3    3    0    0 -0.19424395131E+02 -0.37992100034E+02  0.20008281428E+02  0.47128009516E+02  0.10566000000E+00 0.  1.
         23    2    1    0    0    0 -0.28925229229E+02 -0.90993886769E+01 -0.12996123158E+02  0.92009592646E+02  0.85891781687E+02 0.  0.
         13    1    3    3    0    0 -0.95008340986E+01  0.28892711357E+02 -0.33004404586E+02  0.44881583130E+02  0.10566000000E+00 0. -1.
         22    1    1    0    0    0  0.28925229229E+02  0.90993886769E+01  0.12996123158E+02  0.32990407354E+02  0.00000000000E+00 0.  1.
</event>
<event>
 5    1  0.1324057E-009  0.9118800E+02  0.7818608E-02  0.1130116E+00
         25   -1    0    0    0    0  0.00000000000E+00  0.00000000000E+00  0.99999998245E-14  0.12500000000E+03  0.12500000000E+03 0.  0.
        -13    1    3    3    0    0  0.31091880548E+02  0.24172513561E+02 -0.63562932887E+01  0.39892719590E+02  0.10566000000E+00 0. -1.
         23    2    1    0    0    0  0.17228449524E+01 -0.10834454737E+02  0.26596117252E+02  0.96230101546E+02  0.91828782996E+02 0.  0.
         13    1    3    3    0    0 -0.29369035595E+02 -0.35006968298E+02  0.32952410541E+02  0.56337381956E+02  0.10566000000E+00 0.  1.
         22    1    1    0    0    0 -0.17228449524E+01  0.10834454737E+02 -0.26596117252E+02  0.28769898454E+02  0.00000000000E+00 0.  1.
</event>
<event>
 5    1  0.1324057E-009  0.9118800E+02  0.7818608E-02  0.1130116E+00
         25   -1    0    0    0    0  0.00000000000E+00  0.00000000000E+00  0.99999998245E-14  0.12500000000E+03  0.12500000000E+03 0.  0.
        -13    1    3    3    0    0 -0.32040601278E+02 -0.15975155321E+02  0.44620646603E+02  0.57208556922E+02  0.10566000000E+00 0. -1.
         23    2    1    0    0    0 -0.23852918312E+02 -0.17291624499E+02  0.84026727824E+01  0.94363960770E+02  0.89252396004E+02 0.  0.
         13    1    3    3    0    0  0.81876829661E+01 -0.13164691784E+01 -0.36217973820E+02  0.37155403848E+02  0.10566000000E+00 0.  1.
         22    1    1    0    0    0  0.23852918312E+02  0.17291624499E+02 -0.84026727824E+01  0.30636039230E+02  0.00000000000E+00 0.  1.
</event>
<event>
 5    1  0.1324057E-009  0.9118800E+02  0.7818608E-02  0.1130116E+00
         25   -1    0    0    0    0  0.00000000000E+00  0.00000000000E+00  0.99999998245E-14  0.12500000000E+03  0.12500000000E+03 0.  0.
        -13    1    3    3    0    0  0.27000679520E+02  0.41387025264E+02 -0.33163271600E+02  0.59512488622E+02  0.10566000000E+00 0.  1.
         23    2    1    0    0    0  0.20308228181E+02  0.70847246962E+01 -0.13285893361E+02  0.99718931623E+02  0.96461043462E+02 0.  0.
         13    1    3    3    0    0 -0.66924513388E+01 -0.34302300568E+02  0.19877378238E+02  0.40206443001E+02  0.10566000000E+00 0. -1.
         22    1    1    0    0    0 -0.20308228181E+02 -0.70847246962E+01  0.13285893361E+02  0.25281068377E+02  0.00000000000E+00 0.  1.
</event>
<event>
 5    1  0.1324057E-009  0.9118800E+02  0.7818608E-02  0.1130116E+00
         25   -1    0    0    0    0  0.00000000000E+00  0.00000000000E+00  0.99999998245E-14  0.12500000000E+03  0.12500000000E+03 0.  0.
        -13    1    3    3    0    0  0.43928326295E+02  0.37109197226E+02 -0.20867278039E+02  0.61173890073E+02  0.10566000000E+00 0. -1.
         23    2    1    0    0    0  0.25073077502E+02  0.16440869248E+02 -0.19344975485E+01  0.94954972494E+02  0.90076318328E+02 0.  0.
         13    1    3    3    0    0 -0.18855248793E+02 -0.20668327977E+02  0.18932780491E+02  0.33781082422E+02  0.10566000000E+00 0.  1.
         22    1    1    0    0    0 -0.25073077502E+02 -0.16440869248E+02  0.19344975485E+01  0.30045027506E+02  0.00000000000E+00 0. -1.
</event>
<event>
 5    1  0.1324057E-009  0.9118800E+02  0.7818608E-02  0.1130116E+00
         25   -1    0    0    0    0  0.00000000000E+00  0.00000000000E+00  0.99999998245E-14  0.12500000000E+03  0.12500000000E+03 0.  0.
        -13    1    3    3    0    0 -0.36850572420E+01 -0.42553765151E+02  0.43218117929E+02  0.60763635974E+02  0.10566000000E+00 0. -1.
         23    2    1    0    0    0 -0.10963412969E+02 -0.17593552943E+02  0.25062745702E+02  0.92475074923E+02  0.86566556653E+02 0.  0.
         13    1    3    3    0    0 -0.72783557273E+01  0.24960212208E+02 -0.18155372226E+02  0.31711438950E+02  0.10566000000E+00 0.  1.
         22    1    1    0    0    0  0.10963412969E+02  0.17593552943E+02 -0.25062745702E+02  0.32524925077E+02  0.00000000000E+00 0. -1.
</event>
<event>
 5    1  0.1324057E-009  0.9118800E+02  0.7818608E-02  0.1130116E+00
         25   -1    0    0    0    0  0.00000000000E+00  0.00000000000E+00  0.99999998245E-14  0.12500000000E+03  0.12500000000E+03 0.  0.
        -13    1    3    3    0    0  0.29313951470E+02  0.19539133891E+02 -0.12975075633E+02  0.37542632509E+02  0.10566000000E+00 0.  1.
         23    2    1    0    0    0 -0.14284408535E+02  0.12133319860E+02  0.23552394817E+02  0.94900546855E+02  0.90000759517E+02 0.  0.
         13    1    3    3    0    0 -0.43598360005E+02 -0.74058140318E+01  0.36527470450E+02  0.57357914346E+02  0.10566000000E+00 0. -1.
         22    1    1    0    0    0  0.14284408535E+02 -0.12133319860E+02 -0.23552394817E+02  0.30099453145E+02  0.00000000000E+00 0. -1.
</event>
<event>
 5    1  0.1324057E-009  0.9118800E+02  0.7818608E-02  0.1130116E+00
         25   -1    0    0    0    0  0.00000000000E+00  0.00000000000E+00  0.99999998245E-14  0.12500000000E+03  0.12500000000E+03 0.  0.
        -13    1    3    3    0    0  0.80157362579E+01 -0.41425249465E+02 -0.37378624070E+02  0.56369105212E+02  0.10566000000E+00 0. -1.
         23    2    1    0    0    0  0.20029677766E+02 -0.84275977672E+01 -0.19628725739E+02  0.95716911542E+02  0.91127536373E+02 0.  0.
         13    1    3    3    0    0  0.12013941508E+02  0.32997651698E+02  0.17749898332E+02  0.39347806330E+02  0.10566000000E+00 0.  1.
         22    1    1    0    0    0 -0.20029677766E+02  0.84275977672E+01  0.19628725739E+02  0.29283088458E+02  0.00000000000E+00 0. -1.
</event>
<event>
 5    1  0.1324057E-009  0.9118800E+02  0.7818608E-02  0.1130116E+00
         25   -1    0    0    0    0  0.00000000000E+00  0.00000000000E+00  0.99999998245E-14  0.12500000000E+03  0.12500000000E+03 0.  0.
        -13    1    3    3    0    0 -0.18819305536E+02  0.28700341769E+02 -0.86518837524E+01  0.35394097460E+02  0.10566000000E+00 0.  1.
         23    2    1    0    0    0  0.18013458946E+00 -0.28656676921E+02 -0.72746966302E+00  0.96333524933E+02  0.91969458155E+02 0.  0.
         13    1    3    3    0    0  0.18999440125E+02 -0.57357018690E+02  0.79244140894E+01  0.60939427473E+02  0.10566000000E+00 0. -1.
         22    1    1    0    0    0 -0.18013458946E+00  0.28656676921E+02  0.72746966302E+00  0.28666475067E+02  0.00000000000E+00 0. -1.
</event>
<event>
 5    1  0.1324057E-009  0.9118800E+02  0.7818608E-02  0.1130116E+00
         25   -1    0    0    0    0  0.00000000000E+00  0.00000000000E+00  0.99999998245E-14  0.12500000000E+03  0.12500000000E+03 0.  0.
        -13    1    3    3    0    0 -0.16489668049E+02  0.18336684400E+02 -0.51260388222E+02  0.56883931930E+02  0.10566000000E+00 0.  1.
         23    2    1    0    0    0 -0.57600455959E+01  0.24780590891E+02 -0.14499840380E+02  0.95716878902E+02  0.91127491602E+02 0.  0.
         13    1    3    3    0    0  0.10729622453E+02  0.64439064908E+01  0.36760547842E+02  0.38832946972E+02  0.10566000000E+00 0. -1.
         22    1    1    0    0    0  0.57600455959E+01 -0.24780590891E+02  0.14499840380E+02  0.29283121098E+02  0.00000000000E+00 0.  1.
</event>
<event>
 5    1  0.1324057E-009  0.9118800E+02  0.7818608E-02  0.1130116E+00
         25   -1    0    0    0    0  0.00000000000E+00  0.00000000000E+00  0.99999998245E-14  0.12500000000E+03  0.12500000000E+03 0.  0.
        -13    1    3    3    0    0 -0.34382966750E+02  0.72307425856E+01  0.41491551303E+02  0.54369403477E+02  0.10566000000E+00 0. -1.
         23    2    1    0    0    0 -0.27187676032E+02  0.81847964599E+01 -0.11738032860E+00  0.96606789557E+02  0.92340117984E+02 0.  0.
         13    1    3    3    0    0  0.71952907177E+01  0.95405387432E+00 -0.41608931632E+02  0.42237386080E+02  0.10566000000E+00 0.  1.
         22    1    1    0    0    0  0.27187676032E+02 -0.81847964599E+01  0.11738032860E+00  0.28393210443E+02  0.00000000000E+00 0. -1.
</event>
<event>
 5    1  0.1324057E-009  0.9118800E+02  0.7818608E-02  0.1130116E+00
         25   -1    0    0    0    0  0.00000000000E+00  0.00000000000E+00  0.99999998245E-14  0.12500000000E+03  0.12500000000E+03 0.  0.
        -13    1    3    3    0    0  0.14887054428E+02 -0.32680453498E+02  0.46837067255E+02  0.59019983594E+02  0.10566000000E+00 0. -1.
         23    2    1    0    0    0  0.69546148598E+01 -0.25897148506E+02  0.11576382876E+02  0.95793123941E+02  0.91232017326E+02 0.  0.
         13    1    3    3    0    0 -0.79324395677E+01  0.67833049919E+01 -0.35260684379E+02  0.36773140347E+02  0.10566000000E+00 0.  1.
         22    1    1    0    0    0 -0.69546148598E+01  0.25897148506E+02 -0.11576382876E+02  0.29206876059E+02  0.00000000000E+00 0. -1.
</event>
<event>
 5    1  0.1324057E-009  0.9118800E+02  0.7818608E-02  0.1130116E+00
         25   -1    0    0    0    0  0.00000000000E+00  0.00000000000E+00  0.99999998245E-14  0.12500000000E+03  0.12500000000E+03 0.  0.
        -13    1    3    3    0    0  0.50275964793E+01 -0.57057697736E+02 -0.10693005389E+02  0.58268423057E+02  0.10566000000E+00 0.  1.
         23    2    1    0    0    0  0.31207873326E+01 -0.27023020782E+02  0.11300356751E+02  0.95543574071E+02  0.90889457682E+02 0.  0.
         13    1    3    3    0    0 -0.19068091468E+01  0.30034676954E+02  0.21993362141E+02  0.37275151014E+02  0.10566000000E+00 0. -1.
         22    1    1    0    0    0 -0.31207873326E+01  0.27023020782E+02 -0.11300356751E+02  0.29456425929E+02  0.00000000000E+00 0.  1.
</event>
<event>
 5    1  0.1324057E-009  0.9118800E+02  0.7818608E-02  0.1130116E+00
         25   -1    0    0    0    0  0.00000000000E+00  0.00000000000E+00  0.99999998245E-14  0.12500000000E+03  0.12500000000E+03 0.  0.
        -13    1    3    3    0    0  0.33400193628E+02  0.13047530319E+02  0.10315102639E+02  0.37312511150E+02  0.10566000000E+00 0.  1.
         23    2    1    0    0    0 -0.16395829534E+02 -0.98080498810E+01 -0.17792803931E+02  0.98892435190E+02  0.95384007032E+02 0.  0.
         13    1    3    3    0    0 -0.49796023162E+02 -0.22855580200E+02 -0.28107906570E+02  0.61579924040E+02  0.10566000000E+00 0. -1.
         22    1    1    0    0    0  0.16395829534E+02  0.98080498810E+01  0.17792803931E+02  0.26107564810E+02  0.00000000000E+00 0. -1.
</event>
<event>
 5    1  0.1324057E-009  0.9118800E+02  0.7818608E-02  0.1130116E+00
         25   -1    0    0    0    0  0.00000000000E+00  0.00000000000E+00  0.99999998245E-14  0.12500000000E+03  0.12500000000E+03 0.  0.
        -13    1    3    3    0    0 -0.13549491234E+02  0.16031465509E+02  0.54018900726E+02  0.57953855771E+02  0.10566000000E+00 0. -1.
         23    2    1    0    0    0 -0.23977107411E+02  0.15048114007E+02  0.32407187495E+02  0.81970089283E+02  0.69767630896E+02 0.  0.
         13    1    3    3    0    0 -0.10427616177E+02 -0.98335150232E+00 -0.21611713231E+02  0.24016233513E+02  0.10566000000E+00 0.  1.
         22    1    1    0    0    0  0.23977107411E+02 -0.15048114007E+02 -0.32407187495E+02  0.43029910717E+02  0.00000000000E+00 0. -1.
</event>
<event>
 5    1  0.1324057E-009  0.9118800E+02  0.7818608E-02  0.1130116E+00
         25   -1    0    0    0    0  0.00000000000E+00  0.00000000000E+00  0.99999998245E-14  0.12500000000E+03  0.12500000000E+03 0.  0.
        -13    1    3    3    0    0 -0.89954562673E+01  0.37045011198E+02  0.34967877457E+02  0.51730210767E+02  0.10566000000E+00 0.  1.
         23    2    1    0    0    0 -0.26644885644E+02  0.11099767854E+02  0.39252735171E+01  0.95869903029E+02  0.91337154308E+02 0.  0.
         13    1    3    3    0    0 -0.17649429376E+02 -0.25945243344E+02 -0.31042603940E+02  0.44139692261E+02  0.10566000000E+00 0. -1.
         22    1    1    0    0    0  0.26644885644E+02 -0.11099767854E+02 -0.39252735171E+01  0.29130096971E+02  0.00000000000E+00 0.  1.
</event>
<event>
 5    1  0.1324057E-009  0.9118800E+02  0.7818608E-02  0.1130116E+00
         25   -1    0    0    0    0  0.00000000000E+00  0.00000000000E+00  0.99999998245E-14  0.12500000000E+03  0.12500000000E+03 0.  0.
        -13    1    3    3    0    0 -0.24636924131E+02 -0.66530983106E+01  0.26706674938E+02  0.36939130987E+02  0.10566000000E+00 0. -1.
         23    2    1    0    0    0  0.27223837263E+02 -0.10218695513E+02 -0.11165108800E+01  0.95900074745E+02  0.91378436659E+02 0.  0.
         13    1    3    3    0    0  0.51860761394E+02 -0.35655972026E+01 -0.27823185818E+02  0.58960943758E+02  0.10566000000E+00 0.  1.
         22    1    1    0    0    0 -0.27223837263E+02  0.10218695513E+02  0.11165108800E+01  0.29099925255E+02  0.00000000000E+00 0.  1.
</event>
<event>
 5    1  0.1324057E-009  0.9118800E+02  0.7818608E-02  0.1130116E+00
         25   -1    0    0    0    0  0.00000000000E+00  0.00000000000E+00  0.99999998245E-14  0.12500000000E+03  0.12500000000E+03 0.  0.
        -13    1    3    3    0    0  0.51493062420E+02  0.90764300396E+01  0.32147127997E+02  0.61378873093E+02  0.10566000000E+00 0.  1.
         23    2    1    0    0    0  0.22266025706E+02  0.12187500121E+02  0.17052392846E+02  0.94420674277E+02  0.89331789242E+02 0.  0.
         13    1    3    3    0    0 -0.29227036715E+02  0.31110700815E+01 -0.15094735151E+02  0.33041801184E+02  0.10566000000E+00 0. -1.
         22    1    1    0    0    0 -0.22266025706E+02 -0.12187500121E+02 -0.17052392846E+02  0.30579325723E+02  0.00000000000E+00 0.  1.
</event>
<event>
 5    1  0.1324057E-009  0.9118800E+02  0.7818608E-02  0.1130116E+00
         25   -1    0    0    0    0  0.00000000000E+00  0.00000000000E+00  0.99999998245E-14  0.12500000000E+03  0.12500000000E+03 0.  0.
        -13    1    3    3    0    0 -0.39343113584E+02 -0.12515213818E+02  0.11016841907E+01  0.41300557327E+02  0.10566000000E+00 0. -1.
         23    2    1    0    0    0 -0.45627445081E+01  0.10462568586E+02  0.30582279213E+02  0.92357086822E+02  0.86396016723E+02 0.  0.
         13    1    3    3    0    0  0.34780369076E+02  0.22977782404E+02  0.29480595022E+02  0.51056529496E+02  0.10566000000E+00 0.  1.
         22    1    1    0    0    0  0.45627445081E+01 -0.10462568586E+02 -0.30582279213E+02  0.32642913178E+02  0.00000000000E+00 0.  1.
</event>
<event>
 5    1  0.1324057E-009  0.9118800E+02  0.7818608E-02  0.1130116E+00
         25   -1    0    0    0    0  0.00000000000E+00  0.00000000000E+00  0.99999998245E-14  0.12500000000E+03  0.12500000000E+03 0.  0.
        -13    1    3    3    0    0 -0.12925865829E+01 -0.76395775827E+01  0.33524585107E+02  0.34408471287E+02  0.10566000000E+00 0. -1.
         23    2    1    0    0    0 -0.30267667337E+02 -0.64575897281E+01 -0.14744036565E+02  0.90718536126E+02  0.83991868842E+02 0.  0.
         13    1    3    3    0    0 -0.28975080754E+02  0.11819878545E+01 -0.48268621672E+02  0.56310064839E+02  0.10566000000E+00 0.  1.
         22    1    1    0    0    0  0.30267667337E+02  0.64575897281E+01  0.14744036565E+02  0.34281463874E+02  0.00000000000E+00 0.  1.
</event>
<event>
 5    1  0.1324057E-009  0.9118800E+02  0.7818608E-02  0.1130116E+00
         25   -1    0    0    0    0  0.00000000000E+00  0.00000000000E+00  0.99999998245E-14  0.12500000000E+03  0.12500000000E+03 0.  0.
        -13    1    3    3    0    0 -0.10730607436E+01  0.45746887290E+02 -0.18309833905E+02  0.49286817079E+02  0.10566000000E+00 0. -1.
         23    2    1    0    0    0 -0.15695034749E+02  0.18163289546E+02  0.16366636892E+02  0.95946497525E+02  0.91441918075E+02 0.  0.
         13    1    3    3    0    0 -0.14621974006E+02 -0.27583597744E+02  0.34676470797E+02  0.46659680446E+02  0.10566000000E+00 0.  1.
         22    1    1    0    0    0  0.15695034749E+02 -0.18163289546E+02 -0.16366636892E+02  0.29053502475E+02  0.00000000000E+00 0. -1.
</event>
<event>
 5    1  0.1324057E-009  0.9118800E+02  0.7818608E-02  0.1130116E+00
         25   -1    0    0    0    0  0.00000000000E+00  0.00000000000E+00  0.99999998245E-14  0.12500000000E+03  0.12500000000E+03 0.  0.
        -13    1    3    3    0    0  0.37015545738E+02  0.53273426972E+01  0.52332159524E+01  0.37761474015E+02  0.10566000000E+00 0. -1.
         23    2    1    0    0    0 -0.18115567182E+02 -0.11584949792E+02  0.18154171366E+02  0.96858237902E+02  0.92679876324E+02 0.  0.
         13    1    3    3    0    0 -0.55131112920E+02 -0.16912292490E+02  0.12920955413E+02  0.59096763887E+02  0.10566000000E+00 0.  1.
         22    1    1    0    0    0  0.18115567182E+02  0.11584949792E+02 -0.18154171366E+02  0.28141762098E+02  0.00000000000E+00 0.  1.
</event>
<event>
 5    1  0.1324057E-009  0.9118800E+02  0.7818608E-02  0.1130116E+00
         25   -1    0    0    0    0  0.00000000000E+00  0.00000000000E+00  0.99999998245E-14  0.12500000000E+03  0.12500000000E+03 0.  0.
        -13    1    3    3    0    0 -0.57872190261E+02  0.11449755060E+02  0.36990475401E+01  0.59109909603E+02  0.10566000000E+00 0.  1.
         23    2    1    0    0    0 -0.27628431125E+02 -0.67950744662E+01 -0.63818158373E+01  0.95841282319E+02  0.91297976865E+02 0.  0.
         13    1    3    3    0    0  0.30243759136E+02 -0.18244829526E+02 -0.10080863377E+02  0.36731372716E+02  0.10566000000E+00 0. -1.
         22    1    1    0    0    0  0.27628431125E+02  0.67950744662E+01  0.63818158373E+01  0.29158717681E+02  0.00000000000E+00 0.  1.
</event>
<event>
 5    1  0.1324057E-009  0.9118800E+02  0.7818608E-02  0.1130116E+00
         25   -1    0    0    0    0  0.00000000000E+00  0.00000000000E+00  0.99999998245E-14  0.12500000000E+03  0.12500000000E+03 0.  0.
        -13    1    3    3    0    0 -0.32546419114E+02  0.69904085019E+01  0.73609265498E+01  0.34092955458E+02  0.10566000000E+00 0. -1.
         23    2    1    0    0    0  0.15713845774E+02 -0.18041076882E+02 -0.18939156550E+02  0.94486117013E+02  0.89423314932E+02 0.  0.
         13    1    3    3    0    0  0.48260264888E+02 -0.25031485384E+02 -0.26300083100E+02  0.60393161556E+02  0.10566000000E+00 0.  1.
         22    1    1    0    0    0 -0.15713845774E+02  0.18041076882E+02  0.18939156550E+02  0.30513882987E+02  0.00000000000E+00 0.  1.
</event>
<event>
 5    1  0.1324057E-009  0.9118800E+02  0.7818608E-02  0.1130116E+00
         25   -1    0    0    0    0  0.00000000000E+00  0.00000000000E+00  0.99999998245E-14  0.12500000000E+03  0.12500000000E+03 0.  0.
        -13    1    3    3    0    0  0.30847637797E+02 -0.21356422979E+02 -0.16027822095E+00  0.37519467124E+02  0.10566000000E+00 0. -1.
         23    2    1    0    0    0 -0.17326356874E+02 -0.14500399846E+01  0.24317837155E+02  0.95105812231E+02  0.90285397811E+02 0.  0.
         13    1    3    3    0    0 -0.48173994671E+02  0.19906382995E+02  0.24478115376E+02  0.57586345107E+02  0.10566000000E+00 0.  1.
         22    1    1    0    0    0  0.17326356874E+02  0.14500399846E+01 -0.24317837155E+02  0.29894187769E+02  0.00000000000E+00 0.  1.
</event>
<event>
 5    1  0.1324057E-009  0.9118800E+02  0.7818608E-02  0.1130116E+00
         25   -1    0    0    0    0  0.00000000000E+00  0.00000000000E+00  0.99999998245E-14  0.12500000000E+03  0.12500000000E+03 0.  0.
        -13    1    3    3    0    0 -0.41279855134E+02  0.14973156258E+02 -0.32055087326E+02  0.54366916739E+02  0.10566000000E+00 0.  1.
         23    2    1    0    0    0 -0.21373727532E+02 -0.15565721205E+02 -0.12153624787E+02  0.95899510301E+02  0.91377664531E+02 0.  0.
         13    1    3    3    0    0  0.19906127602E+02 -0.30538877463E+02  0.19901462539E+02  0.41532593562E+02  0.10566000000E+00 0. -1.
         22    1    1    0    0    0  0.21373727532E+02  0.15565721205E+02  0.12153624787E+02  0.29100489699E+02  0.00000000000E+00 0.  1.
</event>
<event>
 5    1  0.1324057E-009  0.9118800E+02  0.7818608E-02  0.1130116E+00
         25   -1    0    0    0    0  0.00000000000E+00  0.00000000000E+00  0.99999998245E-14  0.12500000000E+03  0.12500000000E+03 0.  0.
        -13    1    3    3    0    0 -0.62914484990E+01 -0.83206160979E+01 -0.46281623635E+02  0.47442753154E+02  0.10566000000E+00 0.  1.
         23    2    1    0    0    0 -0.27349011163E+02  0.86997813928E+01 -0.64847688811E+01  0.95577103553E+02  0.90935558987E+02 0.  0.
         13    1    3    3    0    0 -0.21057562664E+02  0.17020397491E+02  0.39796854754E+02  0.48134350400E+02  0.10566000000E+00 0. -1.
         22    1    1    0    0    0  0.27349011163E+02 -0.86997813928E+01  0.64847688811E+01  0.29422896447E+02  0.00000000000E+00 0. -1.
</event>
<event>
 5    1  0.1324057E-009  0.9118800E+02  0.7818608E-02  0.1130116E+00
         25   -1    0    0    0    0  0.00000000000E+00  0.00000000000E+00  0.99999998245E-14  0.12500000000E+03  0.12500000000E+03 0.  0.
        -13    1    3    3    0    0  0.28313485313E+02  0.90870711075E+01 -0.49610557481E+02  0.57839838256E+02  0.10566000000E+00 0. -1.
         23    2    1    0    0    0  0.10349871279E+02 -0.12517805499E+02 -0.24974417679E+02  0.95208443672E+02  0.90427379250E+02 0.  0.
         13    1    3    3    0    0 -0.17963614034E+02 -0.21604876607E+02  0.24636139802E+02  0.37368605416E+02  0.10566000000E+00 0.  1.
         22    1    1    0    0    0 -0.10349871279E+02  0.12517805499E+02  0.24974417679E+02  0.29791556328E+02  0.00000000000E+00 0. -1.
</event>
<event>
 5    1  0.1324057E-009  0.9118800E+02  0.7818608E-02  0.1130116E+00
         25   -1    0    0    0    0  0.00000000000E+00  0.00000000000E+00  0.99999998245E-14  0.12500000000E+03  0.12500000000E+03 0.  0.
        -13    1    3    3    0    0 -0.10712655636E+02 -0.22411416899E+02 -0.25538972764E+02  0.35626996675E+02  0.10566000000E+00 0. -1.
         23    2    1    0    0    0  0.84669940513E+01  0.27800546719E+02  0.17070827282E+01  0.95888584411E+02  0.91362717247E+02 0.  0.
         13    1    3    3    0    0  0.19179649687E+02  0.50211963618E+02  0.27246055492E+02  0.60261587736E+02  0.10566000000E+00 0.  1.
         22    1    1    0    0    0 -0.84669940513E+01 -0.27800546719E+02 -0.17070827282E+01  0.29111415589E+02  0.00000000000E+00 0.  1.
</event>
<event>
 5    1  0.1324057E-009  0.9118800E+02  0.7818608E-02  0.1130116E+00
         25   -1    0    0    0    0  0.00000000000E+00  0.00000000000E+00  0.99999998245E-14  0.12500000000E+03  0.12500000000E+03 0.  0.
        -13    1    3    3    0    0 -0.23749833449E+02 -0.17145792199E+02 -0.31634618220E+02  0.43113721863E+02  0.10566000000E+00 0.  1.
         23    2    1    0    0    0 -0.21680499353E+02 -0.70321663294E+00  0.18858275077E+02  0.96256772890E+02  0.91865081627E+02 0.  0.
         13    1    3    3    0    0  0.20693340953E+01  0.16442575566E+02  0.50492893297E+02  0.53143051026E+02  0.10566000000E+00 0. -1.
         22    1    1    0    0    0  0.21680499353E+02  0.70321663294E+00 -0.18858275077E+02  0.28743227110E+02  0.00000000000E+00 0.  1.
</event>
<event>
 5    1  0.1324057E-009  0.9118800E+02  0.7818608E-02  0.1130116E+00
         25   -1    0    0    0    0  0.00000000000E+00  0.00000000000E+00  0.99999998245E-14  0.12500000000E+03  0.12500000000E+03 0.  0.
        -13    1    3    3    0    0  0.21598059403E+02  0.27583661779E+02 -0.11012037118E+02  0.36723435197E+02  0.10566000000E+00 0. -1.
         23    2    1    0    0    0  0.14259664189E+02 -0.26840974681E+02  0.55926104037E+01  0.94096064398E+02  0.88876409127E+02 0.  0.
         13    1    3    3    0    0 -0.73383952141E+01 -0.54424636459E+02  0.16604647522E+02  0.57372629201E+02  0.10566000000E+00 0.  1.
         22    1    1    0    0    0 -0.14259664189E+02  0.26840974681E+02 -0.55926104037E+01  0.30903935602E+02  0.00000000000E+00 0.  1.
</event>
<event>
 5    1  0.1324057E-009  0.9118800E+02  0.7818608E-02  0.1130116E+00
         25   -1    0    0    0    0  0.00000000000E+00  0.00000000000E+00  0.99999998245E-14  0.12500000000E+03  0.12500000000E+03 0.  0.
        -13    1    3    3    0    0 -0.18640679623E+02 -0.58875009556E+02  0.35786048693E+01  0.61859189001E+02  0.10566000000E+00 0.  1.
         23    2    1    0    0    0 -0.94568507361E+01 -0.29437931065E+02 -0.45455738751E+01  0.93748023214E+02  0.88385552006E+02 0.  0.
         13    1    3    3    0    0  0.91838288873E+01  0.29437078491E+02 -0.81241787444E+01  0.31888834213E+02  0.10566000000E+00 0. -1.
         22    1    1    0    0    0  0.94568507361E+01  0.29437931065E+02  0.45455738751E+01  0.31251976786E+02  0.00000000000E+00 0.  1.
</event>
<event>
 5    1  0.1324057E-009  0.9118800E+02  0.7818608E-02  0.1130116E+00
         25   -1    0    0    0    0  0.00000000000E+00  0.00000000000E+00  0.99999998245E-14  0.12500000000E+03  0.12500000000E+03 0.  0.
        -13    1    3    3    0    0 -0.43125095308E+02 -0.15507320749E+02  0.20082792462E+02  0.50035792781E+02  0.10566000000E+00 0.  1.
         23    2    1    0    0    0  0.63575317085E+00 -0.25432216501E+01  0.28443339051E+02  0.96436112050E+02  0.92108783580E+02 0.  0.
         13    1    3    3    0    0  0.43760848479E+02  0.12964099099E+02  0.83605465892E+01  0.46400319269E+02  0.10566000000E+00 0. -1.
         22    1    1    0    0    0 -0.63575317085E+00  0.25432216501E+01 -0.28443339051E+02  0.28563887950E+02  0.00000000000E+00 0.  1.
</event>
<event>
 5    1  0.1324057E-009  0.9118800E+02  0.7818608E-02  0.1130116E+00
         25   -1    0    0    0    0  0.00000000000E+00  0.00000000000E+00  0.99999998245E-14  0.12500000000E+03  0.12500000000E+03 0.  0.
        -13    1    3    3    0    0 -0.18151803251E+02 -0.11027469976E+01 -0.42179095982E+02  0.45932464708E+02  0.10566000000E+00 0.  1.
         23    2    1    0    0    0 -0.43514807947E+01  0.27832687096E+02 -0.28300918960E+01  0.96687400751E+02  0.92449176241E+02 0.  0.
         13    1    3    3    0    0  0.13800322456E+02  0.28935434094E+02  0.39349004086E+02  0.50754936043E+02  0.10566000000E+00 0. -1.
         22    1    1    0    0    0  0.43514807947E+01 -0.27832687096E+02  0.28300918960E+01  0.28312599249E+02  0.00000000000E+00 0.  1.
</event>
<event>
 5    1  0.1324057E-009  0.9118800E+02  0.7818608E-02  0.1130116E+00
         25   -1    0    0    0    0  0.00000000000E+00  0.00000000000E+00  0.99999998245E-14  0.12500000000E+03  0.12500000000E+03 0.  0.
        -13    1    3    3    0    0 -0.24439301639E+02  0.37081133473E+01  0.38430026073E+02  0.45693627971E+02  0.10566000000E+00 0.  1.
         23    2    1    0    0    0 -0.16332590134E+02 -0.25772923175E+02  0.40713337944E+00  0.94485039291E+02  0.89421808430E+02 0.  0.
         13    1    3    3    0    0  0.81067115049E+01 -0.29481036522E+02 -0.38022892693E+02  0.48791411320E+02  0.10566000000E+00 0. -1.
         22    1    1    0    0    0  0.16332590134E+02  0.25772923175E+02 -0.40713337944E+00  0.30514960709E+02  0.00000000000E+00 0. -1.
</event>
<event>
 5    1  0.1324057E-009  0.9118800E+02  0.7818608E-02  0.1130116E+00
         25   -1    0    0    0    0  0.00000000000E+00  0.00000000000E+00  0.99999998245E-14  0.12500000000E+03  0.12500000000E+03 0.  0.
        -13    1    3    3    0    0 -0.60611862316E+01  0.38805267548E+02 -0.14929589136E+02  0.42017741060E+02  0.10566000000E+00 0. -1.
         23    2    1    0    0    0 -0.23762028805E+02 -0.54225478351E+01  0.13139799504E+02  0.97310789665E+02  0.93288249079E+02 0.  0.
         13    1    3    3    0    0 -0.17700842574E+02 -0.44227815383E+02  0.28069388640E+02  0.55293048605E+02  0.10566000000E+00 0.  1.
         22    1    1    0    0    0  0.23762028805E+02  0.54225478351E+01 -0.13139799504E+02  0.27689210335E+02  0.00000000000E+00 0. -1.
</event>
<event>
 5    1  0.1324057E-009  0.9118800E+02  0.7818608E-02  0.1130116E+00
         25   -1    0    0    0    0  0.00000000000E+00  0.00000000000E+00  0.99999998245E-14  0.12500000000E+03  0.12500000000E+03 0.  0.
        -13    1    3    3    0    0 -0.89820797238E+01  0.27991239224E+02 -0.17188567894E+02  0.34053564567E+02  0.10566000000E+00 0.  1.
         23    2    1    0    0    0  0.13399594536E+02 -0.25484221715E+02  0.43198042652E+01  0.95885477867E+02  0.91358466858E+02 0.  0.
         13    1    3    3    0    0  0.22381674260E+02 -0.53475460939E+02  0.21508372159E+02  0.61831913300E+02  0.10566000000E+00 0. -1.
         22    1    1    0    0    0 -0.13399594536E+02  0.25484221715E+02 -0.43198042652E+01  0.29114522133E+02  0.00000000000E+00 0. -1.
</event>
<event>
 5    1  0.1324057E-009  0.9118800E+02  0.7818608E-02  0.1130116E+00
         25   -1    0    0    0    0  0.00000000000E+00  0.00000000000E+00  0.99999998245E-14  0.12500000000E+03  0.12500000000E+03 0.  0.
        -13    1    3    3    0    0  0.20287517845E+02  0.51292643338E+02 -0.17062545169E+02  0.57737858054E+02  0.10566000000E+00 0. -1.
         23    2    1    0    0    0  0.24344096681E+02  0.15680077697E+02 -0.10630904130E+02  0.94153346982E+02  0.88956937591E+02 0.  0.
         13    1    3    3    0    0  0.40565788354E+01 -0.35612565641E+02  0.64316410395E+01  0.36415488928E+02  0.10566000000E+00 0.  1.
         22    1    1    0    0    0 -0.24344096681E+02 -0.15680077697E+02  0.10630904130E+02  0.30846653018E+02  0.00000000000E+00 0. -1.
</event>
<event>
 5    1  0.1324057E-009  0.9118800E+02  0.7818608E-02  0.1130116E+00
         25   -1    0    0    0    0  0.00000000000E+00  0.00000000000E+00  0.99999998245E-14  0.12500000000E+03  0.12500000000E+03 0.  0.
        -13    1    3    3    0    0 -0.32120287933E+02 -0.23663047284E+02 -0.82607096484E+01  0.40741909524E+02  0.10566000000E+00 0.  1.
         23    2    1    0    0    0 -0.61747812103E+01  0.93827137356E+01  0.27105256789E+02  0.95659615107E+02  0.91048908708E+02 0.  0.
         13    1    3    3    0    0  0.25945506723E+02  0.33045761020E+02  0.35365966438E+02  0.54917705584E+02  0.10566000000E+00 0. -1.
         22    1    1    0    0    0  0.61747812103E+01 -0.93827137356E+01 -0.27105256789E+02  0.29340384893E+02  0.00000000000E+00 0. -1.
</event>
<event>
 5    1  0.1324057E-009  0.9118800E+02  0.7818608E-02  0.1130116E+00
         25   -1    0    0    0    0  0.00000000000E+00  0.00000000000E+00  0.99999998245E-14  0.12500000000E+03  0.12500000000E+03 0.  0.
        -13    1    3    3    0    0 -0.47765340522E+01 -0.50369523079E+02 -0.14859192378E+02  0.52732446320E+02  0.10566000000E+00 0. -1.
         23    2    1    0    0    0 -0.24346267100E+02 -0.11014020142E+02 -0.69251963315E+01  0.97395512944E+02  0.93401703604E+02 0.  0.
         13    1    3    3    0    0 -0.19569733048E+02  0.39355502937E+02  0.79339960464E+01  0.44663066624E+02  0.10566000000E+00 0.  1.
         22    1    1    0    0    0  0.24346267100E+02  0.11014020142E+02  0.69251963315E+01  0.27604487056E+02  0.00000000000E+00 0.  1.
</event>
<event>
 5    1  0.1324057E-009  0.9118800E+02  0.7818608E-02  0.1130116E+00
         25   -1    0    0    0    0  0.00000000000E+00  0.00000000000E+00  0.99999998245E-14  0.12500000000E+03  0.12500000000E+03 0.  0.
        -13    1    3    3    0    0 -0.25228995352E+02 -0.17820063567E+02 -0.19846651190E+02  0.36714542071E+02  0.10566000000E+00 0.  1.
         23    2    1    0    0    0  0.11620526470E+02  0.22114523211E+02  0.92595654877E+01  0.98357396424E+02  0.94680246652E+02 0.  0.
         13    1    3    3    0    0  0.36849521822E+02  0.39934586777E+02  0.29106216678E+02  0.61642854354E+02  0.10566000000E+00 0. -1.
         22    1    1    0    0    0 -0.11620526470E+02 -0.22114523211E+02 -0.92595654877E+01  0.26642603576E+02  0.00000000000E+00 0. -1.
</event>
<event>
 5    1  0.1324057E-009  0.9118800E+02  0.7818608E-02  0.1130116E+00
         25   -1    0    0    0    0  0.00000000000E+00  0.00000000000E+00  0.99999998245E-14  0.12500000000E+03  0.12500000000E+03 0.  0.
        -13    1    3    3    0    0  0.30170998261E+02  0.28357441616E+02  0.65722006056E+01  0.41924200838E+02  0.10566000000E+00 0. -1.
         23    2    1    0    0    0 -0.21861494927E+02  0.16297436685E+02  0.11168700638E+02  0.95533556765E+02  0.90875679867E+02 0.  0.
         13    1    3    3    0    0 -0.52032493189E+02 -0.12060004930E+02  0.45965000328E+01  0.53609355927E+02  0.10566000000E+00 0.  1.
         22    1    1    0    0    0  0.21861494927E+02 -0.16297436685E+02 -0.11168700638E+02  0.29466443235E+02  0.00000000000E+00 0.  1.
</event>
<event>
 5    1  0.1324057E-009  0.9118800E+02  0.7818608E-02  0.1130116E+00
         25   -1    0    0    0    0  0.00000000000E+00  0.00000000000E+00  0.99999998245E-14  0.12500000000E+03  0.12500000000E+03 0.  0.
        -13    1    3    3    0    0  0.67003485499E+01  0.38773513414E+02 -0.90987573689E+01  0.40386613659E+02  0.10566000000E+00 0.  1.
         23    2    1    0    0    0 -0.27783844088E+02 -0.24284552711E+01  0.65570560281E+01  0.96349792827E+02  0.91991565955E+02 0.  0.
         13    1    3    3    0    0 -0.34484192638E+02 -0.41201968685E+02  0.15655813397E+02  0.55963179168E+02  0.10566000000E+00 0. -1.
         22    1    1    0    0    0  0.27783844088E+02  0.24284552711E+01 -0.65570560281E+01  0.28650207173E+02  0.00000000000E+00 0. -1.
</event>
<event>
 5    1  0.1324057E-009  0.9118800E+02  0.7818608E-02  0.1130116E+00
         25   -1    0    0    0    0  0.00000000000E+00  0.00000000000E+00  0.99999998245E-14  0.12500000000E+03  0.12500000000E+03 0.  0.
        -13    1    3    3    0    0  0.17631682396E+02  0.64219758902E+00  0.14885665158E+02  0.23084255091E+02  0.10566000000E+00 0.  1.
         23    2    1    0    0    0 -0.31867022642E+02 -0.13812144172E+02 -0.19600522805E+02  0.85119391267E+02  0.75198722175E+02 0.  0.
         13    1    3    3    0    0 -0.49498705038E+02 -0.14454341761E+02 -0.34486187963E+02  0.62035136176E+02  0.10566000000E+00 0. -1.
         22    1    1    0    0    0  0.31867022642E+02  0.13812144172E+02  0.19600522805E+02  0.39880608733E+02  0.00000000000E+00 0. -1.
</event>
<event>
 5    1  0.1324057E-009  0.9118800E+02  0.7818608E-02  0.1130116E+00
         25   -1    0    0    0    0  0.00000000000E+00  0.00000000000E+00  0.99999998245E-14  0.12500000000E+03  0.12500000000E+03 0.  0.
        -13    1    3    3    0    0  0.14166055732E+02  0.36227528910E+02 -0.61385545511E+01  0.39380248881E+02  0.10566000000E+00 0.  1.
         23    2    1    0    0    0 -0.19558173574E+02  0.28868403710E+01  0.22711266824E+02  0.94889243755E+02  0.89985059531E+02 0.  0.
         13    1    3    3    0    0 -0.33724229305E+02 -0.33340688539E+02  0.28849821375E+02  0.55508994874E+02  0.10566000000E+00 0. -1.
         22    1    1    0    0    0  0.19558173574E+02 -0.28868403710E+01 -0.22711266824E+02  0.30110756245E+02  0.00000000000E+00 0. -1.
</event>
<event>
 5    1  0.1324057E-009  0.9118800E+02  0.7818608E-02  0.1130116E+00
         25   -1    0    0    0    0  0.00000000000E+00  0.00000000000E+00  0.99999998245E-14  0.12500000000E+03  0.12500000000E+03 0.  0.
        -13    1    3    3    0    0  0.64695561284E+00 -0.81395261743E+01  0.37089464394E+02  0.37977756266E+02  0.10566000000E+00 0. -1.
         23    2    1    0    0    0 -0.13333732433E+02  0.23479148067E+02 -0.98358373792E+01  0.96263220231E+02  0.91873854048E+02 0.  0.
         13    1    3    3    0    0 -0.13980688046E+02  0.31618674241E+02 -0.46925301774E+02  0.58285463965E+02  0.10566000000E+00 0.  1.
         22    1    1    0    0    0  0.13333732433E+02 -0.23479148067E+02  0.98358373792E+01  0.28736779769E+02  0.00000000000E+00 0.  1.
</event>
<event>
 5    1  0.1324057E-009  0.9118800E+02  0.7818608E-02  0.1130116E+00
         25   -1    0    0    0    0  0.00000000000E+00  0.00000000000E+00  0.99999998245E-14  0.12500000000E+03  0.12500000000E+03 0.  0.
        -13    1    3    3    0    0  0.12627423383E+02 -0.55816846284E+02  0.23686143158E+02  0.61935585023E+02  0.10566000000E+00 0. -1.
         23    2    1    0    0    0  0.12561512045E+02 -0.28695886755E+02  0.12491804721E+02  0.91276259302E+02  0.84817833181E+02 0.  0.
         13    1    3    3    0    0 -0.65911338796E-01  0.27120959529E+02 -0.11194338436E+02  0.29340674279E+02  0.10566000000E+00 0.  1.
         22    1    1    0    0    0 -0.12561512045E+02  0.28695886755E+02 -0.12491804721E+02  0.33723740698E+02  0.00000000000E+00 0. -1.
</event>
<event>
 5    1  0.1324057E-009  0.9118800E+02  0.7818608E-02  0.1130116E+00
         25   -1    0    0    0    0  0.00000000000E+00  0.00000000000E+00  0.99999998245E-14  0.12500000000E+03  0.12500000000E+03 0.  0.
        -13    1    3    3    0    0  0.47540985448E+01 -0.21023756864E+02  0.50372720366E+02  0.54790710223E+02  0.10566000000E+00 0.  1.
         23    2    1    0    0    0 -0.11037931718E+02 -0.24115188419E+02  0.13035090616E+02  0.95448488424E+02  0.90758592463E+02 0.  0.
         13    1    3    3    0    0 -0.15792030262E+02 -0.30914315547E+01 -0.37337629750E+02  0.40657778201E+02  0.10566000000E+00 0. -1.
         22    1    1    0    0    0  0.11037931718E+02  0.24115188419E+02 -0.13035090616E+02  0.29551511576E+02  0.00000000000E+00 0.  1.
</event>
<event>
 5    1  0.1324057E-009  0.9118800E+02  0.7818608E-02  0.1130116E+00
         25   -1    0    0    0    0  0.00000000000E+00  0.00000000000E+00  0.99999998245E-14  0.12500000000E+03  0.12500000000E+03 0.  0.
        -13    1    3    3    0    0 -0.19090242868E+02 -0.17684577771E+02 -0.24557058985E+02  0.35780469167E+02  0.10566000000E+00 0.  1.
         23    2    1    0    0    0 -0.12441867247E+01  0.21431247320E+02  0.18524109104E+02  0.96645300559E+02  0.92392235278E+02 0.  0.
         13    1    3    3    0    0  0.17846056144E+02  0.39115825092E+02  0.43081168089E+02  0.60864831392E+02  0.10566000000E+00 0. -1.
         22    1    1    0    0    0  0.12441867247E+01 -0.21431247320E+02 -0.18524109104E+02  0.28354699441E+02  0.00000000000E+00 0. -1.
</event>
<event>
 5    1  0.1324057E-009  0.9118800E+02  0.7818608E-02  0.1130116E+00
         25   -1    0    0    0    0  0.00000000000E+00  0.00000000000E+00  0.99999998245E-14  0.12500000000E+03  0.12500000000E+03 0.  0.
        -13    1    3    3    0    0  0.41364554042E+01 -0.40477406921E+02  0.15932043492E+02  0.43696360354E+02  0.10566000000E+00 0. -1.
         23    2    1    0    0    0 -0.11782082398E+02  0.93202762827E+01  0.24090391801E+02  0.96609297424E+02  0.92343512799E+02 0.  0.
         13    1    3    3    0    0 -0.15918537802E+02  0.49797683204E+02  0.81583483095E+01  0.52912937070E+02  0.10566000000E+00 0.  1.
         22    1    1    0    0    0  0.11782082398E+02 -0.93202762827E+01 -0.24090391801E+02  0.28390702576E+02  0.00000000000E+00 0.  1.
</event>
<event>
 5    1  0.1324057E-009  0.9118800E+02  0.7818608E-02  0.1130116E+00
         25   -1    0    0    0    0  0.00000000000E+00  0.00000000000E+00  0.99999998245E-14  0.12500000000E+03  0.12500000000E+03 0.  0.
        -13    1    3    3    0    0  0.56408818140E+01  0.43577346828E+01  0.38754366942E+02  0.39404587554E+02  0.10566000000E+00 0.  1.
         23    2    1    0    0    0 -0.30565663244E+01  0.26583833834E+02 -0.12138815265E+02  0.95616439034E+02  0.90989613465E+02 0.  0.
         13    1    3    3    0    0 -0.86974481383E+01  0.22226099151E+02 -0.50893182207E+02  0.56211851480E+02  0.10566000000E+00 0. -1.
         22    1    1    0    0    0  0.30565663244E+01 -0.26583833834E+02  0.12138815265E+02  0.29383560966E+02  0.00000000000E+00 0. -1.
</event>
<event>
 5    1  0.1324057E-009  0.9118800E+02  0.7818608E-02  0.1130116E+00
         25   -1    0    0    0    0  0.00000000000E+00  0.00000000000E+00  0.99999998245E-14  0.12500000000E+03  0.12500000000E+03 0.  0.
        -13    1    3    3    0    0 -0.85910971294E+01  0.24874038385E+02 -0.21974732373E+02  0.34284468238E+02  0.10566000000E+00 0. -1.
         23    2    1    0    0    0  0.21685816151E+02 -0.17553312140E+02  0.99174306916E+01  0.95390055374E+02  0.90678078076E+02 0.  0.
         13    1    3    3    0    0  0.30276913281E+02 -0.42427350525E+02  0.31892163064E+02  0.61105587136E+02  0.10566000000E+00 0.  1.
         22    1    1    0    0    0 -0.21685816151E+02  0.17553312140E+02 -0.99174306916E+01  0.29609944626E+02  0.00000000000E+00 0.  1.
</event>
<event>
 5    1  0.1324057E-009  0.9118800E+02  0.7818608E-02  0.1130116E+00
         25   -1    0    0    0    0  0.00000000000E+00  0.00000000000E+00  0.99999998245E-14  0.12500000000E+03  0.12500000000E+03 0.  0.
        -13    1    3    3    0    0 -0.90818325820E+01 -0.29900483586E+02 -0.15507822351E+02  0.34885846984E+02  0.10566000000E+00 0. -1.
         23    2    1    0    0    0  0.42691648788E+01  0.11621423816E+02  0.26692994717E+02  0.95575533527E+02  0.90933400804E+02 0.  0.
         13    1    3    3    0    0  0.13350997461E+02  0.41521907402E+02  0.42200817068E+02  0.60689686543E+02  0.10566000000E+00 0.  1.
         22    1    1    0    0    0 -0.42691648788E+01 -0.11621423816E+02 -0.26692994717E+02  0.29424466473E+02  0.00000000000E+00 0.  1.
</event>
<event>
 5    1  0.1324057E-009  0.9118800E+02  0.7818608E-02  0.1130116E+00
         25   -1    0    0    0    0  0.00000000000E+00  0.00000000000E+00  0.99999998245E-14  0.12500000000E+03  0.12500000000E+03 0.  0.
        -13    1    3    3    0    0  0.13474894523E+02  0.26266278415E+01 -0.38641045592E+02  0.41007481326E+02  0.10566000000E+00 0. -1.
         23    2    1    0    0    0  0.36085598091E+01  0.27214077528E+02  0.94944672315E+01  0.95952235412E+02  0.91449761361E+02 0.  0.
         13    1    3    3    0    0 -0.98663347142E+01  0.24587449686E+02  0.48135512823E+02  0.54944754086E+02  0.10566000000E+00 0.  1.
         22    1    1    0    0    0 -0.36085598091E+01 -0.27214077528E+02 -0.94944672315E+01  0.29047764588E+02  0.00000000000E+00 0.  1.
</event>
<event>
 5    1  0.1324057E-009  0.9118800E+02  0.7818608E-02  0.1130116E+00
         25   -1    0    0    0    0  0.00000000000E+00  0.00000000000E+00  0.99999998245E-14  0.12500000000E+03  0.12500000000E+03 0.  0.
        -13    1    3    3    0    0 -0.11328225372E+02 -0.34652188838E+02 -0.30039514457E+01  0.36580565464E+02  0.10566000000E+00 0. -1.
         23    2    1    0    0    0  0.14631243815E+02  0.14410630377E+02  0.19691419890E+02  0.96548434477E+02  0.92261089410E+02 0.  0.
         13    1    3    3    0    0  0.25959469187E+02  0.49062819215E+02  0.22695371336E+02  0.59967869013E+02  0.10566000000E+00 0.  1.
         22    1    1    0    0    0 -0.14631243815E+02 -0.14410630377E+02 -0.19691419890E+02  0.28451565523E+02  0.00000000000E+00 0.  1.
</event>
<event>
 5    1  0.1324057E-009  0.9118800E+02  0.7818608E-02  0.1130116E+00
         25   -1    0    0    0    0  0.00000000000E+00  0.00000000000E+00  0.99999998245E-14  0.12500000000E+03  0.12500000000E+03 0.  0.
        -13    1    3    3    0    0  0.42960956181E+02 -0.23378061571E+01 -0.93011605946E+01  0.44018539799E+02  0.10566000000E+00 0. -1.
         23    2    1    0    0    0  0.16926159294E+01 -0.30334768417E+02 -0.79597567973E+00  0.94607621007E+02  0.89592997782E+02 0.  0.
         13    1    3    3    0    0 -0.41268340252E+02 -0.27996962260E+02  0.85051849149E+01  0.50589081207E+02  0.10566000000E+00 0.  1.
         22    1    1    0    0    0 -0.16926159294E+01  0.30334768417E+02  0.79597567973E+00  0.30392378993E+02  0.00000000000E+00 0.  1.
</event>
<event>
 5    1  0.1324057E-009  0.9118800E+02  0.7818608E-02  0.1130116E+00
         25   -1    0    0    0    0  0.00000000000E+00  0.00000000000E+00  0.99999998245E-14  0.12500000000E+03  0.12500000000E+03 0.  0.
        -13    1    3    3    0    0 -0.31622453531E+02 -0.18746421912E+02 -0.47604437329E+01  0.37068597092E+02  0.10566000000E+00 0.  1.
         23    2    1    0    0    0  0.35408065734E+01  0.23230185592E+02  0.17004691823E+02  0.95994166487E+02  0.91507057770E+02 0.  0.
         13    1    3    3    0    0  0.35163260104E+02  0.41976607504E+02  0.21765135555E+02  0.58925569395E+02  0.10566000000E+00 0. -1.
         22    1    1    0    0    0 -0.35408065734E+01 -0.23230185592E+02 -0.17004691823E+02  0.29005833513E+02  0.00000000000E+00 0. -1.
</event>
<event>
 5    1  0.1324057E-009  0.9118800E+02  0.7818608E-02  0.1130116E+00
         25   -1    0    0    0    0  0.00000000000E+00  0.00000000000E+00  0.99999998245E-14  0.12500000000E+03  0.12500000000E+03 0.  0.
        -13    1    3    3    0    0  0.16989123490E+02 -0.97502998370E+01  0.32598851612E+02  0.38031499501E+02  0.10566000000E+00 0. -1.
         23    2    1    0    0    0 -0.20561263797E+02 -0.25645983280E+02 -0.27738884530E+01  0.92012479867E+02  0.85895983415E+02 0.  0.
         13    1    3    3    0    0 -0.37550387287E+02 -0.15895683443E+02 -0.35372740065E+02  0.53980980366E+02  0.10566000000E+00 0.  1.
         22    1    1    0    0    0  0.20561263797E+02  0.25645983280E+02  0.27738884530E+01  0.32987520133E+02  0.00000000000E+00 0.  1.
</event>
<event>
 5    1  0.1324057E-009  0.9118800E+02  0.7818608E-02  0.1130116E+00
         25   -1    0    0    0    0  0.00000000000E+00  0.00000000000E+00  0.99999998245E-14  0.12500000000E+03  0.12500000000E+03 0.  0.
        -13    1    3    3    0    0  0.18217906423E+02  0.14829927851E+02  0.31015725849E+02  0.38907650771E+02  0.10566000000E+00 0. -1.
         23    2    1    0    0    0 -0.28621534963E+02 -0.20876000270E+01  0.20299417398E+02  0.89848660279E+02  0.82687151781E+02 0.  0.
         13    1    3    3    0    0 -0.46839441386E+02 -0.16917527878E+02 -0.10716308451E+02  0.50941009508E+02  0.10566000000E+00 0.  1.
         22    1    1    0    0    0  0.28621534963E+02  0.20876000270E+01 -0.20299417398E+02  0.35151339721E+02  0.00000000000E+00 0.  1.
</event>
<event>
 5    1  0.1324057E-009  0.9118800E+02  0.7818608E-02  0.1130116E+00
         25   -1    0    0    0    0  0.00000000000E+00  0.00000000000E+00  0.99999998245E-14  0.12500000000E+03  0.12500000000E+03 0.  0.
        -13    1    3    3    0    0 -0.33783313476E+02 -0.22376254016E+02  0.91315532362E+01  0.41537999972E+02  0.10566000000E+00 0.  1.
         23    2    1    0    0    0  0.13570990604E+02  0.42316694828E+01 -0.17844361689E+02  0.10218552967E+03  0.99606136439E+02 0.  0.
         13    1    3    3    0    0  0.47354304080E+02  0.26607923498E+02 -0.26975914925E+02  0.60647529693E+02  0.10566000000E+00 0. -1.
         22    1    1    0    0    0 -0.13570990604E+02 -0.42316694828E+01  0.17844361689E+02  0.22814470335E+02  0.00000000000E+00 0. -1.
</event>
<event>
 5    1  0.1324057E-009  0.9118800E+02  0.7818608E-02  0.1130116E+00
         25   -1    0    0    0    0  0.00000000000E+00  0.00000000000E+00  0.99999998245E-14  0.12500000000E+03  0.12500000000E+03 0.  0.
        -13    1    3    3    0    0 -0.76524429916E+01  0.40321547924E+02 -0.22107133719E+02  0.46616774191E+02  0.10566000000E+00 0. -1.
         23    2    1    0    0    0  0.15935938237E+02 -0.34236613232E+01 -0.23575863623E+02  0.96338232261E+02  0.91975855882E+02 0.  0.
         13    1    3    3    0    0  0.23588381229E+02 -0.43745209247E+02 -0.14687299040E+01  0.49721458070E+02  0.10566000000E+00 0.  1.
         22    1    1    0    0    0 -0.15935938237E+02  0.34236613232E+01  0.23575863623E+02  0.28661767739E+02  0.00000000000E+00 0.  1.
</event>
<event>
 5    1  0.1324057E-009  0.9118800E+02  0.7818608E-02  0.1130116E+00
         25   -1    0    0    0    0  0.00000000000E+00  0.00000000000E+00  0.99999998245E-14  0.12500000000E+03  0.12500000000E+03 0.  0.
        -13    1    3    3    0    0 -0.27050983971E+02 -0.15660113902E+02  0.34868911354E+02  0.46827844754E+02  0.10566000000E+00 0. -1.
         23    2    1    0    0    0 -0.14928574725E+02  0.23447591585E+02  0.70650507825E+01  0.96319573974E+02  0.91950494798E+02 0.  0.
         13    1    3    3    0    0  0.12122409246E+02  0.39107705488E+02 -0.27803860572E+02  0.49491729220E+02  0.10566000000E+00 0.  1.
         22    1    1    0    0    0  0.14928574725E+02 -0.23447591585E+02 -0.70650507825E+01  0.28680426026E+02  0.00000000000E+00 0.  1.
</event>
<event>
 5    1  0.1324057E-009  0.9118800E+02  0.7818608E-02  0.1130116E+00
         25   -1    0    0    0    0  0.00000000000E+00  0.00000000000E+00  0.99999998245E-14  0.12500000000E+03  0.12500000000E+03 0.  0.
        -13    1    3    3    0    0 -0.14564341320E+02 -0.28918286556E+02  0.32933505439E+02  0.46184567552E+02  0.10566000000E+00 0.  1.
         23    2    1    0    0    0  0.34169318144E+01  0.15268252121E+02  0.26368056494E+02  0.94339449628E+02  0.89218060991E+02 0.  0.
         13    1    3    3    0    0  0.17981273134E+02  0.44186538678E+02 -0.65654489457E+01  0.48154882076E+02  0.10566000000E+00 0. -1.
         22    1    1    0    0    0 -0.34169318144E+01 -0.15268252121E+02 -0.26368056494E+02  0.30660550372E+02  0.00000000000E+00 0. -1.
</event>
<event>
 5    1  0.1324057E-009  0.9118800E+02  0.7818608E-02  0.1130116E+00
         25   -1    0    0    0    0  0.00000000000E+00  0.00000000000E+00  0.99999998245E-14  0.12500000000E+03  0.12500000000E+03 0.  0.
        -13    1    3    3    0    0  0.33403313764E+02  0.12609513537E+02  0.18322228115E+02  0.40130990633E+02  0.10566000000E+00 0.  1.
         23    2    1    0    0    0 -0.13188509731E+02  0.27749818847E+02 -0.40902612033E+01  0.94004524980E+02  0.88747570361E+02 0.  0.
         13    1    3    3    0    0 -0.46591823496E+02  0.15140305310E+02 -0.22412489319E+02  0.53873534347E+02  0.10566000000E+00 0. -1.
         22    1    1    0    0    0  0.13188509731E+02 -0.27749818847E+02  0.40902612033E+01  0.30995475020E+02  0.00000000000E+00 0. -1.
</event>
<event>
 5    1  0.1324057E-009  0.9118800E+02  0.7818608E-02  0.1130116E+00
         25   -1    0    0    0    0  0.00000000000E+00  0.00000000000E+00  0.99999998245E-14  0.12500000000E+03  0.12500000000E+03 0.  0.
        -13    1    3    3    0    0 -0.16941536642E+02  0.28492527290E+02 -0.46577278561E+02  0.57168993496E+02  0.10566000000E+00 0.  1.
         23    2    1    0    0    0 -0.12660228531E+02  0.25770497109E+02 -0.92576023345E+01  0.94832084781E+02  0.89905623824E+02 0.  0.
         13    1    3    3    0    0  0.42813081111E+01 -0.27220301815E+01  0.37319676226E+02  0.37663091285E+02  0.10566000000E+00 0. -1.
         22    1    1    0    0    0  0.12660228531E+02 -0.25770497109E+02  0.92576023345E+01  0.30167915219E+02  0.00000000000E+00 0.  1.
</event>
<event>
 5    1  0.1324057E-009  0.9118800E+02  0.7818608E-02  0.1130116E+00
         25   -1    0    0    0    0  0.00000000000E+00  0.00000000000E+00  0.99999998245E-14  0.12500000000E+03  0.12500000000E+03 0.  0.
        -13    1    3    3    0    0  0.31771319079E+02 -0.23878555683E+01 -0.26672503543E+02  0.41551801158E+02  0.10566000000E+00 0. -1.
         23    2    1    0    0    0 -0.12054051313E+02  0.24738515102E+02 -0.99285871677E+01  0.95744724823E+02  0.91165679978E+02 0.  0.
         13    1    3    3    0    0 -0.43825370392E+02  0.27126370670E+02  0.16743916375E+02  0.54192923665E+02  0.10566000000E+00 0.  1.
         22    1    1    0    0    0  0.12054051313E+02 -0.24738515102E+02  0.99285871677E+01  0.29255275177E+02  0.00000000000E+00 0. -1.
</event>
<event>
 5    1  0.1324057E-009  0.9118800E+02  0.7818608E-02  0.1130116E+00
         25   -1    0    0    0    0  0.00000000000E+00  0.00000000000E+00  0.99999998245E-14  0.12500000000E+03  0.12500000000E+03 0.  0.
        -13    1    3    3    0    0 -0.31775614079E+02  0.39644871432E+02  0.15665537657E+02  0.53167901172E+02  0.10566000000E+00 0. -1.
         23    2    1    0    0    0 -0.39782115498E+00  0.23550700091E+02 -0.12531733362E+02  0.98319706195E+02  0.94630473679E+02 0.  0.
         13    1    3    3    0    0  0.31377792924E+02 -0.16094171340E+02 -0.28197271019E+02  0.45151805023E+02  0.10566000000E+00 0.  1.
         22    1    1    0    0    0  0.39782115498E+00 -0.23550700091E+02  0.12531733362E+02  0.26680293805E+02  0.00000000000E+00 0. -1.
</event>
<event>
 5    1  0.1324057E-009  0.9118800E+02  0.7818608E-02  0.1130116E+00
         25   -1    0    0    0    0  0.00000000000E+00  0.00000000000E+00  0.99999998245E-14  0.12500000000E+03  0.12500000000E+03 0.  0.
        -13    1    3    3    0    0 -0.58574077731E+02  0.14080615069E+01 -0.10768515834E+02  0.59572454344E+02  0.10566000000E+00 0. -1.
         23    2    1    0    0    0 -0.26616467708E+02  0.12549324910E+02  0.14063249821E+01  0.95539863223E+02  0.90884354021E+02 0.  0.
         13    1    3    3    0    0  0.31957610023E+02  0.11141263403E+02  0.12174840816E+02  0.35967408880E+02  0.10566000000E+00 0.  1.
         22    1    1    0    0    0  0.26616467708E+02 -0.12549324910E+02 -0.14063249821E+01  0.29460136777E+02  0.00000000000E+00 0. -1.
</event>
<event>
 5    1  0.1324057E-009  0.9118800E+02  0.7818608E-02  0.1130116E+00
         25   -1    0    0    0    0  0.00000000000E+00  0.00000000000E+00  0.99999998245E-14  0.12500000000E+03  0.12500000000E+03 0.  0.
        -13    1    3    3    0    0 -0.25274223850E+02  0.33103886575E+02  0.31129956246E+02  0.51997490685E+02  0.10566000000E+00 0.  1.
         23    2    1    0    0    0 -0.17525294954E+02  0.23585288215E+02 -0.92443997827E+01  0.94196417242E+02  0.89017438238E+02 0.  0.
         13    1    3    3    0    0  0.77489288957E+01 -0.95185983608E+01 -0.40374356029E+02  0.42198926557E+02  0.10566000000E+00 0. -1.
         22    1    1    0    0    0  0.17525294954E+02 -0.23585288215E+02  0.92443997827E+01  0.30803582758E+02  0.00000000000E+00 0.  1.
</event>
<event>
 5    1  0.1324057E-009  0.9118800E+02  0.7818608E-02  0.1130116E+00
         25   -1    0    0    0    0  0.00000000000E+00  0.00000000000E+00  0.99999998245E-14  0.12500000000E+03  0.12500000000E+03 0.  0.
        -13    1    3    3    0    0  0.28999138744E+02  0.44198587659E+02 -0.90963961543E+01  0.53639731412E+02  0.10566000000E+00 0. -1.
         23    2    1    0    0    0 -0.97219283744E+01  0.22354948829E+02  0.46686331270E+01  0.10017952934E+03  0.97056078301E+02 0.  0.
         13    1    3    3    0    0 -0.38721067118E+02 -0.21843638829E+02  0.13765029281E+02  0.46539797929E+02  0.10566000000E+00 0.  1.
         22    1    1    0    0    0  0.97219283744E+01 -0.22354948829E+02 -0.46686331270E+01  0.24820470660E+02  0.00000000000E+00 0. -1.
</event>
<event>
 5    1  0.1324057E-009  0.9118800E+02  0.7818608E-02  0.1130116E+00
         25   -1    0    0    0    0  0.00000000000E+00  0.00000000000E+00  0.99999998245E-14  0.12500000000E+03  0.12500000000E+03 0.  0.
        -13    1    3    3    0    0 -0.23565317732E+02  0.75820963324E+01  0.51372079620E+01  0.25282690804E+02  0.10566000000E+00 0. -1.
         23    2    1    0    0    0  0.21104384178E+02 -0.29798620397E+02  0.16993798643E+02  0.84724175969E+02  0.74538875710E+02 0.  0.
         13    1    3    3    0    0  0.44669701910E+02 -0.37380716729E+02  0.11856590681E+02  0.59441485164E+02  0.10566000000E+00 0.  1.
         22    1    1    0    0    0 -0.21104384178E+02  0.29798620397E+02 -0.16993798643E+02  0.40275824031E+02  0.00000000000E+00 0.  1.
</event>
<event>
 5    1  0.1324057E-009  0.9118800E+02  0.7818608E-02  0.1130116E+00
         25   -1    0    0    0    0  0.00000000000E+00  0.00000000000E+00  0.99999998245E-14  0.12500000000E+03  0.12500000000E+03 0.  0.
        -13    1    3    3    0    0  0.20134395878E+02 -0.28810790142E+02 -0.21952758000E+02  0.41441407720E+02  0.10566000000E+00 0. -1.
         23    2    1    0    0    0  0.27833390623E+02  0.38092973464E+01  0.16475433809E+02  0.92432404156E+02  0.86504919161E+02 0.  0.
         13    1    3    3    0    0  0.76989947453E+01  0.32620087489E+02  0.38428191809E+02  0.50990996436E+02  0.10566000000E+00 0.  1.
         22    1    1    0    0    0 -0.27833390623E+02 -0.38092973464E+01 -0.16475433809E+02  0.32567595844E+02  0.00000000000E+00 0.  1.
</event>
<event>
 5    1  0.1324057E-009  0.9118800E+02  0.7818608E-02  0.1130116E+00
         25   -1    0    0    0    0  0.00000000000E+00  0.00000000000E+00  0.99999998245E-14  0.12500000000E+03  0.12500000000E+03 0.  0.
        -13    1    3    3    0    0  0.58985213568E+02  0.14187303647E+02 -0.11444888216E+02  0.61737603086E+02  0.10566000000E+00 0.  1.
         23    2    1    0    0    0  0.26321810486E+02  0.12944425035E+02 -0.28919089994E+01  0.95525282285E+02  0.90864297561E+02 0.  0.
         13    1    3    3    0    0 -0.32663403082E+02 -0.12428786126E+01  0.85529792165E+01  0.33787679199E+02  0.10566000000E+00 0. -1.
         22    1    1    0    0    0 -0.26321810486E+02 -0.12944425035E+02  0.28919089994E+01  0.29474717715E+02  0.00000000000E+00 0.  1.
</event>
<event>
 5    1  0.1324057E-009  0.9118800E+02  0.7818608E-02  0.1130116E+00
         25   -1    0    0    0    0  0.00000000000E+00  0.00000000000E+00  0.99999998245E-14  0.12500000000E+03  0.12500000000E+03 0.  0.
        -13    1    3    3    0    0  0.44030213165E+02 -0.32873871050E+02 -0.22455480625E+01  0.54994588091E+02  0.10566000000E+00 0. -1.
         23    2    1    0    0    0  0.11464890071E+02 -0.18136410818E+02 -0.20668646658E+02  0.95207953135E+02  0.90426701167E+02 0.  0.
         13    1    3    3    0    0 -0.32565323094E+02  0.14737460231E+02 -0.18423098595E+02  0.40213365044E+02  0.10566000000E+00 0.  1.
         22    1    1    0    0    0 -0.11464890071E+02  0.18136410818E+02  0.20668646658E+02  0.29792046865E+02  0.00000000000E+00 0.  1.
</event>
<event>
 5    1  0.1324057E-009  0.9118800E+02  0.7818608E-02  0.1130116E+00
         25   -1    0    0    0    0  0.00000000000E+00  0.00000000000E+00  0.99999998245E-14  0.12500000000E+03  0.12500000000E+03 0.  0.
        -13    1    3    3    0    0 -0.29740306622E+02  0.26101136789E+02 -0.37013740904E+01  0.39742502611E+02  0.10566000000E+00 0.  1.
         23    2    1    0    0    0  0.91482431607E+01 -0.84355152846E+01 -0.25879392083E+02  0.96284303845E+02  0.91902535119E+02 0.  0.
         13    1    3    3    0    0  0.38888549782E+02 -0.34536652074E+02 -0.22178017993E+02  0.56541801234E+02  0.10566000000E+00 0. -1.
         22    1    1    0    0    0 -0.91482431607E+01  0.84355152846E+01  0.25879392083E+02  0.28715696155E+02  0.00000000000E+00 0. -1.
</event>
<event>
 5    1  0.1324057E-009  0.9118800E+02  0.7818608E-02  0.1130116E+00
         25   -1    0    0    0    0  0.00000000000E+00  0.00000000000E+00  0.99999998245E-14  0.12500000000E+03  0.12500000000E+03 0.  0.
        -13    1    3    3    0    0 -0.51135176872E+02  0.22109699885E+01  0.23393598677E+02  0.56275805859E+02  0.10566000000E+00 0.  1.
         23    2    1    0    0    0 -0.25035114097E+02  0.15693735859E+02 -0.23807331344E+01  0.95356819110E+02  0.90632250206E+02 0.  0.
         13    1    3    3    0    0  0.26100062775E+02  0.13482765870E+02 -0.25774331811E+02  0.39081013251E+02  0.10566000000E+00 0. -1.
         22    1    1    0    0    0  0.25035114097E+02 -0.15693735859E+02  0.23807331344E+01  0.29643180890E+02  0.00000000000E+00 0.  1.
</event>
<event>
 5    1  0.1324057E-009  0.9118800E+02  0.7818608E-02  0.1130116E+00
         25   -1    0    0    0    0  0.00000000000E+00  0.00000000000E+00  0.99999998245E-14  0.12500000000E+03  0.12500000000E+03 0.  0.
        -13    1    3    3    0    0 -0.22325101399E+02  0.34276114605E+02  0.14559178974E+02  0.43419385548E+02  0.10566000000E+00 0.  1.
         23    2    1    0    0    0 -0.32256893907E+00  0.80578645026E+01 -0.26746977989E+02  0.97063750026E+02  0.92956643154E+02 0.  0.
         13    1    3    3    0    0  0.22002532460E+02 -0.26218250103E+02 -0.41306156964E+02  0.53644364478E+02  0.10566000000E+00 0. -1.
         22    1    1    0    0    0  0.32256893907E+00 -0.80578645026E+01  0.26746977989E+02  0.27936249974E+02  0.00000000000E+00 0. -1.
</event>
<event>
 5    1  0.1324057E-009  0.9118800E+02  0.7818608E-02  0.1130116E+00
         25   -1    0    0    0    0  0.00000000000E+00  0.00000000000E+00  0.99999998245E-14  0.12500000000E+03  0.12500000000E+03 0.  0.
        -13    1    3    3    0    0  0.50643812472E+02  0.25651897227E+02  0.77142995033E+01  0.57291684859E+02  0.10566000000E+00 0.  1.
         23    2    1    0    0    0  0.25004340582E+02 -0.26350074169E+01  0.14362726125E+02  0.96044029739E+02  0.91575146382E+02 0.  0.
         13    1    3    3    0    0 -0.25639471891E+02 -0.28286904644E+02  0.66484266213E+01  0.38752344881E+02  0.10566000000E+00 0. -1.
         22    1    1    0    0    0 -0.25004340582E+02  0.26350074169E+01 -0.14362726125E+02  0.28955970261E+02  0.00000000000E+00 0.  1.
</event>
<event>
 5    1  0.1324057E-009  0.9118800E+02  0.7818608E-02  0.1130116E+00
         25   -1    0    0    0    0  0.00000000000E+00  0.00000000000E+00  0.99999998245E-14  0.12500000000E+03  0.12500000000E+03 0.  0.
        -13    1    3    3    0    0  0.22916023738E+02  0.34237112795E+02 -0.18403240324E+02  0.45122216867E+02  0.10566000000E+00 0.  1.
         23    2    1    0    0    0 -0.53165634970E+01 -0.32120607142E+01 -0.30757725824E+02  0.93621330823E+02  0.88206194259E+02 0.  0.
         13    1    3    3    0    0 -0.28232587235E+02 -0.37449173509E+02 -0.12354485500E+02  0.48499113956E+02  0.10566000000E+00 0. -1.
         22    1    1    0    0    0  0.53165634970E+01  0.32120607142E+01  0.30757725824E+02  0.31378669177E+02  0.00000000000E+00 0. -1.
</event>
<event>
 5    1  0.1324057E-009  0.9118800E+02  0.7818608E-02  0.1130116E+00
         25   -1    0    0    0    0  0.00000000000E+00  0.00000000000E+00  0.99999998245E-14  0.12500000000E+03  0.12500000000E+03 0.  0.
        -13    1    3    3    0    0 -0.47400165231E+02 -0.36612382073E+02 -0.13613866979E+02  0.61421419091E+02  0.10566000000E+00 0. -1.
         23    2    1    0    0    0 -0.21470136102E+02 -0.22042710328E+02  0.22937746630E+00  0.94228252619E+02  0.89062130868E+02 0.  0.
         13    1    3    3    0    0  0.25930029129E+02  0.14569671744E+02  0.13843244445E+02  0.32806833528E+02  0.10566000000E+00 0.  1.
         22    1    1    0    0    0  0.21470136102E+02  0.22042710328E+02 -0.22937746630E+00  0.30771747381E+02  0.00000000000E+00 0. -1.
</event>
<event>
 5    1  0.1324057E-009  0.9118800E+02  0.7818608E-02  0.1130116E+00
         25   -1    0    0    0    0  0.00000000000E+00  0.00000000000E+00  0.99999998245E-14  0.12500000000E+03  0.12500000000E+03 0.  0.
        -13    1    3    3    0    0 -0.36391842807E+02 -0.25752148698E+02 -0.25267423876E+02  0.51244446127E+02  0.10566000000E+00 0.  1.
         23    2    1    0    0    0 -0.91708540346E+01 -0.24897601626E+02  0.10726624664E+02  0.96380852439E+02  0.92033760706E+02 0.  0.
         13    1    3    3    0    0  0.27220988772E+02  0.85454707255E+00  0.35994048540E+02  0.45136406312E+02  0.10566000000E+00 0. -1.
         22    1    1    0    0    0  0.91708540346E+01  0.24897601626E+02 -0.10726624664E+02  0.28619147561E+02  0.00000000000E+00 0.  1.
</event>
<event>
 5    1  0.1324057E-009  0.9118800E+02  0.7818608E-02  0.1130116E+00
         25   -1    0    0    0    0  0.00000000000E+00  0.00000000000E+00  0.99999998245E-14  0.12500000000E+03  0.12500000000E+03 0.  0.
        -13    1    3    3    0    0 -0.13125851926E+02 -0.34393806898E+02  0.29311343925E+01  0.36929996677E+02  0.10566000000E+00 0. -1.
         23    2    1    0    0    0  0.28532636638E+02  0.19643734506E+01  0.13740976494E+02  0.93270131555E+02  0.87707085738E+02 0.  0.
         13    1    3    3    0    0  0.41658488564E+02  0.36358180349E+02  0.10809842101E+02  0.56340134877E+02  0.10566000000E+00 0.  1.
         22    1    1    0    0    0 -0.28532636638E+02 -0.19643734506E+01 -0.13740976494E+02  0.31729868445E+02  0.00000000000E+00 0.  1.
</event>
<event>
 5    1  0.1324057E-009  0.9118800E+02  0.7818608E-02  0.1130116E+00
         25   -1    0    0    0    0  0.00000000000E+00  0.00000000000E+00  0.99999998245E-14  0.12500000000E+03  0.12500000000E+03 0.  0.
        -13    1    3    3    0    0 -0.20932043237E+02 -0.52762441613E+02  0.58104142140E+01  0.57059598284E+02  0.10566000000E+00 0. -1.
         23    2    1    0    0    0 -0.22506605383E+02 -0.10559145637E+02  0.65215526023E+01  0.99298375717E+02  0.95914513652E+02 0.  0.
         13    1    3    3    0    0 -0.15745621465E+01  0.42203295976E+02  0.71113838829E+00  0.42238777433E+02  0.10566000000E+00 0.  1.
         22    1    1    0    0    0  0.22506605383E+02  0.10559145637E+02 -0.65215526023E+01  0.25701624283E+02  0.00000000000E+00 0. -1.
</event>
<event>
 4    1  0.1324057E-009  0.9118800E+02  0.7818608E-02  0.1130116E+00
         25   -1    0    0    0    0  0.00000000000E+00  0.00000000000E+00  0.99999998245E-14  0.12500000000E+03  0.12500000000E+03 0.  0.
        -13    1    1    0    0    0 -0.32716142159E+02  0.16485981835E+02 -0.31374634574E+02  0.48233934253E+02  0.10566000000E+00 0.  1.
         13    1    1    0    0    0 -0.12734305340E+02 -0.33333416886E+01 -0.78322392949E+01  0.15317598888E+02  0.10566000000E+00 0. -1.
         22    1    1    0    0    0  0.45450447499E+02 -0.13152640146E+02  0.39206873869E+02  0.61448466858E+02  0.00000000000E+00 0.  1.
</event>
<event>
 5    1  0.1324057E-009  0.9118800E+02  0.7818608E-02  0.1130116E+00
         25   -1    0    0    0    0  0.00000000000E+00  0.00000000000E+00  0.99999998245E-14  0.12500000000E+03  0.12500000000E+03 0.  0.
        -13    1    3    3    0    0 -0.87757675046E+01 -0.50346502505E+01  0.33993911325E+02  0.35467717289E+02  0.10566000000E+00 0.  1.
         23    2    1    0    0    0  0.31034475605E+02  0.39071281318E+01 -0.66089410246E+01  0.93029976106E+02  0.87364146115E+02 0.  0.
         13    1    3    3    0    0  0.39810243110E+02  0.89417783823E+01 -0.40602852350E+02  0.57562258817E+02  0.10566000000E+00 0. -1.
         22    1    1    0    0    0 -0.31034475605E+02 -0.39071281318E+01  0.66089410246E+01  0.31970023894E+02  0.00000000000E+00 0. -1.
</event>
<event>
 5    1  0.1324057E-009  0.9118800E+02  0.7818608E-02  0.1130116E+00
         25   -1    0    0    0    0  0.00000000000E+00  0.00000000000E+00  0.99999998245E-14  0.12500000000E+03  0.12500000000E+03 0.  0.
        -13    1    3    3    0    0  0.26432241410E+02 -0.31279360902E+02  0.31083410854E+02  0.51412560710E+02  0.10566000000E+00 0. -1.
         23    2    1    0    0    0  0.30043692912E+02 -0.70444506777E+00  0.30465923704E+02  0.82206399617E+02  0.70189742158E+02 0.  0.
         13    1    3    3    0    0  0.36114515014E+01  0.30574915834E+02 -0.61748714969E+00  0.30793838907E+02  0.10566000000E+00 0.  1.
         22    1    1    0    0    0 -0.30043692912E+02  0.70444506777E+00 -0.30465923704E+02  0.42793600383E+02  0.00000000000E+00 0. -1.
</event>
<event>
 5    1  0.1324057E-009  0.9118800E+02  0.7818608E-02  0.1130116E+00
         25   -1    0    0    0    0  0.00000000000E+00  0.00000000000E+00  0.99999998245E-14  0.12500000000E+03  0.12500000000E+03 0.  0.
        -13    1    3    3    0    0 -0.26176769379E+02  0.29776216945E+02  0.36374982989E+02  0.53805175421E+02  0.10566000000E+00 0. -1.
         23    2    1    0    0    0  0.77196027608E+01  0.17418787405E+02  0.28474983022E+02  0.90738781698E+02  0.84021993695E+02 0.  0.
         13    1    3    3    0    0  0.33896372140E+02 -0.12357429540E+02 -0.78999999669E+01  0.36933606277E+02  0.10566000000E+00 0.  1.
         22    1    1    0    0    0 -0.77196027608E+01 -0.17418787405E+02 -0.28474983022E+02  0.34261218302E+02  0.00000000000E+00 0. -1.
</event>
<event>
 5    1  0.1324057E-009  0.9118800E+02  0.7818608E-02  0.1130116E+00
         25   -1    0    0    0    0  0.00000000000E+00  0.00000000000E+00  0.99999998245E-14  0.12500000000E+03  0.12500000000E+03 0.  0.
        -13    1    3    3    0    0 -0.32941450408E+02  0.37540682560E+02  0.30828937252E+02  0.58693070615E+02  0.10566000000E+00 0. -1.
         23    2    1    0    0    0 -0.25504995336E+02  0.59321904228E+01  0.12449747252E+02  0.96005312953E+02  0.91522282742E+02 0.  0.
         13    1    3    3    0    0  0.74364550712E+01 -0.31608492137E+02 -0.18379190000E+02  0.37312242339E+02  0.10566000000E+00 0.  1.
         22    1    1    0    0    0  0.25504995336E+02 -0.59321904228E+01 -0.12449747252E+02  0.28994687047E+02  0.00000000000E+00 0. -1.
</event>
<event>
 5    1  0.1324057E-009  0.9118800E+02  0.7818608E-02  0.1130116E+00
         25   -1    0    0    0    0  0.00000000000E+00  0.00000000000E+00  0.99999998245E-14  0.12500000000E+03  0.12500000000E+03 0.  0.
        -13    1    3    3    0    0  0.23249610163E+02  0.39288761911E+02 -0.11082278256E+01  0.45666076229E+02  0.10566000000E+00 0.  1.
         23    2    1    0    0    0  0.88332475552E+01 -0.12253275890E+01  0.26682130068E+02  0.96867034372E+02  0.92691739615E+02 0.  0.
         13    1    3    3    0    0 -0.14416362608E+02 -0.40514089500E+02  0.27790357894E+02  0.51200958143E+02  0.10566000000E+00 0. -1.
         22    1    1    0    0    0 -0.88332475552E+01  0.12253275890E+01 -0.26682130068E+02  0.28132965628E+02  0.00000000000E+00 0. -1.
</event>
<event>
 5    1  0.1324057E-009  0.9118800E+02  0.7818608E-02  0.1130116E+00
         25   -1    0    0    0    0  0.00000000000E+00  0.00000000000E+00  0.99999998245E-14  0.12500000000E+03  0.12500000000E+03 0.  0.
        -13    1    3    3    0    0  0.20529076288E+02 -0.31661037138E+02 -0.19754086366E+02  0.42592245046E+02  0.10566000000E+00 0.  1.
         23    2    1    0    0    0 -0.26317269953E+02 -0.83748426777E+01 -0.51615681831E+01  0.96904119986E+02  0.92741738158E+02 0.  0.
         13    1    3    3    0    0 -0.46846346240E+02  0.23286194461E+02  0.14592518183E+02  0.54311874940E+02  0.10566000000E+00 0. -1.
         22    1    1    0    0    0  0.26317269953E+02  0.83748426777E+01  0.51615681831E+01  0.28095880014E+02  0.00000000000E+00 0. -1.
</event>
<event>
 5    1  0.1324057E-009  0.9118800E+02  0.7818608E-02  0.1130116E+00
         25   -1    0    0    0    0  0.00000000000E+00  0.00000000000E+00  0.99999998245E-14  0.12500000000E+03  0.12500000000E+03 0.  0.
        -13    1    3    3    0    0  0.16747218204E+02  0.22510623154E+02 -0.77408280068E+01  0.29105481522E+02  0.10566000000E+00 0. -1.
         23    2    1    0    0    0 -0.29358667221E+02 -0.13703390790E+02  0.11203977205E+02  0.90718177334E+02  0.83991334871E+02 0.  0.
         13    1    3    3    0    0 -0.46105885424E+02 -0.36214013944E+02  0.18944805211E+02  0.61612695812E+02  0.10566000000E+00 0.  1.
         22    1    1    0    0    0  0.29358667221E+02  0.13703390790E+02 -0.11203977205E+02  0.34281822666E+02  0.00000000000E+00 0.  1.
</event>
<event>
 5    1  0.1324057E-009  0.9118800E+02  0.7818608E-02  0.1130116E+00
         25   -1    0    0    0    0  0.00000000000E+00  0.00000000000E+00  0.99999998245E-14  0.12500000000E+03  0.12500000000E+03 0.  0.
        -13    1    3    3    0    0  0.41788315372E+02 -0.24624516141E+02  0.35108019329E+02  0.59876658908E+02  0.10566000000E+00 0. -1.
         23    2    1    0    0    0  0.13667411331E+02 -0.22892162315E+02  0.17789827909E+02  0.92948054584E+02  0.87246854648E+02 0.  0.
         13    1    3    3    0    0 -0.28120904041E+02  0.17323538264E+01 -0.17318191420E+02  0.33071395675E+02  0.10566000000E+00 0.  1.
         22    1    1    0    0    0 -0.13667411331E+02  0.22892162315E+02 -0.17789827909E+02  0.32051945416E+02  0.00000000000E+00 0. -1.
</event>
<event>
 5    1  0.1324057E-009  0.9118800E+02  0.7818608E-02  0.1130116E+00
         25   -1    0    0    0    0  0.00000000000E+00  0.00000000000E+00  0.99999998245E-14  0.12500000000E+03  0.12500000000E+03 0.  0.
        -13    1    3    3    0    0  0.23288402286E+02 -0.13682624982E+02  0.37293281901E+02  0.46047409769E+02  0.10566000000E+00 0.  1.
         23    2    1    0    0    0 -0.19880090662E+02  0.63395948229E+01  0.18167165354E+02  0.97333154061E+02  0.93318211059E+02 0.  0.
         13    1    3    3    0    0 -0.43168492948E+02  0.20022219805E+02 -0.19126116548E+02  0.51285744292E+02  0.10566000000E+00 0. -1.
         22    1    1    0    0    0  0.19880090662E+02 -0.63395948229E+01 -0.18167165354E+02  0.27666845939E+02  0.00000000000E+00 0. -1.
</event>
<event>
 5    1  0.1324057E-009  0.9118800E+02  0.7818608E-02  0.1130116E+00
         25   -1    0    0    0    0  0.00000000000E+00  0.00000000000E+00  0.99999998245E-14  0.12500000000E+03  0.12500000000E+03 0.  0.
        -13    1    3    3    0    0 -0.17025824914E+02 -0.39497031084E+02  0.97374465219E+01  0.44099015945E+02  0.10566000000E+00 0.  1.
         23    2    1    0    0    0 -0.19853137962E+02  0.95244290705E+01  0.21103650573E+02  0.94500395026E+02  0.89443271165E+02 0.  0.
         13    1    3    3    0    0 -0.28273130476E+01  0.49021460155E+02  0.11366204051E+02  0.50401379082E+02  0.10566000000E+00 0. -1.
         22    1    1    0    0    0  0.19853137962E+02 -0.95244290705E+01 -0.21103650573E+02  0.30499604974E+02  0.00000000000E+00 0. -1.
</event>
<event>
 5    1  0.1324057E-009  0.9118800E+02  0.7818608E-02  0.1130116E+00
         25   -1    0    0    0    0  0.00000000000E+00  0.00000000000E+00  0.99999998245E-14  0.12500000000E+03  0.12500000000E+03 0.  0.
        -13    1    3    3    0    0  0.51095085360E+02 -0.17158949643E+02 -0.15208960485E+02  0.56004115419E+02  0.10566000000E+00 0.  1.
         23    2    1    0    0    0  0.21719979199E+02 -0.16105041965E+02  0.11402261376E+02  0.95654788506E+02  0.91042282082E+02 0.  0.
         13    1    3    3    0    0 -0.29375106160E+02  0.10539076781E+01  0.26611221861E+02  0.39650673088E+02  0.10566000000E+00 0. -1.
         22    1    1    0    0    0 -0.21719979199E+02  0.16105041965E+02 -0.11402261376E+02  0.29345211494E+02  0.00000000000E+00 0.  1.
</event>
<event>
 5    1  0.1324057E-009  0.9118800E+02  0.7818608E-02  0.1130116E+00
         25   -1    0    0    0    0  0.00000000000E+00  0.00000000000E+00  0.99999998245E-14  0.12500000000E+03  0.12500000000E+03 0.  0.
        -13    1    3    3    0    0 -0.69695185127E+01  0.26377217707E+02 -0.29150808680E+02  0.39926339839E+02  0.10566000000E+00 0.  1.
         23    2    1    0    0    0  0.67730676968E+01 -0.24559656332E+02 -0.17880674338E+02  0.93874934860E+02  0.88564855982E+02 0.  0.
         13    1    3    3    0    0  0.13742586210E+02 -0.50936874039E+02  0.11270134342E+02  0.53948595021E+02  0.10566000000E+00 0. -1.
         22    1    1    0    0    0 -0.67730676968E+01  0.24559656332E+02  0.17880674338E+02  0.31125065140E+02  0.00000000000E+00 0.  1.
</event>
<event>
 5    1  0.1324057E-009  0.9118800E+02  0.7818608E-02  0.1130116E+00
         25   -1    0    0    0    0  0.00000000000E+00  0.00000000000E+00  0.99999998245E-14  0.12500000000E+03  0.12500000000E+03 0.  0.
        -13    1    3    3    0    0  0.45945282532E+02  0.23391515143E+02  0.21131937420E+02  0.55719852035E+02  0.10566000000E+00 0.  1.
         23    2    1    0    0    0  0.23650265454E+02  0.99464025510E+01 -0.11007599865E+02  0.97081668486E+02  0.92980735217E+02 0.  0.
         13    1    3    3    0    0 -0.22295017078E+02 -0.13445112592E+02 -0.32139537285E+02  0.41361816450E+02  0.10566000000E+00 0. -1.
         22    1    1    0    0    0 -0.23650265454E+02 -0.99464025510E+01  0.11007599865E+02  0.27918331514E+02  0.00000000000E+00 0.  1.
</event>
<event>
 5    1  0.1324057E-009  0.9118800E+02  0.7818608E-02  0.1130116E+00
         25   -1    0    0    0    0  0.00000000000E+00  0.00000000000E+00  0.99999998245E-14  0.12500000000E+03  0.12500000000E+03 0.  0.
        -13    1    3    3    0    0 -0.43231136278E+02  0.54470838282E+01 -0.88794260861E+01  0.44468609578E+02  0.10566000000E+00 0.  1.
         23    2    1    0    0    0  0.31058955044E+00 -0.13693841497E+02 -0.26482541370E+02  0.95184856897E+02  0.90394768788E+02 0.  0.
         13    1    3    3    0    0  0.43541725828E+02 -0.19140925325E+02 -0.17603115284E+02  0.50716247319E+02  0.10566000000E+00 0. -1.
         22    1    1    0    0    0 -0.31058955044E+00  0.13693841497E+02  0.26482541370E+02  0.29815143103E+02  0.00000000000E+00 0.  1.
</event>
<event>
 5    1  0.1324057E-009  0.9118800E+02  0.7818608E-02  0.1130116E+00
         25   -1    0    0    0    0  0.00000000000E+00  0.00000000000E+00  0.99999998245E-14  0.12500000000E+03  0.12500000000E+03 0.  0.
        -13    1    3    3    0    0  0.18772927271E+01 -0.28947857717E+02 -0.46760303279E+02  0.55027627799E+02  0.10566000000E+00 0. -1.
         23    2    1    0    0    0 -0.10453611975E+02 -0.25934287891E+02 -0.78487578569E+01  0.95957474427E+02  0.91456922137E+02 0.  0.
         13    1    3    3    0    0 -0.12330904702E+02  0.30135698256E+01  0.38911545422E+02  0.40929846628E+02  0.10566000000E+00 0.  1.
         22    1    1    0    0    0  0.10453611975E+02  0.25934287891E+02  0.78487578569E+01  0.29042525573E+02  0.00000000000E+00 0. -1.
</event>
<event>
 5    1  0.1324057E-009  0.9118800E+02  0.7818608E-02  0.1130116E+00
         25   -1    0    0    0    0  0.00000000000E+00  0.00000000000E+00  0.99999998245E-14  0.12500000000E+03  0.12500000000E+03 0.  0.
        -13    1    3    3    0    0  0.51079209812E+02  0.31656000778E+02 -0.45214180805E+01  0.60263110157E+02  0.10566000000E+00 0.  1.
         23    2    1    0    0    0  0.21840131355E+02  0.16052502097E+02  0.95405126228E+01  0.96265081481E+02  0.91876386358E+02 0.  0.
         13    1    3    3    0    0 -0.29239078457E+02 -0.15603498681E+02  0.14061930703E+02  0.36001971324E+02  0.10566000000E+00 0. -1.
         22    1    1    0    0    0 -0.21840131355E+02 -0.16052502097E+02 -0.95405126228E+01  0.28734918519E+02  0.00000000000E+00 0.  1.
</event>
<event>
 5    1  0.1324057E-009  0.9118800E+02  0.7818608E-02  0.1130116E+00
         25   -1    0    0    0    0  0.00000000000E+00  0.00000000000E+00  0.99999998245E-14  0.12500000000E+03  0.12500000000E+03 0.  0.
        -13    1    3    3    0    0  0.52791713237E+02  0.24447892234E+02 -0.17055234531E+00  0.58178214766E+02  0.10566000000E+00 0.  1.
         23    2    1    0    0    0  0.25000774503E+02  0.46963313692E+01 -0.15121050999E+02  0.95407088055E+02  0.90701554638E+02 0.  0.
         13    1    3    3    0    0 -0.27790938734E+02 -0.19751560865E+02 -0.14950498654E+02  0.37228873289E+02  0.10566000000E+00 0. -1.
         22    1    1    0    0    0 -0.25000774503E+02 -0.46963313692E+01  0.15121050999E+02  0.29592911945E+02  0.00000000000E+00 0.  1.
</event>
<event>
 5    1  0.1324057E-009  0.9118800E+02  0.7818608E-02  0.1130116E+00
         25   -1    0    0    0    0  0.00000000000E+00  0.00000000000E+00  0.99999998245E-14  0.12500000000E+03  0.12500000000E+03 0.  0.
        -13    1    3    3    0    0  0.76531423302E+00 -0.34973519702E+02 -0.32316742602E+02  0.47624739397E+02  0.10566000000E+00 0.  1.
         23    2    1    0    0    0  0.80094725889E+01 -0.23868886250E+02  0.14269103452E+02  0.96060706725E+02  0.91597907625E+02 0.  0.
         13    1    3    3    0    0  0.72441583559E+01  0.11104633452E+02  0.46585846054E+02  0.48435967328E+02  0.10566000000E+00 0. -1.
         22    1    1    0    0    0 -0.80094725889E+01  0.23868886250E+02 -0.14269103452E+02  0.28939293275E+02  0.00000000000E+00 0. -1.
</event>
<event>
 5    1  0.1324057E-009  0.9118800E+02  0.7818608E-02  0.1130116E+00
         25   -1    0    0    0    0  0.00000000000E+00  0.00000000000E+00  0.99999998245E-14  0.12500000000E+03  0.12500000000E+03 0.  0.
        -13    1    3    3    0    0  0.15467977020E+02  0.88606263700E+01  0.52352132185E+02  0.55303941280E+02  0.10566000000E+00 0.  1.
         23    2    1    0    0    0 -0.49276052944E+01  0.21263301781E+02  0.20980047757E+02  0.94725064815E+02  0.89756705620E+02 0.  0.
         13    1    3    3    0    0 -0.20395582315E+02  0.12402675411E+02 -0.31372084428E+02  0.39421123535E+02  0.10566000000E+00 0. -1.
         22    1    1    0    0    0  0.49276052944E+01 -0.21263301781E+02 -0.20980047757E+02  0.30274935185E+02  0.00000000000E+00 0.  1.
</event>
<event>
 5    1  0.1324057E-009  0.9118800E+02  0.7818608E-02  0.1130116E+00
         25   -1    0    0    0    0  0.00000000000E+00  0.00000000000E+00  0.99999998245E-14  0.12500000000E+03  0.12500000000E+03 0.  0.
        -13    1    3    3    0    0  0.47219339744E+01  0.44434412315E+01 -0.40306949612E+02  0.40825264010E+02  0.10566000000E+00 0.  1.
         23    2    1    0    0    0 -0.27353467004E+01  0.28006323289E+02  0.85604994166E+01  0.95587104597E+02  0.90949305380E+02 0.  0.
         13    1    3    3    0    0 -0.74572806748E+01  0.23562882058E+02  0.48867449028E+02  0.54761840587E+02  0.10566000000E+00 0. -1.
         22    1    1    0    0    0  0.27353467004E+01 -0.28006323289E+02 -0.85604994166E+01  0.29412895403E+02  0.00000000000E+00 0. -1.
</event>
<event>
 5    1  0.1324057E-009  0.9118800E+02  0.7818608E-02  0.1130116E+00
         25   -1    0    0    0    0  0.00000000000E+00  0.00000000000E+00  0.99999998245E-14  0.12500000000E+03  0.12500000000E+03 0.  0.
        -13    1    3    3    0    0 -0.39857970822E+02  0.25782991106E+02  0.16769228603E+02  0.50345195008E+02  0.10566000000E+00 0.  1.
         23    2    1    0    0    0 -0.19121706485E+02 -0.13823073215E+02  0.18396458732E+02  0.95080997578E+02  0.90251035421E+02 0.  0.
         13    1    3    3    0    0  0.20736264337E+02 -0.39606064321E+02  0.16272301290E+01  0.44735802570E+02  0.10566000000E+00 0. -1.
         22    1    1    0    0    0  0.19121706485E+02  0.13823073215E+02 -0.18396458732E+02  0.29919002422E+02  0.00000000000E+00 0. -1.
</event>
<event>
 5    1  0.1324057E-009  0.9118800E+02  0.7818608E-02  0.1130116E+00
         25   -1    0    0    0    0  0.00000000000E+00  0.00000000000E+00  0.99999998245E-14  0.12500000000E+03  0.12500000000E+03 0.  0.
        -13    1    3    3    0    0  0.24929308711E+02 -0.89991526981E+01 -0.15969121456E+02  0.30943160573E+02  0.10566000000E+00 0.  1.
         23    2    1    0    0    0 -0.22367879677E+02 -0.22553715118E+02  0.15813262732E+02  0.89516885916E+02  0.82184070713E+02 0.  0.
         13    1    3    3    0    0 -0.47297188389E+02 -0.13554562420E+02  0.31782384189E+02  0.58573725343E+02  0.10566000000E+00 0. -1.
         22    1    1    0    0    0  0.22367879677E+02  0.22553715118E+02 -0.15813262732E+02  0.35483114084E+02  0.00000000000E+00 0. -1.
</event>
<event>
 5    1  0.1324057E-009  0.9118800E+02  0.7818608E-02  0.1130116E+00
         25   -1    0    0    0    0  0.00000000000E+00  0.00000000000E+00  0.99999998245E-14  0.12500000000E+03  0.12500000000E+03 0.  0.
        -13    1    3    3    0    0 -0.33591903952E+02  0.14099078857E+01 -0.42770566417E+02  0.54403459145E+02  0.10566000000E+00 0. -1.
         23    2    1    0    0    0  0.27301644244E+01 -0.17791923551E+01 -0.32572747747E+02  0.92264648787E+02  0.86262171297E+02 0.  0.
         13    1    3    3    0    0  0.36322068376E+02 -0.31891002407E+01  0.10197818669E+02  0.37861189642E+02  0.10566000000E+00 0.  1.
         22    1    1    0    0    0 -0.27301644244E+01  0.17791923551E+01  0.32572747747E+02  0.32735351213E+02  0.00000000000E+00 0. -1.
</event>
<event>
 5    1  0.1324057E-009  0.9118800E+02  0.7818608E-02  0.1130116E+00
         25   -1    0    0    0    0  0.00000000000E+00  0.00000000000E+00  0.99999998245E-14  0.12500000000E+03  0.12500000000E+03 0.  0.
        -13    1    3    3    0    0  0.61102670389E+02 -0.64589537119E+01 -0.10198773498E+02  0.62283870759E+02  0.10566000000E+00 0. -1.
         23    2    1    0    0    0  0.27960155489E+02 -0.42117436711E+01 -0.81847104319E+01  0.95563652323E+02  0.90917067048E+02 0.  0.
         13    1    3    3    0    0 -0.33142514900E+02  0.22472100407E+01  0.20140630659E+01  0.33279781564E+02  0.10566000000E+00 0.  1.
         22    1    1    0    0    0 -0.27960155489E+02  0.42117436711E+01  0.81847104319E+01  0.29436347677E+02  0.00000000000E+00 0. -1.
</event>
<event>
 5    1  0.1324057E-009  0.9118800E+02  0.7818608E-02  0.1130116E+00
         25   -1    0    0    0    0  0.00000000000E+00  0.00000000000E+00  0.99999998245E-14  0.12500000000E+03  0.12500000000E+03 0.  0.
        -13    1    3    3    0    0  0.14541022701E+02 -0.21328204801E+02 -0.26428733067E+02  0.36943507640E+02  0.10566000000E+00 0. -1.
         23    2    1    0    0    0  0.30158523207E+02 -0.85855074034E+01  0.20170930737E+02  0.87715768666E+02  0.79397368763E+02 0.  0.
         13    1    3    3    0    0  0.15617500506E+02  0.12742697397E+02  0.46599663803E+02  0.50772261025E+02  0.10566000000E+00 0.  1.
         22    1    1    0    0    0 -0.30158523207E+02  0.85855074034E+01 -0.20170930737E+02  0.37284231334E+02  0.00000000000E+00 0. -1.
</event>
<event>
 5    1  0.1324057E-009  0.9118800E+02  0.7818608E-02  0.1130116E+00
         25   -1    0    0    0    0  0.00000000000E+00  0.00000000000E+00  0.99999998245E-14  0.12500000000E+03  0.12500000000E+03 0.  0.
        -13    1    3    3    0    0 -0.25807362963E+02  0.46207634943E+02  0.27070162166E+02  0.59447206443E+02  0.10566000000E+00 0.  1.
         23    2    1    0    0    0 -0.12651154366E+02  0.15352512137E+02  0.24995466705E+02  0.93054347846E+02  0.87399010072E+02 0.  0.
         13    1    3    3    0    0  0.13156208597E+02 -0.30855122806E+02 -0.20746954615E+01  0.33607141403E+02  0.10566000000E+00 0. -1.
         22    1    1    0    0    0  0.12651154366E+02 -0.15352512137E+02 -0.24995466705E+02  0.31945652154E+02  0.00000000000E+00 0.  1.
</event>
<event>
 5    1  0.1324057E-009  0.9118800E+02  0.7818608E-02  0.1130116E+00
         25   -1    0    0    0    0  0.00000000000E+00  0.00000000000E+00  0.99999998245E-14  0.12500000000E+03  0.12500000000E+03 0.  0.
        -13    1    3    3    0    0  0.30074117390E+02  0.30001167312E+02  0.58445226782E-01  0.42479844123E+02  0.10566000000E+00 0.  1.
         23    2    1    0    0    0 -0.60731301507E+01 -0.12137295933E+01 -0.26950021552E+02  0.97347518899E+02  0.93337450816E+02 0.  0.
         13    1    3    3    0    0 -0.36147247541E+02 -0.31214896905E+02 -0.27008466779E+02  0.54867674776E+02  0.10566000000E+00 0. -1.
         22    1    1    0    0    0  0.60731301507E+01  0.12137295933E+01  0.26950021552E+02  0.27652481101E+02  0.00000000000E+00 0. -1.
</event>
<event>
 5    1  0.1324057E-009  0.9118800E+02  0.7818608E-02  0.1130116E+00
         25   -1    0    0    0    0  0.00000000000E+00  0.00000000000E+00  0.99999998245E-14  0.12500000000E+03  0.12500000000E+03 0.  0.
        -13    1    3    3    0    0 -0.13782345615E+02  0.40039447566E+02  0.11881343011E+02  0.43980539876E+02  0.10566000000E+00 0.  1.
         23    2    1    0    0    0 -0.99319827706E+01  0.20512891630E-01 -0.24726015296E+02  0.98353789482E+02  0.94675484528E+02 0.  0.
         13    1    3    3    0    0  0.38503628442E+01 -0.40018934674E+02 -0.36607358307E+02  0.54373249606E+02  0.10566000000E+00 0. -1.
         22    1    1    0    0    0  0.99319827706E+01 -0.20512891630E-01  0.24726015296E+02  0.26646210518E+02  0.00000000000E+00 0. -1.
</event>
<event>
 5    1  0.1324057E-009  0.9118800E+02  0.7818608E-02  0.1130116E+00
         25   -1    0    0    0    0  0.00000000000E+00  0.00000000000E+00  0.99999998245E-14  0.12500000000E+03  0.12500000000E+03 0.  0.
        -13    1    3    3    0    0  0.31503591436E+02 -0.67901079178E+01 -0.90583583283E+01  0.33476063965E+02  0.10566000000E+00 0.  1.
         23    2    1    0    0    0 -0.28103482529E+02 -0.23455079768E+00  0.79219389608E+01  0.95800379091E+02  0.91241957304E+02 0.  0.
         13    1    3    3    0    0 -0.59607073965E+02  0.65555571201E+01  0.16980297289E+02  0.62324315126E+02  0.10566000000E+00 0. -1.
         22    1    1    0    0    0  0.28103482529E+02  0.23455079768E+00 -0.79219389608E+01  0.29199620909E+02  0.00000000000E+00 0. -1.
</event>
<event>
 5    1  0.1324057E-009  0.9118800E+02  0.7818608E-02  0.1130116E+00
         25   -1    0    0    0    0  0.00000000000E+00  0.00000000000E+00  0.99999998245E-14  0.12500000000E+03  0.12500000000E+03 0.  0.
        -13    1    3    3    0    0 -0.19463089443E+00 -0.48602446975E+02  0.60014095937E+01  0.48972071779E+02  0.10566000000E+00 0. -1.
         23    2    1    0    0    0  0.23350510056E+02 -0.91021855339E+01  0.14946858765E+02  0.95819446744E+02  0.91268075942E+02 0.  0.
         13    1    3    3    0    0  0.23545140950E+02  0.39500261441E+02  0.89454491716E+01  0.46847374966E+02  0.10566000000E+00 0.  1.
         22    1    1    0    0    0 -0.23350510056E+02  0.91021855339E+01 -0.14946858765E+02  0.29180553256E+02  0.00000000000E+00 0.  1.
</event>
<event>
 5    1  0.1324057E-009  0.9118800E+02  0.7818608E-02  0.1130116E+00
         25   -1    0    0    0    0  0.00000000000E+00  0.00000000000E+00  0.99999998245E-14  0.12500000000E+03  0.12500000000E+03 0.  0.
        -13    1    3    3    0    0 -0.79285561051E+01 -0.23809799599E+02  0.23621990684E+02  0.34464157712E+02  0.10566000000E+00 0.  1.
         23    2    1    0    0    0  0.13000854397E+02  0.10182278368E+01 -0.27234853331E+02  0.94804036048E+02  0.89866617896E+02 0.  0.
         13    1    3    3    0    0  0.20929410502E+02  0.24828027436E+02 -0.50856844016E+02  0.60339878336E+02  0.10566000000E+00 0. -1.
         22    1    1    0    0    0 -0.13000854397E+02 -0.10182278368E+01  0.27234853331E+02  0.30195963952E+02  0.00000000000E+00 0. -1.
</event>
<event>
 5    1  0.1324057E-009  0.9118800E+02  0.7818608E-02  0.1130116E+00
         25   -1    0    0    0    0  0.00000000000E+00  0.00000000000E+00  0.99999998245E-14  0.12500000000E+03  0.12500000000E+03 0.  0.
        -13    1    3    3    0    0  0.31074542861E+02  0.33283838770E+02 -0.40667436258E+01  0.45716416144E+02  0.10566000000E+00 0.  1.
         23    2    1    0    0    0  0.23016626586E+02 -0.10354509181E+02  0.16725899589E+02  0.94722340301E+02  0.89752911236E+02 0.  0.
         13    1    3    3    0    0 -0.80579162747E+01 -0.43638347951E+02  0.20792643215E+02  0.49005924157E+02  0.10566000000E+00 0. -1.
         22    1    1    0    0    0 -0.23016626586E+02  0.10354509181E+02 -0.16725899589E+02  0.30277659699E+02  0.00000000000E+00 0.  1.
</event>
<event>
 5    1  0.1324057E-009  0.9118800E+02  0.7818608E-02  0.1130116E+00
         25   -1    0    0    0    0  0.00000000000E+00  0.00000000000E+00  0.99999998245E-14  0.12500000000E+03  0.12500000000E+03 0.  0.
        -13    1    3    3    0    0 -0.27635854316E+02  0.15017051784E+02  0.43328928903E+02  0.53541194720E+02  0.10566000000E+00 0.  1.
         23    2    1    0    0    0 -0.80463804291E+01  0.30479400771E+02  0.20256300544E+02  0.87529267139E+02  0.79103203379E+02 0.  0.
         13    1    3    3    0    0  0.19589473887E+02  0.15462348987E+02 -0.23072628359E+02  0.33988072420E+02  0.10566000000E+00 0. -1.
         22    1    1    0    0    0  0.80463804291E+01 -0.30479400771E+02 -0.20256300544E+02  0.37470732861E+02  0.00000000000E+00 0.  1.
</event>
<event>
 5    1  0.1324057E-009  0.9118800E+02  0.7818608E-02  0.1130116E+00
         25   -1    0    0    0    0  0.00000000000E+00  0.00000000000E+00  0.99999998245E-14  0.12500000000E+03  0.12500000000E+03 0.  0.
        -13    1    3    3    0    0 -0.33270237245E+02  0.14375142439E+02  0.15111153350E+02  0.39267181285E+02  0.10566000000E+00 0. -1.
         23    2    1    0    0    0  0.10697569682E+02 -0.17738855184E+02  0.22732343243E+02  0.94245091292E+02  0.89085761056E+02 0.  0.
         13    1    3    3    0    0  0.43967806927E+02 -0.32113997623E+02  0.76211898929E+01  0.54977910007E+02  0.10566000000E+00 0.  1.
         22    1    1    0    0    0 -0.10697569682E+02  0.17738855184E+02 -0.22732343243E+02  0.30754908708E+02  0.00000000000E+00 0.  1.
</event>
<event>
 5    1  0.1324057E-009  0.9118800E+02  0.7818608E-02  0.1130116E+00
         25   -1    0    0    0    0  0.00000000000E+00  0.00000000000E+00  0.99999998245E-14  0.12500000000E+03  0.12500000000E+03 0.  0.
        -13    1    3    3    0    0  0.42371531945E+01 -0.11862806081E+02  0.47195739882E+02  0.48848015951E+02  0.10566000000E+00 0. -1.
         23    2    1    0    0    0  0.19496030202E+02 -0.22908850336E+02  0.57503843878E+01  0.94373581046E+02  0.89265868402E+02 0.  0.
         13    1    3    3    0    0  0.15258877007E+02 -0.11046044255E+02 -0.41445355494E+02  0.45525565095E+02  0.10566000000E+00 0.  1.
         22    1    1    0    0    0 -0.19496030202E+02  0.22908850336E+02 -0.57503843878E+01  0.30626418954E+02  0.00000000000E+00 0. -1.
</event>
<event>
 5    1  0.1324057E-009  0.9118800E+02  0.7818608E-02  0.1130116E+00
         25   -1    0    0    0    0  0.00000000000E+00  0.00000000000E+00  0.99999998245E-14  0.12500000000E+03  0.12500000000E+03 0.  0.
        -13    1    3    3    0    0  0.32577288097E+02  0.40092060415E+02  0.36634494673E+01  0.51788850480E+02  0.10566000000E+00 0. -1.
         23    2    1    0    0    0 -0.67496889282E+01  0.28962684880E+02 -0.78337819517E+01  0.94246730975E+02  0.89088061735E+02 0.  0.
         13    1    3    3    0    0 -0.39326977025E+02 -0.11129375535E+02 -0.11497231419E+02  0.42457880494E+02  0.10566000000E+00 0.  1.
         22    1    1    0    0    0  0.67496889282E+01 -0.28962684880E+02  0.78337819517E+01  0.30753269025E+02  0.00000000000E+00 0. -1.
</event>
<event>
 5    1  0.1324057E-009  0.9118800E+02  0.7818608E-02  0.1130116E+00
         25   -1    0    0    0    0  0.00000000000E+00  0.00000000000E+00  0.99999998245E-14  0.12500000000E+03  0.12500000000E+03 0.  0.
        -13    1    3    3    0    0  0.32700974740E+02  0.42979590477E+02  0.14440203015E+02  0.55902858368E+02  0.10566000000E+00 0.  1.
         23    2    1    0    0    0  0.19644077780E+02  0.47351928307E+01  0.19849008556E+02  0.96675187845E+02  0.92432661767E+02 0.  0.
         13    1    3    3    0    0 -0.13056896960E+02 -0.38244397647E+02  0.54088055409E+01  0.40772329477E+02  0.10566000000E+00 0. -1.
         22    1    1    0    0    0 -0.19644077780E+02 -0.47351928307E+01 -0.19849008556E+02  0.28324812155E+02  0.00000000000E+00 0.  1.
</event>
<event>
 5    1  0.1324057E-009  0.9118800E+02  0.7818608E-02  0.1130116E+00
         25   -1    0    0    0    0  0.00000000000E+00  0.00000000000E+00  0.99999998245E-14  0.12500000000E+03  0.12500000000E+03 0.  0.
        -13    1    3    3    0    0 -0.32819727240E+02 -0.25283963401E+02 -0.27785144798E+02  0.49884253396E+02  0.10566000000E+00 0.  1.
         23    2    1    0    0    0  0.85282929032E+01 -0.24809911116E+02 -0.20116969668E+02  0.91940115880E+02  0.85790611199E+02 0.  0.
         13    1    3    3    0    0  0.41348020144E+02  0.47405228494E+00  0.76681751301E+01  0.42055862483E+02  0.10566000000E+00 0. -1.
         22    1    1    0    0    0 -0.85282929032E+01  0.24809911116E+02  0.20116969668E+02  0.33059884120E+02  0.00000000000E+00 0.  1.
</event>
<event>
 5    1  0.1324057E-009  0.9118800E+02  0.7818608E-02  0.1130116E+00
         25   -1    0    0    0    0  0.00000000000E+00  0.00000000000E+00  0.99999998245E-14  0.12500000000E+03  0.12500000000E+03 0.  0.
        -13    1    3    3    0    0  0.21301925324E+02  0.25841178828E+02  0.36728483240E+02  0.49704438342E+02  0.10566000000E+00 0. -1.
         23    2    1    0    0    0  0.27916921661E+02 -0.26132751244E+01 -0.41277712173E+00  0.96957993886E+02  0.92814322557E+02 0.  0.
         13    1    3    3    0    0  0.66149963371E+01 -0.28454453953E+02 -0.37141260362E+02  0.47253555544E+02  0.10566000000E+00 0.  1.
         22    1    1    0    0    0 -0.27916921661E+02  0.26132751244E+01  0.41277712173E+00  0.28042006114E+02  0.00000000000E+00 0.  1.
</event>
<event>
 5    1  0.1324057E-009  0.9118800E+02  0.7818608E-02  0.1130116E+00
         25   -1    0    0    0    0  0.00000000000E+00  0.00000000000E+00  0.99999998245E-14  0.12500000000E+03  0.12500000000E+03 0.  0.
        -13    1    3    3    0    0  0.27143957987E+02 -0.23808794819E+02 -0.12959713435E+02  0.38361680129E+02  0.10566000000E+00 0. -1.
         23    2    1    0    0    0  0.17096325970E+02  0.18192869331E+02  0.20261002371E+02  0.92847658355E+02  0.87102896558E+02 0.  0.
         13    1    3    3    0    0 -0.10047632017E+02  0.42001664150E+02  0.33220715807E+02  0.54485978226E+02  0.10566000000E+00 0.  1.
         22    1    1    0    0    0 -0.17096325970E+02 -0.18192869331E+02 -0.20261002371E+02  0.32152341645E+02  0.00000000000E+00 0.  1.
</event>
<event>
 5    1  0.1324057E-009  0.9118800E+02  0.7818608E-02  0.1130116E+00
         25   -1    0    0    0    0  0.00000000000E+00  0.00000000000E+00  0.99999998245E-14  0.12500000000E+03  0.12500000000E+03 0.  0.
        -13    1    3    3    0    0 -0.33325377677E+02 -0.22236012101E-01 -0.41406142129E+02  0.53151303482E+02  0.10566000000E+00 0.  1.
         23    2    1    0    0    0 -0.70148063551E+01  0.22820090853E+02 -0.16646453755E+02  0.95895559147E+02  0.91372259394E+02 0.  0.
         13    1    3    3    0    0  0.26310571322E+02  0.22842326866E+02  0.24759688374E+02  0.42744255665E+02  0.10566000000E+00 0. -1.
         22    1    1    0    0    0  0.70148063551E+01 -0.22820090853E+02  0.16646453755E+02  0.29104440853E+02  0.00000000000E+00 0. -1.
</event>
<event>
 5    1  0.1324057E-009  0.9118800E+02  0.7818608E-02  0.1130116E+00
         25   -1    0    0    0    0  0.00000000000E+00  0.00000000000E+00  0.99999998245E-14  0.12500000000E+03  0.12500000000E+03 0.  0.
        -13    1    3    3    0    0  0.16554352086E+02 -0.32076829785E+02  0.92481876646E+01  0.37262712208E+02  0.10566000000E+00 0.  1.
         23    2    1    0    0    0  0.18075049830E+02  0.21707483781E+02 -0.10907243234E+02  0.94719804601E+02  0.89749379664E+02 0.  0.
         13    1    3    3    0    0  0.15206977440E+01  0.53784313566E+02 -0.20155430899E+02  0.57457092392E+02  0.10566000000E+00 0. -1.
         22    1    1    0    0    0 -0.18075049830E+02 -0.21707483781E+02  0.10907243234E+02  0.30280195399E+02  0.00000000000E+00 0. -1.
</event>
<event>
 5    1  0.1324057E-009  0.9118800E+02  0.7818608E-02  0.1130116E+00
         25   -1    0    0    0    0  0.00000000000E+00  0.00000000000E+00  0.99999998245E-14  0.12500000000E+03  0.12500000000E+03 0.  0.
        -13    1    3    3    0    0  0.18586625208E+02  0.39202501958E+02  0.98212419023E+01  0.44483331181E+02  0.10566000000E+00 0. -1.
         23    2    1    0    0    0 -0.10941426591E+02  0.15321630086E+02 -0.23418324744E+02  0.94951953505E+02  0.90072128743E+02 0.  0.
         13    1    3    3    0    0 -0.29528051799E+02 -0.23880871872E+02 -0.33239566647E+02  0.50468622324E+02  0.10566000000E+00 0.  1.
         22    1    1    0    0    0  0.10941426591E+02 -0.15321630086E+02  0.23418324744E+02  0.30048046495E+02  0.00000000000E+00 0.  1.
</event>
<event>
 5    1  0.1324057E-009  0.9118800E+02  0.7818608E-02  0.1130116E+00
         25   -1    0    0    0    0  0.00000000000E+00  0.00000000000E+00  0.99999998245E-14  0.12500000000E+03  0.12500000000E+03 0.  0.
        -13    1    3    3    0    0  0.28970363223E+02 -0.29723875762E+02 -0.41573911998E+01  0.41714335680E+02  0.10566000000E+00 0.  1.
         23    2    1    0    0    0 -0.56466613305E+01  0.14275276058E+02 -0.19896788779E+02  0.99869331596E+02  0.96655744263E+02 0.  0.
         13    1    3    3    0    0 -0.34617024553E+02  0.43999151820E+02 -0.15739397579E+02  0.58154995916E+02  0.10566000000E+00 0. -1.
         22    1    1    0    0    0  0.56466613305E+01 -0.14275276058E+02  0.19896788779E+02  0.25130668404E+02  0.00000000000E+00 0. -1.
</event>
<event>
 5    1  0.1324057E-009  0.9118800E+02  0.7818608E-02  0.1130116E+00
         25   -1    0    0    0    0  0.00000000000E+00  0.00000000000E+00  0.99999998245E-14  0.12500000000E+03  0.12500000000E+03 0.  0.
        -13    1    3    3    0    0 -0.20289741358E+01  0.37292973676E+02  0.42849843428E+02  0.56841911188E+02  0.10566000000E+00 0. -1.
         23    2    1    0    0    0  0.11285711770E+02  0.46612399757E+01  0.26762293769E+02  0.95583766114E+02  0.90944716880E+02 0.  0.
         13    1    3    3    0    0  0.13314685906E+02 -0.32631733700E+02 -0.16087549659E+02  0.38741854926E+02  0.10566000000E+00 0.  1.
         22    1    1    0    0    0 -0.11285711770E+02 -0.46612399757E+01 -0.26762293769E+02  0.29416233886E+02  0.00000000000E+00 0. -1.
</event>
<event>
 5    1  0.1324057E-009  0.9118800E+02  0.7818608E-02  0.1130116E+00
         25   -1    0    0    0    0  0.00000000000E+00  0.00000000000E+00  0.99999998245E-14  0.12500000000E+03  0.12500000000E+03 0.  0.
        -13    1    3    3    0    0 -0.17111910120E+02 -0.20645566727E+02 -0.27287335768E+02  0.38257897888E+02  0.10566000000E+00 0.  1.
         23    2    1    0    0    0  0.25313361548E+02 -0.10072973885E+02  0.10257850001E+02  0.95888927151E+02  0.91363186173E+02 0.  0.
         13    1    3    3    0    0  0.42425271668E+02  0.10572592842E+02  0.37545185769E+02  0.57631029263E+02  0.10566000000E+00 0. -1.
         22    1    1    0    0    0 -0.25313361548E+02  0.10072973885E+02 -0.10257850001E+02  0.29111072849E+02  0.00000000000E+00 0. -1.
</event>
<event>
 5    1  0.1324057E-009  0.9118800E+02  0.7818608E-02  0.1130116E+00
         25   -1    0    0    0    0  0.00000000000E+00  0.00000000000E+00  0.99999998245E-14  0.12500000000E+03  0.12500000000E+03 0.  0.
        -13    1    3    3    0    0 -0.12175622525E+02 -0.11721353502E+02  0.34374653980E+02  0.38304881048E+02  0.10566000000E+00 0.  1.
         23    2    1    0    0    0  0.11687892332E+02  0.27717337722E+02  0.15782632272E+01  0.94877773118E+02  0.89969124034E+02 0.  0.
         13    1    3    3    0    0  0.23863514857E+02  0.39438691223E+02 -0.32796390753E+02  0.56572892070E+02  0.10566000000E+00 0. -1.
         22    1    1    0    0    0 -0.11687892332E+02 -0.27717337722E+02 -0.15782632272E+01  0.30122226882E+02  0.00000000000E+00 0.  1.
</event>
<event>
 5    1  0.1324057E-009  0.9118800E+02  0.7818608E-02  0.1130116E+00
         25   -1    0    0    0    0  0.00000000000E+00  0.00000000000E+00  0.99999998245E-14  0.12500000000E+03  0.12500000000E+03 0.  0.
        -13    1    3    3    0    0 -0.21490634864E+02 -0.45714261715E+02  0.28573799459E+02  0.58035457184E+02  0.10566000000E+00 0.  1.
         23    2    1    0    0    0 -0.70976497604E+01 -0.32876915732E+02  0.14275523576E+01  0.91335387632E+02  0.84904928643E+02 0.  0.
         13    1    3    3    0    0  0.14392985103E+02  0.12837345983E+02 -0.27146247102E+02  0.33299930448E+02  0.10566000000E+00 0. -1.
         22    1    1    0    0    0  0.70976497604E+01  0.32876915732E+02 -0.14275523576E+01  0.33664612368E+02  0.00000000000E+00 0.  1.
</event>
<event>
 5    1  0.1324057E-009  0.9118800E+02  0.7818608E-02  0.1130116E+00
         25   -1    0    0    0    0  0.00000000000E+00  0.00000000000E+00  0.99999998245E-14  0.12500000000E+03  0.12500000000E+03 0.  0.
        -13    1    3    3    0    0 -0.13503671729E-01  0.30982711910E+02  0.15856106000E+02  0.34804538227E+02  0.10566000000E+00 0.  1.
         23    2    1    0    0    0  0.14463849269E+02 -0.15536211287E+02 -0.20419509378E+02  0.95546084130E+02  0.90892909693E+02 0.  0.
         13    1    3    3    0    0  0.14477352940E+02 -0.46518923197E+02 -0.36275615378E+02  0.60741545903E+02  0.10566000000E+00 0. -1.
         22    1    1    0    0    0 -0.14463849269E+02  0.15536211287E+02  0.20419509378E+02  0.29453915870E+02  0.00000000000E+00 0. -1.
</event>
<event>
 5    1  0.1324057E-009  0.9118800E+02  0.7818608E-02  0.1130116E+00
         25   -1    0    0    0    0  0.00000000000E+00  0.00000000000E+00  0.99999998245E-14  0.12500000000E+03  0.12500000000E+03 0.  0.
        -13    1    3    3    0    0 -0.14865243796E+02  0.55117815427E+02  0.17373937149E+02  0.59672555725E+02  0.10566000000E+00 0.  1.
         23    2    1    0    0    0  0.36391512205E+01  0.22165401492E+02  0.15873804797E+02  0.97494980029E+02  0.93534726210E+02 0.  0.
         13    1    3    3    0    0  0.18504395017E+02 -0.32952413936E+02 -0.15001323522E+01  0.37822424304E+02  0.10566000000E+00 0. -1.
         22    1    1    0    0    0 -0.36391512205E+01 -0.22165401492E+02 -0.15873804797E+02  0.27505019971E+02  0.00000000000E+00 0.  1.
</event>
<event>
 5    1  0.1324057E-009  0.9118800E+02  0.7818608E-02  0.1130116E+00
         25   -1    0    0    0    0  0.00000000000E+00  0.00000000000E+00  0.99999998245E-14  0.12500000000E+03  0.12500000000E+03 0.  0.
        -13    1    3    3    0    0  0.19171430035E+02 -0.35479137551E+02 -0.22732521534E+02  0.46293537673E+02  0.10566000000E+00 0.  1.
         23    2    1    0    0    0  0.26101317776E+02  0.11022305544E+02 -0.81646026907E+01  0.95513888926E+02  0.90848622618E+02 0.  0.
         13    1    3    3    0    0  0.69298877408E+01  0.46501443095E+02  0.14567918843E+02  0.49220351253E+02  0.10566000000E+00 0. -1.
         22    1    1    0    0    0 -0.26101317776E+02 -0.11022305544E+02  0.81646026907E+01  0.29486111074E+02  0.00000000000E+00 0.  1.
</event>
<event>
 5    1  0.1324057E-009  0.9118800E+02  0.7818608E-02  0.1130116E+00
         25   -1    0    0    0    0  0.00000000000E+00  0.00000000000E+00  0.99999998245E-14  0.12500000000E+03  0.12500000000E+03 0.  0.
        -13    1    3    3    0    0 -0.23015348284E+02  0.30099424814E+02  0.23892414118E+02  0.44794422055E+02  0.10566000000E+00 0. -1.
         23    2    1    0    0    0  0.22734296092E+02  0.62031907542E+01  0.58542489827E+00  0.10142733539E+03  0.98650057519E+02 0.  0.
         13    1    3    3    0    0  0.45749644376E+02 -0.23896234060E+02 -0.23306989219E+02  0.56632913339E+02  0.10566000000E+00 0.  1.
         22    1    1    0    0    0 -0.22734296092E+02 -0.62031907542E+01 -0.58542489827E+00  0.23572664606E+02  0.00000000000E+00 0.  1.
</event>
<event>
 5    1  0.1324057E-009  0.9118800E+02  0.7818608E-02  0.1130116E+00
         25   -1    0    0    0    0  0.00000000000E+00  0.00000000000E+00  0.99999998245E-14  0.12500000000E+03  0.12500000000E+03 0.  0.
        -13    1    3    3    0    0  0.50330541336E+02  0.11242992173E+02 -0.44943642461E+01  0.51766579356E+02  0.10566000000E+00 0.  1.
         23    2    1    0    0    0  0.14993281570E+02  0.15831739897E+02  0.20324367113E+02  0.95191907492E+02  0.90404517990E+02 0.  0.
         13    1    3    3    0    0 -0.35337259765E+02  0.45887477241E+01  0.24818731360E+02  0.43425328136E+02  0.10566000000E+00 0. -1.
         22    1    1    0    0    0 -0.14993281570E+02 -0.15831739897E+02 -0.20324367113E+02  0.29808092508E+02  0.00000000000E+00 0.  1.
</event>
<event>
 5    1  0.1324057E-009  0.9118800E+02  0.7818608E-02  0.1130116E+00
         25   -1    0    0    0    0  0.00000000000E+00  0.00000000000E+00  0.99999998245E-14  0.12500000000E+03  0.12500000000E+03 0.  0.
        -13    1    3    3    0    0 -0.18196731936E+02 -0.30100094807E+02 -0.42794809130E+02  0.55394436661E+02  0.10566000000E+00 0. -1.
         23    2    1    0    0    0 -0.21840502823E+02 -0.21084381719E+02 -0.52325282625E+01  0.94195161613E+02  0.89015675042E+02 0.  0.
         13    1    3    3    0    0 -0.36437708875E+01  0.90157130880E+01  0.37562280867E+02  0.38800724951E+02  0.10566000000E+00 0.  1.
         22    1    1    0    0    0  0.21840502823E+02  0.21084381719E+02  0.52325282625E+01  0.30804838387E+02  0.00000000000E+00 0. -1.
</event>
<event>
 5    1  0.1324057E-009  0.9118800E+02  0.7818608E-02  0.1130116E+00
         25   -1    0    0    0    0  0.00000000000E+00  0.00000000000E+00  0.99999998245E-14  0.12500000000E+03  0.12500000000E+03 0.  0.
        -13    1    3    3    0    0 -0.88818737821E+01 -0.80453463333E+01 -0.31664208753E+02  0.33856292761E+02  0.10566000000E+00 0.  1.
         23    2    1    0    0    0  0.99290921963E+01 -0.73753739952E+01  0.26911568888E+02  0.95382175073E+02  0.90667214406E+02 0.  0.
         13    1    3    3    0    0  0.18810965978E+02  0.66997233814E+00  0.58575777641E+02  0.61525882312E+02  0.10566000000E+00 0. -1.
         22    1    1    0    0    0 -0.99290921963E+01  0.73753739952E+01 -0.26911568888E+02  0.29617824927E+02  0.00000000000E+00 0. -1.
</event>
<event>
 5    1  0.1324057E-009  0.9118800E+02  0.7818608E-02  0.1130116E+00
         25   -1    0    0    0    0  0.00000000000E+00  0.00000000000E+00  0.99999998245E-14  0.12500000000E+03  0.12500000000E+03 0.  0.
        -13    1    3    3    0    0 -0.46530206856E+02  0.32707890987E+02 -0.69457360924E+01  0.57298522641E+02  0.10566000000E+00 0.  1.
         23    2    1    0    0    0 -0.12901426156E+02  0.23081297635E+02  0.10697476051E+02  0.96475815678E+02  0.92162649265E+02 0.  0.
         13    1    3    3    0    0  0.33628780700E+02 -0.96265933527E+01  0.17643212144E+02  0.39177293038E+02  0.10566000000E+00 0. -1.
         22    1    1    0    0    0  0.12901426156E+02 -0.23081297635E+02 -0.10697476051E+02  0.28524184322E+02  0.00000000000E+00 0.  1.
</event>
<event>
 5    1  0.1324057E-009  0.9118800E+02  0.7818608E-02  0.1130116E+00
         25   -1    0    0    0    0  0.00000000000E+00  0.00000000000E+00  0.99999998245E-14  0.12500000000E+03  0.12500000000E+03 0.  0.
        -13    1    3    3    0    0 -0.21751601327E+02 -0.24587323865E+02 -0.20480992136E+02  0.38693033714E+02  0.10566000000E+00 0. -1.
         23    2    1    0    0    0  0.23436957917E+02 -0.86104857409E+01  0.12699545522E+02  0.96987325769E+02  0.92853817597E+02 0.  0.
         13    1    3    3    0    0  0.45188559243E+02  0.15976838124E+02  0.33180537657E+02  0.58294292055E+02  0.10566000000E+00 0.  1.
         22    1    1    0    0    0 -0.23436957917E+02  0.86104857409E+01 -0.12699545522E+02  0.28012674231E+02  0.00000000000E+00 0.  1.
</event>
<event>
 5    1  0.1324057E-009  0.9118800E+02  0.7818608E-02  0.1130116E+00
         25   -1    0    0    0    0  0.00000000000E+00  0.00000000000E+00  0.99999998245E-14  0.12500000000E+03  0.12500000000E+03 0.  0.
        -13    1    3    3    0    0  0.44693847117E+02  0.28732151139E+02 -0.78468063524E+01  0.53709031020E+02  0.10566000000E+00 0. -1.
         23    2    1    0    0    0  0.96832380821E+01  0.25698394500E+02 -0.20145586721E+02  0.90940974119E+02  0.84322259990E+02 0.  0.
         13    1    3    3    0    0 -0.35010609035E+02 -0.30337566396E+01 -0.12298780369E+02  0.37231943099E+02  0.10566000000E+00 0.  1.
         22    1    1    0    0    0 -0.96832380821E+01 -0.25698394500E+02  0.20145586721E+02  0.34059025881E+02  0.00000000000E+00 0. -1.
</event>
<event>
 5    1  0.1324057E-009  0.9118800E+02  0.7818608E-02  0.1130116E+00
         25   -1    0    0    0    0  0.00000000000E+00  0.00000000000E+00  0.99999998245E-14  0.12500000000E+03  0.12500000000E+03 0.  0.
        -13    1    3    3    0    0  0.40038871101E+02  0.35945058174E+02  0.24767911386E+02  0.59233596924E+02  0.10566000000E+00 0.  1.
         23    2    1    0    0    0  0.10232563891E+02  0.23893686368E+02  0.20960811620E+02  0.91608844947E+02  0.85306572060E+02 0.  0.
         13    1    3    3    0    0 -0.29806307209E+02 -0.12051371806E+02 -0.38070997657E+01  0.32375248023E+02  0.10566000000E+00 0. -1.
         22    1    1    0    0    0 -0.10232563891E+02 -0.23893686368E+02 -0.20960811620E+02  0.33391155053E+02  0.00000000000E+00 0.  1.
</event>
<event>
 5    1  0.1324057E-009  0.9118800E+02  0.7818608E-02  0.1130116E+00
         25   -1    0    0    0    0  0.00000000000E+00  0.00000000000E+00  0.99999998245E-14  0.12500000000E+03  0.12500000000E+03 0.  0.
        -13    1    3    3    0    0  0.20148736020E+02  0.83691062844E+01 -0.27573458880E+02  0.35161346701E+02  0.10566000000E+00 0. -1.
         23    2    1    0    0    0 -0.79683906072E+01 -0.20032933426E+02  0.18810310939E+02  0.96388088702E+02  0.92043588454E+02 0.  0.
         13    1    3    3    0    0 -0.28117126627E+02 -0.28402039710E+02  0.46383769818E+02  0.61226742001E+02  0.10566000000E+00 0.  1.
         22    1    1    0    0    0  0.79683906072E+01  0.20032933426E+02 -0.18810310939E+02  0.28611911298E+02  0.00000000000E+00 0.  1.
</event>
<event>
 5    1  0.1324057E-009  0.9118800E+02  0.7818608E-02  0.1130116E+00
         25   -1    0    0    0    0  0.00000000000E+00  0.00000000000E+00  0.99999998245E-14  0.12500000000E+03  0.12500000000E+03 0.  0.
        -13    1    3    3    0    0 -0.30373761343E+02  0.15803584127E+02 -0.14512908184E+02  0.37188093758E+02  0.10566000000E+00 0. -1.
         23    2    1    0    0    0  0.29351311142E+00 -0.18615263767E+02  0.22132662403E+02  0.96078227231E+02  0.91621814039E+02 0.  0.
         13    1    3    3    0    0  0.30667274454E+02 -0.34418847894E+02  0.36645570587E+02  0.58890133473E+02  0.10566000000E+00 0.  1.
         22    1    1    0    0    0 -0.29351311142E+00  0.18615263767E+02 -0.22132662403E+02  0.28921772769E+02  0.00000000000E+00 0.  1.
</event>
<event>
 5    1  0.1324057E-009  0.9118800E+02  0.7818608E-02  0.1130116E+00
         25   -1    0    0    0    0  0.00000000000E+00  0.00000000000E+00  0.99999998245E-14  0.12500000000E+03  0.12500000000E+03 0.  0.
        -13    1    3    3    0    0  0.64676752545E+01  0.34298966699E+00  0.43770320097E+02  0.44247040020E+02  0.10566000000E+00 0. -1.
         23    2    1    0    0    0  0.15478849866E+02  0.24587277288E+02 -0.97457606576E+00  0.95929760990E+02  0.91419036570E+02 0.  0.
         13    1    3    3    0    0  0.90111746115E+01  0.24244287621E+02 -0.44744896163E+02  0.51682720969E+02  0.10566000000E+00 0.  1.
         22    1    1    0    0    0 -0.15478849866E+02 -0.24587277288E+02  0.97457606576E+00  0.29070239010E+02  0.00000000000E+00 0.  1.
</event>
<event>
 5    1  0.1324057E-009  0.9118800E+02  0.7818608E-02  0.1130116E+00
         25   -1    0    0    0    0  0.00000000000E+00  0.00000000000E+00  0.99999998245E-14  0.12500000000E+03  0.12500000000E+03 0.  0.
        -13    1    3    3    0    0  0.72338077144E+00  0.28834640828E+02 -0.77296698272E+01  0.29861660220E+02  0.10566000000E+00 0. -1.
         23    2    1    0    0    0 -0.19803470905E+01 -0.31216440367E+02  0.93504252166E+01  0.92353126099E+02  0.86390286056E+02 0.  0.
         13    1    3    3    0    0 -0.27037278620E+01 -0.60051081195E+02  0.17080095044E+02  0.62491465879E+02  0.10566000000E+00 0.  1.
         22    1    1    0    0    0  0.19803470905E+01  0.31216440367E+02 -0.93504252166E+01  0.32646873901E+02  0.00000000000E+00 0.  1.
</event>
<event>
 5    1  0.1324057E-009  0.9118800E+02  0.7818608E-02  0.1130116E+00
         25   -1    0    0    0    0  0.00000000000E+00  0.00000000000E+00  0.99999998245E-14  0.12500000000E+03  0.12500000000E+03 0.  0.
        -13    1    3    3    0    0 -0.29574409011E+02 -0.42354950850E+02 -0.46546368717E+01  0.51867758177E+02  0.10566000000E+00 0.  1.
         23    2    1    0    0    0 -0.14308133292E+02 -0.54734835575E+01 -0.24235987366E+02  0.96328327845E+02  0.91962394278E+02 0.  0.
         13    1    3    3    0    0  0.15266275719E+02  0.36881467293E+02 -0.19581350494E+02  0.44460569668E+02  0.10566000000E+00 0. -1.
         22    1    1    0    0    0  0.14308133292E+02  0.54734835575E+01  0.24235987366E+02  0.28671672155E+02  0.00000000000E+00 0. -1.
</event>
<event>
 5    1  0.1324057E-009  0.9118800E+02  0.7818608E-02  0.1130116E+00
         25   -1    0    0    0    0  0.00000000000E+00  0.00000000000E+00  0.99999998245E-14  0.12500000000E+03  0.12500000000E+03 0.  0.
        -13    1    3    3    0    0 -0.48354461200E+02 -0.73742004298E+01  0.84696931511E+01  0.49641511017E+02  0.10566000000E+00 0.  1.
         23    2    1    0    0    0 -0.84453617982E+01 -0.25937174055E+02 -0.78991235551E+01  0.96601808389E+02  0.92333374774E+02 0.  0.
         13    1    3    3    0    0  0.39909099402E+02 -0.18562973625E+02 -0.16368816706E+02  0.46960297372E+02  0.10566000000E+00 0. -1.
         22    1    1    0    0    0  0.84453617982E+01  0.25937174055E+02  0.78991235551E+01  0.28398191611E+02  0.00000000000E+00 0. -1.
</event>
<event>
 5    1  0.1324057E-009  0.9118800E+02  0.7818608E-02  0.1130116E+00
         25   -1    0    0    0    0  0.00000000000E+00  0.00000000000E+00  0.99999998245E-14  0.12500000000E+03  0.12500000000E+03 0.  0.
        -13    1    3    3    0    0 -0.20553365575E+02 -0.35649813717E+02 -0.79272074540E+01  0.41907061893E+02  0.10566000000E+00 0.  1.
         23    2    1    0    0    0 -0.16072480241E+02  0.11554925949E+02  0.19936927212E+02  0.96905124996E+02  0.92743092730E+02 0.  0.
         13    1    3    3    0    0  0.44808853333E+01  0.47204739666E+02  0.27864134666E+02  0.54998063103E+02  0.10566000000E+00 0. -1.
         22    1    1    0    0    0  0.16072480241E+02 -0.11554925949E+02 -0.19936927212E+02  0.28094875004E+02  0.00000000000E+00 0. -1.
</event>
<event>
 5    1  0.1324057E-009  0.9118800E+02  0.7818608E-02  0.1130116E+00
         25   -1    0    0    0    0  0.00000000000E+00  0.00000000000E+00  0.99999998245E-14  0.12500000000E+03  0.12500000000E+03 0.  0.
        -13    1    3    3    0    0  0.73184071753E+01  0.29722867055E+02  0.30532706038E+02  0.43234999845E+02  0.10566000000E+00 0. -1.
         23    2    1    0    0    0 -0.29148369664E+02  0.10087686692E+01  0.84529960986E+01  0.94633929933E+02  0.89629696436E+02 0.  0.
         13    1    3    3    0    0 -0.36466776839E+02 -0.28714098386E+02 -0.22079709939E+02  0.51398930088E+02  0.10566000000E+00 0.  1.
         22    1    1    0    0    0  0.29148369664E+02 -0.10087686692E+01 -0.84529960986E+01  0.30366070067E+02  0.00000000000E+00 0.  1.
</event>
<event>
 5    1  0.1324057E-009  0.9118800E+02  0.7818608E-02  0.1130116E+00
         25   -1    0    0    0    0  0.00000000000E+00  0.00000000000E+00  0.99999998245E-14  0.12500000000E+03  0.12500000000E+03 0.  0.
        -13    1    3    3    0    0 -0.36465895265E+02  0.35362702242E+02  0.20788526481E+02  0.54885847216E+02  0.10566000000E+00 0. -1.
         23    2    1    0    0    0 -0.27516134080E+02  0.82166978232E+01 -0.77279027173E+01  0.95261603301E+02  0.90500833284E+02 0.  0.
         13    1    3    3    0    0  0.89497611848E+01 -0.27146004418E+02 -0.28516429198E+02  0.40375756085E+02  0.10566000000E+00 0.  1.
         22    1    1    0    0    0  0.27516134080E+02 -0.82166978232E+01  0.77279027173E+01  0.29738396699E+02  0.00000000000E+00 0. -1.
</event>
<event>
 5    1  0.1324057E-009  0.9118800E+02  0.7818608E-02  0.1130116E+00
         25   -1    0    0    0    0  0.00000000000E+00  0.00000000000E+00  0.99999998245E-14  0.12500000000E+03  0.12500000000E+03 0.  0.
        -13    1    3    3    0    0 -0.40545749571E+01  0.10099009951E+02  0.31495589601E+02  0.33322858647E+02  0.10566000000E+00 0. -1.
         23    2    1    0    0    0 -0.19432709196E+02  0.26549225758E+01 -0.25503135452E+02  0.92827205305E+02  0.87073539760E+02 0.  0.
         13    1    3    3    0    0 -0.15378134239E+02 -0.74440873754E+01 -0.56998725053E+02  0.59504346658E+02  0.10566000000E+00 0.  1.
         22    1    1    0    0    0  0.19432709196E+02 -0.26549225758E+01  0.25503135452E+02  0.32172794695E+02  0.00000000000E+00 0.  1.
</event>
<event>
 5    1  0.1324057E-009  0.9118800E+02  0.7818608E-02  0.1130116E+00
         25   -1    0    0    0    0  0.00000000000E+00  0.00000000000E+00  0.99999998245E-14  0.12500000000E+03  0.12500000000E+03 0.  0.
        -13    1    3    3    0    0 -0.16362171687E+02 -0.35053204345E+02 -0.12541654945E+02  0.40666350586E+02  0.10566000000E+00 0. -1.
         23    2    1    0    0    0  0.22323640784E+02  0.76526946887E+01 -0.12512224961E+02  0.98289244726E+02  0.94590227727E+02 0.  0.
         13    1    3    3    0    0  0.38685812471E+02  0.42705899034E+02  0.29429983627E-01  0.57622894140E+02  0.10566000000E+00 0.  1.
         22    1    1    0    0    0 -0.22323640784E+02 -0.76526946887E+01  0.12512224961E+02  0.26710755274E+02  0.00000000000E+00 0.  1.
</event>
<event>
 5    1  0.1324057E-009  0.9118800E+02  0.7818608E-02  0.1130116E+00
         25   -1    0    0    0    0  0.00000000000E+00  0.00000000000E+00  0.99999998245E-14  0.12500000000E+03  0.12500000000E+03 0.  0.
        -13    1    3    3    0    0  0.17261172480E+01  0.25764714264E+02 -0.53883545529E+02  0.59751549140E+02  0.10566000000E+00 0. -1.
         23    2    1    0    0    0 -0.60699209341E+01  0.21669241602E+02 -0.19569443473E+02  0.95177808773E+02  0.90385021952E+02 0.  0.
         13    1    3    3    0    0 -0.77960381821E+01 -0.40954726623E+01  0.34314102055E+02  0.35426259633E+02  0.10566000000E+00 0.  1.
         22    1    1    0    0    0  0.60699209341E+01 -0.21669241602E+02  0.19569443473E+02  0.29822191227E+02  0.00000000000E+00 0. -1.
</event>
<event>
 5    1  0.1324057E-009  0.9118800E+02  0.7818608E-02  0.1130116E+00
         25   -1    0    0    0    0  0.00000000000E+00  0.00000000000E+00  0.99999998245E-14  0.12500000000E+03  0.12500000000E+03 0.  0.
        -13    1    3    3    0    0  0.35373974706E+02 -0.25423937950E+02 -0.10550795644E+02  0.44822150329E+02  0.10566000000E+00 0. -1.
         23    2    1    0    0    0  0.15158904741E+02  0.14996310787E+02  0.16980844099E+02  0.97741408758E+02  0.93863476334E+02 0.  0.
         13    1    3    3    0    0 -0.20215069964E+02  0.40420248737E+02  0.27531639743E+02  0.52919258429E+02  0.10566000000E+00 0.  1.
         22    1    1    0    0    0 -0.15158904741E+02 -0.14996310787E+02 -0.16980844099E+02  0.27258591242E+02  0.00000000000E+00 0.  1.
</event>
<event>
 5    1  0.1324057E-009  0.9118800E+02  0.7818608E-02  0.1130116E+00
         25   -1    0    0    0    0  0.00000000000E+00  0.00000000000E+00  0.99999998245E-14  0.12500000000E+03  0.12500000000E+03 0.  0.
        -13    1    3    3    0    0 -0.29951885228E+02 -0.16152239524E+02 -0.45198520781E+02  0.56576741822E+02  0.10566000000E+00 0.  1.
         23    2    1    0    0    0 -0.24204368911E+02  0.80880468884E+01 -0.16357273794E+02  0.94687817914E+02  0.89704818592E+02 0.  0.
         13    1    3    3    0    0  0.57475163176E+01  0.24240286412E+02  0.28841246987E+02  0.38111076093E+02  0.10566000000E+00 0. -1.
         22    1    1    0    0    0  0.24204368911E+02 -0.80880468884E+01  0.16357273794E+02  0.30312182086E+02  0.00000000000E+00 0.  1.
</event>
<event>
 5    1  0.1324057E-009  0.9118800E+02  0.7818608E-02  0.1130116E+00
         25   -1    0    0    0    0  0.00000000000E+00  0.00000000000E+00  0.99999998245E-14  0.12500000000E+03  0.12500000000E+03 0.  0.
        -13    1    3    3    0    0 -0.35115327211E+02  0.11388595354E+01 -0.11485325189E+02  0.36963591072E+02  0.10566000000E+00 0.  1.
         23    2    1    0    0    0  0.21438484708E+02  0.17870490474E+02 -0.76270823036E+01  0.96066707052E+02  0.91606095666E+02 0.  0.
         13    1    3    3    0    0  0.56553811919E+02  0.16731630938E+02  0.38582428850E+01  0.59103115981E+02  0.10566000000E+00 0. -1.
         22    1    1    0    0    0 -0.21438484708E+02 -0.17870490474E+02  0.76270823036E+01  0.28933292948E+02  0.00000000000E+00 0. -1.
</event>
<event>
 5    1  0.1324057E-009  0.9118800E+02  0.7818608E-02  0.1130116E+00
         25   -1    0    0    0    0  0.00000000000E+00  0.00000000000E+00  0.99999998245E-14  0.12500000000E+03  0.12500000000E+03 0.  0.
        -13    1    3    3    0    0  0.92613885294E+01  0.50724047124E+02  0.32922670865E+02  0.61176921262E+02  0.10566000000E+00 0.  1.
         23    2    1    0    0    0  0.98733341166E+01  0.17899411657E+02  0.19825008191E+02  0.96523648162E+02  0.92227501541E+02 0.  0.
         13    1    3    3    0    0  0.61194558720E+00 -0.32824635468E+02 -0.13097662674E+02  0.35346726900E+02  0.10566000000E+00 0. -1.
         22    1    1    0    0    0 -0.98733341166E+01 -0.17899411657E+02 -0.19825008191E+02  0.28476351838E+02  0.00000000000E+00 0.  1.
</event>
<event>
 5    1  0.1324057E-009  0.9118800E+02  0.7818608E-02  0.1130116E+00
         25   -1    0    0    0    0  0.00000000000E+00  0.00000000000E+00  0.99999998245E-14  0.12500000000E+03  0.12500000000E+03 0.  0.
        -13    1    3    3    0    0 -0.36743998397E+02 -0.17118015598E+02 -0.37150508425E+02  0.54984718936E+02  0.10566000000E+00 0. -1.
         23    2    1    0    0    0 -0.16399308180E+02  0.13755832339E+02 -0.19855105103E+02  0.95804359388E+02  0.91247410083E+02 0.  0.
         13    1    3    3    0    0  0.20344690217E+02  0.30873847938E+02  0.17295403322E+02  0.40819640452E+02  0.10566000000E+00 0.  1.
         22    1    1    0    0    0  0.16399308180E+02 -0.13755832339E+02  0.19855105103E+02  0.29195640612E+02  0.00000000000E+00 0.  1.
</event>
<event>
 5    1  0.1324057E-009  0.9118800E+02  0.7818608E-02  0.1130116E+00
         25   -1    0    0    0    0  0.00000000000E+00  0.00000000000E+00  0.99999998245E-14  0.12500000000E+03  0.12500000000E+03 0.  0.
        -13    1    3    3    0    0  0.34325815734E+02  0.25745192169E+02  0.42575576281E+02  0.60446401095E+02  0.10566000000E+00 0. -1.
         23    2    1    0    0    0  0.61931016552E+01  0.17878846075E+02  0.20800352508E+02  0.96881281865E+02  0.92710951167E+02 0.  0.
         13    1    3    3    0    0 -0.28132714079E+02 -0.78663460946E+01 -0.21775223773E+02  0.36434880770E+02  0.10566000000E+00 0.  1.
         22    1    1    0    0    0 -0.61931016552E+01 -0.17878846075E+02 -0.20800352508E+02  0.28118718135E+02  0.00000000000E+00 0. -1.
</event>
<event>
 5    1  0.1324057E-009  0.9118800E+02  0.7818608E-02  0.1130116E+00
         25   -1    0    0    0    0  0.00000000000E+00  0.00000000000E+00  0.99999998245E-14  0.12500000000E+03  0.12500000000E+03 0.  0.
        -13    1    3    3    0    0 -0.36656900142E+02 -0.29161113039E+02 -0.15807592239E+02  0.49436727016E+02  0.10566000000E+00 0. -1.
         23    2    1    0    0    0  0.75384490791E+01 -0.27870786747E+02 -0.84096766632E+00  0.96115467893E+02  0.91672607541E+02 0.  0.
         13    1    3    3    0    0  0.44195349221E+02  0.12903262915E+01  0.14966624573E+02  0.46678740877E+02  0.10566000000E+00 0.  1.
         22    1    1    0    0    0 -0.75384490791E+01  0.27870786747E+02  0.84096766632E+00  0.28884532107E+02  0.00000000000E+00 0.  1.
</event>
<event>
 5    1  0.1324057E-009  0.9118800E+02  0.7818608E-02  0.1130116E+00
         25   -1    0    0    0    0  0.00000000000E+00  0.00000000000E+00  0.99999998245E-14  0.12500000000E+03  0.12500000000E+03 0.  0.
        -13    1    3    3    0    0 -0.32879607490E+02 -0.20387115655E+01 -0.44010883582E+02  0.54974484729E+02  0.10566000000E+00 0.  1.
         23    2    1    0    0    0 -0.22873882793E+02 -0.16082926823E+02 -0.64514413261E+01  0.96303377474E+02  0.91928474198E+02 0.  0.
         13    1    3    3    0    0  0.10005724696E+02 -0.14044215257E+02  0.37559442256E+02  0.41328892745E+02  0.10566000000E+00 0. -1.
         22    1    1    0    0    0  0.22873882793E+02  0.16082926823E+02  0.64514413261E+01  0.28696622526E+02  0.00000000000E+00 0.  1.
</event>
<event>
 5    1  0.1324057E-009  0.9118800E+02  0.7818608E-02  0.1130116E+00
         25   -1    0    0    0    0  0.00000000000E+00  0.00000000000E+00  0.99999998245E-14  0.12500000000E+03  0.12500000000E+03 0.  0.
        -13    1    3    3    0    0  0.40112848841E+01  0.39936566638E+02 -0.28125277425E+02  0.49010837123E+02  0.10566000000E+00 0.  1.
         23    2    1    0    0    0 -0.25770424827E+02  0.14775139288E+02 -0.35854445032E+01  0.95078854483E+02  0.90248067131E+02 0.  0.
         13    1    3    3    0    0 -0.29781709711E+02 -0.25161427350E+02  0.24539832922E+02  0.46068017360E+02  0.10566000000E+00 0. -1.
         22    1    1    0    0    0  0.25770424827E+02 -0.14775139288E+02  0.35854445032E+01  0.29921145517E+02  0.00000000000E+00 0.  1.
</event>
<event>
 5    1  0.1324057E-009  0.9118800E+02  0.7818608E-02  0.1130116E+00
         25   -1    0    0    0    0  0.00000000000E+00  0.00000000000E+00  0.99999998245E-14  0.12500000000E+03  0.12500000000E+03 0.  0.
        -13    1    3    3    0    0  0.22375435110E+02  0.41435118553E+02  0.23662799011E+02  0.52701692259E+02  0.10566000000E+00 0.  1.
         23    2    1    0    0    0  0.25356662799E+02 -0.45112778920E+00  0.14858779161E+02  0.95607021540E+02  0.90976674951E+02 0.  0.
         13    1    3    3    0    0  0.29812276886E+01 -0.41886246342E+02 -0.88040198502E+01  0.42905329281E+02  0.10566000000E+00 0. -1.
         22    1    1    0    0    0 -0.25356662799E+02  0.45112778920E+00 -0.14858779161E+02  0.29392978460E+02  0.00000000000E+00 0.  1.
</event>
<event>
 5    1  0.1324057E-009  0.9118800E+02  0.7818608E-02  0.1130116E+00
         25   -1    0    0    0    0  0.00000000000E+00  0.00000000000E+00  0.99999998245E-14  0.12500000000E+03  0.12500000000E+03 0.  0.
        -13    1    3    3    0    0  0.22529653531E+02 -0.33746488013E+02  0.20261850047E+02  0.45353770216E+02  0.10566000000E+00 0.  1.
         23    2    1    0    0    0 -0.18346730516E+02 -0.34385834939E+01  0.21846385617E+02  0.96265161535E+02  0.91876495274E+02 0.  0.
         13    1    3    3    0    0 -0.40876384047E+02  0.30307904519E+02  0.15845355702E+01  0.50911391319E+02  0.10566000000E+00 0. -1.
         22    1    1    0    0    0  0.18346730516E+02  0.34385834939E+01 -0.21846385617E+02  0.28734838465E+02  0.00000000000E+00 0. -1.
</event>
<event>
 5    1  0.1324057E-009  0.9118800E+02  0.7818608E-02  0.1130116E+00
         25   -1    0    0    0    0  0.00000000000E+00  0.00000000000E+00  0.99999998245E-14  0.12500000000E+03  0.12500000000E+03 0.  0.
        -13    1    3    3    0    0 -0.47159877711E+02 -0.24858787441E+02  0.26922709005E+02  0.59723168059E+02  0.10566000000E+00 0.  1.
         23    2    1    0    0    0 -0.29376229088E+02 -0.72250881696E+01  0.25964871403E+01  0.94637087097E+02  0.89634099395E+02 0.  0.
         13    1    3    3    0    0  0.17783648624E+02  0.17633699271E+02 -0.24326221865E+02  0.34913919038E+02  0.10566000000E+00 0. -1.
         22    1    1    0    0    0  0.29376229088E+02  0.72250881696E+01 -0.25964871403E+01  0.30362912903E+02  0.00000000000E+00 0.  1.
</event>
<event>
 5    1  0.1324057E-009  0.9118800E+02  0.7818608E-02  0.1130116E+00
         25   -1    0    0    0    0  0.00000000000E+00  0.00000000000E+00  0.99999998245E-14  0.12500000000E+03  0.12500000000E+03 0.  0.
        -13    1    3    3    0    0  0.53027711374E+01  0.49952716227E+02  0.58680657449E+01  0.50575078842E+02  0.10566000000E+00 0.  1.
         23    2    1    0    0    0 -0.11548284069E+02  0.11205549941E+02 -0.19390678572E+02  0.99802269350E+02  0.96568977097E+02 0.  0.
         13    1    3    3    0    0 -0.16851055207E+02 -0.38747166287E+02 -0.25258744317E+02  0.49227190508E+02  0.10566000000E+00 0. -1.
         22    1    1    0    0    0  0.11548284069E+02 -0.11205549941E+02  0.19390678572E+02  0.25197730650E+02  0.00000000000E+00 0.  1.
</event>
<event>
 5    1  0.1324057E-009  0.9118800E+02  0.7818608E-02  0.1130116E+00
         25   -1    0    0    0    0  0.00000000000E+00  0.00000000000E+00  0.99999998245E-14  0.12500000000E+03  0.12500000000E+03 0.  0.
        -13    1    3    3    0    0 -0.36719230752E+02  0.14832918270E+02  0.42675563407E+02  0.58219689518E+02  0.10566000000E+00 0. -1.
         23    2    1    0    0    0 -0.17862809738E+02 -0.97610350581E+01  0.16040071080E+02  0.99083949811E+02  0.95634656128E+02 0.  0.
         13    1    3    3    0    0  0.18856421014E+02 -0.24593953328E+02 -0.26635492327E+02  0.40864260293E+02  0.10566000000E+00 0.  1.
         22    1    1    0    0    0  0.17862809738E+02  0.97610350581E+01 -0.16040071080E+02  0.25916050189E+02  0.00000000000E+00 0. -1.
</event>
<event>
 5    1  0.1324057E-009  0.9118800E+02  0.7818608E-02  0.1130116E+00
         25   -1    0    0    0    0  0.00000000000E+00  0.00000000000E+00  0.99999998245E-14  0.12500000000E+03  0.12500000000E+03 0.  0.
        -13    1    3    3    0    0  0.88662528572E+01 -0.23013396447E+02  0.26056164019E+02  0.35877035875E+02  0.10566000000E+00 0. -1.
         23    2    1    0    0    0  0.80695165328E+01  0.25547151104E+02 -0.10040182952E+02  0.96389175120E+02  0.92045063854E+02 0.  0.
         13    1    3    3    0    0 -0.79673632443E+00  0.48560547551E+02 -0.36096346971E+02  0.60512139245E+02  0.10566000000E+00 0.  1.
         22    1    1    0    0    0 -0.80695165328E+01 -0.25547151104E+02  0.10040182952E+02  0.28610824880E+02  0.00000000000E+00 0.  1.
</event>
<event>
 5    1  0.1324057E-009  0.9118800E+02  0.7818608E-02  0.1130116E+00
         25   -1    0    0    0    0  0.00000000000E+00  0.00000000000E+00  0.99999998245E-14  0.12500000000E+03  0.12500000000E+03 0.  0.
        -13    1    3    3    0    0  0.12905274285E+02  0.17264197230E+02 -0.55609097175E+02  0.59640434799E+02  0.10566000000E+00 0.  1.
         23    2    1    0    0    0  0.25324417738E+01 -0.43781356907E+01 -0.29360350286E+02  0.95207190425E+02  0.90425646839E+02 0.  0.
         13    1    3    3    0    0 -0.10372832511E+02 -0.21642332920E+02  0.26248746889E+02  0.35566755627E+02  0.10566000000E+00 0. -1.
         22    1    1    0    0    0 -0.25324417738E+01  0.43781356907E+01  0.29360350286E+02  0.29792809575E+02  0.00000000000E+00 0.  1.
</event>
<event>
 5    1  0.1324057E-009  0.9118800E+02  0.7818608E-02  0.1130116E+00
         25   -1    0    0    0    0  0.00000000000E+00  0.00000000000E+00  0.99999998245E-14  0.12500000000E+03  0.12500000000E+03 0.  0.
        -13    1    3    3    0    0 -0.50024588249E+02  0.16406169051E+02 -0.10116251783E+02  0.53609435052E+02  0.10566000000E+00 0.  1.
         23    2    1    0    0    0 -0.20279922534E+02  0.12427035644E+02  0.18339893795E+02  0.94965716635E+02  0.90091226868E+02 0.  0.
         13    1    3    3    0    0  0.29744665716E+02 -0.39791334068E+01  0.28456145577E+02  0.41356281583E+02  0.10566000000E+00 0. -1.
         22    1    1    0    0    0  0.20279922534E+02 -0.12427035644E+02 -0.18339893795E+02  0.30034283365E+02  0.00000000000E+00 0.  1.
</event>
<event>
 5    1  0.1324057E-009  0.9118800E+02  0.7818608E-02  0.1130116E+00
         25   -1    0    0    0    0  0.00000000000E+00  0.00000000000E+00  0.99999998245E-14  0.12500000000E+03  0.12500000000E+03 0.  0.
        -13    1    3    3    0    0 -0.12235054301E+02  0.13097826875E+02 -0.40034952217E+02  0.43864087654E+02  0.10566000000E+00 0. -1.
         23    2    1    0    0    0  0.17055966314E+02 -0.19769244821E+02 -0.10613860658E+02  0.96815197964E+02  0.92621808939E+02 0.  0.
         13    1    3    3    0    0  0.29291020615E+02 -0.32867071697E+02  0.29421091559E+02  0.52951110311E+02  0.10566000000E+00 0.  1.
         22    1    1    0    0    0 -0.17055966314E+02  0.19769244821E+02  0.10613860658E+02  0.28184802036E+02  0.00000000000E+00 0.  1.
</event>
<event>
 5    1  0.1324057E-009  0.9118800E+02  0.7818608E-02  0.1130116E+00
         25   -1    0    0    0    0  0.00000000000E+00  0.00000000000E+00  0.99999998245E-14  0.12500000000E+03  0.12500000000E+03 0.  0.
        -13    1    3    3    0    0  0.38888639097E+02  0.21866805284E+02  0.35738649840E+01  0.44757871923E+02  0.10566000000E+00 0.  1.
         23    2    1    0    0    0  0.10363122677E+02  0.28011336994E+02  0.28932704890E+02  0.83417182346E+02  0.72313868563E+02 0.  0.
         13    1    3    3    0    0 -0.28525516420E+02  0.61445317090E+01  0.25358839906E+02  0.38659310423E+02  0.10566000000E+00 0. -1.
         22    1    1    0    0    0 -0.10363122677E+02 -0.28011336994E+02 -0.28932704890E+02  0.41582817654E+02  0.00000000000E+00 0.  1.
</event>
<event>
 5    1  0.1324057E-009  0.9118800E+02  0.7818608E-02  0.1130116E+00
         25   -1    0    0    0    0  0.00000000000E+00  0.00000000000E+00  0.99999998245E-14  0.12500000000E+03  0.12500000000E+03 0.  0.
        -13    1    3    3    0    0 -0.31549451695E+02  0.17389180736E+02  0.96398508586E+01  0.37291948160E+02  0.10566000000E+00 0. -1.
         23    2    1    0    0    0  0.20462000016E+02 -0.79080543953E+01  0.19118831612E+02  0.95900850680E+02  0.91379498083E+02 0.  0.
         13    1    3    3    0    0  0.52011451711E+02 -0.25297235131E+02  0.94789807538E+01  0.58608902520E+02  0.10566000000E+00 0.  1.
         22    1    1    0    0    0 -0.20462000016E+02  0.79080543953E+01 -0.19118831612E+02  0.29099149320E+02  0.00000000000E+00 0.  1.
</event>
<event>
 5    1  0.1324057E-009  0.9118800E+02  0.7818608E-02  0.1130116E+00
         25   -1    0    0    0    0  0.00000000000E+00  0.00000000000E+00  0.99999998245E-14  0.12500000000E+03  0.12500000000E+03 0.  0.
        -13    1    3    3    0    0 -0.21973788408E+02  0.89222881372E+01  0.29679455123E+02  0.37991259824E+02  0.10566000000E+00 0.  1.
         23    2    1    0    0    0  0.27818512978E+02  0.68958187902E+01 -0.65623662161E+00  0.96332027843E+02  0.91967423367E+02 0.  0.
         13    1    3    3    0    0  0.49792301386E+02 -0.20264693470E+01 -0.30335691745E+02  0.58340768019E+02  0.10566000000E+00 0. -1.
         22    1    1    0    0    0 -0.27818512978E+02 -0.68958187902E+01  0.65623662161E+00  0.28667972157E+02  0.00000000000E+00 0. -1.
</event>
<event>
 5    1  0.1324057E-009  0.9118800E+02  0.7818608E-02  0.1130116E+00
         25   -1    0    0    0    0  0.00000000000E+00  0.00000000000E+00  0.99999998245E-14  0.12500000000E+03  0.12500000000E+03 0.  0.
        -13    1    3    3    0    0 -0.17412625710E+02  0.15106154117E+02 -0.22187842360E+02  0.31995420593E+02  0.10566000000E+00 0.  1.
         23    2    1    0    0    0  0.20084710219E+01 -0.81053848351E+01  0.30838563399E+02  0.93050849594E+02  0.87394006651E+02 0.  0.
         13    1    3    3    0    0  0.19421096732E+02 -0.23211538952E+02  0.53026405759E+02  0.61055429001E+02  0.10566000000E+00 0. -1.
         22    1    1    0    0    0 -0.20084710219E+01  0.81053848351E+01 -0.30838563399E+02  0.31949150406E+02  0.00000000000E+00 0. -1.
</event>
<event>
 5    1  0.1324057E-009  0.9118800E+02  0.7818608E-02  0.1130116E+00
         25   -1    0    0    0    0  0.00000000000E+00  0.00000000000E+00  0.99999998245E-14  0.12500000000E+03  0.12500000000E+03 0.  0.
        -13    1    3    3    0    0 -0.47011206838E+01 -0.34089006199E+02 -0.39863500047E+01  0.34641925895E+02  0.10566000000E+00 0. -1.
         23    2    1    0    0    0  0.55980706449E+01  0.22698881988E+02  0.17043182621E+02  0.96068223140E+02  0.91608164401E+02 0.  0.
         13    1    3    3    0    0  0.10299191329E+02  0.56787888187E+02  0.21029532626E+02  0.61426297245E+02  0.10566000000E+00 0.  1.
         22    1    1    0    0    0 -0.55980706449E+01 -0.22698881988E+02 -0.17043182621E+02  0.28931776860E+02  0.00000000000E+00 0.  1.
</event>
<event>
 5    1  0.1324057E-009  0.9118800E+02  0.7818608E-02  0.1130116E+00
         25   -1    0    0    0    0  0.00000000000E+00  0.00000000000E+00  0.99999998245E-14  0.12500000000E+03  0.12500000000E+03 0.  0.
        -13    1    3    3    0    0 -0.13217429177E+02 -0.94903114816E+01  0.29239283936E+02  0.33462117912E+02  0.10566000000E+00 0. -1.
         23    2    1    0    0    0  0.66273083419E+01  0.82562960214E+01 -0.27171071290E+02  0.95839157164E+02  0.91295067178E+02 0.  0.
         13    1    3    3    0    0  0.19844737519E+02  0.17746607503E+02 -0.56410355226E+02  0.62377039252E+02  0.10566000000E+00 0.  1.
         22    1    1    0    0    0 -0.66273083419E+01 -0.82562960214E+01  0.27171071290E+02  0.29160842836E+02  0.00000000000E+00 0.  1.
</event>
<event>
 5    1  0.1324057E-009  0.9118800E+02  0.7818608E-02  0.1130116E+00
         25   -1    0    0    0    0  0.00000000000E+00  0.00000000000E+00  0.99999998245E-14  0.12500000000E+03  0.12500000000E+03 0.  0.
        -13    1    3    3    0    0  0.44655516287E+02  0.37856569391E+01 -0.16836630851E+02  0.47874101932E+02  0.10566000000E+00 0.  1.
         23    2    1    0    0    0  0.48746659673E+01 -0.23551167460E+02 -0.15932750387E+02  0.96150868438E+02  0.91720865180E+02 0.  0.
         13    1    3    3    0    0 -0.39780850320E+02 -0.27336824399E+02  0.90388046432E+00  0.48276766506E+02  0.10566000000E+00 0. -1.
         22    1    1    0    0    0 -0.48746659673E+01  0.23551167460E+02  0.15932750387E+02  0.28849131562E+02  0.00000000000E+00 0. -1.
</event>
<event>
 5    1  0.1324057E-009  0.9118800E+02  0.7818608E-02  0.1130116E+00
         25   -1    0    0    0    0  0.00000000000E+00  0.00000000000E+00  0.99999998245E-14  0.12500000000E+03  0.12500000000E+03 0.  0.
        -13    1    3    3    0    0 -0.12775168925E+01 -0.39455270909E+02  0.11056892356E+02  0.40995322715E+02  0.10566000000E+00 0.  1.
         23    2    1    0    0    0 -0.97651152393E+01  0.29997622845E+01  0.33651763488E+02  0.89831871883E+02  0.82661768495E+02 0.  0.
         13    1    3    3    0    0 -0.84875983468E+01  0.42455033193E+02  0.22594871132E+02  0.48836549168E+02  0.10566000000E+00 0. -1.
         22    1    1    0    0    0  0.97651152393E+01 -0.29997622845E+01 -0.33651763488E+02  0.35168128117E+02  0.00000000000E+00 0. -1.
</event>
<event>
 5    1  0.1324057E-009  0.9118800E+02  0.7818608E-02  0.1130116E+00
         25   -1    0    0    0    0  0.00000000000E+00  0.00000000000E+00  0.99999998245E-14  0.12500000000E+03  0.12500000000E+03 0.  0.
        -13    1    3    3    0    0  0.27041475572E+02  0.95364981278E+01 -0.37890704994E+02  0.47517395622E+02  0.10566000000E+00 0. -1.
         23    2    1    0    0    0  0.53700279774E+01  0.31206087449E+02 -0.42064819035E+01  0.93057057362E+02  0.87402885196E+02 0.  0.
         13    1    3    3    0    0 -0.21671447595E+02  0.21669589321E+02  0.33684223091E+02  0.45539661741E+02  0.10566000000E+00 0.  1.
         22    1    1    0    0    0 -0.53700279774E+01 -0.31206087449E+02  0.42064819035E+01  0.31942942638E+02  0.00000000000E+00 0.  1.
</event>
<event>
 5    1  0.1324057E-009  0.9118800E+02  0.7818608E-02  0.1130116E+00
         25   -1    0    0    0    0  0.00000000000E+00  0.00000000000E+00  0.99999998245E-14  0.12500000000E+03  0.12500000000E+03 0.  0.
        -13    1    3    3    0    0  0.45378971050E+00  0.33710391028E+02  0.63770306656E+01  0.34311427725E+02  0.10566000000E+00 0. -1.
         23    2    1    0    0    0  0.28564823988E+02 -0.10775904002E+02  0.19789179022E+02  0.88617574533E+02  0.80804663438E+02 0.  0.
         13    1    3    3    0    0  0.28111034277E+02 -0.44486295030E+02  0.13412148356E+02  0.54306146808E+02  0.10566000000E+00 0.  1.
         22    1    1    0    0    0 -0.28564823988E+02  0.10775904002E+02 -0.19789179022E+02  0.36382425467E+02  0.00000000000E+00 0.  1.
</event>
<event>
 5    1  0.1324057E-009  0.9118800E+02  0.7818608E-02  0.1130116E+00
         25   -1    0    0    0    0  0.00000000000E+00  0.00000000000E+00  0.99999998245E-14  0.12500000000E+03  0.12500000000E+03 0.  0.
        -13    1    3    3    0    0 -0.20197266446E+02 -0.13708266112E+00 -0.35179922305E+02  0.40565828735E+02  0.10566000000E+00 0.  1.
         23    2    1    0    0    0 -0.19133054875E+02 -0.10587749748E+02  0.19168779247E+02  0.95920517003E+02  0.91406396115E+02 0.  0.
         13    1    3    3    0    0  0.10642115711E+01 -0.10450667087E+02  0.54348701552E+02  0.55354688268E+02  0.10566000000E+00 0. -1.
         22    1    1    0    0    0  0.19133054875E+02  0.10587749748E+02 -0.19168779247E+02  0.29079482997E+02  0.00000000000E+00 0. -1.
</event>
<event>
 5    1  0.1324057E-009  0.9118800E+02  0.7818608E-02  0.1130116E+00
         25   -1    0    0    0    0  0.00000000000E+00  0.00000000000E+00  0.99999998245E-14  0.12500000000E+03  0.12500000000E+03 0.  0.
        -13    1    3    3    0    0  0.49697350743E+02  0.30778545271E+02 -0.15871042308E+02  0.60572656108E+02  0.10566000000E+00 0.  1.
         23    2    1    0    0    0  0.26013811095E+02  0.43909716143E+01 -0.11210993418E+02  0.96334945093E+02  0.91971388340E+02 0.  0.
         13    1    3    3    0    0 -0.23683539648E+02 -0.26387573657E+02  0.46600488909E+01  0.35762288985E+02  0.10566000000E+00 0. -1.
         22    1    1    0    0    0 -0.26013811095E+02 -0.43909716143E+01  0.11210993418E+02  0.28665054907E+02  0.00000000000E+00 0.  1.
</event>
<event>
 5    1  0.1324057E-009  0.9118800E+02  0.7818608E-02  0.1130116E+00
         25   -1    0    0    0    0  0.00000000000E+00  0.00000000000E+00  0.99999998245E-14  0.12500000000E+03  0.12500000000E+03 0.  0.
        -13    1    3    3    0    0  0.16798463299E+02 -0.12428678934E+02 -0.47894074472E+02  0.52254320040E+02  0.10566000000E+00 0. -1.
         23    2    1    0    0    0  0.25053569348E+02 -0.17876065097E+02 -0.82182240469E+01  0.93144478549E+02  0.87527822075E+02 0.  0.
         13    1    3    3    0    0  0.82551060496E+01 -0.54473861634E+01  0.39675850425E+02  0.40890158509E+02  0.10566000000E+00 0.  1.
         22    1    1    0    0    0 -0.25053569348E+02  0.17876065097E+02  0.82182240469E+01  0.31855521451E+02  0.00000000000E+00 0. -1.
</event>
<event>
 5    1  0.1324057E-009  0.9118800E+02  0.7818608E-02  0.1130116E+00
         25   -1    0    0    0    0  0.00000000000E+00  0.00000000000E+00  0.99999998245E-14  0.12500000000E+03  0.12500000000E+03 0.  0.
        -13    1    3    3    0    0  0.13374186543E+02  0.43024994876E+02 -0.95204652663E+01  0.46050727167E+02  0.10566000000E+00 0. -1.
         23    2    1    0    0    0 -0.15595652335E+02  0.18586629846E+02  0.19569569897E+02  0.93828614937E+02  0.88499456124E+02 0.  0.
         13    1    3    3    0    0 -0.28969838878E+02 -0.24438365030E+02  0.29090035163E+02  0.47777887770E+02  0.10566000000E+00 0.  1.
         22    1    1    0    0    0  0.15595652335E+02 -0.18586629846E+02 -0.19569569897E+02  0.31171385063E+02  0.00000000000E+00 0.  1.
</event>
<event>
 5    1  0.1324057E-009  0.9118800E+02  0.7818608E-02  0.1130116E+00
         25   -1    0    0    0    0  0.00000000000E+00  0.00000000000E+00  0.99999998245E-14  0.12500000000E+03  0.12500000000E+03 0.  0.
        -13    1    3    3    0    0 -0.79220683164E+00  0.46301664859E+02  0.24288890177E+02  0.52291807297E+02  0.10566000000E+00 0. -1.
         23    2    1    0    0    0  0.40433343820E+01  0.30556905518E+02 -0.11826485114E+02  0.91985779157E+02  0.85857118454E+02 0.  0.
         13    1    3    3    0    0  0.48355412136E+01 -0.15744759341E+02 -0.36115375291E+02  0.39693971859E+02  0.10566000000E+00 0.  1.
         22    1    1    0    0    0 -0.40433343820E+01 -0.30556905518E+02  0.11826485114E+02  0.33014220843E+02  0.00000000000E+00 0. -1.
</event>
<event>
 5    1  0.1324057E-009  0.9118800E+02  0.7818608E-02  0.1130116E+00
         25   -1    0    0    0    0  0.00000000000E+00  0.00000000000E+00  0.99999998245E-14  0.12500000000E+03  0.12500000000E+03 0.  0.
        -13    1    3    3    0    0  0.19414849362E+02  0.26348916084E+02 -0.32119921533E+02  0.45857412464E+02  0.10566000000E+00 0. -1.
         23    2    1    0    0    0  0.22801897523E+02 -0.33754245200E+01  0.11882800432E+02  0.99066990775E+02  0.95612487123E+02 0.  0.
         13    1    3    3    0    0  0.33870481607E+01 -0.29724340604E+02  0.44002721966E+02  0.53209578311E+02  0.10566000000E+00 0.  1.
         22    1    1    0    0    0 -0.22801897523E+02  0.33754245200E+01 -0.11882800432E+02  0.25933009225E+02  0.00000000000E+00 0.  1.
</event>
<event>
 5    1  0.1324057E-009  0.9118800E+02  0.7818608E-02  0.1130116E+00
         25   -1    0    0    0    0  0.00000000000E+00  0.00000000000E+00  0.99999998245E-14  0.12500000000E+03  0.12500000000E+03 0.  0.
        -13    1    3    3    0    0  0.34310795953E+02  0.17198708120E+02 -0.31410180618E+02  0.49594726438E+02  0.10566000000E+00 0.  1.
         23    2    1    0    0    0 -0.71583149827E+01  0.22200936719E+02 -0.23076254822E+02  0.92187858936E+02  0.86150825498E+02 0.  0.
         13    1    3    3    0    0 -0.41469110936E+02  0.50022285995E+01  0.83339257957E+01  0.42593132498E+02  0.10566000000E+00 0. -1.
         22    1    1    0    0    0  0.71583149827E+01 -0.22200936719E+02  0.23076254822E+02  0.32812141064E+02  0.00000000000E+00 0. -1.
</event>
<event>
 5    1  0.1324057E-009  0.9118800E+02  0.7818608E-02  0.1130116E+00
         25   -1    0    0    0    0  0.00000000000E+00  0.00000000000E+00  0.99999998245E-14  0.12500000000E+03  0.12500000000E+03 0.  0.
        -13    1    3    3    0    0 -0.51360553546E+02  0.28757975592E+02 -0.97955098523E+01  0.59673199998E+02  0.10566000000E+00 0.  1.
         23    2    1    0    0    0 -0.26372884163E+02  0.65706708322E+00 -0.84406306772E+01  0.97301534294E+02  0.93275846678E+02 0.  0.
         13    1    3    3    0    0  0.24987669383E+02 -0.28100908509E+02  0.13548791751E+01  0.37628334295E+02  0.10566000000E+00 0. -1.
         22    1    1    0    0    0  0.26372884163E+02 -0.65706708322E+00  0.84406306772E+01  0.27698465706E+02  0.00000000000E+00 0.  1.
</event>
<event>
 5    1  0.1324057E-009  0.9118800E+02  0.7818608E-02  0.1130116E+00
         25   -1    0    0    0    0  0.00000000000E+00  0.00000000000E+00  0.99999998245E-14  0.12500000000E+03  0.12500000000E+03 0.  0.
        -13    1    3    3    0    0 -0.17515832210E+02  0.16942244697E+02  0.34479586912E+02  0.42221997952E+02  0.10566000000E+00 0. -1.
         23    2    1    0    0    0  0.27472421433E+02  0.22895472122E+01  0.87661079931E+01  0.96072148106E+02  0.91613519889E+02 0.  0.
         13    1    3    3    0    0  0.44988253643E+02 -0.14652697485E+02 -0.25713478919E+02  0.53850150154E+02  0.10566000000E+00 0.  1.
         22    1    1    0    0    0 -0.27472421433E+02 -0.22895472122E+01 -0.87661079931E+01  0.28927851894E+02  0.00000000000E+00 0.  1.
</event>
<event>
 5    1  0.1324057E-009  0.9118800E+02  0.7818608E-02  0.1130116E+00
         25   -1    0    0    0    0  0.00000000000E+00  0.00000000000E+00  0.99999998245E-14  0.12500000000E+03  0.12500000000E+03 0.  0.
        -13    1    3    3    0    0  0.16832136690E+01  0.37874174243E+02  0.32766366442E+02  0.50109202914E+02  0.10566000000E+00 0. -1.
         23    2    1    0    0    0  0.24724811006E+02  0.21670492095E+02  0.16511627448E+01  0.92081117192E+02  0.85995809770E+02 0.  0.
         13    1    3    3    0    0  0.23041597337E+02 -0.16203682148E+02 -0.31115203698E+02  0.41971914278E+02  0.10566000000E+00 0.  1.
         22    1    1    0    0    0 -0.24724811006E+02 -0.21670492095E+02 -0.16511627448E+01  0.32918882808E+02  0.00000000000E+00 0. -1.
</event>
<event>
 5    1  0.1324057E-009  0.9118800E+02  0.7818608E-02  0.1130116E+00
         25   -1    0    0    0    0  0.00000000000E+00  0.00000000000E+00  0.99999998245E-14  0.12500000000E+03  0.12500000000E+03 0.  0.
        -13    1    3    3    0    0  0.35097939999E+02 -0.15225521863E+02  0.24317942037E+02  0.45332718616E+02  0.10566000000E+00 0.  1.
         23    2    1    0    0    0  0.13660431756E+02  0.25758313769E+02  0.51840340756E+01  0.95386281333E+02  0.90672875400E+02 0.  0.
         13    1    3    3    0    0 -0.21437508243E+02  0.40983835632E+02 -0.19133907962E+02  0.50053562717E+02  0.10566000000E+00 0. -1.
         22    1    1    0    0    0 -0.13660431756E+02 -0.25758313769E+02 -0.51840340756E+01  0.29613718667E+02  0.00000000000E+00 0. -1.
</event>
<event>
 5    1  0.1324057E-009  0.9118800E+02  0.7818608E-02  0.1130116E+00
         25   -1    0    0    0    0  0.00000000000E+00  0.00000000000E+00  0.99999998245E-14  0.12500000000E+03  0.12500000000E+03 0.  0.
        -13    1    3    3    0    0  0.13791527017E+02 -0.70872287319E+01  0.46125666821E+02  0.48662339979E+02  0.10566000000E+00 0. -1.
         23    2    1    0    0    0  0.57953282019E+01  0.25205093374E+02  0.11449761625E+02  0.96716089340E+02  0.92487957784E+02 0.  0.
         13    1    3    3    0    0 -0.79961988146E+01  0.32292322106E+02 -0.34675905196E+02  0.48053749361E+02  0.10566000000E+00 0.  1.
         22    1    1    0    0    0 -0.57953282019E+01 -0.25205093374E+02 -0.11449761625E+02  0.28283910660E+02  0.00000000000E+00 0.  1.
</event>
<event>
 5    1  0.1324057E-009  0.9118800E+02  0.7818608E-02  0.1130116E+00
         25   -1    0    0    0    0  0.00000000000E+00  0.00000000000E+00  0.99999998245E-14  0.12500000000E+03  0.12500000000E+03 0.  0.
        -13    1    3    3    0    0 -0.40354641845E+02 -0.21057366064E+01  0.34045044146E+01  0.40552842803E+02  0.10566000000E+00 0. -1.
         23    2    1    0    0    0  0.79212167098E+01 -0.26540770679E+02 -0.86423234028E+01  0.95985384093E+02  0.91495060103E+02 0.  0.
         13    1    3    3    0    0  0.48275858555E+02 -0.24435034073E+02 -0.12046827817E+02  0.55432541290E+02  0.10566000000E+00 0.  1.
         22    1    1    0    0    0 -0.79212167098E+01  0.26540770679E+02  0.86423234028E+01  0.29014615907E+02  0.00000000000E+00 0.  1.
</event>
<event>
 5    1  0.1324057E-009  0.9118800E+02  0.7818608E-02  0.1130116E+00
         25   -1    0    0    0    0  0.00000000000E+00  0.00000000000E+00  0.99999998245E-14  0.12500000000E+03  0.12500000000E+03 0.  0.
        -13    1    3    3    0    0 -0.80780674709E+01  0.37831349119E+02  0.33605114407E+02  0.51242375321E+02  0.10566000000E+00 0. -1.
         23    2    1    0    0    0 -0.26632156441E+02  0.11603667085E+02  0.26946320660E+01  0.95825046899E+02  0.91275745544E+02 0.  0.
         13    1    3    3    0    0 -0.18554088970E+02 -0.26227682034E+02 -0.30910482341E+02  0.44582671577E+02  0.10566000000E+00 0.  1.
         22    1    1    0    0    0  0.26632156441E+02 -0.11603667085E+02 -0.26946320660E+01  0.29174953101E+02  0.00000000000E+00 0. -1.
</event>
<event>
 5    1  0.1324057E-009  0.9118800E+02  0.7818608E-02  0.1130116E+00
         25   -1    0    0    0    0  0.00000000000E+00  0.00000000000E+00  0.99999998245E-14  0.12500000000E+03  0.12500000000E+03 0.  0.
        -13    1    3    3    0    0  0.31800424282E+02 -0.22548414264E+02 -0.29138300025E+02  0.48669802370E+02  0.10566000000E+00 0.  1.
         23    2    1    0    0    0  0.21291979400E+02 -0.11250626045E+02  0.15809744073E+02  0.96192483952E+02  0.91777562552E+02 0.  0.
         13    1    3    3    0    0 -0.10508444882E+02  0.11297788219E+02  0.44948044098E+02  0.47522681582E+02  0.10566000000E+00 0. -1.
         22    1    1    0    0    0 -0.21291979400E+02  0.11250626045E+02 -0.15809744073E+02  0.28807516048E+02  0.00000000000E+00 0.  1.
</event>
<event>
 5    1  0.1324057E-009  0.9118800E+02  0.7818608E-02  0.1130116E+00
         25   -1    0    0    0    0  0.00000000000E+00  0.00000000000E+00  0.99999998245E-14  0.12500000000E+03  0.12500000000E+03 0.  0.
        -13    1    3    3    0    0  0.35972792037E+02 -0.29911263775E+01 -0.12369647652E+02  0.38157672243E+02  0.10566000000E+00 0.  1.
         23    2    1    0    0    0 -0.14743325546E+02 -0.25671155975E+02  0.12884451549E+01  0.95368361703E+02  0.90648168353E+02 0.  0.
         13    1    3    3    0    0 -0.50716117583E+02 -0.22680029598E+02  0.13658092807E+02  0.57210689459E+02  0.10566000000E+00 0. -1.
         22    1    1    0    0    0  0.14743325546E+02  0.25671155975E+02 -0.12884451549E+01  0.29631638297E+02  0.00000000000E+00 0. -1.
</event>
<event>
 5    1  0.1324057E-009  0.9118800E+02  0.7818608E-02  0.1130116E+00
         25   -1    0    0    0    0  0.00000000000E+00  0.00000000000E+00  0.99999998245E-14  0.12500000000E+03  0.12500000000E+03 0.  0.
        -13    1    3    3    0    0  0.54969605736E+02 -0.39334340451E+01  0.28138868359E+02  0.61878401197E+02  0.10566000000E+00 0.  1.
         23    2    1    0    0    0  0.28597743467E+02  0.17333396531E+01  0.89395975208E+01  0.94987472589E+02  0.90121407819E+02 0.  0.
         13    1    3    3    0    0 -0.26371862269E+02  0.56667736982E+01 -0.19199270838E+02  0.33109071392E+02  0.10566000000E+00 0. -1.
         22    1    1    0    0    0 -0.28597743467E+02 -0.17333396531E+01 -0.89395975208E+01  0.30012527411E+02  0.00000000000E+00 0.  1.
</event>
<event>
 5    1  0.1324057E-009  0.9118800E+02  0.7818608E-02  0.1130116E+00
         25   -1    0    0    0    0  0.00000000000E+00  0.00000000000E+00  0.99999998245E-14  0.12500000000E+03  0.12500000000E+03 0.  0.
        -13    1    3    3    0    0  0.24328846690E+02 -0.12056242140E+02 -0.37620942293E+02  0.46396036672E+02  0.10566000000E+00 0. -1.
         23    2    1    0    0    0 -0.36798235283E+01  0.23192760754E+02 -0.17520144435E+02  0.95701523698E+02  0.91106426362E+02 0.  0.
         13    1    3    3    0    0 -0.28008670219E+02  0.35249002893E+02  0.20100797857E+02  0.49305487026E+02  0.10566000000E+00 0.  1.
         22    1    1    0    0    0  0.36798235283E+01 -0.23192760754E+02  0.17520144435E+02  0.29298476302E+02  0.00000000000E+00 0. -1.
</event>
<event>
 5    1  0.1324057E-009  0.9118800E+02  0.7818608E-02  0.1130116E+00
         25   -1    0    0    0    0  0.00000000000E+00  0.00000000000E+00  0.99999998245E-14  0.12500000000E+03  0.12500000000E+03 0.  0.
        -13    1    3    3    0    0  0.43182805318E+02  0.12295559772E+02 -0.25997095960E+02  0.51882517553E+02  0.10566000000E+00 0. -1.
         23    2    1    0    0    0  0.22339486440E+02 -0.19888638902E+02 -0.95823920284E+01  0.93592471464E+02  0.88165287194E+02 0.  0.
         13    1    3    3    0    0 -0.20843318878E+02 -0.32184198673E+02  0.16414703932E+02  0.41709953911E+02  0.10566000000E+00 0.  1.
         22    1    1    0    0    0 -0.22339486440E+02  0.19888638902E+02  0.95823920284E+01  0.31407528536E+02  0.00000000000E+00 0. -1.
</event>
<event>
 5    1  0.1324057E-009  0.9118800E+02  0.7818608E-02  0.1130116E+00
         25   -1    0    0    0    0  0.00000000000E+00  0.00000000000E+00  0.99999998245E-14  0.12500000000E+03  0.12500000000E+03 0.  0.
        -13    1    3    3    0    0 -0.29320217546E+01 -0.51110640246E+02 -0.35339474030E+02  0.62207587051E+02  0.10566000000E+00 0.  1.
         23    2    1    0    0    0 -0.39716356813E+01 -0.18588150365E+02 -0.16643004283E+02  0.99735740352E+02  0.96482822761E+02 0.  0.
         13    1    3    3    0    0 -0.10396139266E+01  0.32522489880E+02  0.18696469747E+02  0.37528153301E+02  0.10566000000E+00 0. -1.
         22    1    1    0    0    0  0.39716356813E+01  0.18588150365E+02  0.16643004283E+02  0.25264259648E+02  0.00000000000E+00 0.  1.
</event>
<event>
 5    1  0.1324057E-009  0.9118800E+02  0.7818608E-02  0.1130116E+00
         25   -1    0    0    0    0  0.00000000000E+00  0.00000000000E+00  0.99999998245E-14  0.12500000000E+03  0.12500000000E+03 0.  0.
        -13    1    3    3    0    0 -0.38072184146E+02 -0.23960533641E+02 -0.56651013424E+01  0.45339860115E+02  0.10566000000E+00 0. -1.
         23    2    1    0    0    0 -0.35551712354E+02 -0.12442156819E+01 -0.29810470196E+02  0.78587324390E+02  0.63417908334E+02 0.  0.
         13    1    3    3    0    0  0.25204717913E+01  0.22716317959E+02 -0.24145368853E+02  0.33247464275E+02  0.10566000000E+00 0.  1.
         22    1    1    0    0    0  0.35551712354E+02  0.12442156819E+01  0.29810470196E+02  0.46412675610E+02  0.00000000000E+00 0. -1.
</event>
<event>
 5    1  0.1324057E-009  0.9118800E+02  0.7818608E-02  0.1130116E+00
         25   -1    0    0    0    0  0.00000000000E+00  0.00000000000E+00  0.99999998245E-14  0.12500000000E+03  0.12500000000E+03 0.  0.
        -13    1    3    3    0    0 -0.20392938316E+02  0.57226627849E+02 -0.97212033878E+01  0.61524562798E+02  0.10566000000E+00 0. -1.
         23    2    1    0    0    0 -0.12390867091E+02  0.24346032769E+02 -0.11382223146E+02  0.95405779237E+02  0.90699750877E+02 0.  0.
         13    1    3    3    0    0  0.80020712260E+01 -0.32880595080E+02 -0.16610197587E+01  0.33881216439E+02  0.10566000000E+00 0.  1.
         22    1    1    0    0    0  0.12390867091E+02 -0.24346032769E+02  0.11382223146E+02  0.29594220763E+02  0.00000000000E+00 0. -1.
</event>
<event>
 5    1  0.1324057E-009  0.9118800E+02  0.7818608E-02  0.1130116E+00
         25   -1    0    0    0    0  0.00000000000E+00  0.00000000000E+00  0.99999998245E-14  0.12500000000E+03  0.12500000000E+03 0.  0.
        -13    1    3    3    0    0 -0.20188499681E+02  0.82500139125E+01  0.29297810636E+02  0.36524116978E+02  0.10566000000E+00 0.  1.
         23    2    1    0    0    0  0.11257857447E+02 -0.33237287865E+01 -0.23312280269E+02  0.98899254058E+02  0.95392942688E+02 0.  0.
         13    1    3    3    0    0  0.31446357129E+02 -0.11573742699E+02 -0.52610090905E+02  0.62375137080E+02  0.10566000000E+00 0. -1.
         22    1    1    0    0    0 -0.11257857447E+02  0.33237287865E+01  0.23312280269E+02  0.26100745942E+02  0.00000000000E+00 0. -1.
</event>
<event>
 5    1  0.1324057E-009  0.9118800E+02  0.7818608E-02  0.1130116E+00
         25   -1    0    0    0    0  0.00000000000E+00  0.00000000000E+00  0.99999998245E-14  0.12500000000E+03  0.12500000000E+03 0.  0.
        -13    1    3    3    0    0 -0.13728327378E+02  0.33193911779E+02  0.14473454166E+02  0.38727184139E+02  0.10566000000E+00 0.  1.
         23    2    1    0    0    0  0.13995425181E+01  0.30907419968E+01 -0.30160623384E+02  0.94649141556E+02  0.89650908467E+02 0.  0.
         13    1    3    3    0    0  0.15127869896E+02 -0.30103169783E+02 -0.44634077550E+02  0.55921957417E+02  0.10566000000E+00 0. -1.
         22    1    1    0    0    0 -0.13995425181E+01 -0.30907419968E+01  0.30160623384E+02  0.30350858444E+02  0.00000000000E+00 0. -1.
</event>
<event>
 5    1  0.1324057E-009  0.9118800E+02  0.7818608E-02  0.1130116E+00
         25   -1    0    0    0    0  0.00000000000E+00  0.00000000000E+00  0.99999998245E-14  0.12500000000E+03  0.12500000000E+03 0.  0.
        -13    1    3    3    0    0  0.35274913008E+02 -0.33149019592E+02 -0.38243536232E+02  0.61690811432E+02  0.10566000000E+00 0. -1.
         23    2    1    0    0    0  0.21862249742E+02 -0.11181019332E+02 -0.16170920750E+02  0.95598098106E+02  0.90964413517E+02 0.  0.
         13    1    3    3    0    0 -0.13412663266E+02  0.21968000260E+02  0.22072615482E+02  0.33907286674E+02  0.10566000000E+00 0.  1.
         22    1    1    0    0    0 -0.21862249742E+02  0.11181019332E+02  0.16170920750E+02  0.29401901894E+02  0.00000000000E+00 0. -1.
</event>
<event>
 5    1  0.1324057E-009  0.9118800E+02  0.7818608E-02  0.1130116E+00
         25   -1    0    0    0    0  0.00000000000E+00  0.00000000000E+00  0.99999998245E-14  0.12500000000E+03  0.12500000000E+03 0.  0.
        -13    1    3    3    0    0  0.30091289370E+01  0.67656210276E+01 -0.37921131719E+02  0.38637441424E+02  0.10566000000E+00 0.  1.
         23    2    1    0    0    0  0.17765106921E+02 -0.14338772696E+02  0.15132340348E+02  0.97610455448E+02  0.93688920701E+02 0.  0.
         13    1    3    3    0    0  0.14755977984E+02 -0.21104393724E+02  0.53053472067E+02  0.58973014025E+02  0.10566000000E+00 0. -1.
         22    1    1    0    0    0 -0.17765106921E+02  0.14338772696E+02 -0.15132340348E+02  0.27389544552E+02  0.00000000000E+00 0. -1.
</event>
<event>
 5    1  0.1324057E-009  0.9118800E+02  0.7818608E-02  0.1130116E+00
         25   -1    0    0    0    0  0.00000000000E+00  0.00000000000E+00  0.99999998245E-14  0.12500000000E+03  0.12500000000E+03 0.  0.
        -13    1    3    3    0    0  0.28846756127E+02 -0.30960902906E+02 -0.29047557801E+02  0.51327230844E+02  0.10566000000E+00 0. -1.
         23    2    1    0    0    0 -0.43869328103E+01  0.80193508330E+00 -0.27306676862E+02  0.97331554424E+02  0.93316068316E+02 0.  0.
         13    1    3    3    0    0 -0.33233688937E+02  0.31762837990E+02  0.17408809392E+01  0.46004323580E+02  0.10566000000E+00 0.  1.
         22    1    1    0    0    0  0.43869328103E+01 -0.80193508330E+00  0.27306676862E+02  0.27668445576E+02  0.00000000000E+00 0. -1.
</event>
<event>
 5    1  0.1324057E-009  0.9118800E+02  0.7818608E-02  0.1130116E+00
         25   -1    0    0    0    0  0.00000000000E+00  0.00000000000E+00  0.99999998245E-14  0.12500000000E+03  0.12500000000E+03 0.  0.
        -13    1    3    3    0    0  0.32246458459E+02 -0.45076561804E+02  0.21080434950E+02  0.59296934229E+02  0.10566000000E+00 0.  1.
         23    2    1    0    0    0  0.12843446832E+02 -0.24972538154E+02 -0.37409746589E+01  0.96670215677E+02  0.92425937481E+02 0.  0.
         13    1    3    3    0    0 -0.19403011628E+02  0.20104023650E+02 -0.24821409609E+02  0.37373281448E+02  0.10566000000E+00 0. -1.
         22    1    1    0    0    0 -0.12843446832E+02  0.24972538154E+02  0.37409746589E+01  0.28329784323E+02  0.00000000000E+00 0.  1.
</event>
<event>
 5    1  0.1324057E-009  0.9118800E+02  0.7818608E-02  0.1130116E+00
         25   -1    0    0    0    0  0.00000000000E+00  0.00000000000E+00  0.99999998245E-14  0.12500000000E+03  0.12500000000E+03 0.  0.
        -13    1    3    3    0    0 -0.57294389536E+02 -0.21713577957E+01  0.15241688412E+02  0.59326908706E+02  0.10566000000E+00 0.  1.
         23    2    1    0    0    0 -0.26203070204E+02  0.12841308568E+02  0.45767893329E+01  0.95462784586E+02  0.90778280147E+02 0.  0.
         13    1    3    3    0    0  0.31091319332E+02  0.15012666364E+02 -0.10664899079E+02  0.36135875879E+02  0.10566000000E+00 0. -1.
         22    1    1    0    0    0  0.26203070204E+02 -0.12841308568E+02 -0.45767893329E+01  0.29537215414E+02  0.00000000000E+00 0.  1.
</event>
<event>
 5    1  0.1324057E-009  0.9118800E+02  0.7818608E-02  0.1130116E+00
         25   -1    0    0    0    0  0.00000000000E+00  0.00000000000E+00  0.99999998245E-14  0.12500000000E+03  0.12500000000E+03 0.  0.
        -13    1    3    3    0    0 -0.97707211383E+01  0.28243458485E+02  0.54703707845E+02  0.62335116546E+02  0.10566000000E+00 0.  1.
         23    2    1    0    0    0 -0.18237902122E+01  0.14837706610E+02  0.25309745668E+02  0.95604983859E+02  0.90973875177E+02 0.  0.
         13    1    3    3    0    0  0.79469309261E+01 -0.13405751876E+02 -0.29393962177E+02  0.33269867313E+02  0.10566000000E+00 0. -1.
         22    1    1    0    0    0  0.18237902122E+01 -0.14837706610E+02 -0.25309745668E+02  0.29395016141E+02  0.00000000000E+00 0.  1.
</event>
<event>
 5    1  0.1324057E-009  0.9118800E+02  0.7818608E-02  0.1130116E+00
         25   -1    0    0    0    0  0.00000000000E+00  0.00000000000E+00  0.99999998245E-14  0.12500000000E+03  0.12500000000E+03 0.  0.
        -13    1    3    3    0    0 -0.16019362630E+02  0.17624100919E+02 -0.44974020900E+02  0.50891085980E+02  0.10566000000E+00 0. -1.
         23    2    1    0    0    0  0.11678835121E+02 -0.11146550095E+02 -0.24203282616E+02  0.95906363957E+02  0.91387039503E+02 0.  0.
         13    1    3    3    0    0  0.27698197751E+02 -0.28770651014E+02  0.20770738284E+02  0.45015277977E+02  0.10566000000E+00 0.  1.
         22    1    1    0    0    0 -0.11678835121E+02  0.11146550095E+02  0.24203282616E+02  0.29093636043E+02  0.00000000000E+00 0. -1.
</event>
<event>
 5    1  0.1324057E-009  0.9118800E+02  0.7818608E-02  0.1130116E+00
         25   -1    0    0    0    0  0.00000000000E+00  0.00000000000E+00  0.99999998245E-14  0.12500000000E+03  0.12500000000E+03 0.  0.
        -13    1    3    3    0    0 -0.30713086505E+02  0.21655997395E+02  0.88929728224E-01  0.37580513279E+02  0.10566000000E+00 0.  1.
         23    2    1    0    0    0  0.21628465924E+02  0.30058180859E+01 -0.18714941653E+02  0.96241096654E+02  0.91843748636E+02 0.  0.
         13    1    3    3    0    0  0.52341552429E+02 -0.18650179309E+02 -0.18803871381E+02  0.58660583375E+02  0.10566000000E+00 0. -1.
         22    1    1    0    0    0 -0.21628465924E+02 -0.30058180859E+01  0.18714941653E+02  0.28758903346E+02  0.00000000000E+00 0. -1.
</event>
<event>
 5    1  0.1324057E-009  0.9118800E+02  0.7818608E-02  0.1130116E+00
         25   -1    0    0    0    0  0.00000000000E+00  0.00000000000E+00  0.99999998245E-14  0.12500000000E+03  0.12500000000E+03 0.  0.
        -13    1    3    3    0    0 -0.20146978774E+02  0.46100764374E+02 -0.10936336530E+02  0.51485880107E+02  0.10566000000E+00 0.  1.
         23    2    1    0    0    0  0.13805158177E+01  0.22751733552E+02  0.19147546172E+02  0.95231296166E+02  0.90458963301E+02 0.  0.
         13    1    3    3    0    0  0.21527494592E+02 -0.23349030822E+02  0.30083882702E+02  0.43745416059E+02  0.10566000000E+00 0. -1.
         22    1    1    0    0    0 -0.13805158177E+01 -0.22751733552E+02 -0.19147546172E+02  0.29768703834E+02  0.00000000000E+00 0.  1.
</event>
<event>
 5    1  0.1324057E-009  0.9118800E+02  0.7818608E-02  0.1130116E+00
         25   -1    0    0    0    0  0.00000000000E+00  0.00000000000E+00  0.99999998245E-14  0.12500000000E+03  0.12500000000E+03 0.  0.
        -13    1    3    3    0    0  0.45790371434E+02 -0.32814360412E+02 -0.86822611717E+01  0.56999413931E+02  0.10566000000E+00 0.  1.
         23    2    1    0    0    0  0.10796626563E+02 -0.20389180275E+02 -0.18520184712E+02  0.95414816898E+02  0.90712205488E+02 0.  0.
         13    1    3    3    0    0 -0.34993744871E+02  0.12425180137E+02 -0.98379235400E+01  0.38415402968E+02  0.10566000000E+00 0. -1.
         22    1    1    0    0    0 -0.10796626563E+02  0.20389180275E+02  0.18520184712E+02  0.29585183102E+02  0.00000000000E+00 0.  1.
</event>
<event>
 5    1  0.1324057E-009  0.9118800E+02  0.7818608E-02  0.1130116E+00
         25   -1    0    0    0    0  0.00000000000E+00  0.00000000000E+00  0.99999998245E-14  0.12500000000E+03  0.12500000000E+03 0.  0.
        -13    1    3    3    0    0  0.13516893485E+02 -0.34147324225E+02  0.21348401510E+02  0.42479542986E+02  0.10566000000E+00 0.  1.
         23    2    1    0    0    0  0.31805859020E+02  0.37568552860E+01 -0.56465804192E+01  0.92479075965E+02  0.86572333868E+02 0.  0.
         13    1    3    3    0    0  0.18288965535E+02  0.37904179511E+02 -0.26994981929E+02  0.49999532980E+02  0.10566000000E+00 0. -1.
         22    1    1    0    0    0 -0.31805859020E+02 -0.37568552860E+01  0.56465804192E+01  0.32520924035E+02  0.00000000000E+00 0.  1.
</event>
<event>
 5    1  0.1324057E-009  0.9118800E+02  0.7818608E-02  0.1130116E+00
         25   -1    0    0    0    0  0.00000000000E+00  0.00000000000E+00  0.99999998245E-14  0.12500000000E+03  0.12500000000E+03 0.  0.
        -13    1    3    3    0    0 -0.27322361658E+02  0.95647620952E-01  0.51030514251E+02  0.57884757439E+02  0.10566000000E+00 0. -1.
         23    2    1    0    0    0 -0.14834062632E+02  0.16354155442E+02  0.19233750754E+02  0.95717838494E+02  0.91128807869E+02 0.  0.
         13    1    3    3    0    0  0.12488299026E+02  0.16258507821E+02 -0.31796763498E+02  0.37833081055E+02  0.10566000000E+00 0.  1.
         22    1    1    0    0    0  0.14834062632E+02 -0.16354155442E+02 -0.19233750754E+02  0.29282161506E+02  0.00000000000E+00 0. -1.
</event>
<event>
 5    1  0.1324057E-009  0.9118800E+02  0.7818608E-02  0.1130116E+00
         25   -1    0    0    0    0  0.00000000000E+00  0.00000000000E+00  0.99999998245E-14  0.12500000000E+03  0.12500000000E+03 0.  0.
        -13    1    3    3    0    0 -0.21372005121E+02 -0.16395239783E+02 -0.38421244471E+02  0.46923018671E+02  0.10566000000E+00 0.  1.
         23    2    1    0    0    0 -0.14949265543E+02 -0.19768880268E+02  0.11718098849E+02  0.97584620959E+02  0.93654445915E+02 0.  0.
         13    1    3    3    0    0  0.64227395775E+01 -0.33736404852E+01  0.50139343320E+02  0.50661602288E+02  0.10566000000E+00 0. -1.
         22    1    1    0    0    0  0.14949265543E+02  0.19768880268E+02 -0.11718098849E+02  0.27415379041E+02  0.00000000000E+00 0. -1.
</event>
<event>
 5    1  0.1324057E-009  0.9118800E+02  0.7818608E-02  0.1130116E+00
         25   -1    0    0    0    0  0.00000000000E+00  0.00000000000E+00  0.99999998245E-14  0.12500000000E+03  0.12500000000E+03 0.  0.
        -13    1    3    3    0    0 -0.18465750037E+02  0.24508771811E+01 -0.42575138766E+02  0.46471973580E+02  0.10566000000E+00 0.  1.
         23    2    1    0    0    0  0.27463578928E+01 -0.27621439253E+02 -0.10390087963E+02  0.95361506179E+02  0.90638714382E+02 0.  0.
         13    1    3    3    0    0  0.21212107930E+02 -0.30072316434E+02  0.32185050803E+02  0.48889532599E+02  0.10566000000E+00 0. -1.
         22    1    1    0    0    0 -0.27463578928E+01  0.27621439253E+02  0.10390087963E+02  0.29638493821E+02  0.00000000000E+00 0. -1.
</event>
<event>
 5    1  0.1324057E-009  0.9118800E+02  0.7818608E-02  0.1130116E+00
         25   -1    0    0    0    0  0.00000000000E+00  0.00000000000E+00  0.99999998245E-14  0.12500000000E+03  0.12500000000E+03 0.  0.
        -13    1    3    3    0    0  0.47574151748E+02 -0.21048171955E+02  0.10662283061E+01  0.52033387974E+02  0.10566000000E+00 0. -1.
         23    2    1    0    0    0  0.22624063736E+02 -0.25754051067E+01 -0.23987315611E+02  0.91926259939E+02  0.85770420220E+02 0.  0.
         13    1    3    3    0    0 -0.24950088012E+02  0.18472766848E+02 -0.25053543917E+02  0.39892871965E+02  0.10566000000E+00 0.  1.
         22    1    1    0    0    0 -0.22624063736E+02  0.25754051067E+01  0.23987315611E+02  0.33073740061E+02  0.00000000000E+00 0. -1.
</event>
<event>
 5    1  0.1324057E-009  0.9118800E+02  0.7818608E-02  0.1130116E+00
         25   -1    0    0    0    0  0.00000000000E+00  0.00000000000E+00  0.99999998245E-14  0.12500000000E+03  0.12500000000E+03 0.  0.
        -13    1    3    3    0    0  0.55598394535E+01  0.53027335179E+02  0.85708148954E+01  0.54002593669E+02  0.10566000000E+00 0. -1.
         23    2    1    0    0    0 -0.13716259325E+02  0.18392591378E+02 -0.12478105777E+02  0.98882452044E+02  0.95370923299E+02 0.  0.
         13    1    3    3    0    0 -0.19276098779E+02 -0.34634743801E+02 -0.21048920672E+02  0.44879858375E+02  0.10566000000E+00 0.  1.
         22    1    1    0    0    0  0.13716259325E+02 -0.18392591378E+02  0.12478105777E+02  0.26117547956E+02  0.00000000000E+00 0.  1.
</event>
<event>
 5    1  0.1324057E-009  0.9118800E+02  0.7818608E-02  0.1130116E+00
         25   -1    0    0    0    0  0.00000000000E+00  0.00000000000E+00  0.99999998245E-14  0.12500000000E+03  0.12500000000E+03 0.  0.
        -13    1    3    3    0    0 -0.51139465391E+02  0.15411733722E+02  0.13612319416E+02  0.55118716066E+02  0.10566000000E+00 0.  1.
         23    2    1    0    0    0 -0.11864294383E+02  0.24198857560E+02  0.12270352696E+02  0.95387371888E+02  0.90674378807E+02 0.  0.
         13    1    3    3    0    0  0.39275171008E+02  0.87871238379E+01 -0.13419667201E+01  0.40268655823E+02  0.10566000000E+00 0. -1.
         22    1    1    0    0    0  0.11864294383E+02 -0.24198857560E+02 -0.12270352696E+02  0.29612628112E+02  0.00000000000E+00 0.  1.
</event>
<event>
 5    1  0.1324057E-009  0.9118800E+02  0.7818608E-02  0.1130116E+00
         25   -1    0    0    0    0  0.00000000000E+00  0.00000000000E+00  0.99999998245E-14  0.12500000000E+03  0.12500000000E+03 0.  0.
        -13    1    3    3    0    0  0.90400597150E+00 -0.29662565522E+02 -0.19627941213E+02  0.35580222884E+02  0.10566000000E+00 0. -1.
         23    2    1    0    0    0 -0.13864250853E+02  0.10693752377E+02  0.22988957809E+02  0.96102491928E+02  0.91654912482E+02 0.  0.
         13    1    3    3    0    0 -0.14768256824E+02  0.40356317900E+02  0.42616899022E+02  0.60522269045E+02  0.10566000000E+00 0.  1.
         22    1    1    0    0    0  0.13864250853E+02 -0.10693752377E+02 -0.22988957809E+02  0.28897508072E+02  0.00000000000E+00 0.  1.
</event>
<event>
 5    1  0.1324057E-009  0.9118800E+02  0.7818608E-02  0.1130116E+00
         25   -1    0    0    0    0  0.00000000000E+00  0.00000000000E+00  0.99999998245E-14  0.12500000000E+03  0.12500000000E+03 0.  0.
        -13    1    3    3    0    0 -0.18768292806E+02 -0.44403449955E+02  0.15440923034E+02  0.50619644911E+02  0.10566000000E+00 0.  1.
         23    2    1    0    0    0  0.18294686324E+02 -0.22615014020E+02  0.11232255863E+02  0.93818306996E+02  0.88484895598E+02 0.  0.
         13    1    3    3    0    0  0.37062979130E+02  0.21788435936E+02 -0.42086671706E+01  0.43198662085E+02  0.10566000000E+00 0. -1.
         22    1    1    0    0    0 -0.18294686324E+02  0.22615014020E+02 -0.11232255863E+02  0.31181693004E+02  0.00000000000E+00 0.  1.
</event>
<event>
 5    1  0.1324057E-009  0.9118800E+02  0.7818608E-02  0.1130116E+00
         25   -1    0    0    0    0  0.00000000000E+00  0.00000000000E+00  0.99999998245E-14  0.12500000000E+03  0.12500000000E+03 0.  0.
        -13    1    3    3    0    0  0.20482114081E+02  0.10189444597E+02  0.52779235534E+02  0.57523913688E+02  0.10566000000E+00 0.  1.
         23    2    1    0    0    0 -0.77551439098E+01  0.10097579891E+02  0.23936162812E+02  0.97888318627E+02  0.94058915881E+02 0.  0.
         13    1    3    3    0    0 -0.28237257991E+02 -0.91864705441E-01 -0.28843072721E+02  0.40364404938E+02  0.10566000000E+00 0. -1.
         22    1    1    0    0    0  0.77551439098E+01 -0.10097579891E+02 -0.23936162812E+02  0.27111681373E+02  0.00000000000E+00 0.  1.
</event>
<event>
 5    1  0.1324057E-009  0.9118800E+02  0.7818608E-02  0.1130116E+00
         25   -1    0    0    0    0  0.00000000000E+00  0.00000000000E+00  0.99999998245E-14  0.12500000000E+03  0.12500000000E+03 0.  0.
        -13    1    3    3    0    0  0.24035914471E+02 -0.26480219828E+02 -0.29486003247E+02  0.46350434498E+02  0.10566000000E+00 0.  1.
         23    2    1    0    0    0 -0.15159580767E+02 -0.25207830157E+02  0.27950890060E+00  0.95583580852E+02  0.90944462245E+02 0.  0.
         13    1    3    3    0    0 -0.39195495239E+02  0.12723896716E+01  0.29765512148E+02  0.49233146354E+02  0.10566000000E+00 0. -1.
         22    1    1    0    0    0  0.15159580767E+02  0.25207830157E+02 -0.27950890060E+00  0.29416419148E+02  0.00000000000E+00 0.  1.
</event>
<event>
 5    1  0.1324057E-009  0.9118800E+02  0.7818608E-02  0.1130116E+00
         25   -1    0    0    0    0  0.00000000000E+00  0.00000000000E+00  0.99999998245E-14  0.12500000000E+03  0.12500000000E+03 0.  0.
        -13    1    3    3    0    0 -0.59363075349E+01 -0.24347848951E+02  0.11872898633E+02  0.27731469158E+02  0.10566000000E+00 0. -1.
         23    2    1    0    0    0 -0.19476622790E+02  0.32616462914E+02  0.48293303662E+01  0.86705158049E+02  0.77790034787E+02 0.  0.
         13    1    3    3    0    0 -0.13540315255E+02  0.56964311865E+02 -0.70435682664E+01  0.58973688891E+02  0.10566000000E+00 0.  1.
         22    1    1    0    0    0  0.19476622790E+02 -0.32616462914E+02 -0.48293303662E+01  0.38294841951E+02  0.00000000000E+00 0.  1.
</event>
<event>
 5    1  0.1324057E-009  0.9118800E+02  0.7818608E-02  0.1130116E+00
         25   -1    0    0    0    0  0.00000000000E+00  0.00000000000E+00  0.99999998245E-14  0.12500000000E+03  0.12500000000E+03 0.  0.
        -13    1    3    3    0    0  0.36573364712E+02 -0.19481290955E+02  0.13480972478E+02  0.43576134370E+02  0.10566000000E+00 0. -1.
         23    2    1    0    0    0 -0.16220767750E+02 -0.14047358311E+02  0.18206111105E+02  0.96859209970E+02  0.92681187371E+02 0.  0.
         13    1    3    3    0    0 -0.52794132462E+02  0.54339326436E+01  0.47251386265E+01  0.53283075601E+02  0.10566000000E+00 0.  1.
         22    1    1    0    0    0  0.16220767750E+02  0.14047358311E+02 -0.18206111105E+02  0.28140790030E+02  0.00000000000E+00 0.  1.
</event>
<event>
 5    1  0.1324057E-009  0.9118800E+02  0.7818608E-02  0.1130116E+00
         25   -1    0    0    0    0  0.00000000000E+00  0.00000000000E+00  0.99999998245E-14  0.12500000000E+03  0.12500000000E+03 0.  0.
        -13    1    3    3    0    0 -0.31544298719E+02 -0.12983252762E+02  0.24078483805E+02  0.41753948081E+02  0.10566000000E+00 0.  1.
         23    2    1    0    0    0  0.23272456674E+02 -0.78586963025E+01  0.90285235823E+01  0.98829776743E+02  0.95301858249E+02 0.  0.
         13    1    3    3    0    0  0.54816755394E+02  0.51245564594E+01 -0.15049960222E+02  0.57075828662E+02  0.10566000000E+00 0. -1.
         22    1    1    0    0    0 -0.23272456674E+02  0.78586963025E+01 -0.90285235823E+01  0.26170223257E+02  0.00000000000E+00 0.  1.
</event>
<event>
 5    1  0.1324057E-009  0.9118800E+02  0.7818608E-02  0.1130116E+00
         25   -1    0    0    0    0  0.00000000000E+00  0.00000000000E+00  0.99999998245E-14  0.12500000000E+03  0.12500000000E+03 0.  0.
        -13    1    3    3    0    0 -0.10044865522E+02 -0.10490901169E+02  0.32618803310E+02  0.35706523551E+02  0.10566000000E+00 0. -1.
         23    2    1    0    0    0 -0.16166665011E+02 -0.37151964553E+00 -0.25383881690E+02  0.94902815180E+02  0.90003909888E+02 0.  0.
         13    1    3    3    0    0 -0.61217994893E+01  0.10119381523E+02 -0.58002685000E+02  0.59196291629E+02  0.10566000000E+00 0.  1.
         22    1    1    0    0    0  0.16166665011E+02  0.37151964553E+00  0.25383881690E+02  0.30097184820E+02  0.00000000000E+00 0.  1.
</event>
<event>
 5    1  0.1324057E-009  0.9118800E+02  0.7818608E-02  0.1130116E+00
         25   -1    0    0    0    0  0.00000000000E+00  0.00000000000E+00  0.99999998245E-14  0.12500000000E+03  0.12500000000E+03 0.  0.
        -13    1    3    3    0    0 -0.45226061345E+02  0.16998280221E+02  0.16713853595E+02  0.51124379911E+02  0.10566000000E+00 0.  1.
         23    2    1    0    0    0 -0.33515262952E+01  0.18792281246E+02  0.24691758101E+02  0.93789977875E+02  0.88444866831E+02 0.  0.
         13    1    3    3    0    0  0.41874535050E+02  0.17940010259E+01  0.79779045059E+01  0.42665597964E+02  0.10566000000E+00 0. -1.
         22    1    1    0    0    0  0.33515262952E+01 -0.18792281246E+02 -0.24691758101E+02  0.31210022125E+02  0.00000000000E+00 0.  1.
</event>
<event>
 5    1  0.1324057E-009  0.9118800E+02  0.7818608E-02  0.1130116E+00
         25   -1    0    0    0    0  0.00000000000E+00  0.00000000000E+00  0.99999998245E-14  0.12500000000E+03  0.12500000000E+03 0.  0.
        -13    1    3    3    0    0 -0.48282160039E+02 -0.19964073495E+02  0.33505035073E+02  0.62067139034E+02  0.10566000000E+00 0. -1.
         23    2    1    0    0    0 -0.20042278281E+02 -0.13868123007E+02  0.15923312066E+02  0.95886951009E+02  0.91360482443E+02 0.  0.
         13    1    3    3    0    0  0.28239881759E+02  0.60959504880E+01 -0.17581723007E+02  0.33819811975E+02  0.10566000000E+00 0.  1.
         22    1    1    0    0    0  0.20042278281E+02  0.13868123007E+02 -0.15923312066E+02  0.29113048991E+02  0.00000000000E+00 0. -1.
</event>
<event>
 5    1  0.1324057E-009  0.9118800E+02  0.7818608E-02  0.1130116E+00
         25   -1    0    0    0    0  0.00000000000E+00  0.00000000000E+00  0.99999998245E-14  0.12500000000E+03  0.12500000000E+03 0.  0.
        -13    1    3    3    0    0 -0.21046211561E+02  0.12659360184E+02  0.28642616787E+02  0.37730797524E+02  0.10566000000E+00 0.  1.
         23    2    1    0    0    0 -0.64372935167E+01 -0.13635372248E+02 -0.23001522294E+02  0.97496688345E+02  0.93537009179E+02 0.  0.
         13    1    3    3    0    0  0.14608918044E+02 -0.26294732432E+02 -0.51644139082E+02  0.59765890821E+02  0.10566000000E+00 0. -1.
         22    1    1    0    0    0  0.64372935167E+01  0.13635372248E+02  0.23001522294E+02  0.27503311655E+02  0.00000000000E+00 0. -1.
</event>
<event>
 5    1  0.1324057E-009  0.9118800E+02  0.7818608E-02  0.1130116E+00
         25   -1    0    0    0    0  0.00000000000E+00  0.00000000000E+00  0.99999998245E-14  0.12500000000E+03  0.12500000000E+03 0.  0.
        -13    1    3    3    0    0  0.52967239420E+02  0.29538629764E+02 -0.95424009991E+01  0.61393221784E+02  0.10566000000E+00 0. -1.
         23    2    1    0    0    0  0.22659379923E+02  0.14928291656E+02 -0.12411894674E+02  0.95161157535E+02  0.90361990813E+02 0.  0.
         13    1    3    3    0    0 -0.30307859497E+02 -0.14610338108E+02 -0.28694936751E+01  0.33767935751E+02  0.10566000000E+00 0.  1.
         22    1    1    0    0    0 -0.22659379923E+02 -0.14928291656E+02  0.12411894674E+02  0.29838842465E+02  0.00000000000E+00 0. -1.
</event>
<event>
 5    1  0.1324057E-009  0.9118800E+02  0.7818608E-02  0.1130116E+00
         25   -1    0    0    0    0  0.00000000000E+00  0.00000000000E+00  0.99999998245E-14  0.12500000000E+03  0.12500000000E+03 0.  0.
        -13    1    3    3    0    0  0.22447931721E+02  0.28210772231E+02 -0.38655966201E+02  0.52858794873E+02  0.10566000000E+00 0.  1.
         23    2    1    0    0    0 -0.11847120438E+02  0.23060763060E+02 -0.12998185205E+02  0.95998174640E+02  0.91512532803E+02 0.  0.
         13    1    3    3    0    0 -0.34295052159E+02 -0.51500091713E+01  0.25657780996E+02  0.43139379767E+02  0.10566000000E+00 0. -1.
         22    1    1    0    0    0  0.11847120438E+02 -0.23060763060E+02  0.12998185205E+02  0.29001825360E+02  0.00000000000E+00 0.  1.
</event>
<event>
 5    1  0.1324057E-009  0.9118800E+02  0.7818608E-02  0.1130116E+00
         25   -1    0    0    0    0  0.00000000000E+00  0.00000000000E+00  0.99999998245E-14  0.12500000000E+03  0.12500000000E+03 0.  0.
        -13    1    3    3    0    0  0.39672512358E+02  0.20115891770E+02  0.74011216836E+01  0.45092628053E+02  0.10566000000E+00 0. -1.
         23    2    1    0    0    0  0.17200393070E+02 -0.24302327565E+02  0.34159136294E+01  0.95031264412E+02  0.90182127403E+02 0.  0.
         13    1    3    3    0    0 -0.22472119288E+02 -0.44418219335E+02 -0.39852080542E+01  0.49938636359E+02  0.10566000000E+00 0.  1.
         22    1    1    0    0    0 -0.17200393070E+02  0.24302327565E+02 -0.34159136294E+01  0.29968735588E+02  0.00000000000E+00 0.  1.
</event>
<event>
 5    1  0.1324057E-009  0.9118800E+02  0.7818608E-02  0.1130116E+00
         25   -1    0    0    0    0  0.00000000000E+00  0.00000000000E+00  0.99999998245E-14  0.12500000000E+03  0.12500000000E+03 0.  0.
        -13    1    3    3    0    0 -0.80489736214E+01  0.20802179158E+02 -0.25699574294E+02  0.34029339063E+02  0.10566000000E+00 0.  1.
         23    2    1    0    0    0 -0.36908050546E+01 -0.16487877351E+01  0.30254359453E+02  0.94476782462E+02  0.89410265717E+02 0.  0.
         13    1    3    3    0    0  0.43581685668E+01 -0.22450966894E+02  0.55953933747E+02  0.60447443400E+02  0.10566000000E+00 0. -1.
         22    1    1    0    0    0  0.36908050546E+01  0.16487877351E+01 -0.30254359453E+02  0.30523217538E+02  0.00000000000E+00 0. -1.
</event>
<event>
 5    1  0.1324057E-009  0.9118800E+02  0.7818608E-02  0.1130116E+00
         25   -1    0    0    0    0  0.00000000000E+00  0.00000000000E+00  0.99999998245E-14  0.12500000000E+03  0.12500000000E+03 0.  0.
        -13    1    3    3    0    0 -0.31983679044E+02  0.34419155233E+02  0.40070560844E+01  0.47156141006E+02  0.10566000000E+00 0.  1.
         23    2    1    0    0    0 -0.15840300826E+02 -0.70834595871E+00 -0.24936035544E+02  0.95449657313E+02  0.90760202338E+02 0.  0.
         13    1    3    3    0    0  0.16143378218E+02 -0.35127501192E+02 -0.28943091628E+02  0.48293516307E+02  0.10566000000E+00 0. -1.
         22    1    1    0    0    0  0.15840300826E+02  0.70834595871E+00  0.24936035544E+02  0.29550342687E+02  0.00000000000E+00 0.  1.
</event>
<event>
 5    1  0.1324057E-009  0.9118800E+02  0.7818608E-02  0.1130116E+00
         25   -1    0    0    0    0  0.00000000000E+00  0.00000000000E+00  0.99999998245E-14  0.12500000000E+03  0.12500000000E+03 0.  0.
        -13    1    3    3    0    0 -0.25982062811E+02  0.28679803084E+02  0.77025625009E+01  0.39458070480E+02  0.10566000000E+00 0.  1.
         23    2    1    0    0    0  0.23202153047E+02  0.82199601017E+01 -0.13656000895E+02  0.96850506034E+02  0.92669447546E+02 0.  0.
         13    1    3    3    0    0  0.49184215859E+02 -0.20459842982E+02 -0.21358563396E+02  0.57392435554E+02  0.10566000000E+00 0. -1.
         22    1    1    0    0    0 -0.23202153047E+02 -0.82199601017E+01  0.13656000895E+02  0.28149493966E+02  0.00000000000E+00 0. -1.
</event>
<event>
 5    1  0.1324057E-009  0.9118800E+02  0.7818608E-02  0.1130116E+00
         25   -1    0    0    0    0  0.00000000000E+00  0.00000000000E+00  0.99999998245E-14  0.12500000000E+03  0.12500000000E+03 0.  0.
        -13    1    3    3    0    0 -0.60905943422E+02 -0.10606782154E+02  0.51093092823E+01  0.62033490771E+02  0.10566000000E+00 0.  1.
         23    2    1    0    0    0 -0.29098542370E+02 -0.27853296451E+01 -0.25029024479E+01  0.95661497142E+02  0.91051492495E+02 0.  0.
         13    1    3    3    0    0  0.31807401053E+02  0.78214525086E+01 -0.76122117302E+01  0.33628006372E+02  0.10566000000E+00 0. -1.
         22    1    1    0    0    0  0.29098542370E+02  0.27853296451E+01  0.25029024479E+01  0.29338502858E+02  0.00000000000E+00 0.  1.
</event>
<event>
 5    1  0.1324057E-009  0.9118800E+02  0.7818608E-02  0.1130116E+00
         25   -1    0    0    0    0  0.00000000000E+00  0.00000000000E+00  0.99999998245E-14  0.12500000000E+03  0.12500000000E+03 0.  0.
        -13    1    3    3    0    0 -0.36441787981E+02  0.21602941004E+02  0.84507905010E+01  0.43198587887E+02  0.10566000000E+00 0. -1.
         23    2    1    0    0    0  0.14174521735E+02  0.12996685454E+02  0.21480231632E+02  0.96168918678E+02  0.91745461302E+02 0.  0.
         13    1    3    3    0    0  0.50616309716E+02 -0.86062555502E+01  0.13029441131E+02  0.52970330791E+02  0.10566000000E+00 0.  1.
         22    1    1    0    0    0 -0.14174521735E+02 -0.12996685454E+02 -0.21480231632E+02  0.28831081322E+02  0.00000000000E+00 0.  1.
</event>
<event>
 5    1  0.1324057E-009  0.9118800E+02  0.7818608E-02  0.1130116E+00
         25   -1    0    0    0    0  0.00000000000E+00  0.00000000000E+00  0.99999998245E-14  0.12500000000E+03  0.12500000000E+03 0.  0.
        -13    1    3    3    0    0  0.14487427828E+02 -0.16130349879E+02  0.33983056172E+02  0.40310457987E+02  0.10566000000E+00 0.  1.
         23    2    1    0    0    0  0.15416035047E+02 -0.14552312631E+02 -0.20903625446E+02  0.95227773071E+02  0.90454094810E+02 0.  0.
         13    1    3    3    0    0  0.92860721861E+00  0.15780372478E+01 -0.54886681619E+02  0.54917315084E+02  0.10566000000E+00 0. -1.
         22    1    1    0    0    0 -0.15416035047E+02  0.14552312631E+02  0.20903625446E+02  0.29772226929E+02  0.00000000000E+00 0. -1.
</event>
<event>
 5    1  0.1324057E-009  0.9118800E+02  0.7818608E-02  0.1130116E+00
         25   -1    0    0    0    0  0.00000000000E+00  0.00000000000E+00  0.99999998245E-14  0.12500000000E+03  0.12500000000E+03 0.  0.
        -13    1    3    3    0    0 -0.10114392771E+02 -0.24177775016E+02  0.18218815426E+02  0.31918680195E+02  0.10566000000E+00 0.  1.
         23    2    1    0    0    0 -0.13567644366E+02  0.31410399521E+02 -0.80975302993E+00  0.90775011005E+02  0.84075874966E+02 0.  0.
         13    1    3    3    0    0 -0.34532515959E+01  0.55588174537E+02 -0.19028568455E+02  0.58856330810E+02  0.10566000000E+00 0. -1.
         22    1    1    0    0    0  0.13567644366E+02 -0.31410399521E+02  0.80975302993E+00  0.34224988995E+02  0.00000000000E+00 0. -1.
</event>
<event>
 5    1  0.1324057E-009  0.9118800E+02  0.7818608E-02  0.1130116E+00
         25   -1    0    0    0    0  0.00000000000E+00  0.00000000000E+00  0.99999998245E-14  0.12500000000E+03  0.12500000000E+03 0.  0.
        -13    1    3    3    0    0  0.31822656985E+02  0.78914929464E+01  0.60197416133E+01  0.33334750811E+02  0.10566000000E+00 0.  1.
         23    2    1    0    0    0 -0.24839795729E+02 -0.13243201843E+02 -0.86255307732E+01  0.95558572928E+02  0.90910083225E+02 0.  0.
         13    1    3    3    0    0 -0.56662452715E+02 -0.21134694789E+02 -0.14645272386E+02  0.62223822116E+02  0.10566000000E+00 0. -1.
         22    1    1    0    0    0  0.24839795729E+02  0.13243201843E+02  0.86255307732E+01  0.29441427072E+02  0.00000000000E+00 0. -1.
</event>
<event>
 5    1  0.1324057E-009  0.9118800E+02  0.7818608E-02  0.1130116E+00
         25   -1    0    0    0    0  0.00000000000E+00  0.00000000000E+00  0.99999998245E-14  0.12500000000E+03  0.12500000000E+03 0.  0.
        -13    1    3    3    0    0  0.35347604466E+02  0.28821418341E+02  0.85010635388E+01  0.46394035629E+02  0.10566000000E+00 0.  1.
         23    2    1    0    0    0  0.26912157195E+02 -0.28872684236E+01 -0.21174556358E+02  0.90634867077E+02  0.83867256837E+02 0.  0.
         13    1    3    3    0    0 -0.84354472705E+01 -0.31708686764E+02 -0.29675619896E+02  0.44240831448E+02  0.10566000000E+00 0. -1.
         22    1    1    0    0    0 -0.26912157195E+02  0.28872684236E+01  0.21174556358E+02  0.34365132923E+02  0.00000000000E+00 0. -1.
</event>
<event>
 5    1  0.1324057E-009  0.9118800E+02  0.7818608E-02  0.1130116E+00
         25   -1    0    0    0    0  0.00000000000E+00  0.00000000000E+00  0.99999998245E-14  0.12500000000E+03  0.12500000000E+03 0.  0.
        -13    1    3    3    0    0 -0.47886528262E+01 -0.49250235675E+01  0.27927965348E+02  0.28760553985E+02  0.10566000000E+00 0. -1.
         23    2    1    0    0    0  0.10127441702E+02 -0.21083917917E+01 -0.32410203593E+02  0.90978952275E+02  0.84378540333E+02 0.  0.
         13    1    3    3    0    0  0.14916094528E+02  0.28166317759E+01 -0.60338168941E+02  0.62218398290E+02  0.10566000000E+00 0.  1.
         22    1    1    0    0    0 -0.10127441702E+02  0.21083917917E+01  0.32410203593E+02  0.34021047725E+02  0.00000000000E+00 0.  1.
</event>
<event>
 5    1  0.1324057E-009  0.9118800E+02  0.7818608E-02  0.1130116E+00
         25   -1    0    0    0    0  0.00000000000E+00  0.00000000000E+00  0.99999998245E-14  0.12500000000E+03  0.12500000000E+03 0.  0.
        -13    1    3    3    0    0 -0.40617324522E+02  0.17383533033E+02 -0.40490133192E+02  0.59928426661E+02  0.10566000000E+00 0. -1.
         23    2    1    0    0    0 -0.10175355373E+02  0.63776314650E+01 -0.27835322699E+02  0.94684703039E+02  0.89700478035E+02 0.  0.
         13    1    3    3    0    0  0.30441969149E+02 -0.11005901568E+02  0.12654810493E+02  0.34756276378E+02  0.10566000000E+00 0.  1.
         22    1    1    0    0    0  0.10175355373E+02 -0.63776314650E+01  0.27835322699E+02  0.30315296961E+02  0.00000000000E+00 0. -1.
</event>
<event>
 5    1  0.1324057E-009  0.9118800E+02  0.7818608E-02  0.1130116E+00
         25   -1    0    0    0    0  0.00000000000E+00  0.00000000000E+00  0.99999998245E-14  0.12500000000E+03  0.12500000000E+03 0.  0.
        -13    1    3    3    0    0  0.22676542029E+02 -0.16564150319E+02 -0.31249418753E+02  0.42013497481E+02  0.10566000000E+00 0. -1.
         23    2    1    0    0    0 -0.49248892204E+01  0.25525210921E+02 -0.15411515343E+02  0.94779051445E+02  0.89831858832E+02 0.  0.
         13    1    3    3    0    0 -0.27601431249E+02  0.42089361240E+02  0.15837903410E+02  0.52765553964E+02  0.10566000000E+00 0.  1.
         22    1    1    0    0    0  0.49248892204E+01 -0.25525210921E+02  0.15411515343E+02  0.30220948555E+02  0.00000000000E+00 0.  1.
</event>
<event>
 5    1  0.1324057E-009  0.9118800E+02  0.7818608E-02  0.1130116E+00
         25   -1    0    0    0    0  0.00000000000E+00  0.00000000000E+00  0.99999998245E-14  0.12500000000E+03  0.12500000000E+03 0.  0.
        -13    1    3    3    0    0  0.33288350798E+02  0.29681030185E+02  0.91046600612E+01  0.45519049315E+02  0.10566000000E+00 0.  1.
         23    2    1    0    0    0 -0.92753622182E+01  0.13945766699E+01  0.24395610307E+02  0.98863378363E+02  0.95345920682E+02 0.  0.
         13    1    3    3    0    0 -0.42563713016E+02 -0.28286453515E+02  0.15290950245E+02  0.53344329048E+02  0.10566000000E+00 0. -1.
         22    1    1    0    0    0  0.92753622182E+01 -0.13945766699E+01 -0.24395610307E+02  0.26136621637E+02  0.00000000000E+00 0. -1.
</event>
<event>
 5    1  0.1324057E-009  0.9118800E+02  0.7818608E-02  0.1130116E+00
         25   -1    0    0    0    0  0.00000000000E+00  0.00000000000E+00  0.99999998245E-14  0.12500000000E+03  0.12500000000E+03 0.  0.
        -13    1    3    3    0    0  0.14258249263E+02 -0.17855681107E+02  0.32684830705E+02  0.39880224950E+02  0.10566000000E+00 0. -1.
         23    2    1    0    0    0 -0.23026523405E+01 -0.28469715251E+02 -0.15909865043E+02  0.92305188485E+02  0.86320896203E+02 0.  0.
         13    1    3    3    0    0 -0.16560901604E+02 -0.10614034145E+02 -0.48594695748E+02  0.52424963535E+02  0.10566000000E+00 0.  1.
         22    1    1    0    0    0  0.23026523405E+01  0.28469715251E+02  0.15909865043E+02  0.32694811515E+02  0.00000000000E+00 0.  1.
</event>
<event>
 5    1  0.1324057E-009  0.9118800E+02  0.7818608E-02  0.1130116E+00
         25   -1    0    0    0    0  0.00000000000E+00  0.00000000000E+00  0.99999998245E-14  0.12500000000E+03  0.12500000000E+03 0.  0.
        -13    1    3    3    0    0 -0.14573906150E+02 -0.36772099004E+02 -0.33643999859E+02  0.51927987600E+02  0.10566000000E+00 0.  1.
         23    2    1    0    0    0  0.17239560157E+02 -0.24139480471E+02 -0.93677627846E+01  0.93892574337E+02  0.88589748754E+02 0.  0.
         13    1    3    3    0    0  0.31813466307E+02  0.12632618534E+02  0.24276237074E+02  0.41964586737E+02  0.10566000000E+00 0. -1.
         22    1    1    0    0    0 -0.17239560157E+02  0.24139480471E+02  0.93677627846E+01  0.31107425663E+02  0.00000000000E+00 0.  1.
</event>
<event>
 5    1  0.1324057E-009  0.9118800E+02  0.7818608E-02  0.1130116E+00
         25   -1    0    0    0    0  0.00000000000E+00  0.00000000000E+00  0.99999998245E-14  0.12500000000E+03  0.12500000000E+03 0.  0.
        -13    1    3    3    0    0  0.43535227684E+02 -0.34472641859E+02 -0.24039305748E+02  0.60510978104E+02  0.10566000000E+00 0.  1.
         23    2    1    0    0    0  0.22338209138E+02 -0.20099671593E+02 -0.10412879029E+01  0.94932132331E+02  0.90044617179E+02 0.  0.
         13    1    3    3    0    0 -0.21197018546E+02  0.14372970266E+02  0.22998017845E+02  0.34421154227E+02  0.10566000000E+00 0. -1.
         22    1    1    0    0    0 -0.22338209138E+02  0.20099671593E+02  0.10412879029E+01  0.30067867669E+02  0.00000000000E+00 0.  1.
</event>
<event>
 5    1  0.1324057E-009  0.9118800E+02  0.7818608E-02  0.1130116E+00
         25   -1    0    0    0    0  0.00000000000E+00  0.00000000000E+00  0.99999998245E-14  0.12500000000E+03  0.12500000000E+03 0.  0.
        -13    1    3    3    0    0  0.15538758932E+02  0.14254654619E+02  0.49167570026E+02  0.53498685159E+02  0.10566000000E+00 0. -1.
         23    2    1    0    0    0  0.64424323521E+01  0.26744522529E+02  0.97882495209E+01  0.95800954663E+02  0.91242745825E+02 0.  0.
         13    1    3    3    0    0 -0.90963265799E+01  0.12489867911E+02 -0.39379320505E+02  0.42302269504E+02  0.10566000000E+00 0.  1.
         22    1    1    0    0    0 -0.64424323521E+01 -0.26744522529E+02 -0.97882495209E+01  0.29199045337E+02  0.00000000000E+00 0. -1.
</event>
<event>
 5    1  0.1324057E-009  0.9118800E+02  0.7818608E-02  0.1130116E+00
         25   -1    0    0    0    0  0.00000000000E+00  0.00000000000E+00  0.99999998245E-14  0.12500000000E+03  0.12500000000E+03 0.  0.
        -13    1    3    3    0    0 -0.15521954445E+02 -0.69299573314E+01 -0.30039632022E+02  0.34515880903E+02  0.10566000000E+00 0. -1.
         23    2    1    0    0    0  0.18597700763E+02  0.20150316523E+02  0.12013231282E+02  0.95062941770E+02  0.90226024198E+02 0.  0.
         13    1    3    3    0    0  0.34119655208E+02  0.27080273854E+02  0.42052863304E+02  0.60547060867E+02  0.10566000000E+00 0.  1.
         22    1    1    0    0    0 -0.18597700763E+02 -0.20150316523E+02 -0.12013231282E+02  0.29937058230E+02  0.00000000000E+00 0.  1.
</event>
<event>
 4    1  0.1324057E-009  0.9118800E+02  0.7818608E-02  0.1130116E+00
         25   -1    0    0    0    0  0.00000000000E+00  0.00000000000E+00  0.99999998245E-14  0.12500000000E+03  0.12500000000E+03 0.  0.
        -13    1    1    0    0    0  0.30105952089E+01  0.30004135918E+02 -0.25571773640E+02  0.39537812621E+02  0.10566000000E+00 0.  1.
         13    1    1    0    0    0  0.29395371238E+01  0.24706337141E+02  0.16058209400E+02  0.29612855766E+02  0.10566000000E+00 0. -1.
         22    1    1    0    0    0 -0.59501323328E+01 -0.54710473059E+02  0.95135642399E+01  0.55849331614E+02  0.00000000000E+00 0.  1.
</event>
<event>
 5    1  0.1324057E-009  0.9118800E+02  0.7818608E-02  0.1130116E+00
         25   -1    0    0    0    0  0.00000000000E+00  0.00000000000E+00  0.99999998245E-14  0.12500000000E+03  0.12500000000E+03 0.  0.
        -13    1    3    3    0    0  0.24603252079E+02  0.25627514426E+02 -0.21170073252E+02  0.41355443100E+02  0.10566000000E+00 0.  1.
         23    2    1    0    0    0  0.12645069908E+02 -0.25473319777E+02 -0.72953585066E+01  0.95639992010E+02  0.91021964396E+02 0.  0.
         13    1    3    3    0    0 -0.11958182171E+02 -0.51100834203E+02  0.13874714746E+02  0.54284548910E+02  0.10566000000E+00 0. -1.
         22    1    1    0    0    0 -0.12645069908E+02  0.25473319777E+02  0.72953585066E+01  0.29360007990E+02  0.00000000000E+00 0. -1.
</event>
<event>
 5    1  0.1324057E-009  0.9118800E+02  0.7818608E-02  0.1130116E+00
         25   -1    0    0    0    0  0.00000000000E+00  0.00000000000E+00  0.99999998245E-14  0.12500000000E+03  0.12500000000E+03 0.  0.
        -13    1    3    3    0    0 -0.29009500772E+02  0.20556362374E+02 -0.17348875831E+02  0.39561468953E+02  0.10566000000E+00 0. -1.
         23    2    1    0    0    0  0.22198627489E+02 -0.31325439924E+01 -0.18406232689E+02  0.95993426675E+02  0.91506047170E+02 0.  0.
         13    1    3    3    0    0  0.51208128261E+02 -0.23688906366E+02 -0.10573568583E+01  0.56431957722E+02  0.10566000000E+00 0.  1.
         22    1    1    0    0    0 -0.22198627489E+02  0.31325439924E+01  0.18406232689E+02  0.29006573325E+02  0.00000000000E+00 0.  1.
</event>
<event>
 5    1  0.1324057E-009  0.9118800E+02  0.7818608E-02  0.1130116E+00
         25   -1    0    0    0    0  0.00000000000E+00  0.00000000000E+00  0.99999998245E-14  0.12500000000E+03  0.12500000000E+03 0.  0.
        -13    1    3    3    0    0 -0.18087771534E+02  0.99021459070E+01 -0.35968296477E+02  0.41460215727E+02  0.10566000000E+00 0.  1.
         23    2    1    0    0    0  0.21277045410E+02  0.24284398574E+02 -0.83540461179E+01  0.91649816162E+02  0.85366586206E+02 0.  0.
         13    1    3    3    0    0  0.39364816945E+02  0.14382252667E+02  0.27614250359E+02  0.50189600435E+02  0.10566000000E+00 0. -1.
         22    1    1    0    0    0 -0.21277045410E+02 -0.24284398574E+02  0.83540461179E+01  0.33350183838E+02  0.00000000000E+00 0.  1.
</event>
<event>
 5    1  0.1324057E-009  0.9118800E+02  0.7818608E-02  0.1130116E+00
         25   -1    0    0    0    0  0.00000000000E+00  0.00000000000E+00  0.99999998245E-14  0.12500000000E+03  0.12500000000E+03 0.  0.
        -13    1    3    3    0    0  0.64000963237E+01  0.16334907299E+02 -0.46692044866E+02  0.49879340886E+02  0.10566000000E+00 0.  1.
         23    2    1    0    0    0 -0.11524194045E+02 -0.11769361911E+02  0.14819256561E+01  0.10846152873E+03  0.10719320027E+03 0.  0.
         13    1    3    3    0    0 -0.17924290369E+02 -0.28104269210E+02  0.48173970522E+02  0.58582187847E+02  0.10566000000E+00 0. -1.
         22    1    1    0    0    0  0.11524194045E+02  0.11769361911E+02 -0.14819256561E+01  0.16538471267E+02  0.00000000000E+00 0. -1.
</event>
<event>
 5    1  0.1324057E-009  0.9118800E+02  0.7818608E-02  0.1130116E+00
         25   -1    0    0    0    0  0.00000000000E+00  0.00000000000E+00  0.99999998245E-14  0.12500000000E+03  0.12500000000E+03 0.  0.
        -13    1    3    3    0    0  0.16814231166E+02 -0.27415582808E+02 -0.74377388158E+01  0.33010054122E+02  0.10566000000E+00 0.  1.
         23    2    1    0    0    0 -0.22979387267E+02  0.16569970466E+02  0.10195791977E+02  0.94890693558E+02  0.89987073457E+02 0.  0.
         13    1    3    3    0    0 -0.39793618432E+02  0.43985553274E+02  0.17633530793E+02  0.61880639436E+02  0.10566000000E+00 0. -1.
         22    1    1    0    0    0  0.22979387267E+02 -0.16569970466E+02 -0.10195791977E+02  0.30109306442E+02  0.00000000000E+00 0. -1.
</event>
<event>
 5    1  0.1324057E-009  0.9118800E+02  0.7818608E-02  0.1130116E+00
         25   -1    0    0    0    0  0.00000000000E+00  0.00000000000E+00  0.99999998245E-14  0.12500000000E+03  0.12500000000E+03 0.  0.
        -13    1    3    3    0    0  0.26960046648E+01 -0.42913873278E+02  0.10114992156E+02  0.44172312496E+02  0.10566000000E+00 0.  1.
         23    2    1    0    0    0  0.25040347229E+02 -0.68418338605E+00 -0.12469625808E+02  0.97018244086E+02  0.92895430574E+02 0.  0.
         13    1    3    3    0    0  0.22344342564E+02  0.42229689892E+02 -0.22584617964E+02  0.52845931590E+02  0.10566000000E+00 0. -1.
         22    1    1    0    0    0 -0.25040347229E+02  0.68418338605E+00  0.12469625808E+02  0.27981755914E+02  0.00000000000E+00 0. -1.
</event>
<event>
 5    1  0.1324057E-009  0.9118800E+02  0.7818608E-02  0.1130116E+00
         25   -1    0    0    0    0  0.00000000000E+00  0.00000000000E+00  0.99999998245E-14  0.12500000000E+03  0.12500000000E+03 0.  0.
        -13    1    3    3    0    0  0.31819206096E+02 -0.44815547396E+02  0.22472129940E+01  0.55008692906E+02  0.10566000000E+00 0. -1.
         23    2    1    0    0    0  0.35686758685E+01 -0.19909453065E+02  0.19920190753E+02  0.96610992119E+02  0.92345806780E+02 0.  0.
         13    1    3    3    0    0 -0.28250530227E+02  0.24906094331E+02  0.17672977759E+02  0.41602299213E+02  0.10566000000E+00 0.  1.
         22    1    1    0    0    0 -0.35686758685E+01  0.19909453065E+02 -0.19920190753E+02  0.28389007881E+02  0.00000000000E+00 0. -1.
</event>
<event>
 5    1  0.1324057E-009  0.9118800E+02  0.7818608E-02  0.1130116E+00
         25   -1    0    0    0    0  0.00000000000E+00  0.00000000000E+00  0.99999998245E-14  0.12500000000E+03  0.12500000000E+03 0.  0.
        -13    1    3    3    0    0 -0.15299197840E+02 -0.27949776961E+02 -0.10896366621E+02  0.33674878713E+02  0.10566000000E+00 0.  1.
         23    2    1    0    0    0  0.29612080206E+01  0.25997337188E+02  0.13409707311E+02  0.95598460177E+02  0.90964911060E+02 0.  0.
         13    1    3    3    0    0  0.18260405861E+02  0.53947114149E+02  0.24306073933E+02  0.61923581464E+02  0.10566000000E+00 0. -1.
         22    1    1    0    0    0 -0.29612080206E+01 -0.25997337188E+02 -0.13409707311E+02  0.29401539823E+02  0.00000000000E+00 0. -1.
</event>
<event>
 5    1  0.1324057E-009  0.9118800E+02  0.7818608E-02  0.1130116E+00
         25   -1    0    0    0    0  0.00000000000E+00  0.00000000000E+00  0.99999998245E-14  0.12500000000E+03  0.12500000000E+03 0.  0.
        -13    1    3    3    0    0  0.23264557509E+02  0.47708837791E+02 -0.10167350893E+02  0.54044047107E+02  0.10566000000E+00 0.  1.
         23    2    1    0    0    0  0.61096459665E+01  0.18223038980E+02  0.18289822922E+02  0.98468423605E+02  0.94826715124E+02 0.  0.
         13    1    3    3    0    0 -0.17154911543E+02 -0.29485798811E+02  0.28457173816E+02  0.44424376498E+02  0.10566000000E+00 0. -1.
         22    1    1    0    0    0 -0.61096459665E+01 -0.18223038980E+02 -0.18289822922E+02  0.26531576395E+02  0.00000000000E+00 0.  1.
</event>
<event>
 5    1  0.1324057E-009  0.9118800E+02  0.7818608E-02  0.1130116E+00
         25   -1    0    0    0    0  0.00000000000E+00  0.00000000000E+00  0.99999998245E-14  0.12500000000E+03  0.12500000000E+03 0.  0.
        -13    1    3    3    0    0 -0.71181595869E+01 -0.42109513660E+02 -0.64338709605E+01  0.43188947616E+02  0.10566000000E+00 0.  1.
         23    2    1    0    0    0  0.25800114080E+02 -0.33574735392E+01 -0.15321557300E+02  0.94806149083E+02  0.89869556974E+02 0.  0.
         13    1    3    3    0    0  0.32918273667E+02  0.38752040121E+02 -0.88876863395E+01  0.51617201467E+02  0.10566000000E+00 0. -1.
         22    1    1    0    0    0 -0.25800114080E+02  0.33574735392E+01  0.15321557300E+02  0.30193850917E+02  0.00000000000E+00 0. -1.
</event>
<event>
 5    1  0.1324057E-009  0.9118800E+02  0.7818608E-02  0.1130116E+00
         25   -1    0    0    0    0  0.00000000000E+00  0.00000000000E+00  0.99999998245E-14  0.12500000000E+03  0.12500000000E+03 0.  0.
        -13    1    3    3    0    0  0.16521762162E+02  0.17885710474E+02  0.49425377527E+02  0.55097607678E+02  0.10566000000E+00 0.  1.
         23    2    1    0    0    0 -0.55455029430E+01 -0.91974807552E+01  0.25189572161E+02  0.97616413661E+02  0.93696869826E+02 0.  0.
         13    1    3    3    0    0 -0.22067265105E+02 -0.27083191229E+02 -0.24235805366E+02  0.42518805982E+02  0.10566000000E+00 0. -1.
         22    1    1    0    0    0  0.55455029430E+01  0.91974807552E+01 -0.25189572161E+02  0.27383586339E+02  0.00000000000E+00 0.  1.
</event>
<event>
 5    1  0.1324057E-009  0.9118800E+02  0.7818608E-02  0.1130116E+00
         25   -1    0    0    0    0  0.00000000000E+00  0.00000000000E+00  0.99999998245E-14  0.12500000000E+03  0.12500000000E+03 0.  0.
        -13    1    3    3    0    0 -0.89561951083E+01 -0.18062332582E+02 -0.27939889013E+02  0.34454460542E+02  0.10566000000E+00 0. -1.
         23    2    1    0    0    0  0.92423938988E+01  0.28165286536E+02  0.61750186923E+01  0.94720699042E+02  0.89750625404E+02 0.  0.
         13    1    3    3    0    0  0.18198589007E+02  0.46227619119E+02  0.34114907705E+02  0.60266238500E+02  0.10566000000E+00 0.  1.
         22    1    1    0    0    0 -0.92423938988E+01 -0.28165286536E+02 -0.61750186923E+01  0.30279300958E+02  0.00000000000E+00 0.  1.
</event>
<event>
 5    1  0.1324057E-009  0.9118800E+02  0.7818608E-02  0.1130116E+00
         25   -1    0    0    0    0  0.00000000000E+00  0.00000000000E+00  0.99999998245E-14  0.12500000000E+03  0.12500000000E+03 0.  0.
        -13    1    3    3    0    0  0.16937005879E+02  0.35443732698E+02 -0.24433844094E+02  0.46261693191E+02  0.10566000000E+00 0.  1.
         23    2    1    0    0    0  0.63012742535E+01  0.34715266438E+02  0.14667330454E+02  0.86790232091E+02  0.77926619474E+02 0.  0.
         13    1    3    3    0    0 -0.10635731625E+02 -0.72846626018E+00  0.39101174548E+02  0.40528538899E+02  0.10566000000E+00 0. -1.
         22    1    1    0    0    0 -0.63012742535E+01 -0.34715266438E+02 -0.14667330454E+02  0.38209767909E+02  0.00000000000E+00 0. -1.
</event>
<event>
 5    1  0.1324057E-009  0.9118800E+02  0.7818608E-02  0.1130116E+00
         25   -1    0    0    0    0  0.00000000000E+00  0.00000000000E+00  0.99999998245E-14  0.12500000000E+03  0.12500000000E+03 0.  0.
        -13    1    3    3    0    0  0.28368162582E+02 -0.35148399410E+02 -0.11564739762E+02  0.46625282832E+02  0.10566000000E+00 0.  1.
         23    2    1    0    0    0  0.57601213106E+01  0.41701861650E+01 -0.28943339804E+02  0.95195866576E+02  0.90409991947E+02 0.  0.
         13    1    3    3    0    0 -0.22608041272E+02  0.39318585575E+02 -0.17378600042E+02  0.48570583744E+02  0.10566000000E+00 0. -1.
         22    1    1    0    0    0 -0.57601213106E+01 -0.41701861650E+01  0.28943339804E+02  0.29804133424E+02  0.00000000000E+00 0. -1.
</event>
<event>
 5    1  0.1324057E-009  0.9118800E+02  0.7818608E-02  0.1130116E+00
         25   -1    0    0    0    0  0.00000000000E+00  0.00000000000E+00  0.99999998245E-14  0.12500000000E+03  0.12500000000E+03 0.  0.
        -13    1    3    3    0    0  0.35793502577E+02 -0.42532240799E+02 -0.12855049223E+02  0.57056373778E+02  0.10566000000E+00 0.  1.
         23    2    1    0    0    0  0.24456330830E+02 -0.72172665874E+01 -0.16963989118E+02  0.94373573805E+02  0.89265858262E+02 0.  0.
         13    1    3    3    0    0 -0.11337171747E+02  0.35314974211E+02 -0.41089398960E+01  0.37317200027E+02  0.10566000000E+00 0. -1.
         22    1    1    0    0    0 -0.24456330830E+02  0.72172665874E+01  0.16963989118E+02  0.30626426195E+02  0.00000000000E+00 0.  1.
</event>
<event>
 5    1  0.1324057E-009  0.9118800E+02  0.7818608E-02  0.1130116E+00
         25   -1    0    0    0    0  0.00000000000E+00  0.00000000000E+00  0.99999998245E-14  0.12500000000E+03  0.12500000000E+03 0.  0.
        -13    1    3    3    0    0  0.27748817488E+02  0.15688555139E+02  0.36271309550E+02  0.48288163092E+02  0.10566000000E+00 0.  1.
         23    2    1    0    0    0  0.21488268751E+02  0.15897200404E+02 -0.11089384842E+02  0.96061424867E+02  0.91598887639E+02 0.  0.
         13    1    3    3    0    0 -0.62605487370E+01  0.20864526493E+00 -0.47360694391E+02  0.47773261775E+02  0.10566000000E+00 0. -1.
         22    1    1    0    0    0 -0.21488268751E+02 -0.15897200404E+02  0.11089384842E+02  0.28938575133E+02  0.00000000000E+00 0. -1.
</event>
<event>
 5    1  0.1324057E-009  0.9118800E+02  0.7818608E-02  0.1130116E+00
         25   -1    0    0    0    0  0.00000000000E+00  0.00000000000E+00  0.99999998245E-14  0.12500000000E+03  0.12500000000E+03 0.  0.
        -13    1    3    3    0    0 -0.41470204934E+02 -0.39149734112E+02  0.12500064803E+02  0.58384435961E+02  0.10566000000E+00 0.  1.
         23    2    1    0    0    0 -0.67069576824E+01 -0.28096768794E+02  0.70316383889E+01  0.95270290340E+02  0.90512831052E+02 0.  0.
         13    1    3    3    0    0  0.34763247252E+02  0.11052965318E+02 -0.54684264143E+01  0.36885854379E+02  0.10566000000E+00 0. -1.
         22    1    1    0    0    0  0.67069576824E+01  0.28096768794E+02 -0.70316383889E+01  0.29729709660E+02  0.00000000000E+00 0.  1.
</event>
<event>
 5    1  0.1324057E-009  0.9118800E+02  0.7818608E-02  0.1130116E+00
         25   -1    0    0    0    0  0.00000000000E+00  0.00000000000E+00  0.99999998245E-14  0.12500000000E+03  0.12500000000E+03 0.  0.
        -13    1    3    3    0    0 -0.46247259709E+02 -0.20037122264E+02 -0.35122374720E+02  0.61431975951E+02  0.10566000000E+00 0.  1.
         23    2    1    0    0    0 -0.21203941179E+02 -0.16073876239E+02 -0.11760390252E+02  0.95909049556E+02  0.91390712816E+02 0.  0.
         13    1    3    3    0    0  0.25043318530E+02  0.39632460249E+01  0.23361984468E+02  0.34477073605E+02  0.10566000000E+00 0. -1.
         22    1    1    0    0    0  0.21203941179E+02  0.16073876239E+02  0.11760390252E+02  0.29090950444E+02  0.00000000000E+00 0.  1.
</event>
<event>
 5    1  0.1324057E-009  0.9118800E+02  0.7818608E-02  0.1130116E+00
         25   -1    0    0    0    0  0.00000000000E+00  0.00000000000E+00  0.99999998245E-14  0.12500000000E+03  0.12500000000E+03 0.  0.
        -13    1    3    3    0    0  0.15208600720E+02  0.25743754400E+02  0.22204753463E+02  0.37243854082E+02  0.10566000000E+00 0.  1.
         23    2    1    0    0    0  0.77626285924E+01 -0.26957369304E+02 -0.41599135350E+01  0.96640468215E+02  0.92385697236E+02 0.  0.
         13    1    3    3    0    0 -0.74459721273E+01 -0.52701123704E+02 -0.26364666998E+02  0.59396614133E+02  0.10566000000E+00 0. -1.
         22    1    1    0    0    0 -0.77626285924E+01  0.26957369304E+02  0.41599135350E+01  0.28359531785E+02  0.00000000000E+00 0. -1.
</event>
<event>
 5    1  0.1324057E-009  0.9118800E+02  0.7818608E-02  0.1130116E+00
         25   -1    0    0    0    0  0.00000000000E+00  0.00000000000E+00  0.99999998245E-14  0.12500000000E+03  0.12500000000E+03 0.  0.
        -13    1    3    3    0    0 -0.92871333705E+01  0.29282903696E+02  0.11099760134E+02  0.32664279178E+02  0.10566000000E+00 0.  1.
         23    2    1    0    0    0  0.13604200702E+02 -0.19032488190E+02 -0.19743973981E+02  0.94387349151E+02  0.89285145952E+02 0.  0.
         13    1    3    3    0    0  0.22891334073E+02 -0.48315391886E+02 -0.30843734115E+02  0.61723069973E+02  0.10566000000E+00 0. -1.
         22    1    1    0    0    0 -0.13604200702E+02  0.19032488190E+02  0.19743973981E+02  0.30612650849E+02  0.00000000000E+00 0. -1.
</event>
<event>
 5    1  0.1324057E-009  0.9118800E+02  0.7818608E-02  0.1130116E+00
         25   -1    0    0    0    0  0.00000000000E+00  0.00000000000E+00  0.99999998245E-14  0.12500000000E+03  0.12500000000E+03 0.  0.
        -13    1    3    3    0    0 -0.15195412442E+02 -0.25781420245E+02 -0.17895621845E+02  0.34868992449E+02  0.10566000000E+00 0.  1.
         23    2    1    0    0    0  0.21763850252E+02  0.19957261868E+02 -0.63113234053E+01  0.94804134684E+02  0.89866755093E+02 0.  0.
         13    1    3    3    0    0  0.36959262693E+02  0.45738682114E+02  0.11584298440E+02  0.59935142235E+02  0.10566000000E+00 0. -1.
         22    1    1    0    0    0 -0.21763850252E+02 -0.19957261868E+02  0.63113234053E+01  0.30195865316E+02  0.00000000000E+00 0. -1.
</event>
<event>
 5    1  0.1324057E-009  0.9118800E+02  0.7818608E-02  0.1130116E+00
         25   -1    0    0    0    0  0.00000000000E+00  0.00000000000E+00  0.99999998245E-14  0.12500000000E+03  0.12500000000E+03 0.  0.
        -13    1    3    3    0    0 -0.27838010588E+02 -0.68220627523E+01  0.46276514031E+02  0.54433650333E+02  0.10566000000E+00 0.  1.
         23    2    1    0    0    0 -0.15174225723E+01 -0.19007670736E+02  0.34182440589E+02  0.85858802233E+02  0.76417933485E+02 0.  0.
         13    1    3    3    0    0  0.26320588016E+02 -0.12185607983E+02 -0.12094073442E+02  0.31425151899E+02  0.10566000000E+00 0. -1.
         22    1    1    0    0    0  0.15174225723E+01  0.19007670736E+02 -0.34182440589E+02  0.39141197767E+02  0.00000000000E+00 0.  1.
</event>
<event>
 5    1  0.1324057E-009  0.9118800E+02  0.7818608E-02  0.1130116E+00
         25   -1    0    0    0    0  0.00000000000E+00  0.00000000000E+00  0.99999998245E-14  0.12500000000E+03  0.12500000000E+03 0.  0.
        -13    1    3    3    0    0  0.10403652978E+02  0.27469328141E+02 -0.23246332838E+02  0.37459353148E+02  0.10566000000E+00 0.  1.
         23    2    1    0    0    0  0.17680031814E+02 -0.12979671813E+02  0.18695185736E+02  0.96180468862E+02  0.91761196676E+02 0.  0.
         13    1    3    3    0    0  0.72763788369E+01 -0.40448999954E+02  0.41941518574E+02  0.58721115714E+02  0.10566000000E+00 0. -1.
         22    1    1    0    0    0 -0.17680031814E+02  0.12979671813E+02 -0.18695185736E+02  0.28819531138E+02  0.00000000000E+00 0. -1.
</event>
<event>
 5    1  0.1324057E-009  0.9118800E+02  0.7818608E-02  0.1130116E+00
         25   -1    0    0    0    0  0.00000000000E+00  0.00000000000E+00  0.99999998245E-14  0.12500000000E+03  0.12500000000E+03 0.  0.
        -13    1    3    3    0    0 -0.34159061295E+02  0.36699363099E+02 -0.64864008045E+01  0.50554616801E+02  0.10566000000E+00 0.  1.
         23    2    1    0    0    0 -0.25155516138E+02 -0.65771190140E+01 -0.14120166218E+02  0.95412205545E+02  0.90708607012E+02 0.  0.
         13    1    3    3    0    0  0.90035451568E+01 -0.43276482113E+02 -0.76337654139E+01  0.44857588744E+02  0.10566000000E+00 0. -1.
         22    1    1    0    0    0  0.25155516138E+02  0.65771190140E+01  0.14120166218E+02  0.29587794455E+02  0.00000000000E+00 0. -1.
</event>
<event>
 5    1  0.1324057E-009  0.9118800E+02  0.7818608E-02  0.1130116E+00
         25   -1    0    0    0    0  0.00000000000E+00  0.00000000000E+00  0.99999998245E-14  0.12500000000E+03  0.12500000000E+03 0.  0.
        -13    1    3    3    0    0 -0.78122365204E+01  0.77291213022E+01 -0.35442935836E+02  0.37107724537E+02  0.10566000000E+00 0. -1.
         23    2    1    0    0    0  0.20365533392E+02 -0.10212187178E+02  0.15082352039E+02  0.97677462411E+02  0.93778278949E+02 0.  0.
         13    1    3    3    0    0  0.28177769912E+02 -0.17941308480E+02  0.50525287875E+02  0.60569737874E+02  0.10566000000E+00 0.  1.
         22    1    1    0    0    0 -0.20365533392E+02  0.10212187178E+02 -0.15082352039E+02  0.27322537589E+02  0.00000000000E+00 0.  1.
</event>
<event>
 5    1  0.1324057E-009  0.9118800E+02  0.7818608E-02  0.1130116E+00
         25   -1    0    0    0    0  0.00000000000E+00  0.00000000000E+00  0.99999998245E-14  0.12500000000E+03  0.12500000000E+03 0.  0.
        -13    1    3    3    0    0  0.18565576802E+02 -0.38418659427E+02 -0.44826326925E+02  0.61887678772E+02  0.10566000000E+00 0.  1.
         23    2    1    0    0    0  0.45371426093E+01 -0.14652100179E+02 -0.24226144693E+02  0.96326392111E+02  0.91959763090E+02 0.  0.
         13    1    3    3    0    0 -0.14028434193E+02  0.23766559248E+02  0.20600182232E+02  0.34438713339E+02  0.10566000000E+00 0. -1.
         22    1    1    0    0    0 -0.45371426093E+01  0.14652100179E+02  0.24226144693E+02  0.28673607889E+02  0.00000000000E+00 0.  1.
</event>
<event>
 5    1  0.1324057E-009  0.9118800E+02  0.7818608E-02  0.1130116E+00
         25   -1    0    0    0    0  0.00000000000E+00  0.00000000000E+00  0.99999998245E-14  0.12500000000E+03  0.12500000000E+03 0.  0.
        -13    1    3    3    0    0  0.31224635870E+02 -0.55798773000E+01 -0.15232452518E+02  0.35187379693E+02  0.10566000000E+00 0. -1.
         23    2    1    0    0    0 -0.27443612311E+02 -0.92593709034E+01  0.47191422253E+00  0.96032595746E+02  0.91559537660E+02 0.  0.
         13    1    3    3    0    0 -0.58668248181E+02 -0.36794936033E+01  0.15704366740E+02  0.60845216053E+02  0.10566000000E+00 0.  1.
         22    1    1    0    0    0  0.27443612311E+02  0.92593709034E+01 -0.47191422253E+00  0.28967404254E+02  0.00000000000E+00 0.  1.
</event>
<event>
 5    1  0.1324057E-009  0.9118800E+02  0.7818608E-02  0.1130116E+00
         25   -1    0    0    0    0  0.00000000000E+00  0.00000000000E+00  0.99999998245E-14  0.12500000000E+03  0.12500000000E+03 0.  0.
        -13    1    3    3    0    0 -0.79698910323E+01  0.24054971148E+02  0.25619168776E+02  0.36034896598E+02  0.10566000000E+00 0.  1.
         23    2    1    0    0    0 -0.10137762651E+02 -0.19838762850E+02 -0.16786072213E+02  0.97105144501E+02  0.93012290184E+02 0.  0.
         13    1    3    3    0    0 -0.21678716189E+01 -0.43893733998E+02 -0.42405240989E+02  0.61070247903E+02  0.10566000000E+00 0. -1.
         22    1    1    0    0    0  0.10137762651E+02  0.19838762850E+02  0.16786072213E+02  0.27894855499E+02  0.00000000000E+00 0. -1.
</event>
<event>
 5    1  0.1324057E-009  0.9118800E+02  0.7818608E-02  0.1130116E+00
         25   -1    0    0    0    0  0.00000000000E+00  0.00000000000E+00  0.99999998245E-14  0.12500000000E+03  0.12500000000E+03 0.  0.
        -13    1    3    3    0    0  0.30167980910E+02  0.50285034209E+02  0.37685423830E+01  0.58761422833E+02  0.10566000000E+00 0.  1.
         23    2    1    0    0    0  0.21490904388E+02  0.15601513947E+02  0.12625458999E+02  0.95594755166E+02  0.90959819654E+02 0.  0.
         13    1    3    3    0    0 -0.86770765227E+01 -0.34683520263E+02  0.88569166157E+01  0.36833332333E+02  0.10566000000E+00 0. -1.
         22    1    1    0    0    0 -0.21490904388E+02 -0.15601513947E+02 -0.12625458999E+02  0.29405244834E+02  0.00000000000E+00 0.  1.
</event>
<event>
 5    1  0.1324057E-009  0.9118800E+02  0.7818608E-02  0.1130116E+00
         25   -1    0    0    0    0  0.00000000000E+00  0.00000000000E+00  0.99999998245E-14  0.12500000000E+03  0.12500000000E+03 0.  0.
        -13    1    3    3    0    0  0.12214574140E+02 -0.14238905718E+02  0.36599779432E+02  0.41127816328E+02  0.10566000000E+00 0.  1.
         23    2    1    0    0    0  0.13386276664E+01 -0.22820093558E+02 -0.17014835404E+02  0.96503452527E+02  0.92200125444E+02 0.  0.
         13    1    3    3    0    0 -0.10875946473E+02 -0.85811878404E+01 -0.53614614836E+02  0.55375636199E+02  0.10566000000E+00 0. -1.
         22    1    1    0    0    0 -0.13386276664E+01  0.22820093558E+02  0.17014835404E+02  0.28496547473E+02  0.00000000000E+00 0. -1.
</event>
<event>
 5    1  0.1324057E-009  0.9118800E+02  0.7818608E-02  0.1130116E+00
         25   -1    0    0    0    0  0.00000000000E+00  0.00000000000E+00  0.99999998245E-14  0.12500000000E+03  0.12500000000E+03 0.  0.
        -13    1    3    3    0    0 -0.14105613476E+02 -0.15967155378E+02 -0.35729604819E+02  0.41599689986E+02  0.10566000000E+00 0.  1.
         23    2    1    0    0    0  0.50772875126E+01  0.27089456383E+02 -0.79416983181E+01  0.96317460577E+02  0.91947621743E+02 0.  0.
         13    1    3    3    0    0  0.19182900989E+02  0.43056611761E+02  0.27787906501E+02  0.54717770591E+02  0.10566000000E+00 0. -1.
         22    1    1    0    0    0 -0.50772875126E+01 -0.27089456383E+02  0.79416983181E+01  0.28682539423E+02  0.00000000000E+00 0. -1.
</event>
<event>
 5    1  0.1324057E-009  0.9118800E+02  0.7818608E-02  0.1130116E+00
         25   -1    0    0    0    0  0.00000000000E+00  0.00000000000E+00  0.99999998245E-14  0.12500000000E+03  0.12500000000E+03 0.  0.
        -13    1    3    3    0    0 -0.32022996934E+02  0.26095792352E+02 -0.45312677079E+01  0.41557264854E+02  0.10566000000E+00 0.  1.
         23    2    1    0    0    0  0.18723233908E+02  0.13048260379E+02 -0.18316550825E+02  0.95737180228E+02  0.91155334769E+02 0.  0.
         13    1    3    3    0    0  0.50746230841E+02 -0.13047531973E+02 -0.13785283117E+02  0.54179915373E+02  0.10566000000E+00 0. -1.
         22    1    1    0    0    0 -0.18723233908E+02 -0.13048260379E+02  0.18316550825E+02  0.29262819772E+02  0.00000000000E+00 0. -1.
</event>
<event>
 5    1  0.1324057E-009  0.9118800E+02  0.7818608E-02  0.1130116E+00
         25   -1    0    0    0    0  0.00000000000E+00  0.00000000000E+00  0.99999998245E-14  0.12500000000E+03  0.12500000000E+03 0.  0.
        -13    1    3    3    0    0  0.16493467257E+02 -0.23254393960E+02  0.15438309745E+02  0.32421503241E+02  0.10566000000E+00 0.  1.
         23    2    1    0    0    0 -0.11114120774E+02  0.24316539181E+02 -0.14015451542E+02  0.94813071699E+02  0.89879185159E+02 0.  0.
         13    1    3    3    0    0 -0.27607588031E+02  0.47570933141E+02 -0.29453761286E+02  0.62391568458E+02  0.10566000000E+00 0. -1.
         22    1    1    0    0    0  0.11114120774E+02 -0.24316539181E+02  0.14015451542E+02  0.30186928301E+02  0.00000000000E+00 0. -1.
</event>
<event>
 5    1  0.1324057E-009  0.9118800E+02  0.7818608E-02  0.1130116E+00
         25   -1    0    0    0    0  0.00000000000E+00  0.00000000000E+00  0.99999998245E-14  0.12500000000E+03  0.12500000000E+03 0.  0.
        -13    1    3    3    0    0 -0.34867238519E+02  0.48249615296E+02 -0.11152016704E+02  0.60565075239E+02  0.10566000000E+00 0. -1.
         23    2    1    0    0    0 -0.24898943953E+02  0.19907462300E+02  0.13167333326E+01  0.93093915128E+02  0.87455581766E+02 0.  0.
         13    1    3    3    0    0  0.99682945669E+01 -0.28342152995E+02  0.12468750037E+02  0.32528839888E+02  0.10566000000E+00 0.  1.
         22    1    1    0    0    0  0.24898943953E+02 -0.19907462300E+02 -0.13167333326E+01  0.31906084872E+02  0.00000000000E+00 0. -1.
</event>
<event>
 5    1  0.1324057E-009  0.9118800E+02  0.7818608E-02  0.1130116E+00
         25   -1    0    0    0    0  0.00000000000E+00  0.00000000000E+00  0.99999998245E-14  0.12500000000E+03  0.12500000000E+03 0.  0.
        -13    1    3    3    0    0 -0.17544265362E+02 -0.19250221431E+02 -0.47040068770E+02  0.53769429104E+02  0.10566000000E+00 0. -1.
         23    2    1    0    0    0  0.15542205325E+02 -0.83734347696E+01 -0.22619989713E+02  0.96306124507E+02  0.91932209408E+02 0.  0.
         13    1    3    3    0    0  0.33086470687E+02  0.10876786662E+02  0.24420079057E+02  0.42536695403E+02  0.10566000000E+00 0.  1.
         22    1    1    0    0    0 -0.15542205325E+02  0.83734347696E+01  0.22619989713E+02  0.28693875493E+02  0.00000000000E+00 0. -1.
</event>
<event>
 5    1  0.1324057E-009  0.9118800E+02  0.7818608E-02  0.1130116E+00
         25   -1    0    0    0    0  0.00000000000E+00  0.00000000000E+00  0.99999998245E-14  0.12500000000E+03  0.12500000000E+03 0.  0.
        -13    1    3    3    0    0 -0.25072530815E+02 -0.39691158959E+02 -0.24936753937E+02  0.53158938683E+02  0.10566000000E+00 0.  1.
         23    2    1    0    0    0 -0.22195465809E+02 -0.16031891368E+02  0.10340245720E+02  0.95732596205E+02  0.91149048548E+02 0.  0.
         13    1    3    3    0    0  0.28770650058E+01  0.23659267591E+02  0.35276999657E+02  0.42573657522E+02  0.10566000000E+00 0. -1.
         22    1    1    0    0    0  0.22195465809E+02  0.16031891368E+02 -0.10340245720E+02  0.29267403795E+02  0.00000000000E+00 0.  1.
</event>
<event>
 5    1  0.1324057E-009  0.9118800E+02  0.7818608E-02  0.1130116E+00
         25   -1    0    0    0    0  0.00000000000E+00  0.00000000000E+00  0.99999998245E-14  0.12500000000E+03  0.12500000000E+03 0.  0.
        -13    1    3    3    0    0  0.41821329121E+02  0.42173424714E+02 -0.15721047232E+02  0.61439269296E+02  0.10566000000E+00 0.  1.
         23    2    1    0    0    0  0.14194110107E+02  0.25861566064E+02 -0.73021151926E+01  0.94608977521E+02  0.89594890369E+02 0.  0.
         13    1    3    3    0    0 -0.27627219013E+02 -0.16311858649E+02  0.84189320397E+01  0.33169708225E+02  0.10566000000E+00 0. -1.
         22    1    1    0    0    0 -0.14194110107E+02 -0.25861566064E+02  0.73021151926E+01  0.30391022479E+02  0.00000000000E+00 0.  1.
</event>
<event>
 5    1  0.1324057E-009  0.9118800E+02  0.7818608E-02  0.1130116E+00
         25   -1    0    0    0    0  0.00000000000E+00  0.00000000000E+00  0.99999998245E-14  0.12500000000E+03  0.12500000000E+03 0.  0.
        -13    1    3    3    0    0  0.19728487833E+02 -0.19786597758E+02 -0.20471694583E+02  0.34638477538E+02  0.10566000000E+00 0.  1.
         23    2    1    0    0    0  0.66250731386E-01  0.24508478408E+02  0.16380299543E+02  0.95521463466E+02  0.90859043945E+02 0.  0.
         13    1    3    3    0    0 -0.19662237102E+02  0.44295076167E+02  0.36851994126E+02  0.60882985928E+02  0.10566000000E+00 0. -1.
         22    1    1    0    0    0 -0.66250731386E-01 -0.24508478408E+02 -0.16380299543E+02  0.29478536534E+02  0.00000000000E+00 0. -1.
</event>
<event>
 5    1  0.1324057E-009  0.9118800E+02  0.7818608E-02  0.1130116E+00
         25   -1    0    0    0    0  0.00000000000E+00  0.00000000000E+00  0.99999998245E-14  0.12500000000E+03  0.12500000000E+03 0.  0.
        -13    1    3    3    0    0  0.19662803359E+01 -0.59344781350E+02  0.35452662690E+01  0.59483185933E+02  0.10566000000E+00 0. -1.
         23    2    1    0    0    0 -0.80287268013E+01 -0.28883019803E+02 -0.86732385477E+01  0.93792399101E+02  0.88448288707E+02 0.  0.
         13    1    3    3    0    0 -0.99950071372E+01  0.30461761546E+02 -0.12218504817E+02  0.34309213168E+02  0.10566000000E+00 0.  1.
         22    1    1    0    0    0  0.80287268013E+01  0.28883019803E+02  0.86732385477E+01  0.31207600899E+02  0.00000000000E+00 0. -1.
</event>
<event>
 5    1  0.1324057E-009  0.9118800E+02  0.7818608E-02  0.1130116E+00
         25   -1    0    0    0    0  0.00000000000E+00  0.00000000000E+00  0.99999998245E-14  0.12500000000E+03  0.12500000000E+03 0.  0.
        -13    1    3    3    0    0 -0.48118084468E+02  0.34362212750E+02  0.15688741718E+02  0.61174009993E+02  0.10566000000E+00 0.  1.
         23    2    1    0    0    0 -0.16435069617E+02  0.20804297078E+02  0.12208091475E+02  0.95811512754E+02  0.91257208968E+02 0.  0.
         13    1    3    3    0    0  0.31683014850E+02 -0.13557915673E+02 -0.34806502430E+01  0.34637502761E+02  0.10566000000E+00 0. -1.
         22    1    1    0    0    0  0.16435069617E+02 -0.20804297078E+02 -0.12208091475E+02  0.29188487246E+02  0.00000000000E+00 0.  1.
</event>
<event>
 5    1  0.1324057E-009  0.9118800E+02  0.7818608E-02  0.1130116E+00
         25   -1    0    0    0    0  0.00000000000E+00  0.00000000000E+00  0.99999998245E-14  0.12500000000E+03  0.12500000000E+03 0.  0.
        -13    1    3    3    0    0  0.22864116292E+02  0.14773738679E+02 -0.27318477680E+02  0.38566067406E+02  0.10566000000E+00 0.  1.
         23    2    1    0    0    0 -0.28119576143E+02  0.93509727357E+01 -0.33039846891E+01  0.95182763904E+02  0.90391874503E+02 0.  0.
         13    1    3    3    0    0 -0.50983692435E+02 -0.54227659429E+01  0.24014492991E+02  0.56616696499E+02  0.10566000000E+00 0. -1.
         22    1    1    0    0    0  0.28119576143E+02 -0.93509727357E+01  0.33039846891E+01  0.29817236096E+02  0.00000000000E+00 0. -1.
</event>
<event>
 5    1  0.1324057E-009  0.9118800E+02  0.7818608E-02  0.1130116E+00
         25   -1    0    0    0    0  0.00000000000E+00  0.00000000000E+00  0.99999998245E-14  0.12500000000E+03  0.12500000000E+03 0.  0.
        -13    1    3    3    0    0  0.21162094510E+02  0.72058742400E+01 -0.57066052527E+02  0.61288697022E+02  0.10566000000E+00 0. -1.
         23    2    1    0    0    0  0.14481085605E+02  0.87818004970E+01 -0.20904748186E+02  0.98095904457E+02  0.94334384581E+02 0.  0.
         13    1    3    3    0    0 -0.66810089051E+01  0.15759262570E+01  0.36161304340E+02  0.36807207435E+02  0.10566000000E+00 0.  1.
         22    1    1    0    0    0 -0.14481085605E+02 -0.87818004970E+01  0.20904748186E+02  0.26904095543E+02  0.00000000000E+00 0. -1.
</event>
<event>
 5    1  0.1324057E-009  0.9118800E+02  0.7818608E-02  0.1130116E+00
         25   -1    0    0    0    0  0.00000000000E+00  0.00000000000E+00  0.99999998245E-14  0.12500000000E+03  0.12500000000E+03 0.  0.
        -13    1    3    3    0    0  0.43646803186E+02 -0.42438134867E+02  0.90505975926E+01  0.61546431255E+02  0.10566000000E+00 0. -1.
         23    2    1    0    0    0  0.18743559409E+02 -0.20957012149E+02  0.11712153388E+02  0.94541964697E+02  0.89501347332E+02 0.  0.
         13    1    3    3    0    0 -0.24903243778E+02  0.21481122717E+02  0.26615557954E+01  0.32995533442E+02  0.10566000000E+00 0.  1.
         22    1    1    0    0    0 -0.18743559409E+02  0.20957012149E+02 -0.11712153388E+02  0.30458035303E+02  0.00000000000E+00 0. -1.
</event>
<event>
 5    1  0.1324057E-009  0.9118800E+02  0.7818608E-02  0.1130116E+00
         25   -1    0    0    0    0  0.00000000000E+00  0.00000000000E+00  0.99999998245E-14  0.12500000000E+03  0.12500000000E+03 0.  0.
        -13    1    3    3    0    0 -0.52054548672E+01 -0.11084056732E+02 -0.29174168497E+02  0.31640106598E+02  0.10566000000E+00 0.  1.
         23    2    1    0    0    0 -0.48783811889E+01  0.30390147491E+02  0.13714999817E+02  0.91303399466E+02  0.84857821482E+02 0.  0.
         13    1    3    3    0    0  0.32707367834E+00  0.41474204223E+02  0.42889168315E+02  0.59663292868E+02  0.10566000000E+00 0. -1.
         22    1    1    0    0    0  0.48783811889E+01 -0.30390147491E+02 -0.13714999817E+02  0.33696600534E+02  0.00000000000E+00 0. -1.
</event>
<event>
 5    1  0.1324057E-009  0.9118800E+02  0.7818608E-02  0.1130116E+00
         25   -1    0    0    0    0  0.00000000000E+00  0.00000000000E+00  0.99999998245E-14  0.12500000000E+03  0.12500000000E+03 0.  0.
        -13    1    3    3    0    0 -0.47723834314E+01 -0.28634845974E+02 -0.16339609939E+02  0.33312521138E+02  0.10566000000E+00 0.  1.
         23    2    1    0    0    0 -0.10073319541E+02  0.26720248468E+02  0.98678306274E+01  0.94787129794E+02  0.89843099059E+02 0.  0.
         13    1    3    3    0    0 -0.53009361091E+01  0.55355094442E+02  0.26207440567E+02  0.61474608656E+02  0.10566000000E+00 0. -1.
         22    1    1    0    0    0  0.10073319541E+02 -0.26720248468E+02 -0.98678306274E+01  0.30212870206E+02  0.00000000000E+00 0. -1.
</event>
<event>
 5    1  0.1324057E-009  0.9118800E+02  0.7818608E-02  0.1130116E+00
         25   -1    0    0    0    0  0.00000000000E+00  0.00000000000E+00  0.99999998245E-14  0.12500000000E+03  0.12500000000E+03 0.  0.
        -13    1    3    3    0    0 -0.52287697315E+01  0.37834430928E+02  0.48854086219E+02  0.62012233477E+02  0.10566000000E+00 0. -1.
         23    2    1    0    0    0 -0.50526614581E+01  0.21971444604E+02  0.20372943099E+02  0.94613644899E+02  0.89601401913E+02 0.  0.
         13    1    3    3    0    0  0.17610827342E+00 -0.15862986323E+02 -0.28481143120E+02  0.32601411422E+02  0.10566000000E+00 0.  1.
         22    1    1    0    0    0  0.50526614581E+01 -0.21971444604E+02 -0.20372943099E+02  0.30386355101E+02  0.00000000000E+00 0. -1.
</event>
<event>
 5    1  0.1324057E-009  0.9118800E+02  0.7818608E-02  0.1130116E+00
         25   -1    0    0    0    0  0.00000000000E+00  0.00000000000E+00  0.99999998245E-14  0.12500000000E+03  0.12500000000E+03 0.  0.
        -13    1    3    3    0    0  0.49066361848E+02 -0.23046963484E+02 -0.14623011993E+02  0.56147253135E+02  0.10566000000E+00 0. -1.
         23    2    1    0    0    0  0.26379617460E+02  0.91237722039E+01 -0.64122173263E+01  0.96360098331E+02  0.92005568216E+02 0.  0.
         13    1    3    3    0    0 -0.22686744388E+02  0.32170735688E+02  0.82107946670E+01  0.40212845196E+02  0.10566000000E+00 0.  1.
         22    1    1    0    0    0 -0.26379617460E+02 -0.91237722039E+01  0.64122173263E+01  0.28639901669E+02  0.00000000000E+00 0. -1.
</event>
<event>
 5    1  0.1324057E-009  0.9118800E+02  0.7818608E-02  0.1130116E+00
         25   -1    0    0    0    0  0.00000000000E+00  0.00000000000E+00  0.99999998245E-14  0.12500000000E+03  0.12500000000E+03 0.  0.
        -13    1    3    3    0    0  0.26241258271E+02 -0.23106256700E+02 -0.23639356085E+02  0.42205841473E+02  0.10566000000E+00 0.  1.
         23    2    1    0    0    0  0.15142514702E+02  0.24665004961E+02 -0.14896761796E+01  0.96019362389E+02  0.91541469277E+02 0.  0.
         13    1    3    3    0    0 -0.11098743569E+02  0.47771261660E+02  0.22149679906E+02  0.53813520916E+02  0.10566000000E+00 0. -1.
         22    1    1    0    0    0 -0.15142514702E+02 -0.24665004961E+02  0.14896761796E+01  0.28980637611E+02  0.00000000000E+00 0.  1.
</event>
<event>
 5    1  0.1324057E-009  0.9118800E+02  0.7818608E-02  0.1130116E+00
         25   -1    0    0    0    0  0.00000000000E+00  0.00000000000E+00  0.99999998245E-14  0.12500000000E+03  0.12500000000E+03 0.  0.
        -13    1    3    3    0    0  0.15076241046E+02 -0.26179996110E+02  0.39171144054E+02  0.49467918199E+02  0.10566000000E+00 0.  1.
         23    2    1    0    0    0 -0.25214183610E+01 -0.31089802107E+02 -0.12045577057E+01  0.93784870578E+02  0.88437648343E+02 0.  0.
         13    1    3    3    0    0 -0.17597659407E+02 -0.49098059967E+01 -0.40375701760E+02  0.44316952379E+02  0.10566000000E+00 0. -1.
         22    1    1    0    0    0  0.25214183610E+01  0.31089802107E+02  0.12045577057E+01  0.31215129422E+02  0.00000000000E+00 0.  1.
</event>
<event>
 5    1  0.1324057E-009  0.9118800E+02  0.7818608E-02  0.1130116E+00
         25   -1    0    0    0    0  0.00000000000E+00  0.00000000000E+00  0.99999998245E-14  0.12500000000E+03  0.12500000000E+03 0.  0.
        -13    1    3    3    0    0  0.24544037829E+02 -0.46065012253E+01  0.21625077164E+02  0.33034599632E+02  0.10566000000E+00 0.  1.
         23    2    1    0    0    0 -0.27497673525E+02 -0.12705164902E+02 -0.82760933229E+01  0.93598774146E+02  0.88174222630E+02 0.  0.
         13    1    3    3    0    0 -0.52041711353E+02 -0.80986636771E+01 -0.29901170487E+02  0.60564174513E+02  0.10566000000E+00 0. -1.
         22    1    1    0    0    0  0.27497673525E+02  0.12705164902E+02  0.82760933229E+01  0.31401225854E+02  0.00000000000E+00 0. -1.
</event>
<event>
 5    1  0.1324057E-009  0.9118800E+02  0.7818608E-02  0.1130116E+00
         25   -1    0    0    0    0  0.00000000000E+00  0.00000000000E+00  0.99999998245E-14  0.12500000000E+03  0.12500000000E+03 0.  0.
        -13    1    3    3    0    0 -0.21479944609E+00  0.15019372876E+02 -0.30444407722E+02  0.33948502559E+02  0.10566000000E+00 0.  1.
         23    2    1    0    0    0  0.17822336507E+02 -0.12812420368E+02  0.20650133426E+02  0.94863281453E+02  0.89948987561E+02 0.  0.
         13    1    3    3    0    0  0.18037135953E+02 -0.27831793245E+02  0.51094541148E+02  0.60914778894E+02  0.10566000000E+00 0. -1.
         22    1    1    0    0    0 -0.17822336507E+02  0.12812420368E+02 -0.20650133426E+02  0.30136718547E+02  0.00000000000E+00 0. -1.
</event>
<event>
 5    1  0.1324057E-009  0.9118800E+02  0.7818608E-02  0.1130116E+00
         25   -1    0    0    0    0  0.00000000000E+00  0.00000000000E+00  0.99999998245E-14  0.12500000000E+03  0.12500000000E+03 0.  0.
        -13    1    3    3    0    0 -0.35858270080E+02  0.10576001366E+02  0.34652125286E+02  0.50974977086E+02  0.10566000000E+00 0.  1.
         23    2    1    0    0    0 -0.11626699373E+01 -0.15875494628E+02  0.24522160539E+02  0.95764414003E+02  0.91192672407E+02 0.  0.
         13    1    3    3    0    0  0.34695600143E+02 -0.26451495994E+02 -0.10129964747E+02  0.44789436917E+02  0.10566000000E+00 0. -1.
         22    1    1    0    0    0  0.11626699373E+01  0.15875494628E+02 -0.24522160539E+02  0.29235585997E+02  0.00000000000E+00 0.  1.
</event>
<event>
 5    1  0.1324057E-009  0.9118800E+02  0.7818608E-02  0.1130116E+00
         25   -1    0    0    0    0  0.00000000000E+00  0.00000000000E+00  0.99999998245E-14  0.12500000000E+03  0.12500000000E+03 0.  0.
        -13    1    3    3    0    0 -0.42816220494E+02  0.35349537632E+02  0.27965436046E+02  0.62168282310E+02  0.10566000000E+00 0.  1.
         23    2    1    0    0    0 -0.16446003798E+02  0.17196383461E+02  0.15904260860E+02  0.96379515054E+02  0.92031944255E+02 0.  0.
         13    1    3    3    0    0  0.26370216695E+02 -0.18153154171E+02 -0.12061175186E+02  0.34211232743E+02  0.10566000000E+00 0. -1.
         22    1    1    0    0    0  0.16446003798E+02 -0.17196383461E+02 -0.15904260860E+02  0.28620484946E+02  0.00000000000E+00 0.  1.
</event>
<event>
 5    1  0.1324057E-009  0.9118800E+02  0.7818608E-02  0.1130116E+00
         25   -1    0    0    0    0  0.00000000000E+00  0.00000000000E+00  0.99999998245E-14  0.12500000000E+03  0.12500000000E+03 0.  0.
        -13    1    3    3    0    0 -0.32172568633E+02  0.71133146258E+01 -0.66522289302E+01  0.33614531548E+02  0.10566000000E+00 0. -1.
         23    2    1    0    0    0  0.25154614010E+02 -0.12874982143E+02  0.70978171534E+01  0.95864132422E+02  0.91329256569E+02 0.  0.
         13    1    3    3    0    0  0.57327182643E+02 -0.19988296769E+02  0.13750046084E+02  0.62249600874E+02  0.10566000000E+00 0.  1.
         22    1    1    0    0    0 -0.25154614010E+02  0.12874982143E+02 -0.70978171534E+01  0.29135867578E+02  0.00000000000E+00 0.  1.
</event>
<event>
 5    1  0.1324057E-009  0.9118800E+02  0.7818608E-02  0.1130116E+00
         25   -1    0    0    0    0  0.00000000000E+00  0.00000000000E+00  0.99999998245E-14  0.12500000000E+03  0.12500000000E+03 0.  0.
        -13    1    3    3    0    0 -0.24908654148E+02 -0.26731647104E+02  0.63800093966E+01  0.37090938143E+02  0.10566000000E+00 0.  1.
         23    2    1    0    0    0  0.26416042886E+02  0.23675230435E+01  0.11034400672E+02  0.96274219153E+02  0.91888817536E+02 0.  0.
         13    1    3    3    0    0  0.51324697034E+02  0.29099170148E+02  0.46543912751E+01  0.59183281010E+02  0.10566000000E+00 0. -1.
         22    1    1    0    0    0 -0.26416042886E+02 -0.23675230435E+01 -0.11034400672E+02  0.28725780847E+02  0.00000000000E+00 0. -1.
</event>
<event>
 5    1  0.1324057E-009  0.9118800E+02  0.7818608E-02  0.1130116E+00
         25   -1    0    0    0    0  0.00000000000E+00  0.00000000000E+00  0.99999998245E-14  0.12500000000E+03  0.12500000000E+03 0.  0.
        -13    1    3    3    0    0 -0.22921904949E+02 -0.17070717480E+02  0.17239041737E+02  0.33376920856E+02  0.10566000000E+00 0. -1.
         23    2    1    0    0    0  0.27514841577E+02  0.10071710204E+02 -0.58314205904E+01  0.95125072058E+02  0.90312059075E+02 0.  0.
         13    1    3    3    0    0  0.50436746526E+02  0.27142427684E+02 -0.23070462328E+02  0.61748151202E+02  0.10566000000E+00 0.  1.
         22    1    1    0    0    0 -0.27514841577E+02 -0.10071710204E+02  0.58314205904E+01  0.29874927942E+02  0.00000000000E+00 0.  1.
</event>
<event>
 5    1  0.1324057E-009  0.9118800E+02  0.7818608E-02  0.1130116E+00
         25   -1    0    0    0    0  0.00000000000E+00  0.00000000000E+00  0.99999998245E-14  0.12500000000E+03  0.12500000000E+03 0.  0.
        -13    1    3    3    0    0  0.11337163544E+02 -0.15940457893E+02 -0.54399508686E+02  0.57809576926E+02  0.10566000000E+00 0. -1.
         23    2    1    0    0    0  0.16789946860E+02 -0.15634443871E+02 -0.14992076249E+02  0.97593787183E+02  0.93666679218E+02 0.  0.
         13    1    3    3    0    0  0.54527833153E+01  0.30601402163E+00  0.39407432437E+02  0.39784210257E+02  0.10566000000E+00 0.  1.
         22    1    1    0    0    0 -0.16789946860E+02  0.15634443871E+02  0.14992076249E+02  0.27406212817E+02  0.00000000000E+00 0. -1.
</event>
<event>
 5    1  0.1324057E-009  0.9118800E+02  0.7818608E-02  0.1130116E+00
         25   -1    0    0    0    0  0.00000000000E+00  0.00000000000E+00  0.99999998245E-14  0.12500000000E+03  0.12500000000E+03 0.  0.
        -13    1    3    3    0    0  0.23815914790E+02  0.43370873900E+02 -0.22869709879E+02  0.54509313829E+02  0.10566000000E+00 0.  1.
         23    2    1    0    0    0 -0.59334967010E+01  0.28494062268E+02  0.16743724826E+01  0.95846586978E+02  0.91305239415E+02 0.  0.
         13    1    3    3    0    0 -0.29749411491E+02 -0.14876811633E+02  0.24544082361E+02  0.41337273149E+02  0.10566000000E+00 0. -1.
         22    1    1    0    0    0  0.59334967010E+01 -0.28494062268E+02 -0.16743724826E+01  0.29153413022E+02  0.00000000000E+00 0.  1.
</event>
<event>
 5    1  0.1324057E-009  0.9118800E+02  0.7818608E-02  0.1130116E+00
         25   -1    0    0    0    0  0.00000000000E+00  0.00000000000E+00  0.99999998245E-14  0.12500000000E+03  0.12500000000E+03 0.  0.
        -13    1    3    3    0    0 -0.37699314011E+02 -0.69805799044E+01  0.95877918832E+01  0.39520927240E+02  0.10566000000E+00 0. -1.
         23    2    1    0    0    0  0.45681979081E+01  0.28299586849E+02 -0.35264375905E+01  0.96117984661E+02  0.91676039211E+02 0.  0.
         13    1    3    3    0    0  0.42267511919E+02  0.35280166753E+02 -0.13114229474E+02  0.56597057421E+02  0.10566000000E+00 0.  1.
         22    1    1    0    0    0 -0.45681979081E+01 -0.28299586849E+02  0.35264375905E+01  0.28882015339E+02  0.00000000000E+00 0.  1.
</event>
<event>
 5    1  0.1324057E-009  0.9118800E+02  0.7818608E-02  0.1130116E+00
         25   -1    0    0    0    0  0.00000000000E+00  0.00000000000E+00  0.99999998245E-14  0.12500000000E+03  0.12500000000E+03 0.  0.
        -13    1    3    3    0    0  0.29870569165E+02 -0.11890962365E+02 -0.25706224868E+02  0.41163904688E+02  0.10566000000E+00 0. -1.
         23    2    1    0    0    0  0.13884121224E+02 -0.70854844130E+01  0.25550253588E+02  0.95070276147E+02  0.90236184742E+02 0.  0.
         13    1    3    3    0    0 -0.15986447940E+02  0.48054779515E+01  0.51256478456E+02  0.53906371459E+02  0.10566000000E+00 0.  1.
         22    1    1    0    0    0 -0.13884121224E+02  0.70854844130E+01 -0.25550253588E+02  0.29929723853E+02  0.00000000000E+00 0.  1.
</event>
<event>
 5    1  0.1324057E-009  0.9118800E+02  0.7818608E-02  0.1130116E+00
         25   -1    0    0    0    0  0.00000000000E+00  0.00000000000E+00  0.99999998245E-14  0.12500000000E+03  0.12500000000E+03 0.  0.
        -13    1    3    3    0    0  0.30141465428E+02  0.13917348803E+02  0.77224701141E+00  0.33208554099E+02  0.10566000000E+00 0.  1.
         23    2    1    0    0    0  0.33284508373E+02 -0.20708810379E+02  0.27543788802E+02  0.77089942324E+02  0.60394416803E+02 0.  0.
         13    1    3    3    0    0  0.31430429452E+01 -0.34626159182E+02  0.26771541791E+02  0.43881388225E+02  0.10566000000E+00 0. -1.
         22    1    1    0    0    0 -0.33284508373E+02  0.20708810379E+02 -0.27543788802E+02  0.47910057676E+02  0.00000000000E+00 0.  1.
</event>
<event>
 5    1  0.1324057E-009  0.9118800E+02  0.7818608E-02  0.1130116E+00
         25   -1    0    0    0    0  0.00000000000E+00  0.00000000000E+00  0.99999998245E-14  0.12500000000E+03  0.12500000000E+03 0.  0.
        -13    1    3    3    0    0 -0.52571628043E+02 -0.30115048735E+02  0.16352223129E+01  0.60608393408E+02  0.10566000000E+00 0.  1.
         23    2    1    0    0    0 -0.19714570902E+02 -0.22494780567E+02  0.55972833002E+01  0.94569603372E+02  0.89539939932E+02 0.  0.
         13    1    3    3    0    0  0.32857057141E+02  0.76202681683E+01  0.39620609872E+01  0.33961209964E+02  0.10566000000E+00 0. -1.
         22    1    1    0    0    0  0.19714570902E+02  0.22494780567E+02 -0.55972833002E+01  0.30430396628E+02  0.00000000000E+00 0.  1.
</event>
<event>
 5    1  0.1324057E-009  0.9118800E+02  0.7818608E-02  0.1130116E+00
         25   -1    0    0    0    0  0.00000000000E+00  0.00000000000E+00  0.99999998245E-14  0.12500000000E+03  0.12500000000E+03 0.  0.
        -13    1    3    3    0    0  0.46985594091E+02  0.31016262692E+02 -0.10276926768E+02  0.57230070690E+02  0.10566000000E+00 0. -1.
         23    2    1    0    0    0  0.28227449379E+02  0.36868690950E+00  0.50974214343E+01  0.96313617625E+02  0.91942397219E+02 0.  0.
         13    1    3    3    0    0 -0.18758144712E+02 -0.30647575782E+02  0.15374348202E+02  0.39083546935E+02  0.10566000000E+00 0.  1.
         22    1    1    0    0    0 -0.28227449379E+02 -0.36868690950E+00 -0.50974214343E+01  0.28686382375E+02  0.00000000000E+00 0. -1.
</event>
<event>
 5    1  0.1324057E-009  0.9118800E+02  0.7818608E-02  0.1130116E+00
         25   -1    0    0    0    0  0.00000000000E+00  0.00000000000E+00  0.99999998245E-14  0.12500000000E+03  0.12500000000E+03 0.  0.
        -13    1    3    3    0    0 -0.10330352541E+02 -0.20327422679E+02  0.36750761199E+02  0.43249854441E+02  0.10566000000E+00 0. -1.
         23    2    1    0    0    0 -0.42993946623E+01 -0.19494113871E+02 -0.17869062137E+02  0.98208048751E+02  0.94482867165E+02 0.  0.
         13    1    3    3    0    0  0.60309578789E+01  0.83330880785E+00 -0.54619823336E+02  0.54958194310E+02  0.10566000000E+00 0.  1.
         22    1    1    0    0    0  0.42993946623E+01  0.19494113871E+02  0.17869062137E+02  0.26791951249E+02  0.00000000000E+00 0.  1.
</event>
<event>
 5    1  0.1324057E-009  0.9118800E+02  0.7818608E-02  0.1130116E+00
         25   -1    0    0    0    0  0.00000000000E+00  0.00000000000E+00  0.99999998245E-14  0.12500000000E+03  0.12500000000E+03 0.  0.
        -13    1    3    3    0    0  0.49507829203E+02 -0.18632560910E+02  0.48607056775E+01  0.53120947866E+02  0.10566000000E+00 0.  1.
         23    2    1    0    0    0  0.11888598460E+02 -0.11317091638E+02  0.23972939476E+02  0.95946305509E+02  0.91441655591E+02 0.  0.
         13    1    3    3    0    0 -0.37619230743E+02  0.73154692725E+01  0.19112233798E+02  0.42825357642E+02  0.10566000000E+00 0. -1.
         22    1    1    0    0    0 -0.11888598460E+02  0.11317091638E+02 -0.23972939476E+02  0.29053694491E+02  0.00000000000E+00 0.  1.
</event>
<event>
 5    1  0.1324057E-009  0.9118800E+02  0.7818608E-02  0.1130116E+00
         25   -1    0    0    0    0  0.00000000000E+00  0.00000000000E+00  0.99999998245E-14  0.12500000000E+03  0.12500000000E+03 0.  0.
        -13    1    3    3    0    0 -0.42500238896E+02  0.59894486735E+01  0.11135671110E+00  0.42920477234E+02  0.10566000000E+00 0. -1.
         23    2    1    0    0    0  0.49768223841E+01  0.21611693926E+02 -0.18363192101E+02  0.96206929661E+02  0.91797235336E+02 0.  0.
         13    1    3    3    0    0  0.47477061280E+02  0.15622245252E+02 -0.18474548812E+02  0.53286452428E+02  0.10566000000E+00 0.  1.
         22    1    1    0    0    0 -0.49768223841E+01 -0.21611693926E+02  0.18363192101E+02  0.28793070339E+02  0.00000000000E+00 0.  1.
</event>
<event>
 5    1  0.1324057E-009  0.9118800E+02  0.7818608E-02  0.1130116E+00
         25   -1    0    0    0    0  0.00000000000E+00  0.00000000000E+00  0.99999998245E-14  0.12500000000E+03  0.12500000000E+03 0.  0.
        -13    1    3    3    0    0  0.16636459908E+02  0.18439298589E+02  0.23250369426E+02  0.34020146579E+02  0.10566000000E+00 0.  1.
         23    2    1    0    0    0  0.15043285500E+01 -0.20095591528E+02 -0.21873858806E+02  0.95258421321E+02  0.90496438219E+02 0.  0.
         13    1    3    3    0    0 -0.15132131358E+02 -0.38534890117E+02 -0.45124228233E+02  0.61238274742E+02  0.10566000000E+00 0. -1.
         22    1    1    0    0    0 -0.15043285500E+01  0.20095591528E+02  0.21873858806E+02  0.29741578679E+02  0.00000000000E+00 0. -1.
</event>
<event>
 5    1  0.1324057E-009  0.9118800E+02  0.7818608E-02  0.1130116E+00
         25   -1    0    0    0    0  0.00000000000E+00  0.00000000000E+00  0.99999998245E-14  0.12500000000E+03  0.12500000000E+03 0.  0.
        -13    1    3    3    0    0 -0.14971465563E+01 -0.32765150118E+02  0.36024707422E+02  0.48719474740E+02  0.10566000000E+00 0.  1.
         23    2    1    0    0    0  0.26154019717E+02 -0.26419318366E+01  0.12523118330E+02  0.95882289858E+02  0.91354104804E+02 0.  0.
         13    1    3    3    0    0  0.27651166274E+02  0.30123218282E+02 -0.23501589092E+02  0.47162815118E+02  0.10566000000E+00 0. -1.
         22    1    1    0    0    0 -0.26154019717E+02  0.26419318366E+01 -0.12523118330E+02  0.29117710142E+02  0.00000000000E+00 0.  1.
</event>
<event>
 5    1  0.1324057E-009  0.9118800E+02  0.7818608E-02  0.1130116E+00
         25   -1    0    0    0    0  0.00000000000E+00  0.00000000000E+00  0.99999998245E-14  0.12500000000E+03  0.12500000000E+03 0.  0.
        -13    1    3    3    0    0  0.26416639554E+02 -0.20929221198E+02  0.83884857103E+01  0.34731095604E+02  0.10566000000E+00 0. -1.
         23    2    1    0    0    0 -0.14834911678E+02  0.19867576178E+02  0.19064370295E+02  0.93723085152E+02  0.88350276106E+02 0.  0.
         13    1    3    3    0    0 -0.41251551232E+02  0.40796797376E+02  0.10675884584E+02  0.58991989548E+02  0.10566000000E+00 0.  1.
         22    1    1    0    0    0  0.14834911678E+02 -0.19867576178E+02 -0.19064370295E+02  0.31276914848E+02  0.00000000000E+00 0.  1.
</event>
<event>
 5    1  0.1324057E-009  0.9118800E+02  0.7818608E-02  0.1130116E+00
         25   -1    0    0    0    0  0.00000000000E+00  0.00000000000E+00  0.99999998245E-14  0.12500000000E+03  0.12500000000E+03 0.  0.
        -13    1    3    3    0    0  0.36466408563E+01 -0.50006378000E+02 -0.17675093286E+02  0.53163482927E+02  0.10566000000E+00 0.  1.
         23    2    1    0    0    0  0.17793541495E+02 -0.75292113711E+01 -0.18928442618E+02  0.97952170462E+02  0.94143733809E+02 0.  0.
         13    1    3    3    0    0  0.14146900638E+02  0.42477166629E+02 -0.12533493318E+01  0.44788687535E+02  0.10566000000E+00 0. -1.
         22    1    1    0    0    0 -0.17793541495E+02  0.75292113711E+01  0.18928442618E+02  0.27047829538E+02  0.00000000000E+00 0. -1.
</event>
<event>
 5    1  0.1324057E-009  0.9118800E+02  0.7818608E-02  0.1130116E+00
         25   -1    0    0    0    0  0.00000000000E+00  0.00000000000E+00  0.99999998245E-14  0.12500000000E+03  0.12500000000E+03 0.  0.
        -13    1    3    3    0    0  0.18805622828E+00 -0.30857453592E+02 -0.46160716200E+02  0.55525135672E+02  0.10566000000E+00 0. -1.
         23    2    1    0    0    0  0.19328631457E+02 -0.21126593451E+02 -0.17133667350E+02  0.91630979911E+02  0.85339000332E+02 0.  0.
         13    1    3    3    0    0  0.19140575229E+02  0.97308601413E+01  0.29027048850E+02  0.36105844238E+02  0.10566000000E+00 0.  1.
         22    1    1    0    0    0 -0.19328631457E+02  0.21126593451E+02  0.17133667350E+02  0.33369020089E+02  0.00000000000E+00 0. -1.
</event>
<event>
 5    1  0.1324057E-009  0.9118800E+02  0.7818608E-02  0.1130116E+00
         25   -1    0    0    0    0  0.00000000000E+00  0.00000000000E+00  0.99999998245E-14  0.12500000000E+03  0.12500000000E+03 0.  0.
        -13    1    3    3    0    0 -0.78556296327E+01  0.54009437436E+02  0.19890901938E+02  0.58089494687E+02  0.10566000000E+00 0. -1.
         23    2    1    0    0    0 -0.19911732090E+02  0.32503473783E+02  0.18082769452E+02  0.82810671565E+02  0.71257756709E+02 0.  0.
         13    1    3    3    0    0 -0.12056102457E+02 -0.21505963653E+02 -0.18081324857E+01  0.24721176878E+02  0.10566000000E+00 0.  1.
         22    1    1    0    0    0  0.19911732090E+02 -0.32503473783E+02 -0.18082769452E+02  0.42189328435E+02  0.00000000000E+00 0. -1.
</event>
<event>
 5    1  0.1324057E-009  0.9118800E+02  0.7818608E-02  0.1130116E+00
         25   -1    0    0    0    0  0.00000000000E+00  0.00000000000E+00  0.99999998245E-14  0.12500000000E+03  0.12500000000E+03 0.  0.
        -13    1    3    3    0    0 -0.87789029793E+01 -0.52873749167E+02 -0.11354620880E+02  0.54787234534E+02  0.10566000000E+00 0.  1.
         23    2    1    0    0    0 -0.23549709307E+02 -0.13559757908E+02 -0.64540454122E+01  0.97069540907E+02  0.92964429901E+02 0.  0.
         13    1    3    3    0    0 -0.14770806328E+02  0.39313991259E+02  0.49005754683E+01  0.42282306373E+02  0.10566000000E+00 0. -1.
         22    1    1    0    0    0  0.23549709307E+02  0.13559757908E+02  0.64540454122E+01  0.27930459093E+02  0.00000000000E+00 0.  1.
</event>
<event>
 5    1  0.1324057E-009  0.9118800E+02  0.7818608E-02  0.1130116E+00
         25   -1    0    0    0    0  0.00000000000E+00  0.00000000000E+00  0.99999998245E-14  0.12500000000E+03  0.12500000000E+03 0.  0.
        -13    1    3    3    0    0 -0.21882078718E+02  0.27448514099E+02  0.60629078423E+00  0.35108760272E+02  0.10566000000E+00 0.  1.
         23    2    1    0    0    0 -0.63726281340E+01 -0.29806251535E+02 -0.17090514681E+01  0.94472244157E+02  0.89403920715E+02 0.  0.
         13    1    3    3    0    0  0.15509450584E+02 -0.57254765634E+02 -0.23153422523E+01  0.59363483885E+02  0.10566000000E+00 0. -1.
         22    1    1    0    0    0  0.63726281340E+01  0.29806251535E+02  0.17090514681E+01  0.30527755843E+02  0.00000000000E+00 0. -1.
</event>
<event>
 5    1  0.1324057E-009  0.9118800E+02  0.7818608E-02  0.1130116E+00
         25   -1    0    0    0    0  0.00000000000E+00  0.00000000000E+00  0.99999998245E-14  0.12500000000E+03  0.12500000000E+03 0.  0.
        -13    1    3    3    0    0 -0.41603956895E+02 -0.27562453624E+02 -0.33459816056E+02  0.60084511595E+02  0.10566000000E+00 0. -1.
         23    2    1    0    0    0 -0.26442439464E+02 -0.39023302976E+01 -0.10847622443E+02  0.96153826957E+02  0.91724897053E+02 0.  0.
         13    1    3    3    0    0  0.15161517432E+02  0.23660123326E+02  0.22612193613E+02  0.36069315362E+02  0.10566000000E+00 0.  1.
         22    1    1    0    0    0  0.26442439464E+02  0.39023302976E+01  0.10847622443E+02  0.28846173043E+02  0.00000000000E+00 0. -1.
</event>
<event>
 5    1  0.1324057E-009  0.9118800E+02  0.7818608E-02  0.1130116E+00
         25   -1    0    0    0    0  0.00000000000E+00  0.00000000000E+00  0.99999998245E-14  0.12500000000E+03  0.12500000000E+03 0.  0.
        -13    1    3    3    0    0 -0.79799739944E+00 -0.31905985069E+02  0.19896390447E+02  0.37609921562E+02  0.10566000000E+00 0.  1.
         23    2    1    0    0    0  0.21983310888E+02 -0.12073603176E+02 -0.23597682729E+02  0.90563268428E+02  0.83760474610E+02 0.  0.
         13    1    3    3    0    0  0.22781308287E+02  0.19832381893E+02 -0.43494073175E+02  0.52953346865E+02  0.10566000000E+00 0. -1.
         22    1    1    0    0    0 -0.21983310888E+02  0.12073603176E+02  0.23597682729E+02  0.34436731572E+02  0.00000000000E+00 0.  1.
</event>
<event>
 5    1  0.1324057E-009  0.9118800E+02  0.7818608E-02  0.1130116E+00
         25   -1    0    0    0    0  0.00000000000E+00  0.00000000000E+00  0.99999998245E-14  0.12500000000E+03  0.12500000000E+03 0.  0.
        -13    1    3    3    0    0 -0.22329844728E+02  0.42603153265E+02 -0.37918441612E+02  0.61249244991E+02  0.10566000000E+00 0.  1.
         23    2    1    0    0    0 -0.80307166013E+01  0.24893761856E+02 -0.10678868791E+02  0.96747035074E+02  0.92529772336E+02 0.  0.
         13    1    3    3    0    0  0.14299128126E+02 -0.17709391410E+02  0.27239572821E+02  0.35497790083E+02  0.10566000000E+00 0. -1.
         22    1    1    0    0    0  0.80307166013E+01 -0.24893761856E+02  0.10678868791E+02  0.28252964926E+02  0.00000000000E+00 0.  1.
</event>
<event>
 5    1  0.1324057E-009  0.9118800E+02  0.7818608E-02  0.1130116E+00
         25   -1    0    0    0    0  0.00000000000E+00  0.00000000000E+00  0.99999998245E-14  0.12500000000E+03  0.12500000000E+03 0.  0.
        -13    1    3    3    0    0 -0.66737827092E+01 -0.89412450558E+01 -0.51190949202E+02  0.52392839998E+02  0.10566000000E+00 0. -1.
         23    2    1    0    0    0  0.18146810251E+02 -0.16053112865E+02 -0.16297017757E+02  0.95800651673E+02  0.91242330737E+02 0.  0.
         13    1    3    3    0    0  0.24820592961E+02 -0.71118678092E+01  0.34893931445E+02  0.43407811675E+02  0.10566000000E+00 0.  1.
         22    1    1    0    0    0 -0.18146810251E+02  0.16053112865E+02  0.16297017757E+02  0.29199348327E+02  0.00000000000E+00 0. -1.
</event>
<event>
 5    1  0.1324057E-009  0.9118800E+02  0.7818608E-02  0.1130116E+00
         25   -1    0    0    0    0  0.00000000000E+00  0.00000000000E+00  0.99999998245E-14  0.12500000000E+03  0.12500000000E+03 0.  0.
        -13    1    3    3    0    0  0.31100743787E+02  0.23855232876E+02  0.45336084436E+02  0.59930794386E+02  0.10566000000E+00 0.  1.
         23    2    1    0    0    0  0.89415398432E+01  0.21069686523E+01  0.28086194874E+02  0.95449622775E+02  0.90760154769E+02 0.  0.
         13    1    3    3    0    0 -0.22159203943E+02 -0.21748264224E+02 -0.17249889562E+02  0.35518828389E+02  0.10566000000E+00 0. -1.
         22    1    1    0    0    0 -0.89415398432E+01 -0.21069686523E+01 -0.28086194874E+02  0.29550377225E+02  0.00000000000E+00 0.  1.
</event>
<event>
 5    1  0.1324057E-009  0.9118800E+02  0.7818608E-02  0.1130116E+00
         25   -1    0    0    0    0  0.00000000000E+00  0.00000000000E+00  0.99999998245E-14  0.12500000000E+03  0.12500000000E+03 0.  0.
        -13    1    3    3    0    0  0.39103939186E+01  0.12144285787E+02 -0.50470030579E+02  0.52057756469E+02  0.10566000000E+00 0. -1.
         23    2    1    0    0    0  0.14760955636E+02 -0.16363095271E+02 -0.18732304152E+02  0.96077069357E+02  0.91620234333E+02 0.  0.
         13    1    3    3    0    0  0.10850561718E+02 -0.28507381058E+02  0.31737726427E+02  0.44019312888E+02  0.10566000000E+00 0.  1.
         22    1    1    0    0    0 -0.14760955636E+02  0.16363095271E+02  0.18732304152E+02  0.28922930643E+02  0.00000000000E+00 0. -1.
</event>
<event>
 5    1  0.1324057E-009  0.9118800E+02  0.7818608E-02  0.1130116E+00
         25   -1    0    0    0    0  0.00000000000E+00  0.00000000000E+00  0.99999998245E-14  0.12500000000E+03  0.12500000000E+03 0.  0.
        -13    1    3    3    0    0 -0.27306663521E+02 -0.44125339600E+02 -0.32584758188E+02  0.61273788015E+02  0.10566000000E+00 0. -1.
         23    2    1    0    0    0 -0.11016858603E+02 -0.17729058393E+02 -0.23442849626E+02  0.93611182190E+02  0.88191811113E+02 0.  0.
         13    1    3    3    0    0  0.16289804918E+02  0.26396281207E+02  0.91419085626E+01  0.32337394175E+02  0.10566000000E+00 0.  1.
         22    1    1    0    0    0  0.11016858603E+02  0.17729058393E+02  0.23442849626E+02  0.31388817810E+02  0.00000000000E+00 0. -1.
</event>
<event>
 5    1  0.1324057E-009  0.9118800E+02  0.7818608E-02  0.1130116E+00
         25   -1    0    0    0    0  0.00000000000E+00  0.00000000000E+00  0.99999998245E-14  0.12500000000E+03  0.12500000000E+03 0.  0.
        -13    1    3    3    0    0 -0.33691840515E+02  0.21013868345E+02 -0.30091367863E+02  0.49821926539E+02  0.10566000000E+00 0. -1.
         23    2    1    0    0    0  0.11264386914E+02  0.11471279013E+02 -0.23900943869E+02  0.96194934950E+02  0.91780900722E+02 0.  0.
         13    1    3    3    0    0  0.44956227429E+02 -0.95425893323E+01  0.61904239943E+01  0.46373008411E+02  0.10566000000E+00 0.  1.
         22    1    1    0    0    0 -0.11264386914E+02 -0.11471279013E+02  0.23900943869E+02  0.28805065050E+02  0.00000000000E+00 0. -1.
</event>
<event>
 5    1  0.1324057E-009  0.9118800E+02  0.7818608E-02  0.1130116E+00
         25   -1    0    0    0    0  0.00000000000E+00  0.00000000000E+00  0.99999998245E-14  0.12500000000E+03  0.12500000000E+03 0.  0.
        -13    1    3    3    0    0 -0.17866771104E+02 -0.55273033658E+02 -0.20413077850E+02  0.61571378666E+02  0.10566000000E+00 0.  1.
         23    2    1    0    0    0 -0.68595913614E+01 -0.27027272369E+02 -0.19909811007E+01  0.97044831406E+02  0.92931199559E+02 0.  0.
         13    1    3    3    0    0  0.11007179742E+02  0.28245761289E+02  0.18422096749E+02  0.35473452741E+02  0.10566000000E+00 0. -1.
         22    1    1    0    0    0  0.68595913614E+01  0.27027272369E+02  0.19909811007E+01  0.27955168594E+02  0.00000000000E+00 0.  1.
</event>
<event>
 5    1  0.1324057E-009  0.9118800E+02  0.7818608E-02  0.1130116E+00
         25   -1    0    0    0    0  0.00000000000E+00  0.00000000000E+00  0.99999998245E-14  0.12500000000E+03  0.12500000000E+03 0.  0.
        -13    1    3    3    0    0 -0.61191894516E+02  0.35105021897E+01 -0.48762142265E+01  0.61486260329E+02  0.10566000000E+00 0.  1.
         23    2    1    0    0    0 -0.26413625629E+02  0.18658860090E+01 -0.10033332748E+02  0.96683416246E+02  0.92443788658E+02 0.  0.
         13    1    3    3    0    0  0.34778268887E+02 -0.16446161807E+01 -0.51571185213E+01  0.35197155917E+02  0.10566000000E+00 0. -1.
         22    1    1    0    0    0  0.26413625629E+02 -0.18658860090E+01  0.10033332748E+02  0.28316583754E+02  0.00000000000E+00 0.  1.
</event>
<event>
 5    1  0.1324057E-009  0.9118800E+02  0.7818608E-02  0.1130116E+00
         25   -1    0    0    0    0  0.00000000000E+00  0.00000000000E+00  0.99999998245E-14  0.12500000000E+03  0.12500000000E+03 0.  0.
        -13    1    3    3    0    0 -0.17143637483E+02  0.52946572415E+02  0.15134487612E+02  0.57674151194E+02  0.10566000000E+00 0.  1.
         23    2    1    0    0    0  0.40648444630E+01  0.22892900312E+02  0.19418864569E+02  0.94706433911E+02  0.89730755474E+02 0.  0.
         13    1    3    3    0    0  0.21208481946E+02 -0.30053672103E+02  0.42843769566E+01  0.37032282717E+02  0.10566000000E+00 0. -1.
         22    1    1    0    0    0 -0.40648444630E+01 -0.22892900312E+02 -0.19418864569E+02  0.30293566089E+02  0.00000000000E+00 0.  1.
</event>
<event>
 5    1  0.1324057E-009  0.9118800E+02  0.7818608E-02  0.1130116E+00
         25   -1    0    0    0    0  0.00000000000E+00  0.00000000000E+00  0.99999998245E-14  0.12500000000E+03  0.12500000000E+03 0.  0.
        -13    1    3    3    0    0 -0.48065360767E+02 -0.24230918982E+02 -0.37318855642E+01  0.53956968728E+02  0.10566000000E+00 0. -1.
         23    2    1    0    0    0 -0.26850705738E+02  0.10861325060E+02 -0.73346081050E+01  0.95121491725E+02  0.90307103438E+02 0.  0.
         13    1    3    3    0    0  0.21214655029E+02  0.35092244042E+02 -0.36027225409E+01  0.41164522998E+02  0.10566000000E+00 0.  1.
         22    1    1    0    0    0  0.26850705738E+02 -0.10861325060E+02  0.73346081050E+01  0.29878508275E+02  0.00000000000E+00 0.  1.
</event>
<event>
 5    1  0.1324057E-009  0.9118800E+02  0.7818608E-02  0.1130116E+00
         25   -1    0    0    0    0  0.00000000000E+00  0.00000000000E+00  0.99999998245E-14  0.12500000000E+03  0.12500000000E+03 0.  0.
        -13    1    3    3    0    0 -0.12644337430E+02  0.24720040029E+02 -0.28282272927E+02  0.39634048166E+02  0.10566000000E+00 0. -1.
         23    2    1    0    0    0  0.29934000636E+02  0.30704359848E+01 -0.47456772952E+00  0.94905196699E+02  0.90007217348E+02 0.  0.
         13    1    3    3    0    0  0.42578338065E+02 -0.21649604045E+02  0.27807705198E+02  0.55271148533E+02  0.10566000000E+00 0.  1.
         22    1    1    0    0    0 -0.29934000636E+02 -0.30704359848E+01  0.47456772952E+00  0.30094803301E+02  0.00000000000E+00 0.  1.
</event>
<event>
 5    1  0.1324057E-009  0.9118800E+02  0.7818608E-02  0.1130116E+00
         25   -1    0    0    0    0  0.00000000000E+00  0.00000000000E+00  0.99999998245E-14  0.12500000000E+03  0.12500000000E+03 0.  0.
        -13    1    3    3    0    0  0.78165389376E+01  0.22301234061E+02  0.24662404632E+02  0.34156824909E+02  0.10566000000E+00 0. -1.
         23    2    1    0    0    0  0.17598034172E+01 -0.11828434376E+02 -0.26483212919E+02  0.95941966096E+02  0.91435723456E+02 0.  0.
         13    1    3    3    0    0 -0.60567355203E+01 -0.34129668437E+02 -0.51145617551E+02  0.61785141187E+02  0.10566000000E+00 0.  1.
         22    1    1    0    0    0 -0.17598034172E+01  0.11828434376E+02  0.26483212919E+02  0.29058033904E+02  0.00000000000E+00 0.  1.
</event>
<event>
 5    1  0.1324057E-009  0.9118800E+02  0.7818608E-02  0.1130116E+00
         25   -1    0    0    0    0  0.00000000000E+00  0.00000000000E+00  0.99999998245E-14  0.12500000000E+03  0.12500000000E+03 0.  0.
        -13    1    3    3    0    0  0.20659103097E+01  0.55769249343E+02 -0.26881141876E+01  0.55872303332E+02  0.10566000000E+00 0. -1.
         23    2    1    0    0    0  0.67513842952E+01  0.17475045622E+02 -0.19502660740E+02  0.97957215651E+02  0.94150432356E+02 0.  0.
         13    1    3    3    0    0  0.46854739855E+01 -0.38294203721E+02 -0.16814546552E+02  0.42084912319E+02  0.10566000000E+00 0.  1.
         22    1    1    0    0    0 -0.67513842952E+01 -0.17475045622E+02  0.19502660740E+02  0.27042784349E+02  0.00000000000E+00 0. -1.
</event>
<event>
 5    1  0.1324057E-009  0.9118800E+02  0.7818608E-02  0.1130116E+00
         25   -1    0    0    0    0  0.00000000000E+00  0.00000000000E+00  0.99999998245E-14  0.12500000000E+03  0.12500000000E+03 0.  0.
        -13    1    3    3    0    0  0.54864865891E+01 -0.11810954866E+02  0.55068342327E+02  0.56587398603E+02  0.10566000000E+00 0.  1.
         23    2    1    0    0    0  0.32673537974E+00 -0.23382755511E+02  0.18832409030E+02  0.94974683330E+02  0.90103667142E+02 0.  0.
         13    1    3    3    0    0 -0.51597512094E+01 -0.11571800645E+02 -0.36235933298E+02  0.38387284727E+02  0.10566000000E+00 0. -1.
         22    1    1    0    0    0 -0.32673537974E+00  0.23382755511E+02 -0.18832409030E+02  0.30025316670E+02  0.00000000000E+00 0. -1.
</event>
<event>
 5    1  0.1324057E-009  0.9118800E+02  0.7818608E-02  0.1130116E+00
         25   -1    0    0    0    0  0.00000000000E+00  0.00000000000E+00  0.99999998245E-14  0.12500000000E+03  0.12500000000E+03 0.  0.
        -13    1    3    3    0    0  0.15555689685E+02 -0.33106516400E+02 -0.29319933346E+02  0.46879532476E+02  0.10566000000E+00 0. -1.
         23    2    1    0    0    0  0.14511433128E+02  0.15758984326E+02 -0.17925811619E+02  0.97066829743E+02  0.92960784397E+02 0.  0.
         13    1    3    3    0    0 -0.10442565569E+01  0.48865500726E+02  0.11394121728E+02  0.50187297267E+02  0.10566000000E+00 0.  1.
         22    1    1    0    0    0 -0.14511433128E+02 -0.15758984326E+02  0.17925811619E+02  0.27933170257E+02  0.00000000000E+00 0.  1.
</event>
<event>
 5    1  0.1324057E-009  0.9118800E+02  0.7818608E-02  0.1130116E+00
         25   -1    0    0    0    0  0.00000000000E+00  0.00000000000E+00  0.99999998245E-14  0.12500000000E+03  0.12500000000E+03 0.  0.
        -13    1    3    3    0    0 -0.49581790356E+02 -0.78890920509E+01  0.25580366178E+02  0.56346765711E+02  0.10566000000E+00 0. -1.
         23    2    1    0    0    0 -0.29089433043E+02 -0.11458949955E+01 -0.66567964373E+01  0.95136625628E+02  0.90328048838E+02 0.  0.
         13    1    3    3    0    0  0.20492357313E+02  0.67431970554E+01 -0.32237162616E+02  0.38789859916E+02  0.10566000000E+00 0.  1.
         22    1    1    0    0    0  0.29089433043E+02  0.11458949955E+01  0.66567964373E+01  0.29863374372E+02  0.00000000000E+00 0. -1.
</event>
<event>
 5    1  0.1324057E-009  0.9118800E+02  0.7818608E-02  0.1130116E+00
         25   -1    0    0    0    0  0.00000000000E+00  0.00000000000E+00  0.99999998245E-14  0.12500000000E+03  0.12500000000E+03 0.  0.
        -13    1    3    3    0    0 -0.30798901187E+01 -0.45155911603E+02  0.52576037828E+01  0.45565289832E+02  0.10566000000E+00 0. -1.
         23    2    1    0    0    0  0.15697052986E+02 -0.31131645254E+01  0.24717866532E+02  0.95554080220E+02  0.90903905610E+02 0.  0.
         13    1    3    3    0    0  0.18776943105E+02  0.42042747078E+02  0.19460262749E+02  0.49988790389E+02  0.10566000000E+00 0.  1.
         22    1    1    0    0    0 -0.15697052986E+02  0.31131645254E+01 -0.24717866532E+02  0.29445919780E+02  0.00000000000E+00 0.  1.
</event>
<event>
 5    1  0.1324057E-009  0.9118800E+02  0.7818608E-02  0.1130116E+00
         25   -1    0    0    0    0  0.00000000000E+00  0.00000000000E+00  0.99999998245E-14  0.12500000000E+03  0.12500000000E+03 0.  0.
        -13    1    3    3    0    0  0.16399273421E+02 -0.17622486230E+01  0.29984064908E+02  0.34221294560E+02  0.10566000000E+00 0.  1.
         23    2    1    0    0    0 -0.17368143045E+02  0.12562055222E+02 -0.19638475503E+02  0.95928925986E+02  0.91417894838E+02 0.  0.
         13    1    3    3    0    0 -0.33767416466E+02  0.14324303845E+02 -0.49622540410E+02  0.61707631426E+02  0.10566000000E+00 0. -1.
         22    1    1    0    0    0  0.17368143045E+02 -0.12562055222E+02  0.19638475503E+02  0.29071074014E+02  0.00000000000E+00 0. -1.
</event>
<event>
 5    1  0.1324057E-009  0.9118800E+02  0.7818608E-02  0.1130116E+00
         25   -1    0    0    0    0  0.00000000000E+00  0.00000000000E+00  0.99999998245E-14  0.12500000000E+03  0.12500000000E+03 0.  0.
        -13    1    3    3    0    0 -0.42339270300E+02  0.41667337377E+02  0.18601892956E+02  0.62248071449E+02  0.10566000000E+00 0. -1.
         23    2    1    0    0    0 -0.16002523919E+02  0.18709864862E+02  0.11153714229E+02  0.97971401146E+02  0.94169264022E+02 0.  0.
         13    1    3    3    0    0  0.26336746381E+02 -0.22957472515E+02 -0.74481787275E+01  0.35723329697E+02  0.10566000000E+00 0.  1.
         22    1    1    0    0    0  0.16002523919E+02 -0.18709864862E+02 -0.11153714229E+02  0.27028598854E+02  0.00000000000E+00 0. -1.
</event>
<event>
 5    1  0.1324057E-009  0.9118800E+02  0.7818608E-02  0.1130116E+00
         25   -1    0    0    0    0  0.00000000000E+00  0.00000000000E+00  0.99999998245E-14  0.12500000000E+03  0.12500000000E+03 0.  0.
        -13    1    3    3    0    0  0.41491903156E+02  0.16504023176E+02 -0.38071774723E+02  0.58680763484E+02  0.10566000000E+00 0. -1.
         23    2    1    0    0    0  0.21451067477E+02 -0.75135997204E+01 -0.19450813222E+02  0.95084508835E+02  0.90255898470E+02 0.  0.
         13    1    3    3    0    0 -0.20040835679E+02 -0.24017622896E+02  0.18620961501E+02  0.36403745351E+02  0.10566000000E+00 0.  1.
         22    1    1    0    0    0 -0.21451067477E+02  0.75135997204E+01  0.19450813222E+02  0.29915491165E+02  0.00000000000E+00 0. -1.
</event>
<event>
 5    1  0.1324057E-009  0.9118800E+02  0.7818608E-02  0.1130116E+00
         25   -1    0    0    0    0  0.00000000000E+00  0.00000000000E+00  0.99999998245E-14  0.12500000000E+03  0.12500000000E+03 0.  0.
        -13    1    3    3    0    0  0.24686326658E+02  0.97003761067E+01  0.32235616523E+02  0.41745157289E+02  0.10566000000E+00 0.  1.
         23    2    1    0    0    0 -0.24409026341E+02 -0.55366696939E+01  0.14203287030E+02  0.96221733189E+02  0.91817391039E+02 0.  0.
         13    1    3    3    0    0 -0.49095352999E+02 -0.15237045801E+02 -0.18032329492E+02  0.54476575899E+02  0.10566000000E+00 0. -1.
         22    1    1    0    0    0  0.24409026341E+02  0.55366696939E+01 -0.14203287030E+02  0.28778266811E+02  0.00000000000E+00 0. -1.
</event>
<event>
 5    1  0.1324057E-009  0.9118800E+02  0.7818608E-02  0.1130116E+00
         25   -1    0    0    0    0  0.00000000000E+00  0.00000000000E+00  0.99999998245E-14  0.12500000000E+03  0.12500000000E+03 0.  0.
        -13    1    3    3    0    0  0.33415444194E+02 -0.22834032744E+01 -0.44162641117E+02  0.55427031994E+02  0.10566000000E+00 0.  1.
         23    2    1    0    0    0  0.15846106446E+02  0.19558951964E+02 -0.15940217428E+02  0.95204996676E+02  0.90422614256E+02 0.  0.
         13    1    3    3    0    0 -0.17569337749E+02  0.21842355239E+02  0.28222423689E+02  0.39777964682E+02  0.10566000000E+00 0. -1.
         22    1    1    0    0    0 -0.15846106446E+02 -0.19558951964E+02  0.15940217428E+02  0.29795003324E+02  0.00000000000E+00 0.  1.
</event>
<event>
 5    1  0.1324057E-009  0.9118800E+02  0.7818608E-02  0.1130116E+00
         25   -1    0    0    0    0  0.00000000000E+00  0.00000000000E+00  0.99999998245E-14  0.12500000000E+03  0.12500000000E+03 0.  0.
        -13    1    3    3    0    0 -0.35501348852E+02  0.20939536925E+02 -0.66405118923E+01  0.41748263906E+02  0.10566000000E+00 0. -1.
         23    2    1    0    0    0  0.52626656125E+01 -0.92167579007E+01 -0.26692139331E+02  0.96275192297E+02  0.91890141333E+02 0.  0.
         13    1    3    3    0    0  0.40764014464E+02 -0.30156294825E+02 -0.20051627438E+02  0.54526928391E+02  0.10566000000E+00 0.  1.
         22    1    1    0    0    0 -0.52626656125E+01  0.92167579007E+01  0.26692139331E+02  0.28724807703E+02  0.00000000000E+00 0.  1.
</event>
<event>
 5    1  0.1324057E-009  0.9118800E+02  0.7818608E-02  0.1130116E+00
         25   -1    0    0    0    0  0.00000000000E+00  0.00000000000E+00  0.99999998245E-14  0.12500000000E+03  0.12500000000E+03 0.  0.
        -13    1    3    3    0    0  0.44917415067E+02 -0.13101749802E+02 -0.73901185640E+01  0.47369347057E+02  0.10566000000E+00 0. -1.
         23    2    1    0    0    0 -0.10673669286E+01 -0.23764480256E+02 -0.17278308771E+02  0.95598813834E+02  0.90965397039E+02 0.  0.
         13    1    3    3    0    0 -0.45984781996E+02 -0.10662730454E+02 -0.98881902069E+01  0.48229466777E+02  0.10566000000E+00 0.  1.
         22    1    1    0    0    0  0.10673669286E+01  0.23764480256E+02  0.17278308771E+02  0.29401186166E+02  0.00000000000E+00 0. -1.
</event>
<event>
 5    1  0.1324057E-009  0.9118800E+02  0.7818608E-02  0.1130116E+00
         25   -1    0    0    0    0  0.00000000000E+00  0.00000000000E+00  0.99999998245E-14  0.12500000000E+03  0.12500000000E+03 0.  0.
        -13    1    3    3    0    0 -0.34783441577E+02 -0.39482788448E+02  0.26116463362E+02  0.58744014284E+02  0.10566000000E+00 0.  1.
         23    2    1    0    0    0 -0.18003021467E+02 -0.68840033069E+01  0.22174432189E+02  0.95619671098E+02  0.90994053512E+02 0.  0.
         13    1    3    3    0    0  0.16780420110E+02  0.32598785141E+02 -0.39420311738E+01  0.36875656815E+02  0.10566000000E+00 0. -1.
         22    1    1    0    0    0  0.18003021467E+02  0.68840033069E+01 -0.22174432189E+02  0.29380328902E+02  0.00000000000E+00 0.  1.
</event>
<event>
 5    1  0.1324057E-009  0.9118800E+02  0.7818608E-02  0.1130116E+00
         25   -1    0    0    0    0  0.00000000000E+00  0.00000000000E+00  0.99999998245E-14  0.12500000000E+03  0.12500000000E+03 0.  0.
        -13    1    3    3    0    0  0.41374623344E+02 -0.17813319979E+02  0.12696226329E+02  0.46801486649E+02  0.10566000000E+00 0.  1.
         23    2    1    0    0    0  0.74012928877E-01 -0.28397552950E+02 -0.97381211686E+01  0.94979049060E+02  0.90109723476E+02 0.  0.
         13    1    3    3    0    0 -0.41300610415E+02 -0.10584232971E+02 -0.22434347497E+02  0.48177562411E+02  0.10566000000E+00 0. -1.
         22    1    1    0    0    0 -0.74012928877E-01  0.28397552950E+02  0.97381211686E+01  0.30020950940E+02  0.00000000000E+00 0.  1.
</event>
<event>
 5    1  0.1324057E-009  0.9118800E+02  0.7818608E-02  0.1130116E+00
         25   -1    0    0    0    0  0.00000000000E+00  0.00000000000E+00  0.99999998245E-14  0.12500000000E+03  0.12500000000E+03 0.  0.
        -13    1    3    3    0    0  0.14335901874E+02  0.20793449444E+02 -0.33677985277E+02  0.42096359447E+02  0.10566000000E+00 0. -1.
         23    2    1    0    0    0 -0.23054040698E+02  0.17571171335E+02  0.45402938145E+01  0.95659769556E+02  0.91049120748E+02 0.  0.
         13    1    3    3    0    0 -0.37389942572E+02 -0.32222781094E+01  0.38218279092E+02  0.53563410109E+02  0.10566000000E+00 0.  1.
         22    1    1    0    0    0  0.23054040698E+02 -0.17571171335E+02 -0.45402938145E+01  0.29340230444E+02  0.00000000000E+00 0.  1.
</event>
<event>
 5    1  0.1324057E-009  0.9118800E+02  0.7818608E-02  0.1130116E+00
         25   -1    0    0    0    0  0.00000000000E+00  0.00000000000E+00  0.99999998245E-14  0.12500000000E+03  0.12500000000E+03 0.  0.
        -13    1    3    3    0    0  0.41768394771E+02  0.85529728813E+00  0.36122204230E+02  0.55228209618E+02  0.10566000000E+00 0. -1.
         23    2    1    0    0    0  0.63855303666E+01 -0.16656239684E+02  0.20854966759E+02  0.97556695589E+02  0.93617166680E+02 0.  0.
         13    1    3    3    0    0 -0.35382864404E+02 -0.17511536972E+02 -0.15267237471E+02  0.42328485971E+02  0.10566000000E+00 0.  1.
         22    1    1    0    0    0 -0.63855303666E+01  0.16656239684E+02 -0.20854966759E+02  0.27443304411E+02  0.00000000000E+00 0. -1.
</event>
<event>
 5    1  0.1324057E-009  0.9118800E+02  0.7818608E-02  0.1130116E+00
         25   -1    0    0    0    0  0.00000000000E+00  0.00000000000E+00  0.99999998245E-14  0.12500000000E+03  0.12500000000E+03 0.  0.
        -13    1    3    3    0    0 -0.59821256295E-01 -0.52256328793E+02 -0.40633243576E+01  0.52414208440E+02  0.10566000000E+00 0. -1.
         23    2    1    0    0    0  0.60932751918E+00 -0.15906578071E+02  0.22498471439E+02  0.97439671209E+02  0.93460782162E+02 0.  0.
         13    1    3    3    0    0  0.66914877548E+00  0.36349750722E+02  0.26561795797E+02  0.45025462770E+02  0.10566000000E+00 0.  1.
         22    1    1    0    0    0 -0.60932751918E+00  0.15906578071E+02 -0.22498471439E+02  0.27560328791E+02  0.00000000000E+00 0.  1.
</event>
<event>
 5    1  0.1324057E-009  0.9118800E+02  0.7818608E-02  0.1130116E+00
         25   -1    0    0    0    0  0.00000000000E+00  0.00000000000E+00  0.99999998245E-14  0.12500000000E+03  0.12500000000E+03 0.  0.
        -13    1    3    3    0    0  0.32901867110E+02  0.41008594199E+02  0.28226936311E+02  0.59674188349E+02  0.10566000000E+00 0.  1.
         23    2    1    0    0    0  0.18830944207E+02  0.21700301333E+02  0.51441771784E+00  0.96263748274E+02  0.91874572481E+02 0.  0.
         13    1    3    3    0    0 -0.14070922904E+02 -0.19308292866E+02 -0.27712518593E+02  0.36589559926E+02  0.10566000000E+00 0. -1.
         22    1    1    0    0    0 -0.18830944207E+02 -0.21700301333E+02 -0.51441771784E+00  0.28736251726E+02  0.00000000000E+00 0. -1.
</event>
<event>
 5    1  0.1324057E-009  0.9118800E+02  0.7818608E-02  0.1130116E+00
         25   -1    0    0    0    0  0.00000000000E+00  0.00000000000E+00  0.99999998245E-14  0.12500000000E+03  0.12500000000E+03 0.  0.
        -13    1    3    3    0    0 -0.48037857935E+02  0.12775219670E+02 -0.34656388521E+02  0.60596356837E+02  0.10566000000E+00 0.  1.
         23    2    1    0    0    0 -0.16457645815E+02  0.14227501716E+02 -0.20025153009E+02  0.95431728764E+02  0.90735506782E+02 0.  0.
         13    1    3    3    0    0  0.31580212119E+02  0.14522820457E+01  0.14631235512E+02  0.34835371927E+02  0.10566000000E+00 0. -1.
         22    1    1    0    0    0  0.16457645815E+02 -0.14227501716E+02  0.20025153009E+02  0.29568271236E+02  0.00000000000E+00 0.  1.
</event>
<event>
 5    1  0.1324057E-009  0.9118800E+02  0.7818608E-02  0.1130116E+00
         25   -1    0    0    0    0  0.00000000000E+00  0.00000000000E+00  0.99999998245E-14  0.12500000000E+03  0.12500000000E+03 0.  0.
        -13    1    3    3    0    0 -0.13329384048E+02 -0.77314087096E+01 -0.43609531344E+02  0.46252022094E+02  0.10566000000E+00 0.  1.
         23    2    1    0    0    0 -0.33927178950E+02  0.48259632523E+01 -0.71130333781E+01  0.90000876630E+02  0.82916941318E+02 0.  0.
         13    1    3    3    0    0 -0.20597794902E+02  0.12557371962E+02  0.36496497966E+02  0.43748854536E+02  0.10566000000E+00 0. -1.
         22    1    1    0    0    0  0.33927178950E+02 -0.48259632523E+01  0.71130333781E+01  0.34999123370E+02  0.00000000000E+00 0.  1.
</event>
<event>
 5    1  0.1324057E-009  0.9118800E+02  0.7818608E-02  0.1130116E+00
         25   -1    0    0    0    0  0.00000000000E+00  0.00000000000E+00  0.99999998245E-14  0.12500000000E+03  0.12500000000E+03 0.  0.
        -13    1    3    3    0    0 -0.34881437051E+02 -0.34084297427E+01 -0.25470129662E+02  0.43325174126E+02  0.10566000000E+00 0. -1.
         23    2    1    0    0    0  0.72642993006E+01 -0.27904222983E+02 -0.85698730736E+01  0.94919135167E+02  0.90026572698E+02 0.  0.
         13    1    3    3    0    0  0.42145736352E+02 -0.24495793240E+02  0.16900256588E+02  0.51593961041E+02  0.10566000000E+00 0.  1.
         22    1    1    0    0    0 -0.72642993006E+01  0.27904222983E+02  0.85698730736E+01  0.30080864833E+02  0.00000000000E+00 0.  1.
</event>
<event>
 5    1  0.1324057E-009  0.9118800E+02  0.7818608E-02  0.1130116E+00
         25   -1    0    0    0    0  0.00000000000E+00  0.00000000000E+00  0.99999998245E-14  0.12500000000E+03  0.12500000000E+03 0.  0.
        -13    1    3    3    0    0 -0.36726998239E+02  0.22254618122E+02  0.24953937383E+02  0.49667399593E+02  0.10566000000E+00 0.  1.
         23    2    1    0    0    0  0.23092530244E+01  0.30871840342E+02  0.85098436658E+01  0.92893604767E+02  0.87168808594E+02 0.  0.
         13    1    3    3    0    0  0.39036251264E+02  0.86172222200E+01 -0.16444093717E+02  0.43226205174E+02  0.10566000000E+00 0. -1.
         22    1    1    0    0    0 -0.23092530244E+01 -0.30871840342E+02 -0.85098436658E+01  0.32106395233E+02  0.00000000000E+00 0. -1.
</event>
<event>
 5    1  0.1324057E-009  0.9118800E+02  0.7818608E-02  0.1130116E+00
         25   -1    0    0    0    0  0.00000000000E+00  0.00000000000E+00  0.99999998245E-14  0.12500000000E+03  0.12500000000E+03 0.  0.
        -13    1    3    3    0    0 -0.22762534153E+02  0.48256307325E+01 -0.35261748939E+02  0.42247151090E+02  0.10566000000E+00 0. -1.
         23    2    1    0    0    0 -0.48655513708E+01  0.30231328740E+02  0.58934722977E+01  0.93817635701E+02  0.88483947275E+02 0.  0.
         13    1    3    3    0    0  0.17896982782E+02  0.25405698008E+02  0.41155221236E+02  0.51570484611E+02  0.10566000000E+00 0.  1.
         22    1    1    0    0    0  0.48655513708E+01 -0.30231328740E+02 -0.58934722977E+01  0.31182364299E+02  0.00000000000E+00 0.  1.
</event>
<event>
 5    1  0.1324057E-009  0.9118800E+02  0.7818608E-02  0.1130116E+00
         25   -1    0    0    0    0  0.00000000000E+00  0.00000000000E+00  0.99999998245E-14  0.12500000000E+03  0.12500000000E+03 0.  0.
        -13    1    3    3    0    0  0.10439143931E+02  0.23300614244E+02 -0.55085375523E+02  0.60714941412E+02  0.10566000000E+00 0. -1.
         23    2    1    0    0    0  0.42414950580E+00  0.20233503191E+01 -0.29352211243E+02  0.95575075970E+02  0.90932771829E+02 0.  0.
         13    1    3    3    0    0 -0.10014994425E+02 -0.21277263925E+02  0.25733164280E+02  0.34860134558E+02  0.10566000000E+00 0.  1.
         22    1    1    0    0    0 -0.42414950580E+00 -0.20233503191E+01  0.29352211243E+02  0.29424924030E+02  0.00000000000E+00 0. -1.
</event>
<event>
 5    1  0.1324057E-009  0.9118800E+02  0.7818608E-02  0.1130116E+00
         25   -1    0    0    0    0  0.00000000000E+00  0.00000000000E+00  0.99999998245E-14  0.12500000000E+03  0.12500000000E+03 0.  0.
        -13    1    3    3    0    0  0.25190300076E+02 -0.22347107788E+02 -0.32152133190E+02  0.46558729334E+02  0.10566000000E+00 0.  1.
         23    2    1    0    0    0 -0.16994964598E+02 -0.23614600537E+02 -0.99180253009E+01  0.94261662275E+02  0.89109009470E+02 0.  0.
         13    1    3    3    0    0 -0.42185264675E+02 -0.12674927488E+01  0.22234107889E+02  0.47702932941E+02  0.10566000000E+00 0. -1.
         22    1    1    0    0    0  0.16994964598E+02  0.23614600537E+02  0.99180253009E+01  0.30738337725E+02  0.00000000000E+00 0.  1.
</event>
<event>
 5    1  0.1324057E-009  0.9118800E+02  0.7818608E-02  0.1130116E+00
         25   -1    0    0    0    0  0.00000000000E+00  0.00000000000E+00  0.99999998245E-14  0.12500000000E+03  0.12500000000E+03 0.  0.
        -13    1    3    3    0    0  0.15695210401E+02 -0.24981880352E+01  0.37866249635E+02  0.41066343866E+02  0.10566000000E+00 0.  1.
         23    2    1    0    0    0 -0.97574848333E+01  0.26627946374E+02 -0.19447549572E+01  0.96573988844E+02  0.92295705269E+02 0.  0.
         13    1    3    3    0    0 -0.25452695235E+02  0.29126134410E+02 -0.39811004593E+02  0.55507644979E+02  0.10566000000E+00 0. -1.
         22    1    1    0    0    0  0.97574848333E+01 -0.26627946374E+02  0.19447549572E+01  0.28426011156E+02  0.00000000000E+00 0. -1.
</event>
<event>
 5    1  0.1324057E-009  0.9118800E+02  0.7818608E-02  0.1130116E+00
         25   -1    0    0    0    0  0.00000000000E+00  0.00000000000E+00  0.99999998245E-14  0.12500000000E+03  0.12500000000E+03 0.  0.
        -13    1    3    3    0    0  0.51428772309E+02  0.13874698739E+02  0.17137038566E+02  0.55956368191E+02  0.10566000000E+00 0.  1.
         23    2    1    0    0    0  0.23027755380E+02  0.16054776073E+02 -0.99038837372E+01  0.95232227734E+02  0.90460250572E+02 0.  0.
         13    1    3    3    0    0 -0.28401016928E+02  0.21800773334E+01 -0.27040922304E+02  0.39275859543E+02  0.10566000000E+00 0. -1.
         22    1    1    0    0    0 -0.23027755380E+02 -0.16054776073E+02  0.99038837372E+01  0.29767772266E+02  0.00000000000E+00 0.  1.
</event>
<event>
 5    1  0.1324057E-009  0.9118800E+02  0.7818608E-02  0.1130116E+00
         25   -1    0    0    0    0  0.00000000000E+00  0.00000000000E+00  0.99999998245E-14  0.12500000000E+03  0.12500000000E+03 0.  0.
        -13    1    3    3    0    0 -0.22757314253E+02 -0.30305543861E+02 -0.34998361672E+02  0.51586992784E+02  0.10566000000E+00 0. -1.
         23    2    1    0    0    0 -0.28735215865E+02 -0.57991540993E+01  0.11456709388E+01  0.95663071378E+02  0.91053653658E+02 0.  0.
         13    1    3    3    0    0 -0.59779016116E+01  0.24506389762E+02  0.36144032611E+02  0.44076078594E+02  0.10566000000E+00 0.  1.
         22    1    1    0    0    0  0.28735215865E+02  0.57991540993E+01 -0.11456709388E+01  0.29336928622E+02  0.00000000000E+00 0.  1.
</event>
<event>
 5    1  0.1324057E-009  0.9118800E+02  0.7818608E-02  0.1130116E+00
         25   -1    0    0    0    0  0.00000000000E+00  0.00000000000E+00  0.99999998245E-14  0.12500000000E+03  0.12500000000E+03 0.  0.
        -13    1    3    3    0    0  0.31695655075E+02  0.11097648000E+01 -0.17094952991E+02  0.36029081453E+02  0.10566000000E+00 0.  1.
         23    2    1    0    0    0  0.10270308861E+01  0.11011420938E+01  0.31484562203E+02  0.93479451726E+02  0.88004902883E+02 0.  0.
         13    1    3    3    0    0 -0.30668624188E+02 -0.86227061718E-02  0.48579515195E+02  0.57450370273E+02  0.10566000000E+00 0. -1.
         22    1    1    0    0    0 -0.10270308861E+01 -0.11011420938E+01 -0.31484562203E+02  0.31520548274E+02  0.00000000000E+00 0. -1.
</event>
<event>
 5    1  0.1324057E-009  0.9118800E+02  0.7818608E-02  0.1130116E+00
         25   -1    0    0    0    0  0.00000000000E+00  0.00000000000E+00  0.99999998245E-14  0.12500000000E+03  0.12500000000E+03 0.  0.
        -13    1    3    3    0    0  0.12308063941E+02 -0.29883899948E+01  0.32734519558E+02  0.35099556229E+02  0.10566000000E+00 0.  1.
         23    2    1    0    0    0  0.81127047393E+01  0.12592607550E+02 -0.25443769207E+02  0.95474161577E+02  0.90793944701E+02 0.  0.
         13    1    3    3    0    0 -0.41953592017E+01  0.15580997545E+02 -0.58178288765E+02  0.60374605349E+02  0.10566000000E+00 0. -1.
         22    1    1    0    0    0 -0.81127047393E+01 -0.12592607550E+02  0.25443769207E+02  0.29525838423E+02  0.00000000000E+00 0. -1.
</event>
<event>
 5    1  0.1324057E-009  0.9118800E+02  0.7818608E-02  0.1130116E+00
         25   -1    0    0    0    0  0.00000000000E+00  0.00000000000E+00  0.99999998245E-14  0.12500000000E+03  0.12500000000E+03 0.  0.
        -13    1    3    3    0    0 -0.13394665068E+02 -0.11378416321E+02  0.45213247613E+02  0.48509115989E+02  0.10566000000E+00 0.  1.
         23    2    1    0    0    0 -0.10327795280E+02  0.21996150494E+02  0.62397130585E+01  0.99911596086E+02  0.96710387350E+02 0.  0.
         13    1    3    3    0    0  0.30668697877E+01  0.33374566815E+02 -0.38973534555E+02  0.51402480097E+02  0.10566000000E+00 0. -1.
         22    1    1    0    0    0  0.10327795280E+02 -0.21996150494E+02 -0.62397130585E+01  0.25088403914E+02  0.00000000000E+00 0. -1.
</event>
<event>
 5    1  0.1324057E-009  0.9118800E+02  0.7818608E-02  0.1130116E+00
         25   -1    0    0    0    0  0.00000000000E+00  0.00000000000E+00  0.99999998245E-14  0.12500000000E+03  0.12500000000E+03 0.  0.
        -13    1    3    3    0    0  0.29402195666E+02 -0.50256792840E+02 -0.11244791864E+02  0.59301693439E+02  0.10566000000E+00 0. -1.
         23    2    1    0    0    0  0.18997706671E+02 -0.15872410192E+02 -0.15977023542E+02  0.95536267288E+02  0.90879408130E+02 0.  0.
         13    1    3    3    0    0 -0.10404488995E+02  0.34384382648E+02 -0.47322316778E+01  0.36234573849E+02  0.10566000000E+00 0.  1.
         22    1    1    0    0    0 -0.18997706671E+02  0.15872410192E+02  0.15977023542E+02  0.29463732712E+02  0.00000000000E+00 0. -1.
</event>
<event>
 5    1  0.1324057E-009  0.9118800E+02  0.7818608E-02  0.1130116E+00
         25   -1    0    0    0    0  0.00000000000E+00  0.00000000000E+00  0.99999998245E-14  0.12500000000E+03  0.12500000000E+03 0.  0.
        -13    1    3    3    0    0 -0.42062136853E+02 -0.40617333328E+02  0.22069352125E+02  0.62498468706E+02  0.10566000000E+00 0. -1.
         23    2    1    0    0    0 -0.20331265564E+02 -0.19463206266E+02  0.10324345131E+02  0.95020526022E+02  0.90167241865E+02 0.  0.
         13    1    3    3    0    0  0.21730871289E+02  0.21154127062E+02 -0.11745006994E+02  0.32522057316E+02  0.10566000000E+00 0.  1.
         22    1    1    0    0    0  0.20331265564E+02  0.19463206266E+02 -0.10324345131E+02  0.29979473978E+02  0.00000000000E+00 0. -1.
</event>
<event>
 5    1  0.1324057E-009  0.9118800E+02  0.7818608E-02  0.1130116E+00
         25   -1    0    0    0    0  0.00000000000E+00  0.00000000000E+00  0.99999998245E-14  0.12500000000E+03  0.12500000000E+03 0.  0.
        -13    1    3    3    0    0  0.33222267179E+02 -0.17161127172E+02 -0.16541030886E+02  0.40888142403E+02  0.10566000000E+00 0.  1.
         23    2    1    0    0    0  0.53349595556E+01 -0.53785733818E+01  0.28695950353E+02  0.95320909520E+02  0.90582710160E+02 0.  0.
         13    1    3    3    0    0 -0.27887307624E+02  0.11782553790E+02  0.45236981239E+02  0.54432767117E+02  0.10566000000E+00 0. -1.
         22    1    1    0    0    0 -0.53349595556E+01  0.53785733818E+01 -0.28695950353E+02  0.29679090480E+02  0.00000000000E+00 0. -1.
</event>
<event>
 5    1  0.1324057E-009  0.9118800E+02  0.7818608E-02  0.1130116E+00
         25   -1    0    0    0    0  0.00000000000E+00  0.00000000000E+00  0.99999998245E-14  0.12500000000E+03  0.12500000000E+03 0.  0.
        -13    1    3    3    0    0 -0.47250456774E+02  0.24046351447E+02 -0.15626952640E+02  0.55272465985E+02  0.10566000000E+00 0.  1.
         23    2    1    0    0    0 -0.22431219612E+02 -0.84378140763E+01 -0.16051780109E+02  0.96155313066E+02  0.91726922255E+02 0.  0.
         13    1    3    3    0    0  0.24819237161E+02 -0.32484165523E+02 -0.42482746858E+00  0.40882847081E+02  0.10566000000E+00 0. -1.
         22    1    1    0    0    0  0.22431219612E+02  0.84378140763E+01  0.16051780109E+02  0.28844686934E+02  0.00000000000E+00 0.  1.
</event>
<event>
 5    1  0.1324057E-009  0.9118800E+02  0.7818608E-02  0.1130116E+00
         25   -1    0    0    0    0  0.00000000000E+00  0.00000000000E+00  0.99999998245E-14  0.12500000000E+03  0.12500000000E+03 0.  0.
        -13    1    3    3    0    0 -0.22223959933E+02  0.29478571871E+02 -0.48445072658E+02  0.60908347732E+02  0.10566000000E+00 0.  1.
         23    2    1    0    0    0 -0.63460670464E+01  0.57917081269E+01 -0.27218599493E+02  0.96457599815E+02  0.92137939817E+02 0.  0.
         13    1    3    3    0    0  0.15877892886E+02 -0.23686863745E+02  0.21226473165E+02  0.35549252082E+02  0.10566000000E+00 0. -1.
         22    1    1    0    0    0  0.63460670464E+01 -0.57917081269E+01  0.27218599493E+02  0.28542400185E+02  0.00000000000E+00 0.  1.
</event>
<event>
 5    1  0.1324057E-009  0.9118800E+02  0.7818608E-02  0.1130116E+00
         25   -1    0    0    0    0  0.00000000000E+00  0.00000000000E+00  0.99999998245E-14  0.12500000000E+03  0.12500000000E+03 0.  0.
        -13    1    3    3    0    0 -0.26900590742E+02 -0.61530133342E+01 -0.20909220945E+02  0.34622363292E+02  0.10566000000E+00 0.  1.
         23    2    1    0    0    0  0.21823836137E+02  0.10403576571E+02  0.14239834543E+02  0.96941362880E+02  0.92791921632E+02 0.  0.
         13    1    3    3    0    0  0.48724426879E+02  0.16556589905E+02  0.35149055488E+02  0.62318999588E+02  0.10566000000E+00 0. -1.
         22    1    1    0    0    0 -0.21823836137E+02 -0.10403576571E+02 -0.14239834543E+02  0.28058637120E+02  0.00000000000E+00 0. -1.
</event>
<event>
 5    1  0.1324057E-009  0.9118800E+02  0.7818608E-02  0.1130116E+00
         25   -1    0    0    0    0  0.00000000000E+00  0.00000000000E+00  0.99999998245E-14  0.12500000000E+03  0.12500000000E+03 0.  0.
        -13    1    3    3    0    0  0.20855821466E+01 -0.33540051415E+00 -0.53414373522E+02  0.53456230779E+02  0.10566000000E+00 0. -1.
         23    2    1    0    0    0 -0.67640275515E+00  0.23093752716E+02 -0.19511203558E+02  0.94759861120E+02  0.89805151745E+02 0.  0.
         13    1    3    3    0    0 -0.27619849018E+01  0.23429153230E+02  0.33903169964E+02  0.41303630341E+02  0.10566000000E+00 0.  1.
         22    1    1    0    0    0  0.67640275515E+00 -0.23093752716E+02  0.19511203558E+02  0.30240138880E+02  0.00000000000E+00 0.  1.
</event>
<event>
 5    1  0.1324057E-009  0.9118800E+02  0.7818608E-02  0.1130116E+00
         25   -1    0    0    0    0  0.00000000000E+00  0.00000000000E+00  0.99999998245E-14  0.12500000000E+03  0.12500000000E+03 0.  0.
        -13    1    3    3    0    0 -0.51055747215E+02  0.74104448471E+01 -0.10854258210E+02  0.52720300661E+02  0.10566000000E+00 0.  1.
         23    2    1    0    0    0 -0.23363299963E+02 -0.17471157666E+01  0.19279861804E+02  0.94658456370E+02  0.89663895144E+02 0.  0.
         13    1    3    3    0    0  0.27692447251E+02 -0.91575606137E+01  0.30134120014E+02  0.41938155708E+02  0.10566000000E+00 0. -1.
         22    1    1    0    0    0  0.23363299963E+02  0.17471157666E+01 -0.19279861804E+02  0.30341543630E+02  0.00000000000E+00 0.  1.
</event>
<event>
 5    1  0.1324057E-009  0.9118800E+02  0.7818608E-02  0.1130116E+00
         25   -1    0    0    0    0  0.00000000000E+00  0.00000000000E+00  0.99999998245E-14  0.12500000000E+03  0.12500000000E+03 0.  0.
        -13    1    3    3    0    0 -0.31562208045E+02 -0.29202912390E+02  0.38133601787E+02  0.57473174769E+02  0.10566000000E+00 0.  1.
         23    2    1    0    0    0 -0.23849111744E+02 -0.16343320877E+02  0.26840187982E+01  0.95964018440E+02  0.91465865819E+02 0.  0.
         13    1    3    3    0    0  0.77130963014E+01  0.12859591513E+02 -0.35449582988E+02  0.38490843671E+02  0.10566000000E+00 0. -1.
         22    1    1    0    0    0  0.23849111744E+02  0.16343320877E+02 -0.26840187982E+01  0.29035981560E+02  0.00000000000E+00 0.  1.
</event>
<event>
 5    1  0.1324057E-009  0.9118800E+02  0.7818608E-02  0.1130116E+00
         25   -1    0    0    0    0  0.00000000000E+00  0.00000000000E+00  0.99999998245E-14  0.12500000000E+03  0.12500000000E+03 0.  0.
        -13    1    3    3    0    0 -0.94257719440E-01  0.36062140991E+02 -0.36775644486E+02  0.51506757700E+02  0.10566000000E+00 0. -1.
         23    2    1    0    0    0  0.20653210141E+02  0.21485708624E+02 -0.12266185550E+01  0.95172238480E+02  0.90377318062E+02 0.  0.
         13    1    3    3    0    0  0.20747467860E+02 -0.14576432367E+02  0.35549025931E+02  0.43665480781E+02  0.10566000000E+00 0.  1.
         22    1    1    0    0    0 -0.20653210141E+02 -0.21485708624E+02  0.12266185550E+01  0.29827761520E+02  0.00000000000E+00 0. -1.
</event>
<event>
 5    1  0.1324057E-009  0.9118800E+02  0.7818608E-02  0.1130116E+00
         25   -1    0    0    0    0  0.00000000000E+00  0.00000000000E+00  0.99999998245E-14  0.12500000000E+03  0.12500000000E+03 0.  0.
        -13    1    3    3    0    0  0.37476594883E+02  0.56138916757E+01 -0.29309012216E+02  0.47906578931E+02  0.10566000000E+00 0.  1.
         23    2    1    0    0    0  0.22193483850E+02  0.73641476841E+01  0.16599413219E+02  0.96323844126E+02  0.91956299575E+02 0.  0.
         13    1    3    3    0    0 -0.15283111033E+02  0.17502560084E+01  0.45908425435E+02  0.48417265195E+02  0.10566000000E+00 0. -1.
         22    1    1    0    0    0 -0.22193483850E+02 -0.73641476841E+01 -0.16599413219E+02  0.28676155874E+02  0.00000000000E+00 0.  1.
</event>
<event>
 5    1  0.1324057E-009  0.9118800E+02  0.7818608E-02  0.1130116E+00
         25   -1    0    0    0    0  0.00000000000E+00  0.00000000000E+00  0.99999998245E-14  0.12500000000E+03  0.12500000000E+03 0.  0.
        -13    1    3    3    0    0  0.30953090144E+02 -0.75667441938E+01 -0.20444028758E+02  0.37859198131E+02  0.10566000000E+00 0.  1.
         23    2    1    0    0    0 -0.16998207135E+02 -0.21325078002E+02  0.95940452621E+01  0.96090767875E+02  0.91638921691E+02 0.  0.
         13    1    3    3    0    0 -0.47951297280E+02 -0.13758333808E+02  0.30038074020E+02  0.58231569744E+02  0.10566000000E+00 0. -1.
         22    1    1    0    0    0  0.16998207135E+02  0.21325078002E+02 -0.95940452621E+01  0.28909232125E+02  0.00000000000E+00 0. -1.
</event>
<event>
 5    1  0.1324057E-009  0.9118800E+02  0.7818608E-02  0.1130116E+00
         25   -1    0    0    0    0  0.00000000000E+00  0.00000000000E+00  0.99999998245E-14  0.12500000000E+03  0.12500000000E+03 0.  0.
        -13    1    3    3    0    0 -0.34371224440E+02  0.10170797560E+02 -0.10146675098E+02  0.37253085403E+02  0.10566000000E+00 0.  1.
         23    2    1    0    0    0  0.19535014513E+02  0.13568555825E+02  0.15049118898E+02  0.96853979343E+02  0.92674132506E+02 0.  0.
         13    1    3    3    0    0  0.53906238953E+02  0.33977582650E+01  0.25195793996E+02  0.59600893940E+02  0.10566000000E+00 0. -1.
         22    1    1    0    0    0 -0.19535014513E+02 -0.13568555825E+02 -0.15049118898E+02  0.28146020657E+02  0.00000000000E+00 0. -1.
</event>
<event>
 5    1  0.1324057E-009  0.9118800E+02  0.7818608E-02  0.1130116E+00
         25   -1    0    0    0    0  0.00000000000E+00  0.00000000000E+00  0.99999998245E-14  0.12500000000E+03  0.12500000000E+03 0.  0.
        -13    1    3    3    0    0 -0.31544256682E+02 -0.92813603568E+01  0.22098143852E+02  0.39617204665E+02  0.10566000000E+00 0. -1.
         23    2    1    0    0    0 -0.78238984267E+01  0.18544052079E+02 -0.20849139208E+02  0.96021010027E+02  0.91543719101E+02 0.  0.
         13    1    3    3    0    0  0.23720358256E+02  0.27825412436E+02 -0.42947283061E+02  0.56403805362E+02  0.10566000000E+00 0.  1.
         22    1    1    0    0    0  0.78238984267E+01 -0.18544052079E+02  0.20849139208E+02  0.28978989973E+02  0.00000000000E+00 0.  1.
</event>
<event>
 5    1  0.1324057E-009  0.9118800E+02  0.7818608E-02  0.1130116E+00
         25   -1    0    0    0    0  0.00000000000E+00  0.00000000000E+00  0.99999998245E-14  0.12500000000E+03  0.12500000000E+03 0.  0.
        -13    1    3    3    0    0  0.23254054971E+02  0.49870489310E+02  0.97570608724E+01  0.55884060138E+02  0.10566000000E+00 0. -1.
         23    2    1    0    0    0  0.72824666828E+00  0.27216366831E+02 -0.12722857813E+02  0.94947844044E+02  0.90066425548E+02 0.  0.
         13    1    3    3    0    0 -0.22525808302E+02 -0.22654122479E+02 -0.22479918685E+02  0.39063783906E+02  0.10566000000E+00 0.  1.
         22    1    1    0    0    0 -0.72824666828E+00 -0.27216366831E+02  0.12722857813E+02  0.30052155956E+02  0.00000000000E+00 0. -1.
</event>
<event>
 5    1  0.1324057E-009  0.9118800E+02  0.7818608E-02  0.1130116E+00
         25   -1    0    0    0    0  0.00000000000E+00  0.00000000000E+00  0.99999998245E-14  0.12500000000E+03  0.12500000000E+03 0.  0.
        -13    1    3    3    0    0 -0.17607338485E+02 -0.98977755805E+01  0.34107081075E+02  0.39639481246E+02  0.10566000000E+00 0.  1.
         23    2    1    0    0    0 -0.82679638711E+01  0.24762811017E+02 -0.10469004658E+02  0.96872502874E+02  0.92699113904E+02 0.  0.
         13    1    3    3    0    0  0.93393746137E+01  0.34660586597E+02 -0.44576085733E+02  0.57233021628E+02  0.10566000000E+00 0. -1.
         22    1    1    0    0    0  0.82679638711E+01 -0.24762811017E+02  0.10469004658E+02  0.28127497126E+02  0.00000000000E+00 0. -1.
</event>
<event>
 5    1  0.1324057E-009  0.9118800E+02  0.7818608E-02  0.1130116E+00
         25   -1    0    0    0    0  0.00000000000E+00  0.00000000000E+00  0.99999998245E-14  0.12500000000E+03  0.12500000000E+03 0.  0.
        -13    1    3    3    0    0 -0.13970605002E+02  0.19774689898E+02  0.33796864747E+02  0.41574696577E+02  0.10566000000E+00 0.  1.
         23    2    1    0    0    0 -0.19639134236E+02  0.10550017580E+02 -0.19146027280E+02  0.95613458436E+02  0.90985518677E+02 0.  0.
         13    1    3    3    0    0 -0.56685292347E+01 -0.92246723185E+01 -0.52942892027E+02  0.54038761859E+02  0.10566000000E+00 0. -1.
         22    1    1    0    0    0  0.19639134236E+02 -0.10550017580E+02  0.19146027280E+02  0.29386541564E+02  0.00000000000E+00 0. -1.
</event>
<event>
 5    1  0.1324057E-009  0.9118800E+02  0.7818608E-02  0.1130116E+00
         25   -1    0    0    0    0  0.00000000000E+00  0.00000000000E+00  0.99999998245E-14  0.12500000000E+03  0.12500000000E+03 0.  0.
        -13    1    3    3    0    0  0.25046460260E+02 -0.23282869620E+02 -0.13182425345E+02  0.36649757043E+02  0.10566000000E+00 0. -1.
         23    2    1    0    0    0 -0.11619582040E+02  0.22641524415E+02 -0.15028353949E+02  0.95444886448E+02  0.90753631399E+02 0.  0.
         13    1    3    3    0    0 -0.36666042300E+02  0.45924394035E+02 -0.18459286037E+01  0.58795129406E+02  0.10566000000E+00 0.  1.
         22    1    1    0    0    0  0.11619582040E+02 -0.22641524415E+02  0.15028353949E+02  0.29555113552E+02  0.00000000000E+00 0.  1.
</event>
<event>
 5    1  0.1324057E-009  0.9118800E+02  0.7818608E-02  0.1130116E+00
         25   -1    0    0    0    0  0.00000000000E+00  0.00000000000E+00  0.99999998245E-14  0.12500000000E+03  0.12500000000E+03 0.  0.
        -13    1    3    3    0    0 -0.35050983369E+02  0.45551602863E+01 -0.58665580592E+01  0.35829437448E+02  0.10566000000E+00 0.  1.
         23    2    1    0    0    0  0.23325818864E+02  0.15239168861E+02 -0.10188157764E+02  0.95333105119E+02  0.90599537966E+02 0.  0.
         13    1    3    3    0    0  0.58376802233E+02  0.10684008575E+02 -0.43215997050E+01  0.59503667670E+02  0.10566000000E+00 0. -1.
         22    1    1    0    0    0 -0.23325818864E+02 -0.15239168861E+02  0.10188157764E+02  0.29666894881E+02  0.00000000000E+00 0. -1.
</event>
<event>
 5    1  0.1324057E-009  0.9118800E+02  0.7818608E-02  0.1130116E+00
         25   -1    0    0    0    0  0.00000000000E+00  0.00000000000E+00  0.99999998245E-14  0.12500000000E+03  0.12500000000E+03 0.  0.
        -13    1    3    3    0    0 -0.20908337893E+02  0.22670420743E+02 -0.29462318914E+02  0.42651447454E+02  0.10566000000E+00 0.  1.
         23    2    1    0    0    0  0.34750660618E+01 -0.23546614280E+02 -0.14982273386E+02  0.96875497444E+02  0.92703151840E+02 0.  0.
         13    1    3    3    0    0  0.24383403955E+02 -0.46217035023E+02  0.14480045528E+02  0.54224049990E+02  0.10566000000E+00 0. -1.
         22    1    1    0    0    0 -0.34750660618E+01  0.23546614280E+02  0.14982273386E+02  0.28124502556E+02  0.00000000000E+00 0. -1.
</event>
<event>
 5    1  0.1324057E-009  0.9118800E+02  0.7818608E-02  0.1130116E+00
         25   -1    0    0    0    0  0.00000000000E+00  0.00000000000E+00  0.99999998245E-14  0.12500000000E+03  0.12500000000E+03 0.  0.
        -13    1    3    3    0    0  0.49303002094E+01 -0.58268535113E+02 -0.61118863032E+01  0.58795377052E+02  0.10566000000E+00 0. -1.
         23    2    1    0    0    0  0.17445913877E+02 -0.26107573661E+02 -0.23009454875E+01  0.93515723549E+02  0.88056407418E+02 0.  0.
         13    1    3    3    0    0  0.12515613668E+02  0.32160961452E+02  0.38109408157E+01  0.34720346498E+02  0.10566000000E+00 0.  1.
         22    1    1    0    0    0 -0.17445913877E+02  0.26107573661E+02  0.23009454875E+01  0.31484276451E+02  0.00000000000E+00 0. -1.
</event>
<event>
 5    1  0.1324057E-009  0.9118800E+02  0.7818608E-02  0.1130116E+00
         25   -1    0    0    0    0  0.00000000000E+00  0.00000000000E+00  0.99999998245E-14  0.12500000000E+03  0.12500000000E+03 0.  0.
        -13    1    3    3    0    0 -0.54093606296E+02 -0.12027198316E+02  0.23215597674E+02  0.60081169104E+02  0.10566000000E+00 0.  1.
         23    2    1    0    0    0 -0.22709181648E+02 -0.17319241174E+02  0.81132141602E+01  0.95310148368E+02  0.90567859044E+02 0.  0.
         13    1    3    3    0    0  0.31384424649E+02 -0.52920428576E+01 -0.15102383514E+02  0.35228979264E+02  0.10566000000E+00 0. -1.
         22    1    1    0    0    0  0.22709181648E+02  0.17319241174E+02 -0.81132141602E+01  0.29689851632E+02  0.00000000000E+00 0.  1.
</event>
<event>
 5    1  0.1324057E-009  0.9118800E+02  0.7818608E-02  0.1130116E+00
         25   -1    0    0    0    0  0.00000000000E+00  0.00000000000E+00  0.99999998245E-14  0.12500000000E+03  0.12500000000E+03 0.  0.
        -13    1    3    3    0    0 -0.41274667046E+02 -0.34566929898E+02  0.30241287846E+02  0.61749635116E+02  0.10566000000E+00 0.  1.
         23    2    1    0    0    0 -0.17562719356E+02 -0.21850360284E+02  0.10743948843E+02  0.94978011517E+02  0.90108284187E+02 0.  0.
         13    1    3    3    0    0  0.23711947690E+02  0.12716569614E+02 -0.19497339003E+02  0.33228376401E+02  0.10566000000E+00 0. -1.
         22    1    1    0    0    0  0.17562719356E+02  0.21850360284E+02 -0.10743948843E+02  0.30021988483E+02  0.00000000000E+00 0.  1.
</event>
<event>
 5    1  0.1324057E-009  0.9118800E+02  0.7818608E-02  0.1130116E+00
         25   -1    0    0    0    0  0.00000000000E+00  0.00000000000E+00  0.99999998245E-14  0.12500000000E+03  0.12500000000E+03 0.  0.
        -13    1    3    3    0    0 -0.28476644737E+02  0.30148207054E+01  0.18291003521E+02  0.33979117310E+02  0.10566000000E+00 0. -1.
         23    2    1    0    0    0  0.11896607148E+02  0.32103489037E+02 -0.73876544534E+01  0.89975141566E+02  0.82878135787E+02 0.  0.
         13    1    3    3    0    0  0.40373251885E+02  0.29088668332E+02 -0.25678657974E+02  0.55996024256E+02  0.10566000000E+00 0.  1.
         22    1    1    0    0    0 -0.11896607148E+02 -0.32103489037E+02  0.73876544534E+01  0.35024858434E+02  0.00000000000E+00 0.  1.
</event>
<event>
 5    1  0.1324057E-009  0.9118800E+02  0.7818608E-02  0.1130116E+00
         25   -1    0    0    0    0  0.00000000000E+00  0.00000000000E+00  0.99999998245E-14  0.12500000000E+03  0.12500000000E+03 0.  0.
        -13    1    3    3    0    0 -0.62815410672E+01 -0.48586500779E+02 -0.18553526710E+02  0.52386547257E+02  0.10566000000E+00 0. -1.
         23    2    1    0    0    0 -0.92230951400E+01 -0.39146356256E+01 -0.25418001918E+02  0.97678494230E+02  0.93779654283E+02 0.  0.
         13    1    3    3    0    0 -0.29415540727E+01  0.44671865154E+02 -0.68644752079E+01  0.45291946973E+02  0.10566000000E+00 0.  1.
         22    1    1    0    0    0  0.92230951400E+01  0.39146356256E+01  0.25418001918E+02  0.27321505770E+02  0.00000000000E+00 0. -1.
</event>
<event>
 5    1  0.1324057E-009  0.9118800E+02  0.7818608E-02  0.1130116E+00
         25   -1    0    0    0    0  0.00000000000E+00  0.00000000000E+00  0.99999998245E-14  0.12500000000E+03  0.12500000000E+03 0.  0.
        -13    1    3    3    0    0 -0.14768699970E+02  0.50841504203E+02 -0.32708489239E+02  0.62232061518E+02  0.10566000000E+00 0.  1.
         23    2    1    0    0    0 -0.68681552751E+01  0.21652206914E+02 -0.18785647931E+02  0.95523056649E+02  0.90861235751E+02 0.  0.
         13    1    3    3    0    0  0.79005446952E+01 -0.29189297289E+02  0.13922841307E+02  0.33290995131E+02  0.10566000000E+00 0. -1.
         22    1    1    0    0    0  0.68681552751E+01 -0.21652206914E+02  0.18785647931E+02  0.29476943351E+02  0.00000000000E+00 0.  1.
</event>
<event>
 5    1  0.1324057E-009  0.9118800E+02  0.7818608E-02  0.1130116E+00
         25   -1    0    0    0    0  0.00000000000E+00  0.00000000000E+00  0.99999998245E-14  0.12500000000E+03  0.12500000000E+03 0.  0.
        -13    1    3    3    0    0 -0.51856785020E+01 -0.57456682479E+02 -0.14596080153E+02  0.59508136779E+02  0.10566000000E+00 0.  1.
         23    2    1    0    0    0  0.30633366221E+01 -0.22304184447E+02 -0.18546233519E+02  0.95831121845E+02  0.91284064662E+02 0.  0.
         13    1    3    3    0    0  0.82490151241E+01  0.35152498032E+02 -0.39501533659E+01  0.36322985065E+02  0.10566000000E+00 0. -1.
         22    1    1    0    0    0 -0.30633366221E+01  0.22304184447E+02  0.18546233519E+02  0.29168878155E+02  0.00000000000E+00 0.  1.
</event>
<event>
 5    1  0.1324057E-009  0.9118800E+02  0.7818608E-02  0.1130116E+00
         25   -1    0    0    0    0  0.00000000000E+00  0.00000000000E+00  0.99999998245E-14  0.12500000000E+03  0.12500000000E+03 0.  0.
        -13    1    3    3    0    0 -0.16261275558E+02  0.17918924328E+02  0.27720561139E+02  0.36796162921E+02  0.10566000000E+00 0.  1.
         23    2    1    0    0    0  0.16685191422E+02 -0.19950756929E+02 -0.72830068338E+01  0.97991288380E+02  0.94195658578E+02 0.  0.
         13    1    3    3    0    0  0.32946466980E+02 -0.37869681258E+02 -0.35003567973E+02  0.61195125458E+02  0.10566000000E+00 0. -1.
         22    1    1    0    0    0 -0.16685191422E+02  0.19950756929E+02  0.72830068338E+01  0.27008711620E+02  0.00000000000E+00 0. -1.
</event>
<event>
 5    1  0.1324057E-009  0.9118800E+02  0.7818608E-02  0.1130116E+00
         25   -1    0    0    0    0  0.00000000000E+00  0.00000000000E+00  0.99999998245E-14  0.12500000000E+03  0.12500000000E+03 0.  0.
        -13    1    3    3    0    0  0.28301401958E+02 -0.34166292172E+02  0.14559298013E+02  0.46693566969E+02  0.10566000000E+00 0.  1.
         23    2    1    0    0    0 -0.91418767308E+01 -0.61972721863E+01  0.27647725613E+02  0.95227918711E+02  0.90454296071E+02 0.  0.
         13    1    3    3    0    0 -0.37443278689E+02  0.27969019986E+02  0.13088427600E+02  0.48534351742E+02  0.10566000000E+00 0. -1.
         22    1    1    0    0    0  0.91418767308E+01  0.61972721863E+01 -0.27647725613E+02  0.29772081289E+02  0.00000000000E+00 0. -1.
</event>
<event>
 5    1  0.1324057E-009  0.9118800E+02  0.7818608E-02  0.1130116E+00
         25   -1    0    0    0    0  0.00000000000E+00  0.00000000000E+00  0.99999998245E-14  0.12500000000E+03  0.12500000000E+03 0.  0.
        -13    1    3    3    0    0  0.43049615831E+02  0.34481076750E+02 -0.25668021132E+02  0.60836440970E+02  0.10566000000E+00 0. -1.
         23    2    1    0    0    0  0.12762123428E+02  0.19872575785E+02 -0.17944403213E+02  0.95338700815E+02  0.90607258007E+02 0.  0.
         13    1    3    3    0    0 -0.30287492404E+02 -0.14608500965E+02  0.77236179193E+01  0.34502259844E+02  0.10566000000E+00 0.  1.
         22    1    1    0    0    0 -0.12762123428E+02 -0.19872575785E+02  0.17944403213E+02  0.29661299185E+02  0.00000000000E+00 0. -1.
</event>
<event>
 5    1  0.1324057E-009  0.9118800E+02  0.7818608E-02  0.1130116E+00
         25   -1    0    0    0    0  0.00000000000E+00  0.00000000000E+00  0.99999998245E-14  0.12500000000E+03  0.12500000000E+03 0.  0.
        -13    1    3    3    0    0 -0.23328127482E+02 -0.19661160735E+02 -0.95524110211E+01  0.31969086531E+02  0.10566000000E+00 0. -1.
         23    2    1    0    0    0  0.28444001765E+02  0.99253437960E+01  0.74323510921E+01  0.93970763325E+02  0.88700004686E+02 0.  0.
         13    1    3    3    0    0  0.51772129247E+02  0.29586504531E+02  0.16984762113E+02  0.62001676794E+02  0.10566000000E+00 0.  1.
         22    1    1    0    0    0 -0.28444001765E+02 -0.99253437960E+01 -0.74323510921E+01  0.31029236675E+02  0.00000000000E+00 0.  1.
</event>
<event>
 5    1  0.1324057E-009  0.9118800E+02  0.7818608E-02  0.1130116E+00
         25   -1    0    0    0    0  0.00000000000E+00  0.00000000000E+00  0.99999998245E-14  0.12500000000E+03  0.12500000000E+03 0.  0.
        -13    1    3    3    0    0 -0.17707057833E+02 -0.31497133590E+02 -0.92778176806E+01  0.37305473947E+02  0.10566000000E+00 0. -1.
         23    2    1    0    0    0  0.29255175764E+02  0.22224950774E+01 -0.45104074215E+01  0.95315853247E+02  0.90575732465E+02 0.  0.
         13    1    3    3    0    0  0.46962233597E+02  0.33719628667E+02  0.47674102591E+01  0.58010379300E+02  0.10566000000E+00 0.  1.
         22    1    1    0    0    0 -0.29255175764E+02 -0.22224950774E+01  0.45104074215E+01  0.29684146753E+02  0.00000000000E+00 0.  1.
</event>
<event>
 5    1  0.1324057E-009  0.9118800E+02  0.7818608E-02  0.1130116E+00
         25   -1    0    0    0    0  0.00000000000E+00  0.00000000000E+00  0.99999998245E-14  0.12500000000E+03  0.12500000000E+03 0.  0.
        -13    1    3    3    0    0 -0.43340693665E+02 -0.23085230879E+02 -0.74582921205E+01  0.49668711454E+02  0.10566000000E+00 0. -1.
         23    2    1    0    0    0 -0.24423707061E+02  0.16953978581E+02  0.28390117858E+01  0.95133382444E+02  0.90323560663E+02 0.  0.
         13    1    3    3    0    0  0.18916986604E+02  0.40039209461E+02  0.10297303906E+02  0.45464670990E+02  0.10566000000E+00 0.  1.
         22    1    1    0    0    0  0.24423707061E+02 -0.16953978581E+02 -0.28390117858E+01  0.29866617556E+02  0.00000000000E+00 0. -1.
</event>
<event>
 5    1  0.1324057E-009  0.9118800E+02  0.7818608E-02  0.1130116E+00
         25   -1    0    0    0    0  0.00000000000E+00  0.00000000000E+00  0.99999998245E-14  0.12500000000E+03  0.12500000000E+03 0.  0.
        -13    1    3    3    0    0  0.12191816103E+02 -0.54151697636E+02  0.53933976369E+01  0.55768688696E+02  0.10566000000E+00 0. -1.
         23    2    1    0    0    0  0.88541922142E+01 -0.17200227975E+02  0.21378695987E+02  0.96167844266E+02  0.91743997441E+02 0.  0.
         13    1    3    3    0    0 -0.33376238889E+01  0.36951469661E+02  0.15985298350E+02  0.40399155570E+02  0.10566000000E+00 0.  1.
         22    1    1    0    0    0 -0.88541922142E+01  0.17200227975E+02 -0.21378695987E+02  0.28832155734E+02  0.00000000000E+00 0. -1.
</event>
<event>
 5    1  0.1324057E-009  0.9118800E+02  0.7818608E-02  0.1130116E+00
         25   -1    0    0    0    0  0.00000000000E+00  0.00000000000E+00  0.99999998245E-14  0.12500000000E+03  0.12500000000E+03 0.  0.
        -13    1    3    3    0    0 -0.16535959466E+02  0.46616974983E+01  0.42093089165E+02  0.45464367350E+02  0.10566000000E+00 0.  1.
         23    2    1    0    0    0  0.19421510450E+02 -0.16637874773E+02  0.13718406393E+02  0.95979169221E+02  0.91486568989E+02 0.  0.
         13    1    3    3    0    0  0.35957469916E+02 -0.21299572271E+02 -0.28374682772E+02  0.50514801872E+02  0.10566000000E+00 0. -1.
         22    1    1    0    0    0 -0.19421510450E+02  0.16637874773E+02 -0.13718406393E+02  0.29020830779E+02  0.00000000000E+00 0. -1.
</event>
<event>
 5    1  0.1324057E-009  0.9118800E+02  0.7818608E-02  0.1130116E+00
         25   -1    0    0    0    0  0.00000000000E+00  0.00000000000E+00  0.99999998245E-14  0.12500000000E+03  0.12500000000E+03 0.  0.
        -13    1    3    3    0    0  0.28878779283E+02 -0.20694204837E+02  0.89770749156E+01  0.36644686447E+02  0.10566000000E+00 0.  1.
         23    2    1    0    0    0 -0.11401070948E+02  0.19157925771E+02  0.20779752496E+02  0.94523637809E+02  0.89475747844E+02 0.  0.
         13    1    3    3    0    0 -0.40279850231E+02  0.39852130608E+02  0.11802677581E+02  0.57878951362E+02  0.10566000000E+00 0. -1.
         22    1    1    0    0    0  0.11401070948E+02 -0.19157925771E+02 -0.20779752496E+02  0.30476362191E+02  0.00000000000E+00 0.  1.
</event>
<event>
 5    1  0.1324057E-009  0.9118800E+02  0.7818608E-02  0.1130116E+00
         25   -1    0    0    0    0  0.00000000000E+00  0.00000000000E+00  0.99999998245E-14  0.12500000000E+03  0.12500000000E+03 0.  0.
        -13    1    3    3    0    0  0.40153652438E+02  0.26333041714E+02 -0.13054139232E+02  0.49761095297E+02  0.10566000000E+00 0. -1.
         23    2    1    0    0    0 -0.33842549716E+01  0.30153442267E+02 -0.39958354346E+01  0.94395262408E+02  0.89296223895E+02 0.  0.
         13    1    3    3    0    0 -0.43537907409E+02  0.38204005528E+01  0.90583037975E+01  0.44634167111E+02  0.10566000000E+00 0.  1.
         22    1    1    0    0    0  0.33842549716E+01 -0.30153442267E+02  0.39958354346E+01  0.30604737592E+02  0.00000000000E+00 0.  1.
</event>
<event>
 5    1  0.1324057E-009  0.9118800E+02  0.7818608E-02  0.1130116E+00
         25   -1    0    0    0    0  0.00000000000E+00  0.00000000000E+00  0.99999998245E-14  0.12500000000E+03  0.12500000000E+03 0.  0.
        -13    1    3    3    0    0  0.23005528505E+02  0.35946662247E+02  0.21787773533E+02  0.47918004007E+02  0.10566000000E+00 0. -1.
         23    2    1    0    0    0  0.28853171962E+02 -0.73478605579E+01  0.45652946035E+01  0.94877939947E+02  0.89969355820E+02 0.  0.
         13    1    3    3    0    0  0.58476434568E+01 -0.43294522805E+02 -0.17222478930E+02  0.46959935939E+02  0.10566000000E+00 0.  1.
         22    1    1    0    0    0 -0.28853171962E+02  0.73478605579E+01 -0.45652946035E+01  0.30122060053E+02  0.00000000000E+00 0.  1.
</event>
<event>
 5    1  0.1324057E-009  0.9118800E+02  0.7818608E-02  0.1130116E+00
         25   -1    0    0    0    0  0.00000000000E+00  0.00000000000E+00  0.99999998245E-14  0.12500000000E+03  0.12500000000E+03 0.  0.
        -13    1    3    3    0    0 -0.27269220603E+01  0.45303067276E+02 -0.29919288441E+02  0.54359718481E+02  0.10566000000E+00 0.  1.
         23    2    1    0    0    0  0.20676488638E+02  0.18958242463E+02 -0.81206860170E+01  0.95795930402E+02  0.91235862469E+02 0.  0.
         13    1    3    3    0    0  0.23403410698E+02 -0.26344824812E+02  0.21798602424E+02  0.41436211921E+02  0.10566000000E+00 0. -1.
         22    1    1    0    0    0 -0.20676488638E+02 -0.18958242463E+02  0.81206860170E+01  0.29204069598E+02  0.00000000000E+00 0.  1.
</event>
<event>
 5    1  0.1324057E-009  0.9118800E+02  0.7818608E-02  0.1130116E+00
         25   -1    0    0    0    0  0.00000000000E+00  0.00000000000E+00  0.99999998245E-14  0.12500000000E+03  0.12500000000E+03 0.  0.
        -13    1    3    3    0    0  0.43873697038E+02 -0.94004702253E+01 -0.30835294615E+02  0.54443518350E+02  0.10566000000E+00 0.  1.
         23    2    1    0    0    0  0.39058664045E+01  0.15733965702E+02 -0.89283441450E+01  0.10649246645E+03  0.10487190573E+03 0.  0.
         13    1    3    3    0    0 -0.39967830634E+02  0.25134435927E+02  0.21906950470E+02  0.52048948096E+02  0.10566000000E+00 0. -1.
         22    1    1    0    0    0 -0.39058664045E+01 -0.15733965702E+02  0.89283441450E+01  0.18507533554E+02  0.00000000000E+00 0. -1.
</event>
<event>
 5    1  0.1324057E-009  0.9118800E+02  0.7818608E-02  0.1130116E+00
         25   -1    0    0    0    0  0.00000000000E+00  0.00000000000E+00  0.99999998245E-14  0.12500000000E+03  0.12500000000E+03 0.  0.
        -13    1    3    3    0    0  0.47076934676E+02 -0.20238162282E+02 -0.45818433716E+01  0.51447307449E+02  0.10566000000E+00 0.  1.
         23    2    1    0    0    0  0.13895061252E+02 -0.33309350013E+01  0.23091833317E+02  0.97844878547E+02  0.94001168273E+02 0.  0.
         13    1    3    3    0    0 -0.33181873424E+02  0.16907227281E+02  0.27673676689E+02  0.46397571098E+02  0.10566000000E+00 0. -1.
         22    1    1    0    0    0 -0.13895061252E+02  0.33309350013E+01 -0.23091833317E+02  0.27155121453E+02  0.00000000000E+00 0. -1.
</event>
<event>
 5    1  0.1324057E-009  0.9118800E+02  0.7818608E-02  0.1130116E+00
         25   -1    0    0    0    0  0.00000000000E+00  0.00000000000E+00  0.99999998245E-14  0.12500000000E+03  0.12500000000E+03 0.  0.
        -13    1    3    3    0    0 -0.53361736268E+02  0.19830103911E+02 -0.52594013417E+01  0.57169750613E+02  0.10566000000E+00 0. -1.
         23    2    1    0    0    0 -0.25578810573E+02  0.31763989233E+00 -0.18309314128E+02  0.93541973532E+02  0.88093662558E+02 0.  0.
         13    1    3    3    0    0  0.27782925695E+02 -0.19512464018E+02 -0.13049912786E+02  0.36372222918E+02  0.10566000000E+00 0.  1.
         22    1    1    0    0    0  0.25578810573E+02 -0.31763989233E+00  0.18309314128E+02  0.31458026468E+02  0.00000000000E+00 0. -1.
</event>
<event>
 5    1  0.1324057E-009  0.9118800E+02  0.7818608E-02  0.1130116E+00
         25   -1    0    0    0    0  0.00000000000E+00  0.00000000000E+00  0.99999998245E-14  0.12500000000E+03  0.12500000000E+03 0.  0.
        -13    1    3    3    0    0  0.75555166934E+01  0.12290691575E+01  0.32599523820E+02  0.33486363804E+02  0.10566000000E+00 0. -1.
         23    2    1    0    0    0  0.25747494255E+02 -0.11757247166E+02 -0.19802118164E+02  0.90455967156E+02  0.83600190125E+02 0.  0.
         13    1    3    3    0    0  0.18191977562E+02 -0.12986316323E+02 -0.52401641985E+02  0.56969603351E+02  0.10566000000E+00 0.  1.
         22    1    1    0    0    0 -0.25747494255E+02  0.11757247166E+02  0.19802118164E+02  0.34544032844E+02  0.00000000000E+00 0.  1.
</event>
<event>
 5    1  0.1324057E-009  0.9118800E+02  0.7818608E-02  0.1130116E+00
         25   -1    0    0    0    0  0.00000000000E+00  0.00000000000E+00  0.99999998245E-14  0.12500000000E+03  0.12500000000E+03 0.  0.
        -13    1    3    3    0    0 -0.30930829041E+01  0.57072028033E+02  0.23249226102E+02  0.61703494423E+02  0.10566000000E+00 0. -1.
         23    2    1    0    0    0 -0.84782877267E+01  0.26546844237E+02  0.10502802080E+02  0.95218711357E+02  0.90441571411E+02 0.  0.
         13    1    3    3    0    0 -0.53852048226E+01 -0.30525183796E+02 -0.12746424022E+02  0.33515216934E+02  0.10566000000E+00 0.  1.
         22    1    1    0    0    0  0.84782877267E+01 -0.26546844237E+02 -0.10502802080E+02  0.29781288643E+02  0.00000000000E+00 0. -1.
</event>
<event>
 5    1  0.1324057E-009  0.9118800E+02  0.7818608E-02  0.1130116E+00
         25   -1    0    0    0    0  0.00000000000E+00  0.00000000000E+00  0.99999998245E-14  0.12500000000E+03  0.12500000000E+03 0.  0.
        -13    1    3    3    0    0  0.39214154386E+02 -0.16092905179E+02  0.33757447895E+02  0.54187710357E+02  0.10566000000E+00 0.  1.
         23    2    1    0    0    0  0.26901427275E+02 -0.33267413002E+01 -0.55677690351E+01  0.97327738634E+02  0.93310956797E+02 0.  0.
         13    1    3    3    0    0 -0.12312727111E+02  0.12766163879E+02 -0.39325216930E+02  0.43140028277E+02  0.10566000000E+00 0. -1.
         22    1    1    0    0    0 -0.26901427275E+02  0.33267413002E+01  0.55677690351E+01  0.27672261366E+02  0.00000000000E+00 0.  1.
</event>
<event>
 5    1  0.1324057E-009  0.9118800E+02  0.7818608E-02  0.1130116E+00
         25   -1    0    0    0    0  0.00000000000E+00  0.00000000000E+00  0.99999998245E-14  0.12500000000E+03  0.12500000000E+03 0.  0.
        -13    1    3    3    0    0  0.35111439502E+02  0.15459325458E+02  0.43474919191E+02  0.57981753080E+02  0.10566000000E+00 0.  1.
         23    2    1    0    0    0 -0.55817680742E+00  0.46873532803E+01  0.24975736950E+02  0.99582087451E+02  0.96283549285E+02 0.  0.
         13    1    3    3    0    0 -0.35669616309E+02 -0.10771972178E+02 -0.18499182240E+02  0.41600334372E+02  0.10566000000E+00 0. -1.
         22    1    1    0    0    0  0.55817680742E+00 -0.46873532803E+01 -0.24975736950E+02  0.25417912549E+02  0.00000000000E+00 0.  1.
</event>
<event>
 5    1  0.1324057E-009  0.9118800E+02  0.7818608E-02  0.1130116E+00
         25   -1    0    0    0    0  0.00000000000E+00  0.00000000000E+00  0.99999998245E-14  0.12500000000E+03  0.12500000000E+03 0.  0.
        -13    1    3    3    0    0  0.57632393885E+02  0.10648123699E+02  0.12248859801E+02  0.59874210590E+02  0.10566000000E+00 0. -1.
         23    2    1    0    0    0  0.22880620092E+02  0.13832178054E+02  0.14007901397E+02  0.94816010418E+02  0.89883272107E+02 0.  0.
         13    1    3    3    0    0 -0.34751773793E+02  0.31840543551E+01  0.17590415953E+01  0.34941799829E+02  0.10566000000E+00 0.  1.
         22    1    1    0    0    0 -0.22880620092E+02 -0.13832178054E+02 -0.14007901397E+02  0.30183989582E+02  0.00000000000E+00 0. -1.
</event>
<event>
 5    1  0.1324057E-009  0.9118800E+02  0.7818608E-02  0.1130116E+00
         25   -1    0    0    0    0  0.00000000000E+00  0.00000000000E+00  0.99999998245E-14  0.12500000000E+03  0.12500000000E+03 0.  0.
        -13    1    3    3    0    0  0.48247751634E+02 -0.32326220883E+02  0.93978290130E+01  0.58831627961E+02  0.10566000000E+00 0.  1.
         23    2    1    0    0    0  0.34701637770E+02 -0.12228560206E+02 -0.62483666846E+01  0.87679986135E+02  0.79341014196E+02 0.  0.
         13    1    3    3    0    0 -0.13546113864E+02  0.20097660677E+02 -0.15646195698E+02  0.28848358174E+02  0.10566000000E+00 0. -1.
         22    1    1    0    0    0 -0.34701637770E+02  0.12228560206E+02  0.62483666846E+01  0.37320013865E+02  0.00000000000E+00 0.  1.
</event>
<event>
 5    1  0.1324057E-009  0.9118800E+02  0.7818608E-02  0.1130116E+00
         25   -1    0    0    0    0  0.00000000000E+00  0.00000000000E+00  0.99999998245E-14  0.12500000000E+03  0.12500000000E+03 0.  0.
        -13    1    3    3    0    0 -0.28685857716E+02  0.78034517968E+01 -0.19261350814E+02  0.35422917611E+02  0.10566000000E+00 0.  1.
         23    2    1    0    0    0  0.25807427703E+02  0.12944962082E+02  0.56824907081E+01  0.95574057898E+02  0.90931372333E+02 0.  0.
         13    1    3    3    0    0  0.54493285420E+02  0.51415102852E+01  0.24943841522E+02  0.60151140286E+02  0.10566000000E+00 0. -1.
         22    1    1    0    0    0 -0.25807427703E+02 -0.12944962082E+02 -0.56824907081E+01  0.29425942102E+02  0.00000000000E+00 0. -1.
</event>
<event>
 5    1  0.1324057E-009  0.9118800E+02  0.7818608E-02  0.1130116E+00
         25   -1    0    0    0    0  0.00000000000E+00  0.00000000000E+00  0.99999998245E-14  0.12500000000E+03  0.12500000000E+03 0.  0.
        -13    1    3    3    0    0  0.10180447307E+02 -0.88857812001E+01  0.57518689999E+02  0.59084765195E+02  0.10566000000E+00 0. -1.
         23    2    1    0    0    0  0.73297490581E+01 -0.16958240370E+02  0.19173089388E+02  0.98374551753E+02  0.94702892977E+02 0.  0.
         13    1    3    3    0    0 -0.28506982485E+01 -0.80724591695E+01 -0.38345600611E+02  0.39289786558E+02  0.10566000000E+00 0.  1.
         22    1    1    0    0    0 -0.73297490581E+01  0.16958240370E+02 -0.19173089388E+02  0.26625448247E+02  0.00000000000E+00 0. -1.
</event>
<event>
 5    1  0.1324057E-009  0.9118800E+02  0.7818608E-02  0.1130116E+00
         25   -1    0    0    0    0  0.00000000000E+00  0.00000000000E+00  0.99999998245E-14  0.12500000000E+03  0.12500000000E+03 0.  0.
        -13    1    3    3    0    0 -0.42514220635E+01 -0.19630884449E+02 -0.43623544205E+02  0.48025732548E+02  0.10566000000E+00 0.  1.
         23    2    1    0    0    0  0.84039650238E+01 -0.27972015979E+02  0.16271360168E+01  0.95747515018E+02  0.91169505617E+02 0.  0.
         13    1    3    3    0    0  0.12655387087E+02 -0.83411315298E+01  0.45250680221E+02  0.47721782469E+02  0.10566000000E+00 0. -1.
         22    1    1    0    0    0 -0.84039650238E+01  0.27972015979E+02 -0.16271360168E+01  0.29252484982E+02  0.00000000000E+00 0. -1.
</event>
<event>
 5    1  0.1324057E-009  0.9118800E+02  0.7818608E-02  0.1130116E+00
         25   -1    0    0    0    0  0.00000000000E+00  0.00000000000E+00  0.99999998245E-14  0.12500000000E+03  0.12500000000E+03 0.  0.
        -13    1    3    3    0    0  0.20050285201E+02  0.10827579934E+02 -0.13506579990E+02  0.26489418471E+02  0.10566000000E+00 0. -1.
         23    2    1    0    0    0 -0.19020462033E+02 -0.31752796633E+02 -0.16756034169E+02  0.84370174120E+02  0.73942839613E+02 0.  0.
         13    1    3    3    0    0 -0.39070747234E+02 -0.42580376567E+02 -0.32494541789E+01  0.57880755649E+02  0.10566000000E+00 0.  1.
         22    1    1    0    0    0  0.19020462033E+02  0.31752796633E+02  0.16756034169E+02  0.40629825880E+02  0.00000000000E+00 0.  1.
</event>
<event>
 5    1  0.1324057E-009  0.9118800E+02  0.7818608E-02  0.1130116E+00
         25   -1    0    0    0    0  0.00000000000E+00  0.00000000000E+00  0.99999998245E-14  0.12500000000E+03  0.12500000000E+03 0.  0.
        -13    1    3    3    0    0  0.12308605081E+02 -0.13529870727E+02 -0.36706030419E+02  0.41011010644E+02  0.10566000000E+00 0. -1.
         23    2    1    0    0    0  0.25115248648E+02  0.11131219238E+01  0.14632568052E+02  0.95911741151E+02  0.91394394181E+02 0.  0.
         13    1    3    3    0    0  0.12806643567E+02  0.14642992651E+02  0.51338598471E+02  0.54900730507E+02  0.10566000000E+00 0.  1.
         22    1    1    0    0    0 -0.25115248648E+02 -0.11131219238E+01 -0.14632568052E+02  0.29088258849E+02  0.00000000000E+00 0.  1.
</event>
<event>
 5    1  0.1324057E-009  0.9118800E+02  0.7818608E-02  0.1130116E+00
         25   -1    0    0    0    0  0.00000000000E+00  0.00000000000E+00  0.99999998245E-14  0.12500000000E+03  0.12500000000E+03 0.  0.
        -13    1    3    3    0    0 -0.24131364825E+02 -0.12306786363E+02  0.35264162980E+02  0.44467427558E+02  0.10566000000E+00 0. -1.
         23    2    1    0    0    0 -0.24788297043E+02  0.13654237781E+02 -0.85819843799E+01  0.95427236593E+02  0.90729318019E+02 0.  0.
         13    1    3    3    0    0 -0.65693221771E+00  0.25961024143E+02 -0.43846147360E+02  0.50959809035E+02  0.10566000000E+00 0.  1.
         22    1    1    0    0    0  0.24788297043E+02 -0.13654237781E+02  0.85819843799E+01  0.29572763407E+02  0.00000000000E+00 0.  1.
</event>
<event>
 5    1  0.1324057E-009  0.9118800E+02  0.7818608E-02  0.1130116E+00
         25   -1    0    0    0    0  0.00000000000E+00  0.00000000000E+00  0.99999998245E-14  0.12500000000E+03  0.12500000000E+03 0.  0.
        -13    1    3    3    0    0 -0.85105445186E+01  0.47671639444E+02 -0.29585248404E+01  0.48515756291E+02  0.10566000000E+00 0. -1.
         23    2    1    0    0    0 -0.21661227701E+02  0.36059684278E+01 -0.17687496154E+02  0.96803203834E+02  0.92605620556E+02 0.  0.
         13    1    3    3    0    0 -0.13150683182E+02 -0.44065671016E+02 -0.14728971314E+02  0.48287447543E+02  0.10566000000E+00 0.  1.
         22    1    1    0    0    0  0.21661227701E+02 -0.36059684278E+01  0.17687496154E+02  0.28196796166E+02  0.00000000000E+00 0.  1.
</event>
<event>
 5    1  0.1324057E-009  0.9118800E+02  0.7818608E-02  0.1130116E+00
         25   -1    0    0    0    0  0.00000000000E+00  0.00000000000E+00  0.99999998245E-14  0.12500000000E+03  0.12500000000E+03 0.  0.
        -13    1    3    3    0    0 -0.11742520781E+02  0.22955959967E+02 -0.26514396436E+02  0.36984960115E+02  0.10566000000E+00 0. -1.
         23    2    1    0    0    0 -0.13210363591E+02 -0.13222195953E+02  0.21106207724E+02  0.96807586543E+02  0.92611536192E+02 0.  0.
         13    1    3    3    0    0 -0.14678428105E+01 -0.36178155920E+02  0.47620604159E+02  0.59822626429E+02  0.10566000000E+00 0.  1.
         22    1    1    0    0    0  0.13210363591E+02  0.13222195953E+02 -0.21106207724E+02  0.28192413457E+02  0.00000000000E+00 0.  1.
</event>
<event>
 5    1  0.1324057E-009  0.9118800E+02  0.7818608E-02  0.1130116E+00
         25   -1    0    0    0    0  0.00000000000E+00  0.00000000000E+00  0.99999998245E-14  0.12500000000E+03  0.12500000000E+03 0.  0.
        -13    1    3    3    0    0  0.30758713195E+02  0.80572129802E+01 -0.48015404051E+02  0.57589124917E+02  0.10566000000E+00 0.  1.
         23    2    1    0    0    0  0.55725299638E+01  0.18498656898E+02 -0.25855289219E+02  0.92723857451E+02  0.86925050260E+02 0.  0.
         13    1    3    3    0    0 -0.25186183231E+02  0.10441443918E+02  0.22160114832E+02  0.35134732534E+02  0.10566000000E+00 0. -1.
         22    1    1    0    0    0 -0.55725299638E+01 -0.18498656898E+02  0.25855289219E+02  0.32276142549E+02  0.00000000000E+00 0.  1.
</event>
<event>
 5    1  0.1324057E-009  0.9118800E+02  0.7818608E-02  0.1130116E+00
         25   -1    0    0    0    0  0.00000000000E+00  0.00000000000E+00  0.99999998245E-14  0.12500000000E+03  0.12500000000E+03 0.  0.
        -13    1    3    3    0    0  0.36968504892E+02 -0.27249272369E+02 -0.29051220403E+02  0.54343148322E+02  0.10566000000E+00 0. -1.
         23    2    1    0    0    0 -0.28855406799E+01 -0.23279607989E+02 -0.16519221242E+02  0.96309388930E+02  0.91936647929E+02 0.  0.
         13    1    3    3    0    0 -0.39854045572E+02  0.39696643801E+01  0.12531999161E+02  0.41966240608E+02  0.10566000000E+00 0.  1.
         22    1    1    0    0    0  0.28855406799E+01  0.23279607989E+02  0.16519221242E+02  0.28690611070E+02  0.00000000000E+00 0.  1.
</event>
<event>
 5    1  0.1324057E-009  0.9118800E+02  0.7818608E-02  0.1130116E+00
         25   -1    0    0    0    0  0.00000000000E+00  0.00000000000E+00  0.99999998245E-14  0.12500000000E+03  0.12500000000E+03 0.  0.
        -13    1    3    3    0    0  0.38178941916E+02  0.31198282063E+02  0.36603066895E+02  0.61406514961E+02  0.10566000000E+00 0.  1.
         23    2    1    0    0    0  0.21304808415E+02  0.70729623683E+01  0.17931338649E+02  0.96269274913E+02  0.91882091444E+02 0.  0.
         13    1    3    3    0    0 -0.16874133501E+02 -0.24125319695E+02 -0.18671728245E+02  0.34862759952E+02  0.10566000000E+00 0. -1.
         22    1    1    0    0    0 -0.21304808415E+02 -0.70729623683E+01 -0.17931338649E+02  0.28730725087E+02  0.00000000000E+00 0.  1.
</event>
<event>
 5    1  0.1324057E-009  0.9118800E+02  0.7818608E-02  0.1130116E+00
         25   -1    0    0    0    0  0.00000000000E+00  0.00000000000E+00  0.99999998245E-14  0.12500000000E+03  0.12500000000E+03 0.  0.
        -13    1    3    3    0    0 -0.49829857176E+02  0.41452531839E+00 -0.13689604514E+02  0.51677876632E+02  0.10566000000E+00 0. -1.
         23    2    1    0    0    0 -0.93377015664E+01  0.10830257970E+02 -0.26055232572E+02  0.95278588482E+02  0.90524290224E+02 0.  0.
         13    1    3    3    0    0  0.40492155609E+02  0.10415732651E+02 -0.12365628058E+02  0.43600711850E+02  0.10566000000E+00 0.  1.
         22    1    1    0    0    0  0.93377015664E+01 -0.10830257970E+02  0.26055232572E+02  0.29721411518E+02  0.00000000000E+00 0. -1.
</event>
<event>
 5    1  0.1324057E-009  0.9118800E+02  0.7818608E-02  0.1130116E+00
         25   -1    0    0    0    0  0.00000000000E+00  0.00000000000E+00  0.99999998245E-14  0.12500000000E+03  0.12500000000E+03 0.  0.
        -13    1    3    3    0    0  0.36894560310E+02 -0.33082602472E+02 -0.32869387712E+02  0.59464905443E+02  0.10566000000E+00 0. -1.
         23    2    1    0    0    0  0.25895144025E+02 -0.71753607840E+01 -0.81616131820E+01  0.96916976371E+02  0.92759064747E+02 0.  0.
         13    1    3    3    0    0 -0.10999416285E+02  0.25907241688E+02  0.24707774530E+02  0.37452070927E+02  0.10566000000E+00 0.  1.
         22    1    1    0    0    0 -0.25895144025E+02  0.71753607840E+01  0.81616131820E+01  0.28083023629E+02  0.00000000000E+00 0. -1.
</event>
<event>
 5    1  0.1324057E-009  0.9118800E+02  0.7818608E-02  0.1130116E+00
         25   -1    0    0    0    0  0.00000000000E+00  0.00000000000E+00  0.99999998245E-14  0.12500000000E+03  0.12500000000E+03 0.  0.
        -13    1    3    3    0    0 -0.15653161774E+02  0.20702902268E+02  0.23810380349E+02  0.35221825794E+02  0.10566000000E+00 0.  1.
         23    2    1    0    0    0 -0.42693825394E+01 -0.15541887234E+02 -0.23877074403E+02  0.96192143987E+02  0.91777099522E+02 0.  0.
         13    1    3    3    0    0  0.11383779235E+02 -0.36244789502E+02 -0.47687454752E+02  0.60970318192E+02  0.10566000000E+00 0. -1.
         22    1    1    0    0    0  0.42693825394E+01  0.15541887234E+02  0.23877074403E+02  0.28807856013E+02  0.00000000000E+00 0. -1.
</event>
<event>
 5    1  0.1324057E-009  0.9118800E+02  0.7818608E-02  0.1130116E+00
         25   -1    0    0    0    0  0.00000000000E+00  0.00000000000E+00  0.99999998245E-14  0.12500000000E+03  0.12500000000E+03 0.  0.
        -13    1    3    3    0    0 -0.19784553293E+02  0.18476270592E+01 -0.86971003682E+01  0.21690850459E+02  0.10566000000E+00 0.  1.
         23    2    1    0    0    0  0.29700387679E+02  0.31272964996E+02 -0.14364269949E+02  0.79541847605E+02  0.65272213854E+02 0.  0.
         13    1    3    3    0    0  0.49484940973E+02  0.29425337937E+02 -0.56671695804E+01  0.57850997147E+02  0.10566000000E+00 0. -1.
         22    1    1    0    0    0 -0.29700387679E+02 -0.31272964996E+02  0.14364269949E+02  0.45458152395E+02  0.00000000000E+00 0. -1.
</event>
<event>
 5    1  0.1324057E-009  0.9118800E+02  0.7818608E-02  0.1130116E+00
         25   -1    0    0    0    0  0.00000000000E+00  0.00000000000E+00  0.99999998245E-14  0.12500000000E+03  0.12500000000E+03 0.  0.
        -13    1    3    3    0    0 -0.20375299246E+02 -0.37604465684E+02  0.29847224314E+01  0.42873866058E+02  0.10566000000E+00 0. -1.
         23    2    1    0    0    0  0.14194194678E+02 -0.87037296248E+01 -0.24294759231E+02  0.95547234459E+02  0.90894491663E+02 0.  0.
         13    1    3    3    0    0  0.34569493924E+02  0.28900736059E+02 -0.27279481662E+02  0.52673368401E+02  0.10566000000E+00 0.  1.
         22    1    1    0    0    0 -0.14194194678E+02  0.87037296248E+01  0.24294759231E+02  0.29452765541E+02  0.00000000000E+00 0.  1.
</event>
<event>
 5    1  0.1324057E-009  0.9118800E+02  0.7818608E-02  0.1130116E+00
         25   -1    0    0    0    0  0.00000000000E+00  0.00000000000E+00  0.99999998245E-14  0.12500000000E+03  0.12500000000E+03 0.  0.
        -13    1    3    3    0    0 -0.12191156783E+02 -0.42177122897E+02 -0.76877706524E+01  0.44571818240E+02  0.10566000000E+00 0.  1.
         23    2    1    0    0    0 -0.25384670882E+02  0.76834488416E+01 -0.11072542699E+02  0.96259469321E+02  0.91868750565E+02 0.  0.
         13    1    3    3    0    0 -0.13193514099E+02  0.49860571739E+02 -0.33847720462E+01  0.51687651081E+02  0.10566000000E+00 0. -1.
         22    1    1    0    0    0  0.25384670882E+02 -0.76834488416E+01  0.11072542699E+02  0.28740530679E+02  0.00000000000E+00 0. -1.
</event>
<event>
 5    1  0.1324057E-009  0.9118800E+02  0.7818608E-02  0.1130116E+00
         25   -1    0    0    0    0  0.00000000000E+00  0.00000000000E+00  0.99999998245E-14  0.12500000000E+03  0.12500000000E+03 0.  0.
        -13    1    3    3    0    0  0.24723910564E+02 -0.37861690287E+02  0.10674389957E+02  0.46462168588E+02  0.10566000000E+00 0.  1.
         23    2    1    0    0    0  0.18892264474E+02 -0.26299743596E+01 -0.22706171204E+02  0.95345242660E+02  0.90616282561E+02 0.  0.
         13    1    3    3    0    0 -0.58316460893E+01  0.35231715927E+02 -0.33380561161E+02  0.48883074072E+02  0.10566000000E+00 0. -1.
         22    1    1    0    0    0 -0.18892264474E+02  0.26299743596E+01  0.22706171204E+02  0.29654757340E+02  0.00000000000E+00 0.  1.
</event>
<event>
 5    1  0.1324057E-009  0.9118800E+02  0.7818608E-02  0.1130116E+00
         25   -1    0    0    0    0  0.00000000000E+00  0.00000000000E+00  0.99999998245E-14  0.12500000000E+03  0.12500000000E+03 0.  0.
        -13    1    3    3    0    0 -0.16540480855E+02  0.26677347098E+02 -0.20841060072E+02  0.37677968418E+02  0.10566000000E+00 0.  1.
         23    2    1    0    0    0  0.21019625224E+02  0.51186002401E+01  0.18762391289E+02  0.96363449233E+02  0.92010120683E+02 0.  0.
         13    1    3    3    0    0  0.37560106079E+02 -0.21558746858E+02  0.39603451361E+02  0.58685480815E+02  0.10566000000E+00 0. -1.
         22    1    1    0    0    0 -0.21019625224E+02 -0.51186002401E+01 -0.18762391289E+02  0.28636550767E+02  0.00000000000E+00 0. -1.
</event>
<event>
 5    1  0.1324057E-009  0.9118800E+02  0.7818608E-02  0.1130116E+00
         25   -1    0    0    0    0  0.00000000000E+00  0.00000000000E+00  0.99999998245E-14  0.12500000000E+03  0.12500000000E+03 0.  0.
        -13    1    3    3    0    0  0.22301287402E+02 -0.43290245920E+02 -0.10289836229E+02  0.49772328711E+02  0.10566000000E+00 0. -1.
         23    2    1    0    0    0 -0.98003444479E+01 -0.41136063664E+02 -0.43570806020E+01  0.82488746944E+02  0.70690782539E+02 0.  0.
         13    1    3    3    0    0 -0.32101631850E+02  0.21541822568E+01  0.59327556265E+01  0.32716418233E+02  0.10566000000E+00 0.  1.
         22    1    1    0    0    0  0.98003444479E+01  0.41136063664E+02  0.43570806020E+01  0.42511253056E+02  0.00000000000E+00 0. -1.
</event>
<event>
 5    1  0.1324057E-009  0.9118800E+02  0.7818608E-02  0.1130116E+00
         25   -1    0    0    0    0  0.00000000000E+00  0.00000000000E+00  0.99999998245E-14  0.12500000000E+03  0.12500000000E+03 0.  0.
        -13    1    3    3    0    0  0.17769482072E+02 -0.40321154582E+02  0.20786386471E+02  0.48719965378E+02  0.10566000000E+00 0.  1.
         23    2    1    0    0    0  0.49382984115E+01  0.65107591065E+01  0.26177848212E+02  0.97576351221E+02  0.93643407697E+02 0.  0.
         13    1    3    3    0    0 -0.12831183660E+02  0.46831913688E+02  0.53914617414E+01  0.48856385842E+02  0.10566000000E+00 0. -1.
         22    1    1    0    0    0 -0.49382984115E+01 -0.65107591065E+01 -0.26177848212E+02  0.27423648779E+02  0.00000000000E+00 0. -1.
</event>
<event>
 5    1  0.1324057E-009  0.9118800E+02  0.7818608E-02  0.1130116E+00
         25   -1    0    0    0    0  0.00000000000E+00  0.00000000000E+00  0.99999998245E-14  0.12500000000E+03  0.12500000000E+03 0.  0.
        -13    1    3    3    0    0 -0.86295314907E+01  0.41940721247E+02  0.12868764582E+02  0.44711398752E+02  0.10566000000E+00 0. -1.
         23    2    1    0    0    0 -0.72939586931E+00 -0.69782460646E+01  0.27691266349E+02  0.96433688224E+02  0.92105494169E+02 0.  0.
         13    1    3    3    0    0  0.79001356214E+01 -0.48918967311E+02  0.14822501767E+02  0.51722289473E+02  0.10566000000E+00 0.  1.
         22    1    1    0    0    0  0.72939586931E+00  0.69782460646E+01 -0.27691266349E+02  0.28566311776E+02  0.00000000000E+00 0. -1.
</event>
<event>
 5    1  0.1324057E-009  0.9118800E+02  0.7818608E-02  0.1130116E+00
         25   -1    0    0    0    0  0.00000000000E+00  0.00000000000E+00  0.99999998245E-14  0.12500000000E+03  0.12500000000E+03 0.  0.
        -13    1    3    3    0    0  0.19974615358E+02  0.44740666223E+02  0.24738083030E+02  0.54888035024E+02  0.10566000000E+00 0. -1.
         23    2    1    0    0    0 -0.99613563557E+01  0.26865592339E+02  0.25103180464E+01  0.96237344196E+02  0.91838641372E+02 0.  0.
         13    1    3    3    0    0 -0.29935971714E+02 -0.17875073884E+02 -0.22227764984E+02  0.41349309172E+02  0.10566000000E+00 0.  1.
         22    1    1    0    0    0  0.99613563557E+01 -0.26865592339E+02 -0.25103180464E+01  0.28762655804E+02  0.00000000000E+00 0. -1.
</event>
<event>
 5    1  0.1324057E-009  0.9118800E+02  0.7818608E-02  0.1130116E+00
         25   -1    0    0    0    0  0.00000000000E+00  0.00000000000E+00  0.99999998245E-14  0.12500000000E+03  0.12500000000E+03 0.  0.
        -13    1    3    3    0    0 -0.43208473863E+01 -0.34168859379E+02 -0.28766583107E+02  0.44874359506E+02  0.10566000000E+00 0.  1.
         23    2    1    0    0    0  0.14868710261E+02  0.13275195967E+02 -0.19936006212E+02  0.96808623367E+02  0.92612935607E+02 0.  0.
         13    1    3    3    0    0  0.19189557647E+02  0.47444055346E+02  0.88305768954E+01  0.51934263860E+02  0.10566000000E+00 0. -1.
         22    1    1    0    0    0 -0.14868710261E+02 -0.13275195967E+02  0.19936006212E+02  0.28191376633E+02  0.00000000000E+00 0.  1.
</event>
<event>
 5    1  0.1324057E-009  0.9118800E+02  0.7818608E-02  0.1130116E+00
         25   -1    0    0    0    0  0.00000000000E+00  0.00000000000E+00  0.99999998245E-14  0.12500000000E+03  0.12500000000E+03 0.  0.
        -13    1    3    3    0    0  0.78047763010E+01 -0.21428946821E+02  0.24846952903E+02  0.33726792429E+02  0.10566000000E+00 0.  1.
         23    2    1    0    0    0 -0.62089012626E+01  0.25324588121E+02 -0.13351449318E+02  0.95705863773E+02  0.91112380845E+02 0.  0.
         13    1    3    3    0    0 -0.14013677564E+02  0.46753534942E+02 -0.38198402221E+02  0.61979071344E+02  0.10566000000E+00 0. -1.
         22    1    1    0    0    0  0.62089012626E+01 -0.25324588121E+02  0.13351449318E+02  0.29294136227E+02  0.00000000000E+00 0. -1.
</event>
<event>
 5    1  0.1324057E-009  0.9118800E+02  0.7818608E-02  0.1130116E+00
         25   -1    0    0    0    0  0.00000000000E+00  0.00000000000E+00  0.99999998245E-14  0.12500000000E+03  0.12500000000E+03 0.  0.
        -13    1    3    3    0    0  0.67079896427E+01  0.10987969730E+02  0.14065365783E+02  0.19067728824E+02  0.10566000000E+00 0. -1.
         23    2    1    0    0    0 -0.19993243403E+02  0.21295002048E+02 -0.37152265418E+02  0.77740104532E+02  0.61725409135E+02 0.  0.
         13    1    3    3    0    0 -0.26701233045E+02  0.10307032317E+02 -0.51217631201E+02  0.58672375708E+02  0.10566000000E+00 0.  1.
         22    1    1    0    0    0  0.19993243403E+02 -0.21295002048E+02  0.37152265418E+02  0.47259895468E+02  0.00000000000E+00 0.  1.
</event>
<event>
 5    1  0.1324057E-009  0.9118800E+02  0.7818608E-02  0.1130116E+00
         25   -1    0    0    0    0  0.00000000000E+00  0.00000000000E+00  0.99999998245E-14  0.12500000000E+03  0.12500000000E+03 0.  0.
        -13    1    3    3    0    0 -0.13926690437E+02  0.16905432684E+01  0.42675976555E+02  0.44922831412E+02  0.10566000000E+00 0. -1.
         23    2    1    0    0    0  0.26705419376E+02  0.18522733110E+01  0.12985209299E+02  0.95247252211E+02  0.90481009348E+02 0.  0.
         13    1    3    3    0    0  0.40632109813E+02  0.16173004266E+00 -0.29690767256E+02  0.50324420799E+02  0.10566000000E+00 0.  1.
         22    1    1    0    0    0 -0.26705419376E+02 -0.18522733110E+01 -0.12985209299E+02  0.29752747789E+02  0.00000000000E+00 0.  1.
</event>
<event>
 5    1  0.1324057E-009  0.9118800E+02  0.7818608E-02  0.1130116E+00
         25   -1    0    0    0    0  0.00000000000E+00  0.00000000000E+00  0.99999998245E-14  0.12500000000E+03  0.12500000000E+03 0.  0.
        -13    1    3    3    0    0  0.54162202275E+01  0.22852815228E+02 -0.27875761075E+02  0.36450731473E+02  0.10566000000E+00 0.  1.
         23    2    1    0    0    0 -0.30584356054E+01 -0.28702004201E+02  0.94597045141E+00  0.96120008074E+02  0.91678798086E+02 0.  0.
         13    1    3    3    0    0 -0.84746558330E+01 -0.51554819429E+02  0.28821731527E+02  0.59669276601E+02  0.10566000000E+00 0. -1.
         22    1    1    0    0    0  0.30584356054E+01  0.28702004201E+02 -0.94597045141E+00  0.28879991926E+02  0.00000000000E+00 0. -1.
</event>
<event>
 5    1  0.1324057E-009  0.9118800E+02  0.7818608E-02  0.1130116E+00
         25   -1    0    0    0    0  0.00000000000E+00  0.00000000000E+00  0.99999998245E-14  0.12500000000E+03  0.12500000000E+03 0.  0.
        -13    1    3    3    0    0  0.25733049312E+02  0.28581570367E+01 -0.22460454677E+02  0.34275969379E+02  0.10566000000E+00 0. -1.
         23    2    1    0    0    0 -0.53002437642E+01 -0.61915091826E+01  0.28905587042E+02  0.94967345569E+02  0.90093486958E+02 0.  0.
         13    1    3    3    0    0 -0.31033293076E+02 -0.90496662193E+01  0.51366041719E+02  0.60691376190E+02  0.10566000000E+00 0.  1.
         22    1    1    0    0    0  0.53002437642E+01  0.61915091826E+01 -0.28905587042E+02  0.30032654431E+02  0.00000000000E+00 0.  1.
</event>
<event>
 5    1  0.1324057E-009  0.9118800E+02  0.7818608E-02  0.1130116E+00
         25   -1    0    0    0    0  0.00000000000E+00  0.00000000000E+00  0.99999998245E-14  0.12500000000E+03  0.12500000000E+03 0.  0.
        -13    1    3    3    0    0  0.45924941621E+02 -0.22417387798E+01  0.37249168330E+02  0.59174634439E+02  0.10566000000E+00 0. -1.
         23    2    1    0    0    0  0.22870928227E+02  0.12357683190E+02  0.11939098600E+02  0.96393466355E+02  0.92050891298E+02 0.  0.
         13    1    3    3    0    0 -0.23054013394E+02  0.14599421970E+02 -0.25310069730E+02  0.37218831916E+02  0.10566000000E+00 0.  1.
         22    1    1    0    0    0 -0.22870928227E+02 -0.12357683190E+02 -0.11939098600E+02  0.28606533645E+02  0.00000000000E+00 0. -1.
</event>
<event>
 5    1  0.1324057E-009  0.9118800E+02  0.7818608E-02  0.1130116E+00
         25   -1    0    0    0    0  0.00000000000E+00  0.00000000000E+00  0.99999998245E-14  0.12500000000E+03  0.12500000000E+03 0.  0.
        -13    1    3    3    0    0 -0.40813345575E+01 -0.58192705328E+01  0.41106464959E+02  0.41716589347E+02  0.10566000000E+00 0. -1.
         23    2    1    0    0    0  0.13920078988E+02  0.23049415683E+02 -0.35328100156E+01  0.97842590165E+02  0.93998125200E+02 0.  0.
         13    1    3    3    0    0  0.18001413546E+02  0.28868686215E+02 -0.44639274975E+02  0.56126000817E+02  0.10566000000E+00 0.  1.
         22    1    1    0    0    0 -0.13920078988E+02 -0.23049415683E+02  0.35328100156E+01  0.27157409835E+02  0.00000000000E+00 0.  1.
</event>
<event>
 5    1  0.1324057E-009  0.9118800E+02  0.7818608E-02  0.1130116E+00
         25   -1    0    0    0    0  0.00000000000E+00  0.00000000000E+00  0.99999998245E-14  0.12500000000E+03  0.12500000000E+03 0.  0.
        -13    1    3    3    0    0 -0.31848066237E+02 -0.46849909156E+02 -0.84757987304E+01  0.57280569472E+02  0.10566000000E+00 0. -1.
         23    2    1    0    0    0  0.54280100159E+00 -0.30698710858E+02 -0.76676686707E+00  0.94286917890E+02  0.89144430406E+02 0.  0.
         13    1    3    3    0    0  0.32390867238E+02  0.16151198298E+02  0.77090318633E+01  0.37006348418E+02  0.10566000000E+00 0.  1.
         22    1    1    0    0    0 -0.54280100159E+00  0.30698710858E+02  0.76676686707E+00  0.30713082110E+02  0.00000000000E+00 0. -1.
</event>
<event>
 5    1  0.1324057E-009  0.9118800E+02  0.7818608E-02  0.1130116E+00
         25   -1    0    0    0    0  0.00000000000E+00  0.00000000000E+00  0.99999998245E-14  0.12500000000E+03  0.12500000000E+03 0.  0.
        -13    1    3    3    0    0 -0.37027498608E+02  0.38766786406E+02 -0.23802850651E+02  0.58655658249E+02  0.10566000000E+00 0.  1.
         23    2    1    0    0    0 -0.86842844219E+01  0.30199775846E+02 -0.66314988537E+01  0.92884271235E+02  0.87155423289E+02 0.  0.
         13    1    3    3    0    0  0.28343214186E+02 -0.85670105602E+01  0.17171351798E+02  0.34228612986E+02  0.10566000000E+00 0. -1.
         22    1    1    0    0    0  0.86842844219E+01 -0.30199775846E+02  0.66314988537E+01  0.32115728765E+02  0.00000000000E+00 0.  1.
</event>
<event>
 5    1  0.1324057E-009  0.9118800E+02  0.7818608E-02  0.1130116E+00
         25   -1    0    0    0    0  0.00000000000E+00  0.00000000000E+00  0.99999998245E-14  0.12500000000E+03  0.12500000000E+03 0.  0.
        -13    1    3    3    0    0  0.46798992083E+02  0.18057684180E+02  0.10058562961E+02  0.51160643768E+02  0.10566000000E+00 0.  1.
         23    2    1    0    0    0  0.22295005067E+02 -0.18455401745E+02  0.68937552265E+01  0.95247807381E+02  0.90481776316E+02 0.  0.
         13    1    3    3    0    0 -0.24503987016E+02 -0.36513085925E+02 -0.31648077348E+01  0.44087163613E+02  0.10566000000E+00 0. -1.
         22    1    1    0    0    0 -0.22295005067E+02  0.18455401745E+02 -0.68937552265E+01  0.29752192619E+02  0.00000000000E+00 0.  1.
</event>
<event>
 5    1  0.1324057E-009  0.9118800E+02  0.7818608E-02  0.1130116E+00
         25   -1    0    0    0    0  0.00000000000E+00  0.00000000000E+00  0.99999998245E-14  0.12500000000E+03  0.12500000000E+03 0.  0.
        -13    1    3    3    0    0  0.27803218351E+02 -0.46885906617E+01  0.45096866738E+02  0.53185904023E+02  0.10566000000E+00 0.  1.
         23    2    1    0    0    0  0.12576906569E+02 -0.24210597842E+02  0.10416804330E+02  0.95796550903E+02  0.91236712598E+02 0.  0.
         13    1    3    3    0    0 -0.15226311782E+02 -0.19522007180E+02 -0.34680062409E+02  0.42610646880E+02  0.10566000000E+00 0. -1.
         22    1    1    0    0    0 -0.12576906569E+02  0.24210597842E+02 -0.10416804330E+02  0.29203449097E+02  0.00000000000E+00 0.  1.
</event>
<event>
 5    1  0.1324057E-009  0.9118800E+02  0.7818608E-02  0.1130116E+00
         25   -1    0    0    0    0  0.00000000000E+00  0.00000000000E+00  0.99999998245E-14  0.12500000000E+03  0.12500000000E+03 0.  0.
        -13    1    3    3    0    0  0.29675446059E+02  0.30979471813E+02 -0.22875840713E+02  0.48617641088E+02  0.10566000000E+00 0.  1.
         23    2    1    0    0    0  0.12021601535E+02  0.18184615902E+02  0.19163873034E+02  0.95974955837E+02  0.91480811973E+02 0.  0.
         13    1    3    3    0    0 -0.17653844523E+02 -0.12794855911E+02  0.42039713748E+02  0.47357314749E+02  0.10566000000E+00 0. -1.
         22    1    1    0    0    0 -0.12021601535E+02 -0.18184615902E+02 -0.19163873034E+02  0.29025044163E+02  0.00000000000E+00 0. -1.
</event>
<event>
 5    1  0.1324057E-009  0.9118800E+02  0.7818608E-02  0.1130116E+00
         25   -1    0    0    0    0  0.00000000000E+00  0.00000000000E+00  0.99999998245E-14  0.12500000000E+03  0.12500000000E+03 0.  0.
        -13    1    3    3    0    0 -0.84408369033E+01 -0.57958440219E+01 -0.32155916598E+02  0.33746906108E+02  0.10566000000E+00 0.  1.
         23    2    1    0    0    0  0.13613472985E+02 -0.23330376368E+02  0.18880244251E+02  0.92044018279E+02  0.85941867386E+02 0.  0.
         13    1    3    3    0    0  0.22054309888E+02 -0.17534532346E+02  0.51036160849E+02  0.58297112171E+02  0.10566000000E+00 0. -1.
         22    1    1    0    0    0 -0.13613472985E+02  0.23330376368E+02 -0.18880244251E+02  0.32955981721E+02  0.00000000000E+00 0. -1.
</event>
<event>
 5    1  0.1324057E-009  0.9118800E+02  0.7818608E-02  0.1130116E+00
         25   -1    0    0    0    0  0.00000000000E+00  0.00000000000E+00  0.99999998245E-14  0.12500000000E+03  0.12500000000E+03 0.  0.
        -13    1    3    3    0    0  0.24613736050E+02  0.28242323775E+02 -0.46689378135E+02  0.59861290073E+02  0.10566000000E+00 0. -1.
         23    2    1    0    0    0  0.13791795728E+02  0.22519650478E+02 -0.13283211017E+02  0.95440027369E+02  0.90746938473E+02 0.  0.
         13    1    3    3    0    0 -0.10821940321E+02 -0.57226732975E+01  0.33406167118E+02  0.35578737295E+02  0.10566000000E+00 0.  1.
         22    1    1    0    0    0 -0.13791795728E+02 -0.22519650478E+02  0.13283211017E+02  0.29559972631E+02  0.00000000000E+00 0. -1.
</event>
<event>
 5    1  0.1324057E-009  0.9118800E+02  0.7818608E-02  0.1130116E+00
         25   -1    0    0    0    0  0.00000000000E+00  0.00000000000E+00  0.99999998245E-14  0.12500000000E+03  0.12500000000E+03 0.  0.
        -13    1    3    3    0    0 -0.20414996980E+02 -0.14017508608E+02  0.20814471426E+02  0.32349900062E+02  0.10566000000E+00 0. -1.
         23    2    1    0    0    0  0.16928839165E+02  0.15004560607E+02 -0.19987811680E+02  0.94813329925E+02  0.89879544287E+02 0.  0.
         13    1    3    3    0    0  0.37343836144E+02  0.29022069215E+02 -0.40802283106E+02  0.62463429863E+02  0.10566000000E+00 0.  1.
         22    1    1    0    0    0 -0.16928839165E+02 -0.15004560607E+02  0.19987811680E+02  0.30186670075E+02  0.00000000000E+00 0.  1.
</event>
<event>
 5    1  0.1324057E-009  0.9118800E+02  0.7818608E-02  0.1130116E+00
         25   -1    0    0    0    0  0.00000000000E+00  0.00000000000E+00  0.99999998245E-14  0.12500000000E+03  0.12500000000E+03 0.  0.
        -13    1    3    3    0    0 -0.40672436319E+02 -0.28904537487E+02  0.65148549102E+01  0.50320710071E+02  0.10566000000E+00 0. -1.
         23    2    1    0    0    0 -0.46626246467E+01 -0.36396317626E+02  0.91070818278E+01  0.87192977574E+02  0.78569996776E+02 0.  0.
         13    1    3    3    0    0  0.36009811673E+02 -0.74917801392E+01  0.25922269176E+01  0.36872267503E+02  0.10566000000E+00 0.  1.
         22    1    1    0    0    0  0.46626246467E+01  0.36396317626E+02 -0.91070818278E+01  0.37807022426E+02  0.00000000000E+00 0.  1.
</event>
<event>
 5    1  0.1324057E-009  0.9118800E+02  0.7818608E-02  0.1130116E+00
         25   -1    0    0    0    0  0.00000000000E+00  0.00000000000E+00  0.99999998245E-14  0.12500000000E+03  0.12500000000E+03 0.  0.
        -13    1    3    3    0    0  0.46321178917E+02  0.81572843022E+01 -0.87011146163E+01  0.47832138391E+02  0.10566000000E+00 0. -1.
         23    2    1    0    0    0  0.12680393830E+02 -0.24956171162E+02 -0.10582425086E+02  0.95073580444E+02  0.90240761915E+02 0.  0.
         13    1    3    3    0    0 -0.33640785087E+02 -0.33113455464E+02 -0.18813104693E+01  0.47241442053E+02  0.10566000000E+00 0.  1.
         22    1    1    0    0    0 -0.12680393830E+02  0.24956171162E+02  0.10582425086E+02  0.29926419556E+02  0.00000000000E+00 0.  1.
</event>
<event>
 5    1  0.1324057E-009  0.9118800E+02  0.7818608E-02  0.1130116E+00
         25   -1    0    0    0    0  0.00000000000E+00  0.00000000000E+00  0.99999998245E-14  0.12500000000E+03  0.12500000000E+03 0.  0.
        -13    1    3    3    0    0 -0.79287955540E+01 -0.85092576654E+01 -0.45942813478E+02  0.47392262441E+02  0.10566000000E+00 0. -1.
         23    2    1    0    0    0 -0.20615492614E+02  0.58680845695E+01  0.59837692435E+01  0.10274604650E+03  0.10030708661E+03 0.  0.
         13    1    3    3    0    0 -0.12686697060E+02  0.14377342235E+02  0.51926582721E+02  0.55353784055E+02  0.10566000000E+00 0.  1.
         22    1    1    0    0    0  0.20615492614E+02 -0.58680845695E+01 -0.59837692435E+01  0.22253953504E+02  0.00000000000E+00 0.  1.
</event>
<event>
 5    1  0.1324057E-009  0.9118800E+02  0.7818608E-02  0.1130116E+00
         25   -1    0    0    0    0  0.00000000000E+00  0.00000000000E+00  0.99999998245E-14  0.12500000000E+03  0.12500000000E+03 0.  0.
        -13    1    3    3    0    0 -0.52637061575E+02  0.27095052437E+02  0.59304778272E+01  0.59497763396E+02  0.10566000000E+00 0.  1.
         23    2    1    0    0    0 -0.17040828222E+02  0.22397408510E+02  0.87891151434E+01  0.95516406606E+02  0.90852086665E+02 0.  0.
         13    1    3    3    0    0  0.35596233353E+02 -0.46976439273E+01  0.28586373162E+01  0.36018643210E+02  0.10566000000E+00 0. -1.
         22    1    1    0    0    0  0.17040828222E+02 -0.22397408510E+02 -0.87891151434E+01  0.29483593394E+02  0.00000000000E+00 0.  1.
</event>
<event>
 5    1  0.1324057E-009  0.9118800E+02  0.7818608E-02  0.1130116E+00
         25   -1    0    0    0    0  0.00000000000E+00  0.00000000000E+00  0.99999998245E-14  0.12500000000E+03  0.12500000000E+03 0.  0.
        -13    1    3    3    0    0 -0.40451742819E+02 -0.85960373238E+01  0.45954840114E+02  0.61823085079E+02  0.10566000000E+00 0.  1.
         23    2    1    0    0    0 -0.20344889393E+02 -0.10842539515E+02  0.22719651116E+02  0.92632458630E+02  0.86793517370E+02 0.  0.
         13    1    3    3    0    0  0.20106853426E+02 -0.22465021908E+01 -0.23235188998E+02  0.30809373551E+02  0.10566000000E+00 0. -1.
         22    1    1    0    0    0  0.20344889393E+02  0.10842539515E+02 -0.22719651116E+02  0.32367541370E+02  0.00000000000E+00 0.  1.
</event>
<event>
 5    1  0.1324057E-009  0.9118800E+02  0.7818608E-02  0.1130116E+00
         25   -1    0    0    0    0  0.00000000000E+00  0.00000000000E+00  0.99999998245E-14  0.12500000000E+03  0.12500000000E+03 0.  0.
        -13    1    3    3    0    0 -0.35072796730E+02  0.38175156284E+02 -0.13692333996E+02  0.53618418497E+02  0.10566000000E+00 0. -1.
         23    2    1    0    0    0 -0.19643577494E+02  0.12106063691E+02  0.16689836295E+02  0.96522332427E+02  0.92225718250E+02 0.  0.
         13    1    3    3    0    0  0.15429219236E+02 -0.26069092593E+02  0.30382170291E+02  0.42903913930E+02  0.10566000000E+00 0.  1.
         22    1    1    0    0    0  0.19643577494E+02 -0.12106063691E+02 -0.16689836295E+02  0.28477667573E+02  0.00000000000E+00 0. -1.
</event>
<event>
 5    1  0.1324057E-009  0.9118800E+02  0.7818608E-02  0.1130116E+00
         25   -1    0    0    0    0  0.00000000000E+00  0.00000000000E+00  0.99999998245E-14  0.12500000000E+03  0.12500000000E+03 0.  0.
        -13    1    3    3    0    0 -0.18361609078E+01  0.37476133910E+02 -0.11386576498E+02  0.39210934547E+02  0.10566000000E+00 0.  1.
         23    2    1    0    0    0 -0.25730032624E+02 -0.11569279256E+02  0.53690963407E+01  0.96282235518E+02  0.91899721868E+02 0.  0.
         13    1    3    3    0    0 -0.23893871717E+02 -0.49045413165E+02  0.16755672838E+02  0.57071300970E+02  0.10566000000E+00 0. -1.
         22    1    1    0    0    0  0.25730032624E+02  0.11569279256E+02 -0.53690963407E+01  0.28717764482E+02  0.00000000000E+00 0. -1.
</event>
<event>
 5    1  0.1324057E-009  0.9118800E+02  0.7818608E-02  0.1130116E+00
         25   -1    0    0    0    0  0.00000000000E+00  0.00000000000E+00  0.99999998245E-14  0.12500000000E+03  0.12500000000E+03 0.  0.
        -13    1    3    3    0    0  0.14077910574E+02  0.20402922465E+02  0.24556483292E+02  0.34892676122E+02  0.10566000000E+00 0.  1.
         23    2    1    0    0    0  0.42567914537E+01 -0.26868261105E+02 -0.11816346798E+02  0.95341109597E+02  0.90610581056E+02 0.  0.
         13    1    3    3    0    0 -0.98211191202E+01 -0.47271183570E+02 -0.36372830090E+02  0.60448433475E+02  0.10566000000E+00 0. -1.
         22    1    1    0    0    0 -0.42567914537E+01  0.26868261105E+02  0.11816346798E+02  0.29658890403E+02  0.00000000000E+00 0. -1.
</event>
<event>
 5    1  0.1324057E-009  0.9118800E+02  0.7818608E-02  0.1130116E+00
         25   -1    0    0    0    0  0.00000000000E+00  0.00000000000E+00  0.99999998245E-14  0.12500000000E+03  0.12500000000E+03 0.  0.
        -13    1    3    3    0    0  0.20772092919E+02 -0.30609533738E+02 -0.16911803083E+02  0.40674852765E+02  0.10566000000E+00 0. -1.
         23    2    1    0    0    0 -0.14164510395E+02  0.10917190488E+02 -0.23638958230E+02  0.95358496174E+02  0.90634563184E+02 0.  0.
         13    1    3    3    0    0 -0.34936603314E+02  0.41526724226E+02 -0.67271551461E+01  0.54683643409E+02  0.10566000000E+00 0.  1.
         22    1    1    0    0    0  0.14164510395E+02 -0.10917190488E+02  0.23638958230E+02  0.29641503826E+02  0.00000000000E+00 0.  1.
</event>
<event>
 5    1  0.1324057E-009  0.9118800E+02  0.7818608E-02  0.1130116E+00
         25   -1    0    0    0    0  0.00000000000E+00  0.00000000000E+00  0.99999998245E-14  0.12500000000E+03  0.12500000000E+03 0.  0.
        -13    1    3    3    0    0  0.26371063513E+02 -0.25532901771E+01  0.40346045203E+02  0.48267658003E+02  0.10566000000E+00 0.  1.
         23    2    1    0    0    0 -0.16894670466E+02 -0.26717150818E+01  0.26053859804E+02  0.93833165668E+02  0.88505883516E+02 0.  0.
         13    1    3    3    0    0 -0.43265733979E+02 -0.11842490475E+00 -0.14292185399E+02  0.45565507665E+02  0.10566000000E+00 0. -1.
         22    1    1    0    0    0  0.16894670466E+02  0.26717150818E+01 -0.26053859804E+02  0.31166834332E+02  0.00000000000E+00 0. -1.
</event>
<event>
 5    1  0.1324057E-009  0.9118800E+02  0.7818608E-02  0.1130116E+00
         25   -1    0    0    0    0  0.00000000000E+00  0.00000000000E+00  0.99999998245E-14  0.12500000000E+03  0.12500000000E+03 0.  0.
        -13    1    3    3    0    0  0.20943000003E+02  0.75078980365E+01 -0.40806353083E+02  0.46477385878E+02  0.10566000000E+00 0.  1.
         23    2    1    0    0    0  0.12268758172E+02 -0.25739529815E+02 -0.50958565215E+01  0.96034268940E+02  0.91561821929E+02 0.  0.
         13    1    3    3    0    0 -0.86742418312E+01 -0.33247427851E+02  0.35710496562E+02  0.49556883062E+02  0.10566000000E+00 0. -1.
         22    1    1    0    0    0 -0.12268758172E+02  0.25739529815E+02  0.50958565215E+01  0.28965731060E+02  0.00000000000E+00 0. -1.
</event>
<event>
 5    1  0.1324057E-009  0.9118800E+02  0.7818608E-02  0.1130116E+00
         25   -1    0    0    0    0  0.00000000000E+00  0.00000000000E+00  0.99999998245E-14  0.12500000000E+03  0.12500000000E+03 0.  0.
        -13    1    3    3    0    0  0.37150390550E+02 -0.15630222334E+02 -0.18869603412E+01  0.40348818466E+02  0.10566000000E+00 0.  1.
         23    2    1    0    0    0 -0.13976250580E+02 -0.16123430018E+02  0.19803439215E+02  0.95888545544E+02  0.91362664070E+02 0.  0.
         13    1    3    3    0    0 -0.51126641129E+02 -0.49320768384E+00  0.21690399556E+02  0.55539727078E+02  0.10566000000E+00 0. -1.
         22    1    1    0    0    0  0.13976250580E+02  0.16123430018E+02 -0.19803439215E+02  0.29111454456E+02  0.00000000000E+00 0. -1.
</event>
<event>
 5    1  0.1324057E-009  0.9118800E+02  0.7818608E-02  0.1130116E+00
         25   -1    0    0    0    0  0.00000000000E+00  0.00000000000E+00  0.99999998245E-14  0.12500000000E+03  0.12500000000E+03 0.  0.
        -13    1    3    3    0    0 -0.92005648587E+00 -0.30066600646E+02  0.19116362260E+02  0.35641176305E+02  0.10566000000E+00 0.  1.
         23    2    1    0    0    0 -0.21791492195E+01  0.28447758893E+02  0.32316557225E+01  0.96286461799E+02  0.91905470184E+02 0.  0.
         13    1    3    3    0    0 -0.12590927336E+01  0.58514359539E+02 -0.15884706537E+02  0.60645285493E+02  0.10566000000E+00 0. -1.
         22    1    1    0    0    0  0.21791492195E+01 -0.28447758893E+02 -0.32316557225E+01  0.28713538201E+02  0.00000000000E+00 0. -1.
</event>
<event>
 5    1  0.1324057E-009  0.9118800E+02  0.7818608E-02  0.1130116E+00
         25   -1    0    0    0    0  0.00000000000E+00  0.00000000000E+00  0.99999998245E-14  0.12500000000E+03  0.12500000000E+03 0.  0.
        -13    1    3    3    0    0 -0.84594213642E+01  0.15019048355E+02 -0.31347250855E+02  0.35774221495E+02  0.10566000000E+00 0.  1.
         23    2    1    0    0    0  0.20372795163E+02 -0.22662742078E+02  0.30442263353E+01  0.94374553469E+02  0.89267230086E+02 0.  0.
         13    1    3    3    0    0  0.28832216527E+02 -0.37681790433E+02  0.34391477191E+02  0.58600331974E+02  0.10566000000E+00 0. -1.
         22    1    1    0    0    0 -0.20372795163E+02  0.22662742078E+02 -0.30442263353E+01  0.30625446531E+02  0.00000000000E+00 0. -1.
</event>
<event>
 5    1  0.1324057E-009  0.9118800E+02  0.7818608E-02  0.1130116E+00
         25   -1    0    0    0    0  0.00000000000E+00  0.00000000000E+00  0.99999998245E-14  0.12500000000E+03  0.12500000000E+03 0.  0.
        -13    1    3    3    0    0  0.29088806768E+02 -0.64681514119E+01 -0.12919226214E+02  0.32479427825E+02  0.10566000000E+00 0.  1.
         23    2    1    0    0    0 -0.20822737580E+02  0.97566654414E+01  0.20077682614E+02  0.94473089577E+02  0.89405102730E+02 0.  0.
         13    1    3    3    0    0 -0.49911544347E+02  0.16224816853E+02  0.32996908828E+02  0.61993661751E+02  0.10566000000E+00 0. -1.
         22    1    1    0    0    0  0.20822737580E+02 -0.97566654414E+01 -0.20077682614E+02  0.30526910423E+02  0.00000000000E+00 0. -1.
</event>
<event>
 5    1  0.1324057E-009  0.9118800E+02  0.7818608E-02  0.1130116E+00
         25   -1    0    0    0    0  0.00000000000E+00  0.00000000000E+00  0.99999998245E-14  0.12500000000E+03  0.12500000000E+03 0.  0.
        -13    1    3    3    0    0  0.24732162047E+02  0.39279471560E+02  0.41171104141E+02  0.62045368125E+02  0.10566000000E+00 0. -1.
         23    2    1    0    0    0  0.67468698828E+01  0.19890599266E+02  0.20926201425E+02  0.95351018593E+02  0.90624249780E+02 0.  0.
         13    1    3    3    0    0 -0.17985292164E+02 -0.19388872294E+02 -0.20244902716E+02  0.33305650468E+02  0.10566000000E+00 0.  1.
         22    1    1    0    0    0 -0.67468698828E+01 -0.19890599266E+02 -0.20926201425E+02  0.29648981407E+02  0.00000000000E+00 0. -1.
</event>
<event>
 5    1  0.1324057E-009  0.9118800E+02  0.7818608E-02  0.1130116E+00
         25   -1    0    0    0    0  0.00000000000E+00  0.00000000000E+00  0.99999998245E-14  0.12500000000E+03  0.12500000000E+03 0.  0.
        -13    1    3    3    0    0 -0.19408292809E+02  0.22436053760E+02  0.19923441906E+02  0.35735319216E+02  0.10566000000E+00 0.  1.
         23    2    1    0    0    0  0.27893562746E+02 -0.92859708865E+01  0.16258319307E+01  0.95556436570E+02  0.90907145717E+02 0.  0.
         13    1    3    3    0    0  0.47301855555E+02 -0.31722024646E+02 -0.18297609975E+02  0.59821117354E+02  0.10566000000E+00 0. -1.
         22    1    1    0    0    0 -0.27893562746E+02  0.92859708865E+01 -0.16258319307E+01  0.29443563430E+02  0.00000000000E+00 0. -1.
</event>
<event>
 5    1  0.1324057E-009  0.9118800E+02  0.7818608E-02  0.1130116E+00
         25   -1    0    0    0    0  0.00000000000E+00  0.00000000000E+00  0.99999998245E-14  0.12500000000E+03  0.12500000000E+03 0.  0.
        -13    1    3    3    0    0  0.19406097203E+02  0.29837138816E+02  0.26311408809E+02  0.44262318725E+02  0.10566000000E+00 0.  1.
         23    2    1    0    0    0 -0.21945497943E+02  0.18118823036E+02 -0.31456303675E+01  0.96367996602E+02  0.92016298287E+02 0.  0.
         13    1    3    3    0    0 -0.41351595146E+02 -0.11718315780E+02 -0.29457039177E+02  0.52105677876E+02  0.10566000000E+00 0. -1.
         22    1    1    0    0    0  0.21945497943E+02 -0.18118823036E+02  0.31456303675E+01  0.28632003398E+02  0.00000000000E+00 0. -1.
</event>
<event>
 5    1  0.1324057E-009  0.9118800E+02  0.7818608E-02  0.1130116E+00
         25   -1    0    0    0    0  0.00000000000E+00  0.00000000000E+00  0.99999998245E-14  0.12500000000E+03  0.12500000000E+03 0.  0.
        -13    1    3    3    0    0  0.20309150228E+02 -0.25524938329E+02 -0.33394110422E+02  0.46681493491E+02  0.10566000000E+00 0.  1.
         23    2    1    0    0    0  0.27160566960E+02 -0.50595646618E+01  0.10379855475E+02  0.95486664170E+02  0.90811155936E+02 0.  0.
         13    1    3    3    0    0  0.68514167322E+01  0.20465373668E+02  0.43773965897E+02  0.48805170679E+02  0.10566000000E+00 0. -1.
         22    1    1    0    0    0 -0.27160566960E+02  0.50595646618E+01 -0.10379855475E+02  0.29513335830E+02  0.00000000000E+00 0.  1.
</event>
<event>
 5    1  0.1324057E-009  0.9118800E+02  0.7818608E-02  0.1130116E+00
         25   -1    0    0    0    0  0.00000000000E+00  0.00000000000E+00  0.99999998245E-14  0.12500000000E+03  0.12500000000E+03 0.  0.
        -13    1    3    3    0    0  0.55410571758E+02  0.28348101206E+02 -0.81781581286E-01  0.62241177341E+02  0.10566000000E+00 0. -1.
         23    2    1    0    0    0  0.27403657440E+02  0.10206617128E+02 -0.21781847321E+01  0.95676290088E+02  0.91071798719E+02 0.  0.
         13    1    3    3    0    0 -0.28006914319E+02 -0.18141484078E+02 -0.20964031508E+01  0.33435112747E+02  0.10566000000E+00 0.  1.
         22    1    1    0    0    0 -0.27403657440E+02 -0.10206617128E+02  0.21781847321E+01  0.29323709912E+02  0.00000000000E+00 0. -1.
</event>
<event>
 5    1  0.1324057E-009  0.9118800E+02  0.7818608E-02  0.1130116E+00
         25   -1    0    0    0    0  0.00000000000E+00  0.00000000000E+00  0.99999998245E-14  0.12500000000E+03  0.12500000000E+03 0.  0.
        -13    1    3    3    0    0 -0.41638198931E+02 -0.93450135375E+01  0.68934970157E+01  0.43227310273E+02  0.10566000000E+00 0.  1.
         23    2    1    0    0    0  0.70733275812E+01 -0.95317013900E+01  0.26675585969E+02  0.95802873750E+02  0.91245374882E+02 0.  0.
         13    1    3    3    0    0  0.48711526513E+02 -0.18668785248E+00  0.19782088954E+02  0.52575563477E+02  0.10566000000E+00 0. -1.
         22    1    1    0    0    0 -0.70733275812E+01  0.95317013900E+01 -0.26675585969E+02  0.29197126250E+02  0.00000000000E+00 0. -1.
</event>
<event>
 5    1  0.1324057E-009  0.9118800E+02  0.7818608E-02  0.1130116E+00
         25   -1    0    0    0    0  0.00000000000E+00  0.00000000000E+00  0.99999998245E-14  0.12500000000E+03  0.12500000000E+03 0.  0.
        -13    1    3    3    0    0  0.19746376584E+02  0.16133261629E+02 -0.37592722772E+02  0.45424943461E+02  0.10566000000E+00 0. -1.
         23    2    1    0    0    0 -0.10137508985E+02  0.27669471731E+02  0.91871471699E+00  0.95517585054E+02  0.90853708034E+02 0.  0.
         13    1    3    3    0    0 -0.29883885570E+02  0.11536210102E+02  0.38511437489E+02  0.50092641593E+02  0.10566000000E+00 0.  1.
         22    1    1    0    0    0  0.10137508985E+02 -0.27669471731E+02 -0.91871471699E+00  0.29482414946E+02  0.00000000000E+00 0. -1.
</event>
<event>
 5    1  0.1324057E-009  0.9118800E+02  0.7818608E-02  0.1130116E+00
         25   -1    0    0    0    0  0.00000000000E+00  0.00000000000E+00  0.99999998245E-14  0.12500000000E+03  0.12500000000E+03 0.  0.
        -13    1    3    3    0    0 -0.84328995649E+01 -0.31618841331E+02  0.32169357262E+02  0.45888382330E+02  0.10566000000E+00 0.  1.
         23    2    1    0    0    0  0.17471295716E+02 -0.20767261843E+02 -0.95923406598E+01  0.96215658115E+02  0.91809120074E+02 0.  0.
         13    1    3    3    0    0  0.25904195281E+02  0.10851579488E+02 -0.41761697922E+02  0.50327275784E+02  0.10566000000E+00 0. -1.
         22    1    1    0    0    0 -0.17471295716E+02  0.20767261843E+02  0.95923406598E+01  0.28784341885E+02  0.00000000000E+00 0. -1.
</event>
<event>
 5    1  0.1324057E-009  0.9118800E+02  0.7818608E-02  0.1130116E+00
         25   -1    0    0    0    0  0.00000000000E+00  0.00000000000E+00  0.99999998245E-14  0.12500000000E+03  0.12500000000E+03 0.  0.
        -13    1    3    3    0    0 -0.14022208973E+01 -0.29381495795E+02 -0.38970438359E+02  0.48825656663E+02  0.10566000000E+00 0. -1.
         23    2    1    0    0    0  0.25646883117E+02 -0.13853816336E+02 -0.41757995286E+01  0.95552960380E+02  0.90902365729E+02 0.  0.
         13    1    3    3    0    0  0.27049104014E+02  0.15527679459E+02  0.34794638830E+02  0.46727303718E+02  0.10566000000E+00 0.  1.
         22    1    1    0    0    0 -0.25646883117E+02  0.13853816336E+02  0.41757995286E+01  0.29447039620E+02  0.00000000000E+00 0. -1.
</event>
<event>
 5    1  0.1324057E-009  0.9118800E+02  0.7818608E-02  0.1130116E+00
         25   -1    0    0    0    0  0.00000000000E+00  0.00000000000E+00  0.99999998245E-14  0.12500000000E+03  0.12500000000E+03 0.  0.
        -13    1    3    3    0    0  0.97122267906E+01  0.42933743151E+02  0.36966093685E+02  0.57481622251E+02  0.10566000000E+00 0. -1.
         23    2    1    0    0    0  0.12408976384E+02  0.57462627234E+01  0.24761153635E+02  0.96713661256E+02  0.92484676104E+02 0.  0.
         13    1    3    3    0    0  0.26967495931E+01 -0.37187480427E+02 -0.12204940050E+02  0.39232039006E+02  0.10566000000E+00 0.  1.
         22    1    1    0    0    0 -0.12408976384E+02 -0.57462627234E+01 -0.24761153635E+02  0.28286338744E+02  0.00000000000E+00 0. -1.
</event>
<event>
 5    1  0.1324057E-009  0.9118800E+02  0.7818608E-02  0.1130116E+00
         25   -1    0    0    0    0  0.00000000000E+00  0.00000000000E+00  0.99999998245E-14  0.12500000000E+03  0.12500000000E+03 0.  0.
        -13    1    3    3    0    0  0.31332820351E+02  0.13158146518E+02 -0.14760776235E+02  0.37050966655E+02  0.10566000000E+00 0.  1.
         23    2    1    0    0    0  0.21572766732E+01  0.15934365217E+02  0.30238156149E+02  0.90752315045E+02  0.84042124921E+02 0.  0.
         13    1    3    3    0    0 -0.29175543678E+02  0.27762186990E+01  0.44998932384E+02  0.53701348390E+02  0.10566000000E+00 0. -1.
         22    1    1    0    0    0 -0.21572766732E+01 -0.15934365217E+02 -0.30238156149E+02  0.34247684955E+02  0.00000000000E+00 0. -1.
</event>
<event>
 5    1  0.1324057E-009  0.9118800E+02  0.7818608E-02  0.1130116E+00
         25   -1    0    0    0    0  0.00000000000E+00  0.00000000000E+00  0.99999998245E-14  0.12500000000E+03  0.12500000000E+03 0.  0.
        -13    1    3    3    0    0 -0.26993361639E+02 -0.19681751271E+02  0.35716306076E+02  0.48904791068E+02  0.10566000000E+00 0.  1.
         23    2    1    0    0    0 -0.26171298241E+02  0.13371807116E+02  0.29358671164E+01  0.95464235359E+02  0.90780277813E+02 0.  0.
         13    1    3    3    0    0  0.82206339741E+00  0.33053558388E+02 -0.32780438959E+02  0.46559444291E+02  0.10566000000E+00 0. -1.
         22    1    1    0    0    0  0.26171298241E+02 -0.13371807116E+02 -0.29358671164E+01  0.29535764641E+02  0.00000000000E+00 0. -1.
</event>
<event>
 5    1  0.1324057E-009  0.9118800E+02  0.7818608E-02  0.1130116E+00
         25   -1    0    0    0    0  0.00000000000E+00  0.00000000000E+00  0.99999998245E-14  0.12500000000E+03  0.12500000000E+03 0.  0.
        -13    1    3    3    0    0 -0.55405176023E+01  0.20470214723E+01 -0.37487289213E+02  0.37949909733E+02  0.10566000000E+00 0. -1.
         23    2    1    0    0    0 -0.21444701674E+02 -0.15174218072E+02  0.14511202645E+02  0.94988216878E+02  0.90122440155E+02 0.  0.
         13    1    3    3    0    0 -0.15904184071E+02 -0.17221239544E+02  0.51998491858E+02  0.57038307145E+02  0.10566000000E+00 0.  1.
         22    1    1    0    0    0  0.21444701674E+02  0.15174218072E+02 -0.14511202645E+02  0.30011783122E+02  0.00000000000E+00 0.  1.
</event>
<event>
 5    1  0.1324057E-009  0.9118800E+02  0.7818608E-02  0.1130116E+00
         25   -1    0    0    0    0  0.00000000000E+00  0.00000000000E+00  0.99999998245E-14  0.12500000000E+03  0.12500000000E+03 0.  0.
        -13    1    3    3    0    0 -0.33966151023E+02 -0.27273730192E+01  0.68688936760E+00  0.34082560936E+02  0.10566000000E+00 0. -1.
         23    2    1    0    0    0  0.26296400619E+02 -0.23554409953E+01  0.12968644084E+02  0.95585131019E+02  0.90946592870E+02 0.  0.
         13    1    3    3    0    0  0.60262551642E+02  0.37193202396E+00  0.12281754717E+02  0.61502570083E+02  0.10566000000E+00 0.  1.
         22    1    1    0    0    0 -0.26296400619E+02  0.23554409953E+01 -0.12968644084E+02  0.29414868981E+02  0.00000000000E+00 0.  1.
</event>
<event>
 5    1  0.1324057E-009  0.9118800E+02  0.7818608E-02  0.1130116E+00
         25   -1    0    0    0    0  0.00000000000E+00  0.00000000000E+00  0.99999998245E-14  0.12500000000E+03  0.12500000000E+03 0.  0.
        -13    1    3    3    0    0  0.33181862512E+02 -0.75196539474E+01 -0.11458956766E+02  0.35901254148E+02  0.10566000000E+00 0.  1.
         23    2    1    0    0    0 -0.14797017718E+02 -0.59545728117E+01  0.24420098544E+02  0.95832382963E+02  0.91285791560E+02 0.  0.
         13    1    3    3    0    0 -0.47978880230E+02  0.15650811357E+01  0.35879055310E+02  0.59931128815E+02  0.10566000000E+00 0. -1.
         22    1    1    0    0    0  0.14797017718E+02  0.59545728117E+01 -0.24420098544E+02  0.29167617037E+02  0.00000000000E+00 0. -1.
</event>
<event>
 5    1  0.1324057E-009  0.9118800E+02  0.7818608E-02  0.1130116E+00
         25   -1    0    0    0    0  0.00000000000E+00  0.00000000000E+00  0.99999998245E-14  0.12500000000E+03  0.12500000000E+03 0.  0.
        -13    1    3    3    0    0  0.19862088678E+02 -0.54207258142E+02  0.50806822740E+01  0.57954757340E+02  0.10566000000E+00 0. -1.
         23    2    1    0    0    0  0.47783827415E+00 -0.23933452778E+02  0.16788651847E+02  0.95761372773E+02  0.91188503624E+02 0.  0.
         13    1    3    3    0    0 -0.19384250404E+02  0.30273805364E+02  0.11707969573E+02  0.37806615433E+02  0.10566000000E+00 0.  1.
         22    1    1    0    0    0 -0.47783827415E+00  0.23933452778E+02 -0.16788651847E+02  0.29238627227E+02  0.00000000000E+00 0. -1.
</event>
<event>
 5    1  0.1324057E-009  0.9118800E+02  0.7818608E-02  0.1130116E+00
         25   -1    0    0    0    0  0.00000000000E+00  0.00000000000E+00  0.99999998245E-14  0.12500000000E+03  0.12500000000E+03 0.  0.
        -13    1    3    3    0    0  0.16971693605E+02  0.29922632856E+02  0.10541587370E+02  0.35979696624E+02  0.10566000000E+00 0.  1.
         23    2    1    0    0    0 -0.18470570020E+02 -0.16701771969E+02  0.16922015344E+02  0.94892430403E+02  0.89989486056E+02 0.  0.
         13    1    3    3    0    0 -0.35442263625E+02 -0.46624404825E+02  0.63804279736E+01  0.58912733779E+02  0.10566000000E+00 0. -1.
         22    1    1    0    0    0  0.18470570020E+02  0.16701771969E+02 -0.16922015344E+02  0.30107569597E+02  0.00000000000E+00 0. -1.
</event>
<event>
 5    1  0.1324057E-009  0.9118800E+02  0.7818608E-02  0.1130116E+00
         25   -1    0    0    0    0  0.00000000000E+00  0.00000000000E+00  0.99999998245E-14  0.12500000000E+03  0.12500000000E+03 0.  0.
        -13    1    3    3    0    0 -0.50759403893E+02 -0.76048159956E+00 -0.15482501933E+02  0.53073669987E+02  0.10566000000E+00 0. -1.
         23    2    1    0    0    0 -0.19223924915E+02 -0.22849132929E+02  0.13830270884E+01  0.95107610858E+02  0.90287887972E+02 0.  0.
         13    1    3    3    0    0  0.31535478978E+02 -0.22088651329E+02  0.16865529021E+02  0.42033940870E+02  0.10566000000E+00 0.  1.
         22    1    1    0    0    0  0.19223924915E+02  0.22849132929E+02 -0.13830270884E+01  0.29892389142E+02  0.00000000000E+00 0. -1.
</event>
<event>
 5    1  0.1324057E-009  0.9118800E+02  0.7818608E-02  0.1130116E+00
         25   -1    0    0    0    0  0.00000000000E+00  0.00000000000E+00  0.99999998245E-14  0.12500000000E+03  0.12500000000E+03 0.  0.
        -13    1    3    3    0    0 -0.41713849290E+02 -0.27683197240E+02  0.15294536493E+02  0.52348243930E+02  0.10566000000E+00 0. -1.
         23    2    1    0    0    0 -0.28977634291E+02  0.85817472834E+01 -0.24422235104E+01  0.94679806544E+02  0.89693654379E+02 0.  0.
         13    1    3    3    0    0  0.12736214999E+02  0.36264944524E+02 -0.17736760003E+02  0.42331562613E+02  0.10566000000E+00 0.  1.
         22    1    1    0    0    0  0.28977634291E+02 -0.85817472834E+01  0.24422235104E+01  0.30320193456E+02  0.00000000000E+00 0. -1.
</event>
<event>
 5    1  0.1324057E-009  0.9118800E+02  0.7818608E-02  0.1130116E+00
         25   -1    0    0    0    0  0.00000000000E+00  0.00000000000E+00  0.99999998245E-14  0.12500000000E+03  0.12500000000E+03 0.  0.
        -13    1    3    3    0    0  0.26685575224E+02  0.17806423255E+02 -0.13217283545E+01  0.32108359722E+02  0.10566000000E+00 0. -1.
         23    2    1    0    0    0 -0.13743704588E+02 -0.20348992026E+02 -0.22594941148E+02  0.91630818744E+02  0.85338764263E+02 0.  0.
         13    1    3    3    0    0 -0.40429279812E+02 -0.38155415281E+02 -0.21273212793E+02  0.59522459021E+02  0.10566000000E+00 0.  1.
         22    1    1    0    0    0  0.13743704588E+02  0.20348992026E+02  0.22594941148E+02  0.33369181256E+02  0.00000000000E+00 0.  1.
</event>
<event>
 5    1  0.1324057E-009  0.9118800E+02  0.7818608E-02  0.1130116E+00
         25   -1    0    0    0    0  0.00000000000E+00  0.00000000000E+00  0.99999998245E-14  0.12500000000E+03  0.12500000000E+03 0.  0.
        -13    1    3    3    0    0  0.28248836701E+01  0.27384833002E+02 -0.23602501321E+02  0.36262904999E+02  0.10566000000E+00 0.  1.
         23    2    1    0    0    0 -0.13979026457E+02  0.90938819226E+01  0.27361159671E+02  0.92957139209E+02  0.87259869369E+02 0.  0.
         13    1    3    3    0    0 -0.16803910127E+02 -0.18290951079E+02  0.50963660992E+02  0.56694234211E+02  0.10566000000E+00 0. -1.
         22    1    1    0    0    0  0.13979026457E+02 -0.90938819226E+01 -0.27361159671E+02  0.32042860791E+02  0.00000000000E+00 0. -1.
</event>
<event>
 5    1  0.1324057E-009  0.9118800E+02  0.7818608E-02  0.1130116E+00
         25   -1    0    0    0    0  0.00000000000E+00  0.00000000000E+00  0.99999998245E-14  0.12500000000E+03  0.12500000000E+03 0.  0.
        -13    1    3    3    0    0 -0.33030664230E+02 -0.18960561917E+02  0.50450702662E+01  0.38418635917E+02  0.10566000000E+00 0. -1.
         23    2    1    0    0    0  0.12132009972E+02 -0.20566377741E+01  0.29897948981E+02  0.92668857456E+02  0.86845923129E+02 0.  0.
         13    1    3    3    0    0  0.45162674202E+02  0.16903924143E+02  0.24852878715E+02  0.54250221539E+02  0.10566000000E+00 0.  1.
         22    1    1    0    0    0 -0.12132009972E+02  0.20566377741E+01 -0.29897948981E+02  0.32331142544E+02  0.00000000000E+00 0.  1.
</event>
<event>
 5    1  0.1324057E-009  0.9118800E+02  0.7818608E-02  0.1130116E+00
         25   -1    0    0    0    0  0.00000000000E+00  0.00000000000E+00  0.99999998245E-14  0.12500000000E+03  0.12500000000E+03 0.  0.
        -13    1    3    3    0    0 -0.18386701549E+02  0.15181419649E+02 -0.41497548374E+02  0.47860254716E+02  0.10566000000E+00 0.  1.
         23    2    1    0    0    0 -0.21719825547E+02 -0.17672807410E+02 -0.59622348992E+01  0.96370868184E+02  0.92020199120E+02 0.  0.
         13    1    3    3    0    0 -0.33331239982E+01 -0.32854227060E+02  0.35535313475E+02  0.48510613468E+02  0.10566000000E+00 0. -1.
         22    1    1    0    0    0  0.21719825547E+02  0.17672807410E+02  0.59622348992E+01  0.28629131816E+02  0.00000000000E+00 0. -1.
</event>
<event>
 5    1  0.1324057E-009  0.9118800E+02  0.7818608E-02  0.1130116E+00
         25   -1    0    0    0    0  0.00000000000E+00  0.00000000000E+00  0.99999998245E-14  0.12500000000E+03  0.12500000000E+03 0.  0.
        -13    1    3    3    0    0 -0.90471199610E+01 -0.29256314190E+02 -0.20008036958E+02  0.36580254325E+02  0.10566000000E+00 0. -1.
         23    2    1    0    0    0  0.22826014558E+02  0.43153290044E+01  0.17300550697E+02  0.96035227268E+02  0.91563130227E+02 0.  0.
         13    1    3    3    0    0  0.31873134519E+02  0.33571643194E+02  0.37308587654E+02  0.59454972943E+02  0.10566000000E+00 0.  1.
         22    1    1    0    0    0 -0.22826014558E+02 -0.43153290044E+01 -0.17300550697E+02  0.28964772732E+02  0.00000000000E+00 0. -1.
</event>
<event>
 5    1  0.1324057E-009  0.9118800E+02  0.7818608E-02  0.1130116E+00
         25   -1    0    0    0    0  0.00000000000E+00  0.00000000000E+00  0.99999998245E-14  0.12500000000E+03  0.12500000000E+03 0.  0.
        -13    1    3    3    0    0  0.31447577702E+02  0.19912331744E+02 -0.27609681977E+02  0.46343897135E+02  0.10566000000E+00 0. -1.
         23    2    1    0    0    0  0.11191751243E+02  0.16867103234E+02  0.18988437059E+02  0.97245447052E+02  0.93200653233E+02 0.  0.
         13    1    3    3    0    0 -0.20255826459E+02 -0.30452285097E+01  0.46598119036E+02  0.50901549917E+02  0.10566000000E+00 0.  1.
         22    1    1    0    0    0 -0.11191751243E+02 -0.16867103234E+02 -0.18988437059E+02  0.27754552948E+02  0.00000000000E+00 0. -1.
</event>
<event>
 5    1  0.1324057E-009  0.9118800E+02  0.7818608E-02  0.1130116E+00
         25   -1    0    0    0    0  0.00000000000E+00  0.00000000000E+00  0.99999998245E-14  0.12500000000E+03  0.12500000000E+03 0.  0.
        -13    1    3    3    0    0  0.12772372749E+02 -0.24842595047E+02 -0.51970499049E+02  0.59001965813E+02  0.10566000000E+00 0. -1.
         23    2    1    0    0    0 -0.76683064593E+01 -0.17060873488E+02 -0.21635880933E+02  0.96399516230E+02  0.92059106326E+02 0.  0.
         13    1    3    3    0    0 -0.20440679209E+02  0.77817215595E+01  0.30334618116E+02  0.37397550417E+02  0.10566000000E+00 0.  1.
         22    1    1    0    0    0  0.76683064593E+01  0.17060873488E+02  0.21635880933E+02  0.28600483770E+02  0.00000000000E+00 0. -1.
</event>
<event>
 5    1  0.1324057E-009  0.9118800E+02  0.7818608E-02  0.1130116E+00
         25   -1    0    0    0    0  0.00000000000E+00  0.00000000000E+00  0.99999998245E-14  0.12500000000E+03  0.12500000000E+03 0.  0.
        -13    1    3    3    0    0  0.31579090984E+02  0.13221087580E+02 -0.11131785578E+02  0.35999499419E+02  0.10566000000E+00 0.  1.
         23    2    1    0    0    0  0.50235507125E+01 -0.15862896199E+02  0.28580051900E+02  0.91929062545E+02  0.85774504581E+02 0.  0.
         13    1    3    3    0    0 -0.26555540272E+02 -0.29083983779E+02  0.39711837477E+02  0.55929563126E+02  0.10566000000E+00 0. -1.
         22    1    1    0    0    0 -0.50235507125E+01  0.15862896199E+02 -0.28580051900E+02  0.33070937455E+02  0.00000000000E+00 0. -1.
</event>
<event>
 5    1  0.1324057E-009  0.9118800E+02  0.7818608E-02  0.1130116E+00
         25   -1    0    0    0    0  0.00000000000E+00  0.00000000000E+00  0.99999998245E-14  0.12500000000E+03  0.12500000000E+03 0.  0.
        -13    1    3    3    0    0  0.24671563999E+02  0.65830111171E+01  0.24778628831E+02  0.35581086496E+02  0.10566000000E+00 0. -1.
         23    2    1    0    0    0  0.13487323459E+02 -0.14907883432E+02 -0.26171760002E+02  0.91998274225E+02  0.85875308187E+02 0.  0.
         13    1    3    3    0    0 -0.11184240540E+02 -0.21490894549E+02 -0.50950388833E+02  0.56417187729E+02  0.10566000000E+00 0.  1.
         22    1    1    0    0    0 -0.13487323459E+02  0.14907883432E+02  0.26171760002E+02  0.33001725775E+02  0.00000000000E+00 0.  1.
</event>
<event>
 5    1  0.1324057E-009  0.9118800E+02  0.7818608E-02  0.1130116E+00
         25   -1    0    0    0    0  0.00000000000E+00  0.00000000000E+00  0.99999998245E-14  0.12500000000E+03  0.12500000000E+03 0.  0.
        -13    1    3    3    0    0 -0.59604086439E+01 -0.25867787481E+02  0.26955987687E+01  0.26682322184E+02  0.10566000000E+00 0.  1.
         23    2    1    0    0    0  0.35281933119E+02 -0.16738966799E+02 -0.26300790136E+02  0.77917738203E+02  0.62084092575E+02 0.  0.
         13    1    3    3    0    0  0.41242341763E+02  0.91288206819E+01 -0.28996388905E+02  0.51235416019E+02  0.10566000000E+00 0. -1.
         22    1    1    0    0    0 -0.35281933119E+02  0.16738966799E+02  0.26300790136E+02  0.47082261797E+02  0.00000000000E+00 0. -1.
</event>
<event>
 5    1  0.1324057E-009  0.9118800E+02  0.7818608E-02  0.1130116E+00
         25   -1    0    0    0    0  0.00000000000E+00  0.00000000000E+00  0.99999998245E-14  0.12500000000E+03  0.12500000000E+03 0.  0.
        -13    1    3    3    0    0 -0.26710135566E+02  0.39968262173E+01  0.25674244451E+02  0.37263708269E+02  0.10566000000E+00 0. -1.
         23    2    1    0    0    0 -0.49405702177E+01 -0.10466608472E+02 -0.26756308240E+02  0.95847656053E+02  0.91306703002E+02 0.  0.
         13    1    3    3    0    0  0.21769565348E+02 -0.14463434689E+02 -0.52430552691E+02  0.58583947784E+02  0.10566000000E+00 0.  1.
         22    1    1    0    0    0  0.49405702177E+01  0.10466608472E+02  0.26756308240E+02  0.29152343947E+02  0.00000000000E+00 0.  1.
</event>
<event>
 5    1  0.1324057E-009  0.9118800E+02  0.7818608E-02  0.1130116E+00
         25   -1    0    0    0    0  0.00000000000E+00  0.00000000000E+00  0.99999998245E-14  0.12500000000E+03  0.12500000000E+03 0.  0.
        -13    1    3    3    0    0 -0.24079912541E+02 -0.29246520215E+02  0.49140071366E+02  0.62048037121E+02  0.10566000000E+00 0.  1.
         23    2    1    0    0    0 -0.73758246783E+01 -0.17209812272E+02  0.22097477406E+02  0.96036593159E+02  0.91564994893E+02 0.  0.
         13    1    3    3    0    0  0.16704087863E+02  0.12036707943E+02 -0.27042593960E+02  0.33988556038E+02  0.10566000000E+00 0. -1.
         22    1    1    0    0    0  0.73758246783E+01  0.17209812272E+02 -0.22097477406E+02  0.28963406841E+02  0.00000000000E+00 0.  1.
</event>
<event>
 5    1  0.1324057E-009  0.9118800E+02  0.7818608E-02  0.1130116E+00
         25   -1    0    0    0    0  0.00000000000E+00  0.00000000000E+00  0.99999998245E-14  0.12500000000E+03  0.12500000000E+03 0.  0.
        -13    1    3    3    0    0  0.27382578945E+02 -0.22495102327E+02  0.17005193640E+02  0.39306781007E+02  0.10566000000E+00 0.  1.
         23    2    1    0    0    0 -0.27232609225E+01  0.24127251546E+02  0.17937236848E+02  0.94812504527E+02  0.89878396357E+02 0.  0.
         13    1    3    3    0    0 -0.30105839867E+02  0.46622353873E+02  0.93204320736E+00  0.55505723519E+02  0.10566000000E+00 0. -1.
         22    1    1    0    0    0  0.27232609225E+01 -0.24127251546E+02 -0.17937236848E+02  0.30187495473E+02  0.00000000000E+00 0. -1.
</event>
<event>
 5    1  0.1324057E-009  0.9118800E+02  0.7818608E-02  0.1130116E+00
         25   -1    0    0    0    0  0.00000000000E+00  0.00000000000E+00  0.99999998245E-14  0.12500000000E+03  0.12500000000E+03 0.  0.
        -13    1    3    3    0    0 -0.16910828382E+02  0.10943726640E+02  0.41545973818E+02  0.46171640364E+02  0.10566000000E+00 0.  1.
         23    2    1    0    0    0 -0.71803955827E+01  0.28034900773E+02 -0.40024188972E+01  0.95784711209E+02  0.91220490036E+02 0.  0.
         13    1    3    3    0    0  0.97304327997E+01  0.17091174134E+02 -0.45548392715E+02  0.49613070846E+02  0.10566000000E+00 0. -1.
         22    1    1    0    0    0  0.71803955827E+01 -0.28034900773E+02  0.40024188972E+01  0.29215288791E+02  0.00000000000E+00 0. -1.
</event>
<event>
 5    1  0.1324057E-009  0.9118800E+02  0.7818608E-02  0.1130116E+00
         25   -1    0    0    0    0  0.00000000000E+00  0.00000000000E+00  0.99999998245E-14  0.12500000000E+03  0.12500000000E+03 0.  0.
        -13    1    3    3    0    0 -0.18157083439E+02  0.23436683349E+02  0.84546094099E+01  0.30829359216E+02  0.10566000000E+00 0.  1.
         23    2    1    0    0    0  0.28610739529E+02 -0.15661909915E+02 -0.83248703079E-01  0.92382876139E+02  0.86433321322E+02 0.  0.
         13    1    3    3    0    0  0.46767822968E+02 -0.39098593264E+02 -0.85378581130E+01  0.61553516923E+02  0.10566000000E+00 0. -1.
         22    1    1    0    0    0 -0.28610739529E+02  0.15661909915E+02  0.83248703079E-01  0.32617123861E+02  0.00000000000E+00 0. -1.
</event>
<event>
 5    1  0.1324057E-009  0.9118800E+02  0.7818608E-02  0.1130116E+00
         25   -1    0    0    0    0  0.00000000000E+00  0.00000000000E+00  0.99999998245E-14  0.12500000000E+03  0.12500000000E+03 0.  0.
        -13    1    3    3    0    0  0.32930079779E+02  0.31433238070E+02  0.29580056411E+02  0.54290234031E+02  0.10566000000E+00 0. -1.
         23    2    1    0    0    0  0.68969638334E+01 -0.82592732861E+00  0.28402534904E+02  0.95760399198E+02  0.91187169051E+02 0.  0.
         13    1    3    3    0    0 -0.26033115945E+02 -0.32259165399E+02 -0.11775215068E+01  0.41470165167E+02  0.10566000000E+00 0.  1.
         22    1    1    0    0    0 -0.68969638334E+01  0.82592732861E+00 -0.28402534904E+02  0.29239600802E+02  0.00000000000E+00 0. -1.
</event>
<event>
 5    1  0.1324057E-009  0.9118800E+02  0.7818608E-02  0.1130116E+00
         25   -1    0    0    0    0  0.00000000000E+00  0.00000000000E+00  0.99999998245E-14  0.12500000000E+03  0.12500000000E+03 0.  0.
        -13    1    3    3    0    0 -0.36571597143E+01 -0.30759039433E+02  0.43888712502E+02  0.53718931236E+02  0.10566000000E+00 0. -1.
         23    2    1    0    0    0 -0.23624366969E+02 -0.62219307930E+01  0.17000768469E+02  0.95236779979E+02  0.90466540748E+02 0.  0.
         13    1    3    3    0    0 -0.19967207254E+02  0.24537108640E+02 -0.26887944033E+02  0.41517848744E+02  0.10566000000E+00 0.  1.
         22    1    1    0    0    0  0.23624366969E+02  0.62219307930E+01 -0.17000768469E+02  0.29763220021E+02  0.00000000000E+00 0. -1.
</event>
<event>
 5    1  0.1324057E-009  0.9118800E+02  0.7818608E-02  0.1130116E+00
         25   -1    0    0    0    0  0.00000000000E+00  0.00000000000E+00  0.99999998245E-14  0.12500000000E+03  0.12500000000E+03 0.  0.
        -13    1    3    3    0    0  0.28475366158E+02 -0.23803350207E+02 -0.41095718378E+02  0.55374318885E+02  0.10566000000E+00 0.  1.
         23    2    1    0    0    0  0.21154545698E+02  0.86397442334E+01 -0.14770360500E+02  0.97791112970E+02  0.93929645174E+02 0.  0.
         13    1    3    3    0    0 -0.73208204602E+01  0.32443094440E+02  0.26325357878E+02  0.42416794085E+02  0.10566000000E+00 0. -1.
         22    1    1    0    0    0 -0.21154545698E+02 -0.86397442334E+01  0.14770360500E+02  0.27208887030E+02  0.00000000000E+00 0.  1.
</event>
<event>
 5    1  0.1324057E-009  0.9118800E+02  0.7818608E-02  0.1130116E+00
         25   -1    0    0    0    0  0.00000000000E+00  0.00000000000E+00  0.99999998245E-14  0.12500000000E+03  0.12500000000E+03 0.  0.
        -13    1    3    3    0    0  0.61115995005E+02  0.88452507004E+01 -0.26828696874E+01  0.61811101424E+02  0.10566000000E+00 0. -1.
         23    2    1    0    0    0  0.27256211329E+02  0.96701021215E+01 -0.45067809375E+01  0.95730169023E+02  0.91145719897E+02 0.  0.
         13    1    3    3    0    0 -0.33859783676E+02  0.82485142103E+00 -0.18239112501E+01  0.33919067599E+02  0.10566000000E+00 0.  1.
         22    1    1    0    0    0 -0.27256211329E+02 -0.96701021215E+01  0.45067809375E+01  0.29269830977E+02  0.00000000000E+00 0. -1.
</event>
<event>
 5    1  0.1324057E-009  0.9118800E+02  0.7818608E-02  0.1130116E+00
         25   -1    0    0    0    0  0.00000000000E+00  0.00000000000E+00  0.99999998245E-14  0.12500000000E+03  0.12500000000E+03 0.  0.
        -13    1    3    3    0    0 -0.24166490436E+02 -0.26564233655E+02  0.56964247886E+01  0.36361218201E+02  0.10566000000E+00 0.  1.
         23    2    1    0    0    0  0.26327538622E+02 -0.82485158504E+00 -0.12441812122E+02  0.95868945112E+02  0.91335843337E+02 0.  0.
         13    1    3    3    0    0  0.50494029058E+02  0.25739382070E+02 -0.18138236910E+02  0.59507726911E+02  0.10566000000E+00 0. -1.
         22    1    1    0    0    0 -0.26327538622E+02  0.82485158504E+00  0.12441812122E+02  0.29131054888E+02  0.00000000000E+00 0. -1.
</event>
<event>
 5    1  0.1324057E-009  0.9118800E+02  0.7818608E-02  0.1130116E+00
         25   -1    0    0    0    0  0.00000000000E+00  0.00000000000E+00  0.99999998245E-14  0.12500000000E+03  0.12500000000E+03 0.  0.
        -13    1    3    3    0    0 -0.67892161753E+01  0.56002409561E+02 -0.12189189078E+02  0.57714390123E+02  0.10566000000E+00 0.  1.
         23    2    1    0    0    0  0.26139585713E+00  0.20658640508E+02 -0.21750202728E+02  0.95001348794E+02  0.90140652308E+02 0.  0.
         13    1    3    3    0    0  0.70506120325E+01 -0.35343769053E+02 -0.95610136501E+01  0.37286958671E+02  0.10566000000E+00 0. -1.
         22    1    1    0    0    0 -0.26139585713E+00 -0.20658640508E+02  0.21750202728E+02  0.29998651206E+02  0.00000000000E+00 0.  1.
</event>
<event>
 5    1  0.1324057E-009  0.9118800E+02  0.7818608E-02  0.1130116E+00
         25   -1    0    0    0    0  0.00000000000E+00  0.00000000000E+00  0.99999998245E-14  0.12500000000E+03  0.12500000000E+03 0.  0.
        -13    1    3    3    0    0 -0.22176883844E+02  0.17777438486E+02  0.27031713195E+02  0.39224688380E+02  0.10566000000E+00 0. -1.
         23    2    1    0    0    0 -0.80037205381E+01 -0.24940516238E+02 -0.94428176024E+01  0.97156586112E+02  0.93081397325E+02 0.  0.
         13    1    3    3    0    0  0.14173163306E+02 -0.42717954724E+02 -0.36474530798E+02  0.57931897732E+02  0.10566000000E+00 0.  1.
         22    1    1    0    0    0  0.80037205381E+01  0.24940516238E+02  0.94428176024E+01  0.27843413888E+02  0.00000000000E+00 0. -1.
</event>
<event>
 5    1  0.1324057E-009  0.9118800E+02  0.7818608E-02  0.1130116E+00
         25   -1    0    0    0    0  0.00000000000E+00  0.00000000000E+00  0.99999998245E-14  0.12500000000E+03  0.12500000000E+03 0.  0.
        -13    1    3    3    0    0  0.13051639772E+02  0.27799702085E+02 -0.40697565431E+02  0.50985014787E+02  0.10566000000E+00 0.  1.
         23    2    1    0    0    0 -0.16337536259E+02  0.20178540566E+02 -0.38130445808E+01  0.98758279413E+02  0.95208034605E+02 0.  0.
         13    1    3    3    0    0 -0.29389176030E+02 -0.76211615193E+01  0.36884520850E+02  0.47773264626E+02  0.10566000000E+00 0. -1.
         22    1    1    0    0    0  0.16337536259E+02 -0.20178540566E+02  0.38130445808E+01  0.26241720587E+02  0.00000000000E+00 0. -1.
</event>
<event>
 5    1  0.1324057E-009  0.9118800E+02  0.7818608E-02  0.1130116E+00
         25   -1    0    0    0    0  0.00000000000E+00  0.00000000000E+00  0.99999998245E-14  0.12500000000E+03  0.12500000000E+03 0.  0.
        -13    1    3    3    0    0  0.40344308182E+01  0.32841719924E+02 -0.21984344723E+01  0.33161717051E+02  0.10566000000E+00 0. -1.
         23    2    1    0    0    0  0.31369528119E+01 -0.28711008565E+02 -0.81012998540E+01  0.95003441113E+02  0.90143553725E+02 0.  0.
         13    1    3    3    0    0 -0.89747800624E+00 -0.61552728489E+02 -0.59028653817E+01  0.61841724062E+02  0.10566000000E+00 0.  1.
         22    1    1    0    0    0 -0.31369528119E+01  0.28711008565E+02  0.81012998540E+01  0.29996558887E+02  0.00000000000E+00 0.  1.
</event>
<event>
 5    1  0.1324057E-009  0.9118800E+02  0.7818608E-02  0.1130116E+00
         25   -1    0    0    0    0  0.00000000000E+00  0.00000000000E+00  0.99999998245E-14  0.12500000000E+03  0.12500000000E+03 0.  0.
        -13    1    3    3    0    0 -0.21613923691E+02  0.32865498160E+02  0.14806712219E+02  0.42030376603E+02  0.10566000000E+00 0.  1.
         23    2    1    0    0    0  0.10674637152E+02  0.19043198257E+01  0.32955876647E+02  0.90306137172E+02  0.83375861573E+02 0.  0.
         13    1    3    3    0    0  0.32288560842E+02 -0.30961178334E+02  0.18149164428E+02  0.48275760570E+02  0.10566000000E+00 0. -1.
         22    1    1    0    0    0 -0.10674637152E+02 -0.19043198257E+01 -0.32955876647E+02  0.34693862828E+02  0.00000000000E+00 0. -1.
</event>
<event>
 5    1  0.1324057E-009  0.9118800E+02  0.7818608E-02  0.1130116E+00
         25   -1    0    0    0    0  0.00000000000E+00  0.00000000000E+00  0.99999998245E-14  0.12500000000E+03  0.12500000000E+03 0.  0.
        -13    1    3    3    0    0  0.21912570066E+02 -0.15696392873E+02  0.19256583696E+02  0.33126494771E+02  0.10566000000E+00 0.  1.
         23    2    1    0    0    0 -0.32867920426E+02 -0.92446996893E-01  0.65744234632E+01  0.91480874363E+02  0.85118849798E+02 0.  0.
         13    1    3    3    0    0 -0.54780490492E+02  0.15603945876E+02 -0.12682160233E+02  0.58354379593E+02  0.10566000000E+00 0. -1.
         22    1    1    0    0    0  0.32867920426E+02  0.92446996893E-01 -0.65744234632E+01  0.33519125637E+02  0.00000000000E+00 0. -1.
</event>
<event>
 5    1  0.1324057E-009  0.9118800E+02  0.7818608E-02  0.1130116E+00
         25   -1    0    0    0    0  0.00000000000E+00  0.00000000000E+00  0.99999998245E-14  0.12500000000E+03  0.12500000000E+03 0.  0.
        -13    1    3    3    0    0 -0.38612919992E+02 -0.33726029261E+02  0.19677137251E+02  0.54914511146E+02  0.10566000000E+00 0. -1.
         23    2    1    0    0    0 -0.23477712934E+02 -0.20070848681E+02 -0.11395726194E+02  0.92077294357E+02  0.85990252874E+02 0.  0.
         13    1    3    3    0    0  0.15135207058E+02  0.13655180580E+02 -0.31072863444E+02  0.37162783212E+02  0.10566000000E+00 0.  1.
         22    1    1    0    0    0  0.23477712934E+02  0.20070848681E+02  0.11395726194E+02  0.32922705643E+02  0.00000000000E+00 0. -1.
</event>
<event>
 5    1  0.1324057E-009  0.9118800E+02  0.7818608E-02  0.1130116E+00
         25   -1    0    0    0    0  0.00000000000E+00  0.00000000000E+00  0.99999998245E-14  0.12500000000E+03  0.12500000000E+03 0.  0.
        -13    1    3    3    0    0  0.51294421597E+02  0.11277626511E+02 -0.38293645767E+01  0.52659070860E+02  0.10566000000E+00 0.  1.
         23    2    1    0    0    0  0.14121333987E+02 -0.19376789371E+02 -0.28834778893E+01  0.10085074567E+03  0.97916732063E+02 0.  0.
         13    1    3    3    0    0 -0.37173087611E+02 -0.30654415881E+02  0.94588668739E+00  0.48191674812E+02  0.10566000000E+00 0. -1.
         22    1    1    0    0    0 -0.14121333987E+02  0.19376789371E+02  0.28834778893E+01  0.24149254328E+02  0.00000000000E+00 0.  1.
</event>
<event>
 5    1  0.1324057E-009  0.9118800E+02  0.7818608E-02  0.1130116E+00
         25   -1    0    0    0    0  0.00000000000E+00  0.00000000000E+00  0.99999998245E-14  0.12500000000E+03  0.12500000000E+03 0.  0.
        -13    1    3    3    0    0 -0.49270463264E+02  0.36732523735E+01  0.15248946385E+02  0.51706990467E+02  0.10566000000E+00 0.  1.
         23    2    1    0    0    0 -0.19118522708E+02  0.13749784220E+02 -0.16193131329E+02  0.96420427244E+02  0.92087495411E+02 0.  0.
         13    1    3    3    0    0  0.30151940556E+02  0.10076531847E+02 -0.31442077715E+02  0.44713436777E+02  0.10566000000E+00 0. -1.
         22    1    1    0    0    0  0.19118522708E+02 -0.13749784220E+02  0.16193131329E+02  0.28579572756E+02  0.00000000000E+00 0.  1.
</event>
<event>
 5    1  0.1324057E-009  0.9118800E+02  0.7818608E-02  0.1130116E+00
         25   -1    0    0    0    0  0.00000000000E+00  0.00000000000E+00  0.99999998245E-14  0.12500000000E+03  0.12500000000E+03 0.  0.
        -13    1    3    3    0    0  0.43321078090E+02  0.20164504234E+02 -0.37809239695E+02  0.60933347260E+02  0.10566000000E+00 0.  1.
         23    2    1    0    0    0  0.24759819923E+02  0.81535800977E+00 -0.15854772869E+02  0.95587633314E+02  0.90950032043E+02 0.  0.
         13    1    3    3    0    0 -0.18561258168E+02 -0.19349146224E+02  0.21954466826E+02  0.34654286055E+02  0.10566000000E+00 0. -1.
         22    1    1    0    0    0 -0.24759819923E+02 -0.81535800977E+00  0.15854772869E+02  0.29412366686E+02  0.00000000000E+00 0.  1.
</event>
<event>
 5    1  0.1324057E-009  0.9118800E+02  0.7818608E-02  0.1130116E+00
         25   -1    0    0    0    0  0.00000000000E+00  0.00000000000E+00  0.99999998245E-14  0.12500000000E+03  0.12500000000E+03 0.  0.
        -13    1    3    3    0    0 -0.26368468780E+02  0.43905936114E+02  0.26231035416E+02  0.57542208464E+02  0.10566000000E+00 0. -1.
         23    2    1    0    0    0 -0.20765009585E+02  0.22718626530E+02 -0.29987733819E+01  0.94075668863E+02  0.88847719249E+02 0.  0.
         13    1    3    3    0    0  0.56034591951E+01 -0.21187309584E+02 -0.29229808798E+02  0.36533460399E+02  0.10566000000E+00 0.  1.
         22    1    1    0    0    0  0.20765009585E+02 -0.22718626530E+02  0.29987733819E+01  0.30924331137E+02  0.00000000000E+00 0.  1.
</event>
<event>
 5    1  0.1324057E-009  0.9118800E+02  0.7818608E-02  0.1130116E+00
         25   -1    0    0    0    0  0.00000000000E+00  0.00000000000E+00  0.99999998245E-14  0.12500000000E+03  0.12500000000E+03 0.  0.
        -13    1    3    3    0    0 -0.13113337562E+02 -0.60287020592E+01  0.48610739204E+02  0.50708184749E+02  0.10566000000E+00 0.  1.
         23    2    1    0    0    0 -0.26686667698E+02 -0.12730113336E+02  0.75307021547E+01  0.94488600600E+02  0.89426786536E+02 0.  0.
         13    1    3    3    0    0 -0.13573330136E+02 -0.67014112768E+01 -0.41080037050E+02  0.43780415851E+02  0.10566000000E+00 0. -1.
         22    1    1    0    0    0  0.26686667698E+02  0.12730113336E+02 -0.75307021547E+01  0.30511399400E+02  0.00000000000E+00 0.  1.
</event>
<event>
 5    1  0.1324057E-009  0.9118800E+02  0.7818608E-02  0.1130116E+00
         25   -1    0    0    0    0  0.00000000000E+00  0.00000000000E+00  0.99999998245E-14  0.12500000000E+03  0.12500000000E+03 0.  0.
        -13    1    3    3    0    0 -0.29365937020E+02 -0.34475300842E+02  0.39646092253E+02  0.60189105494E+02  0.10566000000E+00 0.  1.
         23    2    1    0    0    0 -0.67692489837E+01 -0.87393938013E+01  0.25430716457E+02  0.97270573837E+02  0.93234346994E+02 0.  0.
         13    1    3    3    0    0  0.22596688036E+02  0.25735907041E+02 -0.14215375796E+02  0.37081468343E+02  0.10566000000E+00 0. -1.
         22    1    1    0    0    0  0.67692489837E+01  0.87393938013E+01 -0.25430716457E+02  0.27729426163E+02  0.00000000000E+00 0. -1.
</event>
<event>
 5    1  0.1324057E-009  0.9118800E+02  0.7818608E-02  0.1130116E+00
         25   -1    0    0    0    0  0.00000000000E+00  0.00000000000E+00  0.99999998245E-14  0.12500000000E+03  0.12500000000E+03 0.  0.
        -13    1    3    3    0    0  0.45705617937E+02 -0.24563509125E+02  0.24218501213E+02  0.57261823728E+02  0.10566000000E+00 0. -1.
         23    2    1    0    0    0  0.25743042746E+02 -0.13454281395E+02 -0.61947199984E+01  0.95299890681E+02  0.90553700478E+02 0.  0.
         13    1    3    3    0    0 -0.19962575191E+02  0.11109227731E+02 -0.30413221212E+02  0.38038066953E+02  0.10566000000E+00 0.  1.
         22    1    1    0    0    0 -0.25743042746E+02  0.13454281395E+02  0.61947199984E+01  0.29700109319E+02  0.00000000000E+00 0. -1.
</event>
<event>
 5    1  0.1324057E-009  0.9118800E+02  0.7818608E-02  0.1130116E+00
         25   -1    0    0    0    0  0.00000000000E+00  0.00000000000E+00  0.99999998245E-14  0.12500000000E+03  0.12500000000E+03 0.  0.
        -13    1    3    3    0    0 -0.39993849857E+02 -0.21908181280E+02 -0.22735067706E+02  0.50954596466E+02  0.10566000000E+00 0. -1.
         23    2    1    0    0    0 -0.56473729386E+01  0.69765790267E+01 -0.27488205499E+02  0.96083449072E+02  0.91628937940E+02 0.  0.
         13    1    3    3    0    0  0.34346476918E+02  0.28884760307E+02 -0.47531377924E+01  0.45128852606E+02  0.10566000000E+00 0.  1.
         22    1    1    0    0    0  0.56473729386E+01 -0.69765790267E+01  0.27488205499E+02  0.28916550928E+02  0.00000000000E+00 0. -1.
</event>
<event>
 5    1  0.1324057E-009  0.9118800E+02  0.7818608E-02  0.1130116E+00
         25   -1    0    0    0    0  0.00000000000E+00  0.00000000000E+00  0.99999998245E-14  0.12500000000E+03  0.12500000000E+03 0.  0.
        -13    1    3    3    0    0  0.34371536473E+02 -0.24524627598E+02 -0.42014049363E+02  0.59565521791E+02  0.10566000000E+00 0. -1.
         23    2    1    0    0    0  0.23354152148E+02 -0.15167819112E+02 -0.87893718031E+01  0.95798421004E+02  0.91239274717E+02 0.  0.
         13    1    3    3    0    0 -0.11017384325E+02  0.93568084854E+01  0.33224677560E+02  0.36232899213E+02  0.10566000000E+00 0.  1.
         22    1    1    0    0    0 -0.23354152148E+02  0.15167819112E+02  0.87893718031E+01  0.29201578996E+02  0.00000000000E+00 0. -1.
</event>
<event>
 5    1  0.1324057E-009  0.9118800E+02  0.7818608E-02  0.1130116E+00
         25   -1    0    0    0    0  0.00000000000E+00  0.00000000000E+00  0.99999998245E-14  0.12500000000E+03  0.12500000000E+03 0.  0.
        -13    1    3    3    0    0 -0.29927726460E+02  0.73347771145E+01  0.12793019031E+02  0.33363756779E+02  0.10566000000E+00 0. -1.
         23    2    1    0    0    0  0.29958102953E+02 -0.22961641368E+01  0.30001275398E+01  0.94804618440E+02  0.89867427971E+02 0.  0.
         13    1    3    3    0    0  0.59885829413E+02 -0.96309412513E+01 -0.97928914916E+01  0.61440861662E+02  0.10566000000E+00 0.  1.
         22    1    1    0    0    0 -0.29958102953E+02  0.22961641368E+01 -0.30001275398E+01  0.30195381560E+02  0.00000000000E+00 0.  1.
</event>
<event>
 5    1  0.1324057E-009  0.9118800E+02  0.7818608E-02  0.1130116E+00
         25   -1    0    0    0    0  0.00000000000E+00  0.00000000000E+00  0.99999998245E-14  0.12500000000E+03  0.12500000000E+03 0.  0.
        -13    1    3    3    0    0 -0.39668906455E+02  0.23361799976E+02 -0.95971876335E+01  0.47026726571E+02  0.10566000000E+00 0. -1.
         23    2    1    0    0    0 -0.17883653202E+02  0.71185022159E+01  0.26523578567E+02  0.92228086024E+02  0.86209172981E+02 0.  0.
         13    1    3    3    0    0  0.21785253254E+02 -0.16243297760E+02  0.36120766200E+02  0.45201359453E+02  0.10566000000E+00 0.  1.
         22    1    1    0    0    0  0.17883653202E+02 -0.71185022159E+01 -0.26523578567E+02  0.32771913976E+02  0.00000000000E+00 0. -1.
</event>
<event>
 5    1  0.1324057E-009  0.9118800E+02  0.7818608E-02  0.1130116E+00
         25   -1    0    0    0    0  0.00000000000E+00  0.00000000000E+00  0.99999998245E-14  0.12500000000E+03  0.12500000000E+03 0.  0.
        -13    1    3    3    0    0 -0.23229276552E+01 -0.24865264966E+02  0.23550961870E+02  0.34326904372E+02  0.10566000000E+00 0.  1.
         23    2    1    0    0    0  0.14997786474E+02  0.13787308106E+02 -0.20960503109E+02  0.95770457505E+02  0.91200956005E+02 0.  0.
         13    1    3    3    0    0  0.17320714129E+02  0.38652573072E+02 -0.44511464979E+02  0.61443553133E+02  0.10566000000E+00 0. -1.
         22    1    1    0    0    0 -0.14997786474E+02 -0.13787308106E+02  0.20960503109E+02  0.29229542495E+02  0.00000000000E+00 0. -1.
</event>
<event>
 5    1  0.1324057E-009  0.9118800E+02  0.7818608E-02  0.1130116E+00
         25   -1    0    0    0    0  0.00000000000E+00  0.00000000000E+00  0.99999998245E-14  0.12500000000E+03  0.12500000000E+03 0.  0.
        -13    1    3    3    0    0  0.13468638891E+01  0.33597553286E+00  0.56165728766E+02  0.56182979395E+02  0.10566000000E+00 0.  1.
         23    2    1    0    0    0  0.17990495192E+02  0.89594137595E+01  0.21657820461E+02  0.95453592447E+02  0.90765621861E+02 0.  0.
         13    1    3    3    0    0  0.16643631303E+02  0.86234382266E+01 -0.34507908305E+02  0.39270613052E+02  0.10566000000E+00 0. -1.
         22    1    1    0    0    0 -0.17990495192E+02 -0.89594137595E+01 -0.21657820461E+02  0.29546407553E+02  0.00000000000E+00 0.  1.
</event>
<event>
 5    1  0.1324057E-009  0.9118800E+02  0.7818608E-02  0.1130116E+00
         25   -1    0    0    0    0  0.00000000000E+00  0.00000000000E+00  0.99999998245E-14  0.12500000000E+03  0.12500000000E+03 0.  0.
        -13    1    3    3    0    0  0.29745781474E+02  0.49959036099E+02  0.15257552705E+02  0.60112568420E+02  0.10566000000E+00 0.  1.
         23    2    1    0    0    0  0.20884906019E+01  0.26623035823E+02  0.88808141574E+01  0.96857208924E+02  0.92678488502E+02 0.  0.
         13    1    3    3    0    0 -0.27657290872E+02 -0.23336000276E+02 -0.63767385474E+01  0.36744640504E+02  0.10566000000E+00 0. -1.
         22    1    1    0    0    0 -0.20884906019E+01 -0.26623035823E+02 -0.88808141574E+01  0.28142791076E+02  0.00000000000E+00 0.  1.
</event>
<event>
 5    1  0.1324057E-009  0.9118800E+02  0.7818608E-02  0.1130116E+00
         25   -1    0    0    0    0  0.00000000000E+00  0.00000000000E+00  0.99999998245E-14  0.12500000000E+03  0.12500000000E+03 0.  0.
        -13    1    3    3    0    0 -0.10619376267E+02 -0.17581913982E+02  0.33580829239E+02  0.39364680971E+02  0.10566000000E+00 0.  1.
         23    2    1    0    0    0 -0.96153064521E+01 -0.16527876892E+02 -0.22504525791E+02  0.95469024504E+02  0.90786871991E+02 0.  0.
         13    1    3    3    0    0  0.10040698149E+01  0.10540370902E+01 -0.56085355029E+02  0.56104343532E+02  0.10566000000E+00 0. -1.
         22    1    1    0    0    0  0.96153064521E+01  0.16527876892E+02  0.22504525791E+02  0.29530975496E+02  0.00000000000E+00 0. -1.
</event>
<event>
 5    1  0.1324057E-009  0.9118800E+02  0.7818608E-02  0.1130116E+00
         25   -1    0    0    0    0  0.00000000000E+00  0.00000000000E+00  0.99999998245E-14  0.12500000000E+03  0.12500000000E+03 0.  0.
        -13    1    3    3    0    0 -0.21407300630E+02 -0.33277803707E+02  0.40312427343E+01  0.39773695099E+02  0.10566000000E+00 0. -1.
         23    2    1    0    0    0  0.23849552245E+01  0.49499325037E+01 -0.28915346357E+02  0.95567244469E+02  0.90922005682E+02 0.  0.
         13    1    3    3    0    0  0.23792255854E+02  0.38227736211E+02 -0.32946589091E+02  0.55793549369E+02  0.10566000000E+00 0.  1.
         22    1    1    0    0    0 -0.23849552245E+01 -0.49499325037E+01  0.28915346357E+02  0.29432755531E+02  0.00000000000E+00 0.  1.
</event>
<event>
 5    1  0.1324057E-009  0.9118800E+02  0.7818608E-02  0.1130116E+00
         25   -1    0    0    0    0  0.00000000000E+00  0.00000000000E+00  0.99999998245E-14  0.12500000000E+03  0.12500000000E+03 0.  0.
        -13    1    3    3    0    0 -0.38366432347E+02  0.13659662041E+02  0.22281845194E+02  0.46422637660E+02  0.10566000000E+00 0. -1.
         23    2    1    0    0    0 -0.25319696968E+02 -0.24106958411E+02  0.14611450520E+02  0.87109011828E+02  0.78436298720E+02 0.  0.
         13    1    3    3    0    0  0.13046735379E+02 -0.37766620452E+02 -0.76703946734E+01  0.40686374167E+02  0.10566000000E+00 0.  1.
         22    1    1    0    0    0  0.25319696968E+02  0.24106958411E+02 -0.14611450520E+02  0.37890988172E+02  0.00000000000E+00 0. -1.
</event>
<event>
 5    1  0.1324057E-009  0.9118800E+02  0.7818608E-02  0.1130116E+00
         25   -1    0    0    0    0  0.00000000000E+00  0.00000000000E+00  0.99999998245E-14  0.12500000000E+03  0.12500000000E+03 0.  0.
        -13    1    3    3    0    0  0.60674990181E+02 -0.20006422175E+01  0.58238139830E+01  0.60986760662E+02  0.10566000000E+00 0.  1.
         23    2    1    0    0    0  0.23494547725E+02 -0.84464118169E+01  0.79952183483E+01  0.98784371802E+02  0.95242285517E+02 0.  0.
         13    1    3    3    0    0 -0.37180442456E+02 -0.64457695994E+01  0.21714043653E+01  0.37797611140E+02  0.10566000000E+00 0. -1.
         22    1    1    0    0    0 -0.23494547725E+02  0.84464118169E+01 -0.79952183483E+01  0.26215628198E+02  0.00000000000E+00 0.  1.
</event>
<event>
 5    1  0.1324057E-009  0.9118800E+02  0.7818608E-02  0.1130116E+00
         25   -1    0    0    0    0  0.00000000000E+00  0.00000000000E+00  0.99999998245E-14  0.12500000000E+03  0.12500000000E+03 0.  0.
        -13    1    3    3    0    0  0.45855832614E+02 -0.12950993724E+02 -0.11684009607E+02  0.49061317427E+02  0.10566000000E+00 0. -1.
         23    2    1    0    0    0  0.20168103494E+02  0.22950147085E+02 -0.12531756629E+01  0.94421705427E+02  0.89333232096E+02 0.  0.
         13    1    3    3    0    0 -0.25687729120E+02  0.35901140809E+02  0.10430833945E+02  0.45360388000E+02  0.10566000000E+00 0.  1.
         22    1    1    0    0    0 -0.20168103494E+02 -0.22950147085E+02  0.12531756629E+01  0.30578294573E+02  0.00000000000E+00 0.  1.
</event>
<event>
 5    1  0.1324057E-009  0.9118800E+02  0.7818608E-02  0.1130116E+00
         25   -1    0    0    0    0  0.00000000000E+00  0.00000000000E+00  0.99999998245E-14  0.12500000000E+03  0.12500000000E+03 0.  0.
        -13    1    3    3    0    0 -0.34774708292E+02 -0.12125478588E+02 -0.35956347404E+02  0.51470162720E+02  0.10566000000E+00 0.  1.
         23    2    1    0    0    0 -0.12039637007E+02 -0.26046530729E+02  0.92277876955E-01  0.96305346535E+02  0.91931151596E+02 0.  0.
         13    1    3    3    0    0  0.22735071285E+02 -0.13921052141E+02  0.36048625281E+02  0.44835183815E+02  0.10566000000E+00 0. -1.
         22    1    1    0    0    0  0.12039637007E+02  0.26046530729E+02 -0.92277876955E-01  0.28694653465E+02  0.00000000000E+00 0.  1.
</event>
<event>
 5    1  0.1324057E-009  0.9118800E+02  0.7818608E-02  0.1130116E+00
         25   -1    0    0    0    0  0.00000000000E+00  0.00000000000E+00  0.99999998245E-14  0.12500000000E+03  0.12500000000E+03 0.  0.
        -13    1    3    3    0    0 -0.23460089650E+02  0.87616996537E+01  0.20282941422E+02  0.32226573879E+02  0.10566000000E+00 0.  1.
         23    2    1    0    0    0  0.20053982687E+02  0.46109106977E+01 -0.23273297132E+02  0.93934439029E+02  0.88648800088E+02 0.  0.
         13    1    3    3    0    0  0.43514072337E+02 -0.41507889560E+01 -0.43556238554E+02  0.61707865150E+02  0.10566000000E+00 0. -1.
         22    1    1    0    0    0 -0.20053982687E+02 -0.46109106977E+01  0.23273297132E+02  0.31065560971E+02  0.00000000000E+00 0. -1.
</event>
<event>
 5    1  0.1324057E-009  0.9118800E+02  0.7818608E-02  0.1130116E+00
         25   -1    0    0    0    0  0.00000000000E+00  0.00000000000E+00  0.99999998245E-14  0.12500000000E+03  0.12500000000E+03 0.  0.
        -13    1    3    3    0    0  0.44884718072E+02 -0.35020303707E+02 -0.25515493402E+02  0.62386786708E+02  0.10566000000E+00 0. -1.
         23    2    1    0    0    0  0.17712857663E+02 -0.17027081392E+02 -0.11773878309E+02  0.97754981414E+02  0.93881549590E+02 0.  0.
         13    1    3    3    0    0 -0.27171860409E+02  0.17993222315E+02  0.13741615092E+02  0.35368194706E+02  0.10566000000E+00 0.  1.
         22    1    1    0    0    0 -0.17712857663E+02  0.17027081392E+02  0.11773878309E+02  0.27245018586E+02  0.00000000000E+00 0. -1.
</event>
<event>
 5    1  0.1324057E-009  0.9118800E+02  0.7818608E-02  0.1130116E+00
         25   -1    0    0    0    0  0.00000000000E+00  0.00000000000E+00  0.99999998245E-14  0.12500000000E+03  0.12500000000E+03 0.  0.
        -13    1    3    3    0    0 -0.34544657798E+02  0.43064366333E+02  0.68429851274E+01  0.55630123490E+02  0.10566000000E+00 0.  1.
         23    2    1    0    0    0 -0.18403838458E+02  0.17955813739E+02 -0.17290417155E+02  0.94014986809E+02  0.88762304512E+02 0.  0.
         13    1    3    3    0    0  0.16140819340E+02 -0.25108552593E+02 -0.24133402283E+02  0.38384863320E+02  0.10566000000E+00 0. -1.
         22    1    1    0    0    0  0.18403838458E+02 -0.17955813739E+02  0.17290417155E+02  0.30985013191E+02  0.00000000000E+00 0.  1.
</event>
<event>
 5    1  0.1324057E-009  0.9118800E+02  0.7818608E-02  0.1130116E+00
         25   -1    0    0    0    0  0.00000000000E+00  0.00000000000E+00  0.99999998245E-14  0.12500000000E+03  0.12500000000E+03 0.  0.
        -13    1    3    3    0    0 -0.21040667825E+02  0.56109181870E+02 -0.58643908754E+01  0.60210897992E+02  0.10566000000E+00 0.  1.
         23    2    1    0    0    0 -0.12954817734E+02  0.27440076782E+02  0.87898367950E+01  0.93408128463E+02  0.87903538699E+02 0.  0.
         13    1    3    3    0    0  0.80858500910E+01 -0.28669105089E+02  0.14654227670E+02  0.33197230471E+02  0.10566000000E+00 0. -1.
         22    1    1    0    0    0  0.12954817734E+02 -0.27440076782E+02 -0.87898367950E+01  0.31591871537E+02  0.00000000000E+00 0.  1.
</event>
<event>
 5    1  0.1324057E-009  0.9118800E+02  0.7818608E-02  0.1130116E+00
         25   -1    0    0    0    0  0.00000000000E+00  0.00000000000E+00  0.99999998245E-14  0.12500000000E+03  0.12500000000E+03 0.  0.
        -13    1    3    3    0    0 -0.69291408376E+01  0.36624393006E+02  0.26289059919E+02  0.45612333763E+02  0.10566000000E+00 0. -1.
         23    2    1    0    0    0 -0.22618274908E+02 -0.99226004246E+01  0.15297963075E+02  0.95947082190E+02  0.91442717302E+02 0.  0.
         13    1    3    3    0    0 -0.15689134071E+02 -0.46546993431E+02 -0.10991096844E+02  0.50334748427E+02  0.10566000000E+00 0.  1.
         22    1    1    0    0    0  0.22618274908E+02  0.99226004246E+01 -0.15297963075E+02  0.29052917810E+02  0.00000000000E+00 0. -1.
</event>
<event>
 5    1  0.1324057E-009  0.9118800E+02  0.7818608E-02  0.1130116E+00
         25   -1    0    0    0    0  0.00000000000E+00  0.00000000000E+00  0.99999998245E-14  0.12500000000E+03  0.12500000000E+03 0.  0.
        -13    1    3    3    0    0 -0.20182591607E+02 -0.32358173860E+01 -0.52267086374E+02  0.56121894125E+02  0.10566000000E+00 0. -1.
         23    2    1    0    0    0  0.19546535414E+01  0.14650882563E+02 -0.27180690697E+02  0.94060397916E+02  0.88826231931E+02 0.  0.
         13    1    3    3    0    0  0.22137245149E+02  0.17886699949E+02  0.25086395677E+02  0.37938503791E+02  0.10566000000E+00 0.  1.
         22    1    1    0    0    0 -0.19546535414E+01 -0.14650882563E+02  0.27180690697E+02  0.30939602084E+02  0.00000000000E+00 0. -1.
</event>
<event>
 5    1  0.1324057E-009  0.9118800E+02  0.7818608E-02  0.1130116E+00
         25   -1    0    0    0    0  0.00000000000E+00  0.00000000000E+00  0.99999998245E-14  0.12500000000E+03  0.12500000000E+03 0.  0.
        -13    1    3    3    0    0 -0.24242586581E+02  0.21226228423E+02 -0.38706490486E+02  0.50363273791E+02  0.10566000000E+00 0.  1.
         23    2    1    0    0    0  0.96638537217E+01  0.25714400050E+02 -0.78439065708E+01  0.96431707979E+02  0.92102806661E+02 0.  0.
         13    1    3    3    0    0  0.33906440303E+02  0.44881716269E+01  0.30862583915E+02  0.46068434188E+02  0.10566000000E+00 0. -1.
         22    1    1    0    0    0 -0.96638537217E+01 -0.25714400050E+02  0.78439065708E+01  0.28568292021E+02  0.00000000000E+00 0.  1.
</event>
<event>
 5    1  0.1324057E-009  0.9118800E+02  0.7818608E-02  0.1130116E+00
         25   -1    0    0    0    0  0.00000000000E+00  0.00000000000E+00  0.99999998245E-14  0.12500000000E+03  0.12500000000E+03 0.  0.
        -13    1    3    3    0    0 -0.39421148721E+02  0.45488747836E+02  0.56445474675E+01  0.60457631663E+02  0.10566000000E+00 0. -1.
         23    2    1    0    0    0 -0.15182171547E+02  0.22854544684E+02  0.13322725333E+02  0.94498794190E+02  0.89441033913E+02 0.  0.
         13    1    3    3    0    0  0.24238977175E+02 -0.22634203152E+02  0.76781778651E+01  0.34041162526E+02  0.10566000000E+00 0.  1.
         22    1    1    0    0    0  0.15182171547E+02 -0.22854544684E+02 -0.13322725333E+02  0.30501205810E+02  0.00000000000E+00 0. -1.
</event>
<event>
 4    1  0.1324057E-009  0.9118800E+02  0.7818608E-02  0.1130116E+00
         25   -1    0    0    0    0  0.00000000000E+00  0.00000000000E+00  0.99999998245E-14  0.12500000000E+03  0.12500000000E+03 0.  0.
        -13    1    1    0    0    0 -0.31764319863E+02  0.12556403460E+02  0.54054171259E-02  0.34156207012E+02  0.10566000000E+00 0. -1.
         13    1    1    0    0    0  0.12327415952E+02  0.34773233872E+02 -0.11023753764E+02  0.38505548808E+02  0.10566000000E+00 0.  1.
         22    1    1    0    0    0  0.19436903911E+02 -0.47329637331E+02  0.11018348347E+02  0.52338244180E+02  0.00000000000E+00 0. -1.
</event>
<event>
 5    1  0.1324057E-009  0.9118800E+02  0.7818608E-02  0.1130116E+00
         25   -1    0    0    0    0  0.00000000000E+00  0.00000000000E+00  0.99999998245E-14  0.12500000000E+03  0.12500000000E+03 0.  0.
        -13    1    3    3    0    0 -0.53361145761E+02 -0.22963939342E+02 -0.45518794627E+01  0.58270791634E+02  0.10566000000E+00 0.  1.
         23    2    1    0    0    0 -0.25268891445E+02 -0.18424982641E+02  0.12359398539E+02  0.91373349967E+02  0.84960799737E+02 0.  0.
         13    1    3    3    0    0  0.28092254316E+02  0.45389567009E+01  0.16911278002E+02  0.33102558333E+02  0.10566000000E+00 0. -1.
         22    1    1    0    0    0  0.25268891445E+02  0.18424982641E+02 -0.12359398539E+02  0.33626650033E+02  0.00000000000E+00 0.  1.
</event>
<event>
 5    1  0.1324057E-009  0.9118800E+02  0.7818608E-02  0.1130116E+00
         25   -1    0    0    0    0  0.00000000000E+00  0.00000000000E+00  0.99999998245E-14  0.12500000000E+03  0.12500000000E+03 0.  0.
        -13    1    3    3    0    0 -0.21429654948E+02  0.38763363306E+01 -0.28482078434E+02  0.35853815006E+02  0.10566000000E+00 0.  1.
         23    2    1    0    0    0  0.29043007794E+01  0.48924112923E+01  0.27506948221E+02  0.96910805428E+02  0.92750748553E+02 0.  0.
         13    1    3    3    0    0  0.24333955728E+02  0.10160749617E+01  0.55989026654E+02  0.61056990422E+02  0.10566000000E+00 0. -1.
         22    1    1    0    0    0 -0.29043007794E+01 -0.48924112923E+01 -0.27506948221E+02  0.28089194572E+02  0.00000000000E+00 0. -1.
</event>
<event>
 5    1  0.1324057E-009  0.9118800E+02  0.7818608E-02  0.1130116E+00
         25   -1    0    0    0    0  0.00000000000E+00  0.00000000000E+00  0.99999998245E-14  0.12500000000E+03  0.12500000000E+03 0.  0.
        -13    1    3    3    0    0 -0.61703261675E+01  0.32951873772E+02  0.11930384877E+02  0.35584324603E+02  0.10566000000E+00 0.  1.
         23    2    1    0    0    0 -0.23596673874E+02 -0.10627040168E+02 -0.19951421757E+02  0.92322848490E+02  0.86346465606E+02 0.  0.
         13    1    3    3    0    0 -0.17426347706E+02 -0.43578913941E+02 -0.31881806634E+02  0.56738523887E+02  0.10566000000E+00 0. -1.
         22    1    1    0    0    0  0.23596673874E+02  0.10627040168E+02  0.19951421757E+02  0.32677151510E+02  0.00000000000E+00 0. -1.
</event>
<event>
 5    1  0.1324057E-009  0.9118800E+02  0.7818608E-02  0.1130116E+00
         25   -1    0    0    0    0  0.00000000000E+00  0.00000000000E+00  0.99999998245E-14  0.12500000000E+03  0.12500000000E+03 0.  0.
        -13    1    3    3    0    0  0.29504541008E+02 -0.22543516107E+02 -0.42117901595E+02  0.56148524980E+02  0.10566000000E+00 0.  1.
         23    2    1    0    0    0 -0.49798094635E+01 -0.12707948672E+02 -0.26356304076E+02  0.95319278542E+02  0.90580459457E+02 0.  0.
         13    1    3    3    0    0 -0.34484350472E+02  0.98355674351E+01  0.15761597519E+02  0.39170753562E+02  0.10566000000E+00 0. -1.
         22    1    1    0    0    0  0.49798094635E+01  0.12707948672E+02  0.26356304076E+02  0.29680721458E+02  0.00000000000E+00 0.  1.
</event>
<event>
 5    1  0.1324057E-009  0.9118800E+02  0.7818608E-02  0.1130116E+00
         25   -1    0    0    0    0  0.00000000000E+00  0.00000000000E+00  0.99999998245E-14  0.12500000000E+03  0.12500000000E+03 0.  0.
        -13    1    3    3    0    0 -0.17666691397E+01 -0.35985889589E+02 -0.15110352973E+02  0.39069672386E+02  0.10566000000E+00 0. -1.
         23    2    1    0    0    0  0.24356390252E+02  0.62815968807E+01  0.13547543447E+02  0.96430293335E+02  0.92100886716E+02 0.  0.
         13    1    3    3    0    0  0.26123059391E+02  0.42267486470E+02  0.28657896419E+02  0.57360620949E+02  0.10566000000E+00 0.  1.
         22    1    1    0    0    0 -0.24356390252E+02 -0.62815968807E+01 -0.13547543447E+02  0.28569706665E+02  0.00000000000E+00 0.  1.
</event>
<event>
 5    1  0.1324057E-009  0.9118800E+02  0.7818608E-02  0.1130116E+00
         25   -1    0    0    0    0  0.00000000000E+00  0.00000000000E+00  0.99999998245E-14  0.12500000000E+03  0.12500000000E+03 0.  0.
        -13    1    3    3    0    0 -0.39917135655E+02 -0.33417704469E+02  0.59741130682E+01  0.52400590473E+02  0.10566000000E+00 0.  1.
         23    2    1    0    0    0 -0.25335791577E+02  0.22647630111E+01 -0.14158357697E+02  0.95888308552E+02  0.91362339823E+02 0.  0.
         13    1    3    3    0    0  0.14581344079E+02  0.35682467480E+02 -0.20132470765E+02  0.43487718079E+02  0.10566000000E+00 0. -1.
         22    1    1    0    0    0  0.25335791577E+02 -0.22647630111E+01  0.14158357697E+02  0.29111691448E+02  0.00000000000E+00 0.  1.
</event>
<event>
 5    1  0.1324057E-009  0.9118800E+02  0.7818608E-02  0.1130116E+00
         25   -1    0    0    0    0  0.00000000000E+00  0.00000000000E+00  0.99999998245E-14  0.12500000000E+03  0.12500000000E+03 0.  0.
        -13    1    3    3    0    0  0.51077065514E+02 -0.97306672458E+01  0.14492073220E+02  0.53977623668E+02  0.10566000000E+00 0.  1.
         23    2    1    0    0    0  0.13672021323E+02  0.11074149861E+02  0.21359834000E+02  0.97326845668E+02  0.93309760566E+02 0.  0.
         13    1    3    3    0    0 -0.37405044191E+02  0.20804817107E+02  0.68677607803E+01  0.43349222000E+02  0.10566000000E+00 0. -1.
         22    1    1    0    0    0 -0.13672021323E+02 -0.11074149861E+02 -0.21359834000E+02  0.27673154332E+02  0.00000000000E+00 0. -1.
</event>
<event>
 5    1  0.1324057E-009  0.9118800E+02  0.7818608E-02  0.1130116E+00
         25   -1    0    0    0    0  0.00000000000E+00  0.00000000000E+00  0.99999998245E-14  0.12500000000E+03  0.12500000000E+03 0.  0.
        -13    1    3    3    0    0  0.48843238488E+02 -0.11125622252E+02  0.21814985788E+02  0.54638321583E+02  0.10566000000E+00 0. -1.
         23    2    1    0    0    0  0.28746600875E+02 -0.50850867000E+01 -0.11178516369E+02  0.93740051234E+02  0.88374276849E+02 0.  0.
         13    1    3    3    0    0 -0.20096637613E+02  0.60405355516E+01 -0.32993502157E+02  0.39101729651E+02  0.10566000000E+00 0.  1.
         22    1    1    0    0    0 -0.28746600875E+02  0.50850867000E+01  0.11178516369E+02  0.31259948766E+02  0.00000000000E+00 0. -1.
</event>
<event>
 5    1  0.1324057E-009  0.9118800E+02  0.7818608E-02  0.1130116E+00
         25   -1    0    0    0    0  0.00000000000E+00  0.00000000000E+00  0.99999998245E-14  0.12500000000E+03  0.12500000000E+03 0.  0.
        -13    1    3    3    0    0  0.64595264648E+01  0.15990864406E+02 -0.49237528706E+02  0.52170668232E+02  0.10566000000E+00 0.  1.
         23    2    1    0    0    0  0.84848302276E+01  0.26297145589E+02 -0.59235045900E+01  0.96740132400E+02  0.92520446930E+02 0.  0.
         13    1    3    3    0    0  0.20253037628E+01  0.10306281183E+02  0.43314024116E+02  0.44569464169E+02  0.10566000000E+00 0. -1.
         22    1    1    0    0    0 -0.84848302276E+01 -0.26297145589E+02  0.59235045900E+01  0.28259867600E+02  0.00000000000E+00 0.  1.
</event>
<event>
 5    1  0.1324057E-009  0.9118800E+02  0.7818608E-02  0.1130116E+00
         25   -1    0    0    0    0  0.00000000000E+00  0.00000000000E+00  0.99999998245E-14  0.12500000000E+03  0.12500000000E+03 0.  0.
        -13    1    3    3    0    0 -0.21504746594E+02 -0.35138054005E+02 -0.17820428465E+02  0.44885585660E+02  0.10566000000E+00 0.  1.
         23    2    1    0    0    0 -0.26670354792E+02  0.11382654684E+02 -0.16339155929E+02  0.91715759452E+02  0.85463090648E+02 0.  0.
         13    1    3    3    0    0 -0.51656081982E+01  0.46520708690E+02  0.14812725362E+01  0.46830173792E+02  0.10566000000E+00 0. -1.
         22    1    1    0    0    0  0.26670354792E+02 -0.11382654684E+02  0.16339155929E+02  0.33284240548E+02  0.00000000000E+00 0. -1.
</event>
<event>
 5    1  0.1324057E-009  0.9118800E+02  0.7818608E-02  0.1130116E+00
         25   -1    0    0    0    0  0.00000000000E+00  0.00000000000E+00  0.99999998245E-14  0.12500000000E+03  0.12500000000E+03 0.  0.
        -13    1    3    3    0    0 -0.31144971077E+02  0.14965922692E+02 -0.23087485195E+02  0.41557564920E+02  0.10566000000E+00 0. -1.
         23    2    1    0    0    0  0.17691855031E+02  0.24294192758E+02 -0.46343742105E+01  0.94591334121E+02  0.89570271465E+02 0.  0.
         13    1    3    3    0    0  0.48836826107E+02  0.93282700659E+01  0.18453110984E+02  0.53033769201E+02  0.10566000000E+00 0.  1.
         22    1    1    0    0    0 -0.17691855031E+02 -0.24294192758E+02  0.46343742105E+01  0.30408665879E+02  0.00000000000E+00 0. -1.
</event>
<event>
 5    1  0.1324057E-009  0.9118800E+02  0.7818608E-02  0.1130116E+00
         25   -1    0    0    0    0  0.00000000000E+00  0.00000000000E+00  0.99999998245E-14  0.12500000000E+03  0.12500000000E+03 0.  0.
        -13    1    3    3    0    0 -0.10204161983E+02 -0.21226372834E+02 -0.33955179002E+02  0.41323711964E+02  0.10566000000E+00 0.  1.
         23    2    1    0    0    0  0.77305698572E+01 -0.15780370306E+02  0.19961755130E+02  0.98405762557E+02  0.94744079706E+02 0.  0.
         13    1    3    3    0    0  0.17934731840E+02  0.54460025283E+01  0.53916934131E+02  0.57082050593E+02  0.10566000000E+00 0. -1.
         22    1    1    0    0    0 -0.77305698572E+01  0.15780370306E+02 -0.19961755130E+02  0.26594237443E+02  0.00000000000E+00 0. -1.
</event>
<event>
 5    1  0.1324057E-009  0.9118800E+02  0.7818608E-02  0.1130116E+00
         25   -1    0    0    0    0  0.00000000000E+00  0.00000000000E+00  0.99999998245E-14  0.12500000000E+03  0.12500000000E+03 0.  0.
        -13    1    3    3    0    0  0.43287447291E+02  0.13619640832E+02 -0.25662925625E+01  0.45452114703E+02  0.10566000000E+00 0.  1.
         23    2    1    0    0    0 -0.21141647170E+01  0.16860176751E+02 -0.23863134352E+02  0.95705214908E+02  0.91111490641E+02 0.  0.
         13    1    3    3    0    0 -0.45401612008E+02  0.32405359194E+01 -0.21296841789E+02  0.50253100205E+02  0.10566000000E+00 0. -1.
         22    1    1    0    0    0  0.21141647170E+01 -0.16860176751E+02  0.23863134352E+02  0.29294785092E+02  0.00000000000E+00 0. -1.
</event>
<event>
 5    1  0.1324057E-009  0.9118800E+02  0.7818608E-02  0.1130116E+00
         25   -1    0    0    0    0  0.00000000000E+00  0.00000000000E+00  0.99999998245E-14  0.12500000000E+03  0.12500000000E+03 0.  0.
        -13    1    3    3    0    0  0.25120534067E+02  0.27985203477E+02 -0.27886601080E+01  0.37709423685E+02  0.10566000000E+00 0. -1.
         23    2    1    0    0    0  0.16299700746E+02 -0.25142617246E+02  0.10621841825E+02  0.93209199913E+02  0.87620203026E+02 0.  0.
         13    1    3    3    0    0 -0.88208333210E+01 -0.53127820723E+02  0.13410501933E+02  0.55499776228E+02  0.10566000000E+00 0.  1.
         22    1    1    0    0    0 -0.16299700746E+02  0.25142617246E+02 -0.10621841825E+02  0.31790800087E+02  0.00000000000E+00 0.  1.
</event>
<event>
 5    1  0.1324057E-009  0.9118800E+02  0.7818608E-02  0.1130116E+00
         25   -1    0    0    0    0  0.00000000000E+00  0.00000000000E+00  0.99999998245E-14  0.12500000000E+03  0.12500000000E+03 0.  0.
        -13    1    3    3    0    0  0.44128366859E+02 -0.31193153274E+02 -0.19959625358E+01  0.54076987742E+02  0.10566000000E+00 0. -1.
         23    2    1    0    0    0  0.87901210523E+01 -0.21002365434E+02 -0.19698043881E+02  0.94893879116E+02  0.89991498371E+02 0.  0.
         13    1    3    3    0    0 -0.35338245806E+02  0.10190787840E+02 -0.17702081345E+02  0.40816891374E+02  0.10566000000E+00 0.  1.
         22    1    1    0    0    0 -0.87901210523E+01  0.21002365434E+02  0.19698043881E+02  0.30106120884E+02  0.00000000000E+00 0. -1.
</event>
<event>
 5    1  0.1324057E-009  0.9118800E+02  0.7818608E-02  0.1130116E+00
         25   -1    0    0    0    0  0.00000000000E+00  0.00000000000E+00  0.99999998245E-14  0.12500000000E+03  0.12500000000E+03 0.  0.
        -13    1    3    3    0    0 -0.21467637663E+02 -0.25082093181E+02  0.27856514989E+02  0.43196845447E+02  0.10566000000E+00 0. -1.
         23    2    1    0    0    0  0.18285898866E+02  0.91724611802E+01  0.20238993939E+02  0.96222838620E+02  0.91818895958E+02 0.  0.
         13    1    3    3    0    0  0.39753536529E+02  0.34254554361E+02 -0.76175210501E+01  0.53025993173E+02  0.10566000000E+00 0.  1.
         22    1    1    0    0    0 -0.18285898866E+02 -0.91724611802E+01 -0.20238993939E+02  0.28777161380E+02  0.00000000000E+00 0. -1.
</event>
<event>
 5    1  0.1324057E-009  0.9118800E+02  0.7818608E-02  0.1130116E+00
         25   -1    0    0    0    0  0.00000000000E+00  0.00000000000E+00  0.99999998245E-14  0.12500000000E+03  0.12500000000E+03 0.  0.
        -13    1    3    3    0    0  0.11320915376E+02  0.10922311992E+02  0.35445684055E+02  0.38779733191E+02  0.10566000000E+00 0. -1.
         23    2    1    0    0    0  0.16787873398E+02  0.87426352046E+01 -0.21686922124E+02  0.96214778883E+02  0.91807922974E+02 0.  0.
         13    1    3    3    0    0  0.54669580224E+01 -0.21796767877E+01 -0.57132606178E+02  0.57435045692E+02  0.10566000000E+00 0.  1.
         22    1    1    0    0    0 -0.16787873398E+02 -0.87426352046E+01  0.21686922124E+02  0.28785221117E+02  0.00000000000E+00 0.  1.
</event>
<event>
 5    1  0.1324057E-009  0.9118800E+02  0.7818608E-02  0.1130116E+00
         25   -1    0    0    0    0  0.00000000000E+00  0.00000000000E+00  0.99999998245E-14  0.12500000000E+03  0.12500000000E+03 0.  0.
        -13    1    3    3    0    0 -0.43638836615E+02  0.24732305904E+02 -0.35522288424E+02  0.61464454405E+02  0.10566000000E+00 0. -1.
         23    2    1    0    0    0 -0.24165673557E+02  0.15257492164E+02 -0.10509245641E+02  0.94549793276E+02  0.89512280269E+02 0.  0.
         13    1    3    3    0    0  0.19473163058E+02 -0.94748137404E+01  0.25013042782E+02  0.33085338871E+02  0.10566000000E+00 0.  1.
         22    1    1    0    0    0  0.24165673557E+02 -0.15257492164E+02  0.10509245641E+02  0.30450206724E+02  0.00000000000E+00 0. -1.
</event>
<event>
 5    1  0.1324057E-009  0.9118800E+02  0.7818608E-02  0.1130116E+00
         25   -1    0    0    0    0  0.00000000000E+00  0.00000000000E+00  0.99999998245E-14  0.12500000000E+03  0.12500000000E+03 0.  0.
        -13    1    3    3    0    0  0.47228249600E+01 -0.12193257972E+02 -0.48508960226E+02  0.50240531464E+02  0.10566000000E+00 0.  1.
         23    2    1    0    0    0 -0.12864490259E+02 -0.27860722919E+02 -0.38327652356E+02  0.75900876522E+02  0.57881077482E+02 0.  0.
         13    1    3    3    0    0 -0.17587315219E+02 -0.15667464948E+02  0.10181307870E+02  0.25660345058E+02  0.10566000000E+00 0. -1.
         22    1    1    0    0    0  0.12864490259E+02  0.27860722919E+02  0.38327652356E+02  0.49099123478E+02  0.00000000000E+00 0. -1.
</event>
<event>
 5    1  0.1324057E-009  0.9118800E+02  0.7818608E-02  0.1130116E+00
         25   -1    0    0    0    0  0.00000000000E+00  0.00000000000E+00  0.99999998245E-14  0.12500000000E+03  0.12500000000E+03 0.  0.
        -13    1    3    3    0    0 -0.40425529970E+01 -0.25743816847E+02  0.24757477731E+02  0.35944821716E+02  0.10566000000E+00 0. -1.
         23    2    1    0    0    0 -0.13957184078E+02  0.24121334763E+01 -0.26323085094E+02  0.95108091661E+02  0.90288553623E+02 0.  0.
         13    1    3    3    0    0 -0.99146310815E+01  0.28155950323E+02 -0.51080562824E+02  0.59163269945E+02  0.10566000000E+00 0.  1.
         22    1    1    0    0    0  0.13957184078E+02 -0.24121334763E+01  0.26323085094E+02  0.29891908339E+02  0.00000000000E+00 0.  1.
</event>
<event>
 5    1  0.1324057E-009  0.9118800E+02  0.7818608E-02  0.1130116E+00
         25   -1    0    0    0    0  0.00000000000E+00  0.00000000000E+00  0.99999998245E-14  0.12500000000E+03  0.12500000000E+03 0.  0.
        -13    1    3    3    0    0 -0.19256102965E+02  0.37076376805E+02  0.14798819401E+02  0.44322358219E+02  0.10566000000E+00 0.  1.
         23    2    1    0    0    0  0.24799815712E+02  0.15263401531E+02 -0.70953056216E+00  0.95870878502E+02  0.91338489288E+02 0.  0.
         13    1    3    3    0    0  0.44055918676E+02 -0.21812975274E+02 -0.15508349963E+02  0.51548520283E+02  0.10566000000E+00 0. -1.
         22    1    1    0    0    0 -0.24799815712E+02 -0.15263401531E+02  0.70953056216E+00  0.29129121498E+02  0.00000000000E+00 0. -1.
</event>
<event>
 5    1  0.1324057E-009  0.9118800E+02  0.7818608E-02  0.1130116E+00
         25   -1    0    0    0    0  0.00000000000E+00  0.00000000000E+00  0.99999998245E-14  0.12500000000E+03  0.12500000000E+03 0.  0.
        -13    1    3    3    0    0 -0.42074751022E+02 -0.29842399213E+02 -0.98863178953E+01  0.52522413405E+02  0.10566000000E+00 0. -1.
         23    2    1    0    0    0  0.86944168235E+01 -0.15737887395E+02 -0.81923929309E+01  0.10524172868E+03  0.10337036408E+03 0.  0.
         13    1    3    3    0    0  0.50769167846E+02  0.14104511818E+02  0.16939249643E+01  0.52719315276E+02  0.10566000000E+00 0.  1.
         22    1    1    0    0    0 -0.86944168235E+01  0.15737887395E+02  0.81923929309E+01  0.19758271318E+02  0.00000000000E+00 0.  1.
</event>
<event>
 5    1  0.1324057E-009  0.9118800E+02  0.7818608E-02  0.1130116E+00
         25   -1    0    0    0    0  0.00000000000E+00  0.00000000000E+00  0.99999998245E-14  0.12500000000E+03  0.12500000000E+03 0.  0.
        -13    1    3    3    0    0 -0.47248413895E+02 -0.36783885866E+02 -0.96702348452E+01  0.60654690511E+02  0.10566000000E+00 0.  1.
         23    2    1    0    0    0 -0.27806790840E+02 -0.91117102214E+01 -0.34347320150E+00  0.95736390280E+02  0.91154251519E+02 0.  0.
         13    1    3    3    0    0  0.19441623054E+02  0.27672175645E+02  0.93267616437E+01  0.35081699769E+02  0.10566000000E+00 0. -1.
         22    1    1    0    0    0  0.27806790840E+02  0.91117102214E+01  0.34347320150E+00  0.29263609720E+02  0.00000000000E+00 0.  1.
</event>
<event>
 5    1  0.1324057E-009  0.9118800E+02  0.7818608E-02  0.1130116E+00
         25   -1    0    0    0    0  0.00000000000E+00  0.00000000000E+00  0.99999998245E-14  0.12500000000E+03  0.12500000000E+03 0.  0.
        -13    1    3    3    0    0 -0.13572337154E+02 -0.43384144150E+02 -0.52571416703E-01  0.45457741115E+02  0.10566000000E+00 0.  1.
         23    2    1    0    0    0  0.64816906931E+01 -0.47501470299E+01  0.27081630131E+02  0.96751267257E+02  0.92535489485E+02 0.  0.
         13    1    3    3    0    0  0.20054027847E+02  0.38633997121E+02  0.27134201548E+02  0.51293526142E+02  0.10566000000E+00 0. -1.
         22    1    1    0    0    0 -0.64816906931E+01  0.47501470299E+01 -0.27081630131E+02  0.28248732743E+02  0.00000000000E+00 0. -1.
</event>
<event>
 5    1  0.1324057E-009  0.9118800E+02  0.7818608E-02  0.1130116E+00
         25   -1    0    0    0    0  0.00000000000E+00  0.00000000000E+00  0.99999998245E-14  0.12500000000E+03  0.12500000000E+03 0.  0.
        -13    1    3    3    0    0  0.29061790478E+02 -0.29454631809E+02 -0.46696618670E+02  0.62391893384E+02  0.10566000000E+00 0. -1.
         23    2    1    0    0    0  0.12124242194E+02 -0.14349978700E+02 -0.24390875938E+02  0.94213087740E+02  0.89040844196E+02 0.  0.
         13    1    3    3    0    0 -0.16937548285E+02  0.15104653109E+02  0.22305742731E+02  0.31821194357E+02  0.10566000000E+00 0.  1.
         22    1    1    0    0    0 -0.12124242194E+02  0.14349978700E+02  0.24390875938E+02  0.30786912260E+02  0.00000000000E+00 0. -1.
</event>
<event>
 5    1  0.1324057E-009  0.9118800E+02  0.7818608E-02  0.1130116E+00
         25   -1    0    0    0    0  0.00000000000E+00  0.00000000000E+00  0.99999998245E-14  0.12500000000E+03  0.12500000000E+03 0.  0.
        -13    1    3    3    0    0  0.30714242525E+02 -0.13680055749E+02  0.35630427066E+01  0.33811463390E+02  0.10566000000E+00 0.  1.
         23    2    1    0    0    0 -0.26856355501E+02  0.94736411002E+01 -0.36797340645E+01  0.96284949081E+02  0.91903412723E+02 0.  0.
         13    1    3    3    0    0 -0.57570598027E+02  0.23153696849E+02 -0.72427767711E+01  0.62473485691E+02  0.10566000000E+00 0. -1.
         22    1    1    0    0    0  0.26856355501E+02 -0.94736411002E+01  0.36797340645E+01  0.28715050919E+02  0.00000000000E+00 0. -1.
</event>
<event>
 5    1  0.1324057E-009  0.9118800E+02  0.7818608E-02  0.1130116E+00
         25   -1    0    0    0    0  0.00000000000E+00  0.00000000000E+00  0.99999998245E-14  0.12500000000E+03  0.12500000000E+03 0.  0.
        -13    1    3    3    0    0 -0.67918006392E+01 -0.34427325221E+02  0.32644375580E+02  0.47927400293E+02  0.10566000000E+00 0.  1.
         23    2    1    0    0    0  0.19250905161E+02 -0.22696915421E+02 -0.46230129870E+01  0.94881574273E+02  0.89974405074E+02 0.  0.
         13    1    3    3    0    0  0.26042705800E+02  0.11730409800E+02 -0.37267388567E+02  0.46954173980E+02  0.10566000000E+00 0. -1.
         22    1    1    0    0    0 -0.19250905161E+02  0.22696915421E+02  0.46230129870E+01  0.30118425727E+02  0.00000000000E+00 0.  1.
</event>
<event>
 5    1  0.1324057E-009  0.9118800E+02  0.7818608E-02  0.1130116E+00
         25   -1    0    0    0    0  0.00000000000E+00  0.00000000000E+00  0.99999998245E-14  0.12500000000E+03  0.12500000000E+03 0.  0.
        -13    1    3    3    0    0  0.32648337590E+02 -0.10165597775E+02  0.13087589013E+02  0.36613514933E+02  0.10566000000E+00 0. -1.
         23    2    1    0    0    0 -0.16108259919E+02 -0.15408390743E+02 -0.19410412242E+02  0.95442282796E+02  0.90750045173E+02 0.  0.
         13    1    3    3    0    0 -0.48756597508E+02 -0.52427929682E+01 -0.32498001255E+02  0.58828767863E+02  0.10566000000E+00 0.  1.
         22    1    1    0    0    0  0.16108259919E+02  0.15408390743E+02  0.19410412242E+02  0.29557717204E+02  0.00000000000E+00 0.  1.
</event>
<event>
 5    1  0.1324057E-009  0.9118800E+02  0.7818608E-02  0.1130116E+00
         25   -1    0    0    0    0  0.00000000000E+00  0.00000000000E+00  0.99999998245E-14  0.12500000000E+03  0.12500000000E+03 0.  0.
        -13    1    3    3    0    0 -0.13332202475E+02 -0.34690065134E+02  0.11727053714E+02  0.38970286048E+02  0.10566000000E+00 0.  1.
         23    2    1    0    0    0  0.94008413724E+01  0.16029334675E+02  0.22741036315E+02  0.95632158382E+02  0.91011205878E+02 0.  0.
         13    1    3    3    0    0  0.22733043847E+02  0.50719399809E+02  0.11013982601E+02  0.56661872333E+02  0.10566000000E+00 0. -1.
         22    1    1    0    0    0 -0.94008413724E+01 -0.16029334675E+02 -0.22741036315E+02  0.29367841618E+02  0.00000000000E+00 0. -1.
</event>
<event>
 5    1  0.1324057E-009  0.9118800E+02  0.7818608E-02  0.1130116E+00
         25   -1    0    0    0    0  0.00000000000E+00  0.00000000000E+00  0.99999998245E-14  0.12500000000E+03  0.12500000000E+03 0.  0.
        -13    1    3    3    0    0 -0.56788018332E+02  0.16308325474E+02  0.12196076409E+01  0.59096016048E+02  0.10566000000E+00 0.  1.
         23    2    1    0    0    0 -0.32655628141E+02  0.13399438656E+02 -0.13149084752E+02  0.87332594523E+02  0.78791805606E+02 0.  0.
         13    1    3    3    0    0  0.24132390191E+02 -0.29088868186E+01 -0.14368692393E+02  0.28236578475E+02  0.10566000000E+00 0. -1.
         22    1    1    0    0    0  0.32655628141E+02 -0.13399438656E+02  0.13149084752E+02  0.37667405477E+02  0.00000000000E+00 0.  1.
</event>
<event>
 5    1  0.1324057E-009  0.9118800E+02  0.7818608E-02  0.1130116E+00
         25   -1    0    0    0    0  0.00000000000E+00  0.00000000000E+00  0.99999998245E-14  0.12500000000E+03  0.12500000000E+03 0.  0.
        -13    1    3    3    0    0 -0.13177179909E+02  0.18356469619E+01  0.33281634229E+02  0.35842516808E+02  0.10566000000E+00 0. -1.
         23    2    1    0    0    0 -0.19747969249E+02 -0.55373666001E+01 -0.23690815352E+02  0.93664725143E+02  0.88267668405E+02 0.  0.
         13    1    3    3    0    0 -0.65707893406E+01 -0.73730135620E+01 -0.56972449581E+02  0.57822208335E+02  0.10566000000E+00 0.  1.
         22    1    1    0    0    0  0.19747969249E+02  0.55373666001E+01  0.23690815352E+02  0.31335274857E+02  0.00000000000E+00 0.  1.
</event>
<event>
 5    1  0.1324057E-009  0.9118800E+02  0.7818608E-02  0.1130116E+00
         25   -1    0    0    0    0  0.00000000000E+00  0.00000000000E+00  0.99999998245E-14  0.12500000000E+03  0.12500000000E+03 0.  0.
        -13    1    3    3    0    0 -0.87237195933E+01  0.10610851218E+02 -0.47580406062E+02  0.49523728173E+02  0.10566000000E+00 0.  1.
         23    2    1    0    0    0 -0.18116341309E+02 -0.18505461220E+02 -0.11973074150E+02  0.96469167170E+02  0.92153631466E+02 0.  0.
         13    1    3    3    0    0 -0.93926217160E+01 -0.29116312437E+02  0.35607331912E+02  0.46945438996E+02  0.10566000000E+00 0. -1.
         22    1    1    0    0    0  0.18116341309E+02  0.18505461220E+02  0.11973074150E+02  0.28530832830E+02  0.00000000000E+00 0. -1.
</event>
<event>
 5    1  0.1324057E-009  0.9118800E+02  0.7818608E-02  0.1130116E+00
         25   -1    0    0    0    0  0.00000000000E+00  0.00000000000E+00  0.99999998245E-14  0.12500000000E+03  0.12500000000E+03 0.  0.
        -13    1    3    3    0    0 -0.25607693244E+01  0.34376282629E+02  0.69825051853E+01  0.35171762675E+02  0.10566000000E+00 0.  1.
         23    2    1    0    0    0 -0.48083957359E+01 -0.17858262230E+02 -0.23035214742E+02  0.95459192333E+02  0.90773333547E+02 0.  0.
         13    1    3    3    0    0 -0.22476264115E+01 -0.52234544859E+02 -0.30017719927E+02  0.60287429658E+02  0.10566000000E+00 0. -1.
         22    1    1    0    0    0  0.48083957359E+01  0.17858262230E+02  0.23035214742E+02  0.29540807667E+02  0.00000000000E+00 0. -1.
</event>
<event>
 5    1  0.1324057E-009  0.9118800E+02  0.7818608E-02  0.1130116E+00
         25   -1    0    0    0    0  0.00000000000E+00  0.00000000000E+00  0.99999998245E-14  0.12500000000E+03  0.12500000000E+03 0.  0.
        -13    1    3    3    0    0 -0.13391358720E+02  0.21448192528E+02 -0.34869241647E+02  0.43072365017E+02  0.10566000000E+00 0. -1.
         23    2    1    0    0    0 -0.23255809932E+02 -0.34942760480E+01  0.13136208722E+02  0.98062987540E+02  0.94290757156E+02 0.  0.
         13    1    3    3    0    0 -0.98644512120E+01 -0.24942468576E+02  0.48005450368E+02  0.54990622523E+02  0.10566000000E+00 0.  1.
         22    1    1    0    0    0  0.23255809932E+02  0.34942760480E+01 -0.13136208722E+02  0.26937012460E+02  0.00000000000E+00 0.  1.
</event>
<event>
 5    1  0.1324057E-009  0.9118800E+02  0.7818608E-02  0.1130116E+00
         25   -1    0    0    0    0  0.00000000000E+00  0.00000000000E+00  0.99999998245E-14  0.12500000000E+03  0.12500000000E+03 0.  0.
        -13    1    3    3    0    0  0.40540352078E+01 -0.52963578025E+02  0.74650637363E+01  0.53640601593E+02  0.10566000000E+00 0.  1.
         23    2    1    0    0    0  0.22911069808E+02 -0.15578261051E+02  0.98884909577E+01  0.95582631142E+02  0.90943156892E+02 0.  0.
         13    1    3    3    0    0  0.18857034600E+02  0.37385316974E+02  0.24234272214E+01  0.41942029549E+02  0.10566000000E+00 0. -1.
         22    1    1    0    0    0 -0.22911069808E+02  0.15578261051E+02 -0.98884909577E+01  0.29417368858E+02  0.00000000000E+00 0.  1.
</event>
<event>
 5    1  0.1324057E-009  0.9118800E+02  0.7818608E-02  0.1130116E+00
         25   -1    0    0    0    0  0.00000000000E+00  0.00000000000E+00  0.99999998245E-14  0.12500000000E+03  0.12500000000E+03 0.  0.
        -13    1    3    3    0    0 -0.13829751709E+02 -0.29012108094E+02 -0.18224846939E+02  0.36947539274E+02  0.10566000000E+00 0. -1.
         23    2    1    0    0    0  0.22011560210E+02 -0.16287231942E+02  0.20169991849E+02  0.90991011801E+02  0.84396403656E+02 0.  0.
         13    1    3    3    0    0  0.35841311919E+02  0.12724876153E+02  0.38394838788E+02  0.54043472527E+02  0.10566000000E+00 0.  1.
         22    1    1    0    0    0 -0.22011560210E+02  0.16287231942E+02 -0.20169991849E+02  0.34008988199E+02  0.00000000000E+00 0.  1.
</event>
<event>
 5    1  0.1324057E-009  0.9118800E+02  0.7818608E-02  0.1130116E+00
         25   -1    0    0    0    0  0.00000000000E+00  0.00000000000E+00  0.99999998245E-14  0.12500000000E+03  0.12500000000E+03 0.  0.
        -13    1    3    3    0    0 -0.49602494354E+01  0.45809998784E+02 -0.86068437632E+01  0.46874822524E+02  0.10566000000E+00 0. -1.
         23    2    1    0    0    0 -0.48532131603E+01  0.32467512046E+01 -0.29947440844E+02  0.94488620410E+02  0.89426814225E+02 0.  0.
         13    1    3    3    0    0  0.10703627510E+00 -0.42563247580E+02 -0.21340597081E+02  0.47613797886E+02  0.10566000000E+00 0.  1.
         22    1    1    0    0    0  0.48532131603E+01 -0.32467512046E+01  0.29947440844E+02  0.30511379590E+02  0.00000000000E+00 0. -1.
</event>
<event>
 5    1  0.1324057E-009  0.9118800E+02  0.7818608E-02  0.1130116E+00
         25   -1    0    0    0    0  0.00000000000E+00  0.00000000000E+00  0.99999998245E-14  0.12500000000E+03  0.12500000000E+03 0.  0.
        -13    1    3    3    0    0 -0.40450740119E+01  0.47983419506E+02 -0.25027418920E+02  0.54269273379E+02  0.10566000000E+00 0.  1.
         23    2    1    0    0    0  0.16574743418E+02  0.63672111442E+01 -0.14936389923E+02  0.10179743029E+03  0.99117897339E+02 0.  0.
         13    1    3    3    0    0  0.20619817430E+02 -0.41616208362E+02  0.10091028996E+02  0.47528156913E+02  0.10566000000E+00 0. -1.
         22    1    1    0    0    0 -0.16574743418E+02 -0.63672111442E+01  0.14936389923E+02  0.23202569708E+02  0.00000000000E+00 0.  1.
</event>
<event>
 5    1  0.1324057E-009  0.9118800E+02  0.7818608E-02  0.1130116E+00
         25   -1    0    0    0    0  0.00000000000E+00  0.00000000000E+00  0.99999998245E-14  0.12500000000E+03  0.12500000000E+03 0.  0.
        -13    1    3    3    0    0  0.25366004698E+02 -0.23896204029E+02 -0.26688630704E+02  0.43894839494E+02  0.10566000000E+00 0. -1.
         23    2    1    0    0    0 -0.78110640512E+01  0.16814753605E+02 -0.21411226892E+02  0.96677053518E+02  0.92435184748E+02 0.  0.
         13    1    3    3    0    0 -0.33177068749E+02  0.40710957634E+02  0.52774038116E+01  0.52782214024E+02  0.10566000000E+00 0.  1.
         22    1    1    0    0    0  0.78110640512E+01 -0.16814753605E+02  0.21411226892E+02  0.28322946482E+02  0.00000000000E+00 0.  1.
</event>
<event>
 5    1  0.1324057E-009  0.9118800E+02  0.7818608E-02  0.1130116E+00
         25   -1    0    0    0    0  0.00000000000E+00  0.00000000000E+00  0.99999998245E-14  0.12500000000E+03  0.12500000000E+03 0.  0.
        -13    1    3    3    0    0  0.43131468231E+02 -0.27124677405E+02  0.16267766055E+02  0.53485727559E+02  0.10566000000E+00 0.  1.
         23    2    1    0    0    0 -0.14081280333E+01 -0.79620778690E+01  0.21284347537E+02  0.10223157980E+03  0.99663909961E+02 0.  0.
         13    1    3    3    0    0 -0.44539596265E+02  0.19162599536E+02  0.50165814822E+01  0.48745852236E+02  0.10566000000E+00 0. -1.
         22    1    1    0    0    0  0.14081280333E+01  0.79620778690E+01 -0.21284347537E+02  0.22768420205E+02  0.00000000000E+00 0.  1.
</event>
<event>
 5    1  0.1324057E-009  0.9118800E+02  0.7818608E-02  0.1130116E+00
         25   -1    0    0    0    0  0.00000000000E+00  0.00000000000E+00  0.99999998245E-14  0.12500000000E+03  0.12500000000E+03 0.  0.
        -13    1    3    3    0    0 -0.38169010622E+02 -0.15931777852E+02 -0.24625800687E+02  0.48136640316E+02  0.10566000000E+00 0. -1.
         23    2    1    0    0    0  0.74519963264E+01 -0.20079766775E+02 -0.22412219950E+02  0.93999405069E+02  0.88740358728E+02 0.  0.
         13    1    3    3    0    0  0.45621006948E+02 -0.41479889235E+01  0.22135807370E+01  0.45862764753E+02  0.10566000000E+00 0.  1.
         22    1    1    0    0    0 -0.74519963264E+01  0.20079766775E+02  0.22412219950E+02  0.31000594931E+02  0.00000000000E+00 0. -1.
</event>
<event>
 5    1  0.1324057E-009  0.9118800E+02  0.7818608E-02  0.1130116E+00
         25   -1    0    0    0    0  0.00000000000E+00  0.00000000000E+00  0.99999998245E-14  0.12500000000E+03  0.12500000000E+03 0.  0.
        -13    1    3    3    0    0  0.15402754863E+02 -0.56808121821E+01 -0.31753728626E+02  0.35746705165E+02  0.10566000000E+00 0. -1.
         23    2    1    0    0    0 -0.11371287442E+02  0.23583263368E+02  0.13184738676E+02  0.95685944956E+02  0.91085049481E+02 0.  0.
         13    1    3    3    0    0 -0.26774042305E+02  0.29264075550E+02  0.44938467303E+02  0.59939239791E+02  0.10566000000E+00 0.  1.
         22    1    1    0    0    0  0.11371287442E+02 -0.23583263368E+02 -0.13184738676E+02  0.29314055044E+02  0.00000000000E+00 0.  1.
</event>
<event>
 5    1  0.1324057E-009  0.9118800E+02  0.7818608E-02  0.1130116E+00
         25   -1    0    0    0    0  0.00000000000E+00  0.00000000000E+00  0.99999998245E-14  0.12500000000E+03  0.12500000000E+03 0.  0.
        -13    1    3    3    0    0  0.17854930174E+01 -0.31392949042E+02  0.42345064499E+02  0.52742970018E+02  0.10566000000E+00 0.  1.
         23    2    1    0    0    0  0.23124985925E+02 -0.34688693151E+01  0.17860727779E+02  0.95575458795E+02  0.90933298074E+02 0.  0.
         13    1    3    3    0    0  0.21339492907E+02  0.27924079727E+02 -0.24484336720E+02  0.42832488776E+02  0.10566000000E+00 0. -1.
         22    1    1    0    0    0 -0.23124985925E+02  0.34688693151E+01 -0.17860727779E+02  0.29424541205E+02  0.00000000000E+00 0.  1.
</event>
<event>
 5    1  0.1324057E-009  0.9118800E+02  0.7818608E-02  0.1130116E+00
         25   -1    0    0    0    0  0.00000000000E+00  0.00000000000E+00  0.99999998245E-14  0.12500000000E+03  0.12500000000E+03 0.  0.
        -13    1    3    3    0    0 -0.39618966932E+02  0.28997209165E+02  0.37648112960E+02  0.61869962451E+02  0.10566000000E+00 0. -1.
         23    2    1    0    0    0 -0.12649103583E+02  0.14804474308E+02  0.19994665134E+02  0.97090164550E+02  0.92992156323E+02 0.  0.
         13    1    3    3    0    0  0.26969863349E+02 -0.14192734857E+02 -0.17653447826E+02  0.35220202100E+02  0.10566000000E+00 0.  1.
         22    1    1    0    0    0  0.12649103583E+02 -0.14804474308E+02 -0.19994665134E+02  0.27909835450E+02  0.00000000000E+00 0. -1.
</event>
<event>
 5    1  0.1324057E-009  0.9118800E+02  0.7818608E-02  0.1130116E+00
         25   -1    0    0    0    0  0.00000000000E+00  0.00000000000E+00  0.99999998245E-14  0.12500000000E+03  0.12500000000E+03 0.  0.
        -13    1    3    3    0    0  0.26286941570E+02  0.98082288041E+01  0.24126779123E+02  0.37004287377E+02  0.10566000000E+00 0.  1.
         23    2    1    0    0    0 -0.37400758111E+01 -0.25738661740E+02 -0.12424954149E+02  0.96175594354E+02  0.91754556227E+02 0.  0.
         13    1    3    3    0    0 -0.30027017381E+02 -0.35546890544E+02 -0.36551733273E+02  0.59171306977E+02  0.10566000000E+00 0. -1.
         22    1    1    0    0    0  0.37400758111E+01  0.25738661740E+02  0.12424954149E+02  0.28824405646E+02  0.00000000000E+00 0. -1.
</event>
<event>
 5    1  0.1324057E-009  0.9118800E+02  0.7818608E-02  0.1130116E+00
         25   -1    0    0    0    0  0.00000000000E+00  0.00000000000E+00  0.99999998245E-14  0.12500000000E+03  0.12500000000E+03 0.  0.
        -13    1    3    3    0    0 -0.26092417985E+02  0.40637557886E+02 -0.33571700615E+02  0.58815777080E+02  0.10566000000E+00 0. -1.
         23    2    1    0    0    0 -0.14549359664E+02  0.20170766905E+02  0.40484084222E+00  0.10012616635E+03  0.96987326947E+02 0.  0.
         13    1    3    3    0    0  0.11543058320E+02 -0.20466790981E+02  0.33976541458E+02  0.41310389273E+02  0.10566000000E+00 0.  1.
         22    1    1    0    0    0  0.14549359664E+02 -0.20170766905E+02 -0.40484084222E+00  0.24873833647E+02  0.00000000000E+00 0. -1.
</event>
<event>
 5    1  0.1324057E-009  0.9118800E+02  0.7818608E-02  0.1130116E+00
         25   -1    0    0    0    0  0.00000000000E+00  0.00000000000E+00  0.99999998245E-14  0.12500000000E+03  0.12500000000E+03 0.  0.
        -13    1    3    3    0    0 -0.27622025313E+02  0.15130584430E+01  0.31163470714E+02  0.41670597539E+02  0.10566000000E+00 0. -1.
         23    2    1    0    0    0  0.74014210383E+01  0.27772846465E+02 -0.13920240610E+01  0.96224146144E+02  0.91820675972E+02 0.  0.
         13    1    3    3    0    0  0.35023446352E+02  0.26259788022E+02 -0.32555494775E+02  0.54553548605E+02  0.10566000000E+00 0.  1.
         22    1    1    0    0    0 -0.74014210383E+01 -0.27772846465E+02  0.13920240610E+01  0.28775853856E+02  0.00000000000E+00 0.  1.
</event>
<event>
 5    1  0.1324057E-009  0.9118800E+02  0.7818608E-02  0.1130116E+00
         25   -1    0    0    0    0  0.00000000000E+00  0.00000000000E+00  0.99999998245E-14  0.12500000000E+03  0.12500000000E+03 0.  0.
        -13    1    3    3    0    0  0.18534560710E+02 -0.38536190888E+02 -0.10421809633E+02  0.44013557331E+02  0.10566000000E+00 0. -1.
         23    2    1    0    0    0 -0.24826009091E+01  0.47502875207E+01 -0.28936164282E+02  0.95571609929E+02  0.90928007139E+02 0.  0.
         13    1    3    3    0    0 -0.21017161619E+02  0.43286478409E+02 -0.18514354649E+02  0.51558052598E+02  0.10566000000E+00 0.  1.
         22    1    1    0    0    0  0.24826009091E+01 -0.47502875207E+01  0.28936164282E+02  0.29428390071E+02  0.00000000000E+00 0.  1.
</event>
<event>
 5    1  0.1324057E-009  0.9118800E+02  0.7818608E-02  0.1130116E+00
         25   -1    0    0    0    0  0.00000000000E+00  0.00000000000E+00  0.99999998245E-14  0.12500000000E+03  0.12500000000E+03 0.  0.
        -13    1    3    3    0    0  0.28706639870E+02 -0.33613957369E+02  0.33702147358E+02  0.55586106207E+02  0.10566000000E+00 0. -1.
         23    2    1    0    0    0  0.85202495460E+01 -0.30071948602E+02  0.15613627329E+01  0.93705358308E+02  0.88325192199E+02 0.  0.
         13    1    3    3    0    0 -0.20186390324E+02  0.35420087669E+01 -0.32140784625E+02  0.38119252102E+02  0.10566000000E+00 0.  1.
         22    1    1    0    0    0 -0.85202495460E+01  0.30071948602E+02 -0.15613627329E+01  0.31294641692E+02  0.00000000000E+00 0. -1.
</event>
<event>
 5    1  0.1324057E-009  0.9118800E+02  0.7818608E-02  0.1130116E+00
         25   -1    0    0    0    0  0.00000000000E+00  0.00000000000E+00  0.99999998245E-14  0.12500000000E+03  0.12500000000E+03 0.  0.
        -13    1    3    3    0    0 -0.26712786137E+02  0.62932561955E+01  0.17738838131E+02  0.32678059291E+02  0.10566000000E+00 0. -1.
         23    2    1    0    0    0  0.22447425848E+02  0.11420486820E+01 -0.20036457736E+02  0.94889356682E+02  0.89985216400E+02 0.  0.
         13    1    3    3    0    0  0.49160211985E+02 -0.51512075135E+01 -0.37775295867E+02  0.62211297392E+02  0.10566000000E+00 0.  1.
         22    1    1    0    0    0 -0.22447425848E+02 -0.11420486820E+01  0.20036457736E+02  0.30110643318E+02  0.00000000000E+00 0.  1.
</event>
<event>
 5    1  0.1324057E-009  0.9118800E+02  0.7818608E-02  0.1130116E+00
         25   -1    0    0    0    0  0.00000000000E+00  0.00000000000E+00  0.99999998245E-14  0.12500000000E+03  0.12500000000E+03 0.  0.
        -13    1    3    3    0    0  0.38377013173E+02  0.42816099400E+02  0.15744515595E+02  0.59614716668E+02  0.10566000000E+00 0.  1.
         23    2    1    0    0    0  0.28148269109E+02  0.11535179549E+02  0.54722769541E+01  0.94091566910E+02  0.88870083422E+02 0.  0.
         13    1    3    3    0    0 -0.10228744065E+02 -0.31280919851E+02 -0.10272238641E+02  0.34476850242E+02  0.10566000000E+00 0. -1.
         22    1    1    0    0    0 -0.28148269109E+02 -0.11535179549E+02 -0.54722769541E+01  0.30908433090E+02  0.00000000000E+00 0.  1.
</event>
<event>
 5    1  0.1324057E-009  0.9118800E+02  0.7818608E-02  0.1130116E+00
         25   -1    0    0    0    0  0.00000000000E+00  0.00000000000E+00  0.99999998245E-14  0.12500000000E+03  0.12500000000E+03 0.  0.
        -13    1    3    3    0    0  0.31649694814E+02 -0.35664610923E+02  0.40385999802E+02  0.62487661167E+02  0.10566000000E+00 0.  1.
         23    2    1    0    0    0  0.14469535502E+02 -0.17159829836E+02  0.19879698847E+02  0.95016176964E+02  0.90161212509E+02 0.  0.
         13    1    3    3    0    0 -0.17180159313E+02  0.18504781087E+02 -0.20506300955E+02  0.32528515797E+02  0.10566000000E+00 0. -1.
         22    1    1    0    0    0 -0.14469535502E+02  0.17159829836E+02 -0.19879698847E+02  0.29983823036E+02  0.00000000000E+00 0.  1.
</event>
<event>
 5    1  0.1324057E-009  0.9118800E+02  0.7818608E-02  0.1130116E+00
         25   -1    0    0    0    0  0.00000000000E+00  0.00000000000E+00  0.99999998245E-14  0.12500000000E+03  0.12500000000E+03 0.  0.
        -13    1    3    3    0    0 -0.10647120608E+02 -0.16950578734E+01  0.20182712578E+02  0.22882033334E+02  0.10566000000E+00 0.  1.
         23    2    1    0    0    0 -0.28026531718E+02  0.15601969979E+02 -0.31472730814E+02  0.80061812094E+02  0.66260493686E+02 0.  0.
         13    1    3    3    0    0 -0.17379411110E+02  0.17297027852E+02 -0.51655443392E+02  0.57179778761E+02  0.10566000000E+00 0. -1.
         22    1    1    0    0    0  0.28026531718E+02 -0.15601969979E+02  0.31472730814E+02  0.44938187906E+02  0.00000000000E+00 0. -1.
</event>
<event>
 5    1  0.1324057E-009  0.9118800E+02  0.7818608E-02  0.1130116E+00
         25   -1    0    0    0    0  0.00000000000E+00  0.00000000000E+00  0.99999998245E-14  0.12500000000E+03  0.12500000000E+03 0.  0.
        -13    1    3    3    0    0 -0.56144649528E+02  0.44989172615E+01  0.26389566694E+02  0.62200340204E+02  0.10566000000E+00 0. -1.
         23    2    1    0    0    0 -0.27935866886E+02 -0.15513594164E+01  0.10668805170E+02  0.95056005970E+02  0.90216414762E+02 0.  0.
         13    1    3    3    0    0  0.28208782641E+02 -0.60502766779E+01 -0.15720761524E+02  0.32855665766E+02  0.10566000000E+00 0.  1.
         22    1    1    0    0    0  0.27935866886E+02  0.15513594164E+01 -0.10668805170E+02  0.29943994030E+02  0.00000000000E+00 0. -1.
</event>
<event>
 5    1  0.1324057E-009  0.9118800E+02  0.7818608E-02  0.1130116E+00
         25   -1    0    0    0    0  0.00000000000E+00  0.00000000000E+00  0.99999998245E-14  0.12500000000E+03  0.12500000000E+03 0.  0.
        -13    1    3    3    0    0  0.44409638411E+02  0.12409062285E+02  0.57848991139E+00  0.46114494740E+02  0.10566000000E+00 0. -1.
         23    2    1    0    0    0  0.71043381964E+01  0.81686969998E+01  0.29544168984E+02  0.93534826350E+02  0.88083520522E+02 0.  0.
         13    1    3    3    0    0 -0.37305300214E+02 -0.42403652849E+01  0.28965679072E+02  0.47420331610E+02  0.10566000000E+00 0.  1.
         22    1    1    0    0    0 -0.71043381964E+01 -0.81686969998E+01 -0.29544168984E+02  0.31465173650E+02  0.00000000000E+00 0. -1.
</event>
<event>
 5    1  0.1324057E-009  0.9118800E+02  0.7818608E-02  0.1130116E+00
         25   -1    0    0    0    0  0.00000000000E+00  0.00000000000E+00  0.99999998245E-14  0.12500000000E+03  0.12500000000E+03 0.  0.
        -13    1    3    3    0    0  0.41982168940E+02  0.18433173561E+02 -0.13191609315E+02  0.47710733769E+02  0.10566000000E+00 0. -1.
         23    2    1    0    0    0  0.12208797015E+02 -0.21677522937E+02 -0.11233379350E+02  0.97702407856E+02  0.93811523620E+02 0.  0.
         13    1    3    3    0    0 -0.29773371925E+02 -0.40110696498E+02  0.19582299656E+01  0.49991674087E+02  0.10566000000E+00 0.  1.
         22    1    1    0    0    0 -0.12208797015E+02  0.21677522937E+02  0.11233379350E+02  0.27297592144E+02  0.00000000000E+00 0.  1.
</event>
<event>
 5    1  0.1324057E-009  0.9118800E+02  0.7818608E-02  0.1130116E+00
         25   -1    0    0    0    0  0.00000000000E+00  0.00000000000E+00  0.99999998245E-14  0.12500000000E+03  0.12500000000E+03 0.  0.
        -13    1    3    3    0    0  0.33707138407E+02 -0.14855404240E+02 -0.10840459585E+02  0.38397668455E+02  0.10566000000E+00 0.  1.
         23    2    1    0    0    0 -0.22578986174E+02 -0.96300522823E+01 -0.16822992990E+02  0.95241612666E+02  0.90473217951E+02 0.  0.
         13    1    3    3    0    0 -0.56286124581E+02  0.52253519581E+01 -0.59825334043E+01  0.56843944211E+02  0.10566000000E+00 0. -1.
         22    1    1    0    0    0  0.22578986174E+02  0.96300522823E+01  0.16822992990E+02  0.29758387334E+02  0.00000000000E+00 0. -1.
</event>
<event>
 5    1  0.1324057E-009  0.9118800E+02  0.7818608E-02  0.1130116E+00
         25   -1    0    0    0    0  0.00000000000E+00  0.00000000000E+00  0.99999998245E-14  0.12500000000E+03  0.12500000000E+03 0.  0.
        -13    1    3    3    0    0  0.26024510612E+02  0.34590117234E+02  0.15505204326E+02  0.45980146673E+02  0.10566000000E+00 0. -1.
         23    2    1    0    0    0  0.28361732157E+02 -0.81669381384E+01 -0.74417922119E+01  0.94562079558E+02  0.89529435883E+02 0.  0.
         13    1    3    3    0    0  0.23372215450E+01 -0.42757055373E+02 -0.22946996537E+02  0.48581932885E+02  0.10566000000E+00 0.  1.
         22    1    1    0    0    0 -0.28361732157E+02  0.81669381384E+01  0.74417922119E+01  0.30437920442E+02  0.00000000000E+00 0. -1.
</event>
<event>
 5    1  0.1324057E-009  0.9118800E+02  0.7818608E-02  0.1130116E+00
         25   -1    0    0    0    0  0.00000000000E+00  0.00000000000E+00  0.99999998245E-14  0.12500000000E+03  0.12500000000E+03 0.  0.
        -13    1    3    3    0    0 -0.42850202779E+01 -0.35736732806E+02 -0.10827317172E+02  0.37586133502E+02  0.10566000000E+00 0. -1.
         23    2    1    0    0    0  0.60734189325E+01  0.52499373479E+01  0.28539689193E+02  0.95352704695E+02  0.90626575427E+02 0.  0.
         13    1    3    3    0    0  0.10358439210E+02  0.40986670154E+02  0.39367006365E+02  0.57766571193E+02  0.10566000000E+00 0.  1.
         22    1    1    0    0    0 -0.60734189325E+01 -0.52499373479E+01 -0.28539689193E+02  0.29647295305E+02  0.00000000000E+00 0.  1.
</event>
<event>
 5    1  0.1324057E-009  0.9118800E+02  0.7818608E-02  0.1130116E+00
         25   -1    0    0    0    0  0.00000000000E+00  0.00000000000E+00  0.99999998245E-14  0.12500000000E+03  0.12500000000E+03 0.  0.
        -13    1    3    3    0    0 -0.77738530802E+01 -0.53910831394E+02  0.30701010553E+01  0.54554992602E+02  0.10566000000E+00 0.  1.
         23    2    1    0    0    0 -0.17366042074E+02 -0.15858828988E+02  0.16764868231E+02  0.96118471630E+02  0.91676703188E+02 0.  0.
         13    1    3    3    0    0 -0.95921889941E+01  0.38052002406E+02  0.13694767176E+02  0.41563479028E+02  0.10566000000E+00 0. -1.
         22    1    1    0    0    0  0.17366042074E+02  0.15858828988E+02 -0.16764868231E+02  0.28881528370E+02  0.00000000000E+00 0.  1.
</event>
<event>
 5    1  0.1324057E-009  0.9118800E+02  0.7818608E-02  0.1130116E+00
         25   -1    0    0    0    0  0.00000000000E+00  0.00000000000E+00  0.99999998245E-14  0.12500000000E+03  0.12500000000E+03 0.  0.
        -13    1    3    3    0    0  0.16432970961E+02 -0.37713118961E+02  0.43546089077E+02  0.59904882224E+02  0.10566000000E+00 0. -1.
         23    2    1    0    0    0  0.42147349237E+01 -0.26098888169E+02  0.11386257776E+02  0.96215232844E+02  0.91808541056E+02 0.  0.
         13    1    3    3    0    0 -0.12218236037E+02  0.11614230793E+02 -0.32159831301E+02  0.36310350619E+02  0.10566000000E+00 0.  1.
         22    1    1    0    0    0 -0.42147349237E+01  0.26098888169E+02 -0.11386257776E+02  0.28784767156E+02  0.00000000000E+00 0. -1.
</event>
<event>
 5    1  0.1324057E-009  0.9118800E+02  0.7818608E-02  0.1130116E+00
         25   -1    0    0    0    0  0.00000000000E+00  0.00000000000E+00  0.99999998245E-14  0.12500000000E+03  0.12500000000E+03 0.  0.
        -13    1    3    3    0    0  0.55695350041E+01  0.98187802444E+01 -0.45798710300E+02  0.47169494324E+02  0.10566000000E+00 0. -1.
         23    2    1    0    0    0  0.25778308867E+02 -0.13657047446E+02 -0.10837094728E+02  0.93879608371E+02  0.88571451906E+02 0.  0.
         13    1    3    3    0    0  0.20208773863E+02 -0.23475827690E+02  0.34961615572E+02  0.46710114047E+02  0.10566000000E+00 0.  1.
         22    1    1    0    0    0 -0.25778308867E+02  0.13657047446E+02  0.10837094728E+02  0.31120391629E+02  0.00000000000E+00 0. -1.
</event>
<event>
 5    1  0.1324057E-009  0.9118800E+02  0.7818608E-02  0.1130116E+00
         25   -1    0    0    0    0  0.00000000000E+00  0.00000000000E+00  0.99999998245E-14  0.12500000000E+03  0.12500000000E+03 0.  0.
        -13    1    3    3    0    0 -0.41319189552E+02  0.44712185656E+01  0.69359775333E+01  0.42135331600E+02  0.10566000000E+00 0. -1.
         23    2    1    0    0    0 -0.29335545699E+01 -0.21463732579E+02 -0.19824437816E+02  0.95634954566E+02  0.91015046237E+02 0.  0.
         13    1    3    3    0    0  0.38385634982E+02 -0.25934951145E+02 -0.26760415349E+02  0.53499622966E+02  0.10566000000E+00 0.  1.
         22    1    1    0    0    0  0.29335545699E+01  0.21463732579E+02  0.19824437816E+02  0.29365045434E+02  0.00000000000E+00 0.  1.
</event>
<event>
 5    1  0.1324057E-009  0.9118800E+02  0.7818608E-02  0.1130116E+00
         25   -1    0    0    0    0  0.00000000000E+00  0.00000000000E+00  0.99999998245E-14  0.12500000000E+03  0.12500000000E+03 0.  0.
        -13    1    3    3    0    0 -0.47621608883E+02 -0.95129508916E+01  0.35082824734E+02  0.59909345036E+02  0.10566000000E+00 0. -1.
         23    2    1    0    0    0 -0.18070978290E+02  0.59998608107E+01  0.22369677679E+02  0.95623801036E+02  0.90999726698E+02 0.  0.
         13    1    3    3    0    0  0.29550630593E+02  0.15512811702E+02 -0.12713147055E+02  0.35714456001E+02  0.10566000000E+00 0.  1.
         22    1    1    0    0    0  0.18070978290E+02 -0.59998608107E+01 -0.22369677679E+02  0.29376198964E+02  0.00000000000E+00 0. -1.
</event>
<event>
 5    1  0.1324057E-009  0.9118800E+02  0.7818608E-02  0.1130116E+00
         25   -1    0    0    0    0  0.00000000000E+00  0.00000000000E+00  0.99999998245E-14  0.12500000000E+03  0.12500000000E+03 0.  0.
        -13    1    3    3    0    0  0.56462909493E+02  0.21769729269E+02 -0.11642919919E+02  0.61624264776E+02  0.10566000000E+00 0.  1.
         23    2    1    0    0    0  0.26097472202E+02  0.13519666101E+02  0.11361002858E+01  0.95586565133E+02  0.90948563943E+02 0.  0.
         13    1    3    3    0    0 -0.30365437291E+02 -0.82500631682E+01  0.12779020205E+02  0.33962300357E+02  0.10566000000E+00 0. -1.
         22    1    1    0    0    0 -0.26097472202E+02 -0.13519666101E+02 -0.11361002858E+01  0.29413434867E+02  0.00000000000E+00 0.  1.
</event>
<event>
 5    1  0.1324057E-009  0.9118800E+02  0.7818608E-02  0.1130116E+00
         25   -1    0    0    0    0  0.00000000000E+00  0.00000000000E+00  0.99999998245E-14  0.12500000000E+03  0.12500000000E+03 0.  0.
        -13    1    3    3    0    0 -0.28691044305E+02  0.19887073917E+02  0.28819004649E+02  0.45268288297E+02  0.10566000000E+00 0. -1.
         23    2    1    0    0    0  0.11675422202E+02  0.27660261075E+02  0.89587682264E+00  0.94963220519E+02  0.90087763485E+02 0.  0.
         13    1    3    3    0    0  0.40366466507E+02  0.77731871574E+01 -0.27923127827E+02  0.49694932222E+02  0.10566000000E+00 0.  1.
         22    1    1    0    0    0 -0.11675422202E+02 -0.27660261075E+02 -0.89587682264E+00  0.30036779481E+02  0.00000000000E+00 0.  1.
</event>
<event>
 5    1  0.1324057E-009  0.9118800E+02  0.7818608E-02  0.1130116E+00
         25   -1    0    0    0    0  0.00000000000E+00  0.00000000000E+00  0.99999998245E-14  0.12500000000E+03  0.12500000000E+03 0.  0.
        -13    1    3    3    0    0 -0.32418200287E+01 -0.38995005491E+02 -0.21842559219E+02  0.44813261515E+02  0.10566000000E+00 0.  1.
         23    2    1    0    0    0 -0.18537094568E+02 -0.14411647392E+02  0.18943234768E+02  0.94831049090E+02  0.89904183842E+02 0.  0.
         13    1    3    3    0    0 -0.15295274539E+02  0.24583358099E+02  0.40785793987E+02  0.50017787575E+02  0.10566000000E+00 0. -1.
         22    1    1    0    0    0  0.18537094568E+02  0.14411647392E+02 -0.18943234768E+02  0.30168950910E+02  0.00000000000E+00 0. -1.
</event>
<event>
 5    1  0.1324057E-009  0.9118800E+02  0.7818608E-02  0.1130116E+00
         25   -1    0    0    0    0  0.00000000000E+00  0.00000000000E+00  0.99999998245E-14  0.12500000000E+03  0.12500000000E+03 0.  0.
        -13    1    3    3    0    0  0.38042387606E+02  0.14970251306E+01  0.97369047825E+01  0.39297364006E+02  0.10566000000E+00 0.  1.
         23    2    1    0    0    0 -0.34731767341E+01  0.23652851230E+02 -0.19023638107E+02  0.94448091144E+02  0.89370144825E+02 0.  0.
         13    1    3    3    0    0 -0.41515564340E+02  0.22155826099E+02 -0.28760542889E+02  0.55150727139E+02  0.10566000000E+00 0. -1.
         22    1    1    0    0    0  0.34731767341E+01 -0.23652851230E+02  0.19023638107E+02  0.30551908856E+02  0.00000000000E+00 0. -1.
</event>
<event>
 5    1  0.1324057E-009  0.9118800E+02  0.7818608E-02  0.1130116E+00
         25   -1    0    0    0    0  0.00000000000E+00  0.00000000000E+00  0.99999998245E-14  0.12500000000E+03  0.12500000000E+03 0.  0.
        -13    1    3    3    0    0  0.23667209895E+02 -0.56303051209E+02 -0.77446619917E+01  0.61564286344E+02  0.10566000000E+00 0. -1.
         23    2    1    0    0    0  0.39128551770E+01 -0.27972561251E+02 -0.58606807246E+01  0.96153471662E+02  0.91724412866E+02 0.  0.
         13    1    3    3    0    0 -0.19754354718E+02  0.28330489958E+02  0.18839812671E+01  0.34589185319E+02  0.10566000000E+00 0.  1.
         22    1    1    0    0    0 -0.39128551770E+01  0.27972561251E+02  0.58606807246E+01  0.28846528338E+02  0.00000000000E+00 0. -1.
</event>
<event>
 5    1  0.1324057E-009  0.9118800E+02  0.7818608E-02  0.1130116E+00
         25   -1    0    0    0    0  0.00000000000E+00  0.00000000000E+00  0.99999998245E-14  0.12500000000E+03  0.12500000000E+03 0.  0.
        -13    1    3    3    0    0 -0.31901725458E+02 -0.27279988655E+01  0.12247932618E+02  0.34280972601E+02  0.10566000000E+00 0.  1.
         23    2    1    0    0    0  0.27943856613E+02 -0.95934950973E+01  0.60998263242E+01  0.94832100641E+02  0.89905645875E+02 0.  0.
         13    1    3    3    0    0  0.59845582070E+02 -0.68654962318E+01 -0.61481062942E+01  0.60551128040E+02  0.10566000000E+00 0. -1.
         22    1    1    0    0    0 -0.27943856613E+02  0.95934950973E+01 -0.60998263242E+01  0.30167899359E+02  0.00000000000E+00 0. -1.
</event>
<event>
 5    1  0.1324057E-009  0.9118800E+02  0.7818608E-02  0.1130116E+00
         25   -1    0    0    0    0  0.00000000000E+00  0.00000000000E+00  0.99999998245E-14  0.12500000000E+03  0.12500000000E+03 0.  0.
        -13    1    3    3    0    0  0.33972996337E+02  0.93493053960E+01  0.16284800244E+02  0.38817262584E+02  0.10566000000E+00 0.  1.
         23    2    1    0    0    0 -0.19719523602E+02  0.21820320294E+02  0.36999418976E+01  0.95357537908E+02  0.90633241567E+02 0.  0.
         13    1    3    3    0    0 -0.53692519940E+02  0.12471014898E+02 -0.12584858346E+02  0.56540275324E+02  0.10566000000E+00 0. -1.
         22    1    1    0    0    0  0.19719523602E+02 -0.21820320294E+02 -0.36999418976E+01  0.29642462092E+02  0.00000000000E+00 0. -1.
</event>
<event>
 5    1  0.1324057E-009  0.9118800E+02  0.7818608E-02  0.1130116E+00
         25   -1    0    0    0    0  0.00000000000E+00  0.00000000000E+00  0.99999998245E-14  0.12500000000E+03  0.12500000000E+03 0.  0.
        -13    1    3    3    0    0  0.12921838480E+02  0.50213738302E+02 -0.14797199446E+02  0.53919956411E+02  0.10566000000E+00 0.  1.
         23    2    1    0    0    0  0.23578445482E+02  0.13455516764E+02  0.55892905157E+01  0.97282962077E+02  0.93250954522E+02 0.  0.
         13    1    3    3    0    0  0.10656607002E+02 -0.36758221537E+02  0.20386489962E+02  0.43363005666E+02  0.10566000000E+00 0. -1.
         22    1    1    0    0    0 -0.23578445482E+02 -0.13455516764E+02 -0.55892905157E+01  0.27717037923E+02  0.00000000000E+00 0. -1.
</event>
<event>
 5    1  0.1324057E-009  0.9118800E+02  0.7818608E-02  0.1130116E+00
         25   -1    0    0    0    0  0.00000000000E+00  0.00000000000E+00  0.99999998245E-14  0.12500000000E+03  0.12500000000E+03 0.  0.
        -13    1    3    3    0    0 -0.51248298439E+02  0.79676896604E+01  0.47010429911E+01  0.52076704395E+02  0.10566000000E+00 0.  1.
         23    2    1    0    0    0 -0.18067299064E+02  0.34005764559E+01 -0.23009655103E+02  0.95547742978E+02  0.90895190987E+02 0.  0.
         13    1    3    3    0    0  0.33180999375E+02 -0.45671132046E+01 -0.27710698094E+02  0.43471038583E+02  0.10566000000E+00 0. -1.
         22    1    1    0    0    0  0.18067299064E+02 -0.34005764559E+01  0.23009655103E+02  0.29452257022E+02  0.00000000000E+00 0.  1.
</event>
<event>
 5    1  0.1324057E-009  0.9118800E+02  0.7818608E-02  0.1130116E+00
         25   -1    0    0    0    0  0.00000000000E+00  0.00000000000E+00  0.99999998245E-14  0.12500000000E+03  0.12500000000E+03 0.  0.
        -13    1    3    3    0    0  0.44251323266E+01  0.17766482251E+02  0.45693528641E+02  0.49225393969E+02  0.10566000000E+00 0. -1.
         23    2    1    0    0    0  0.70143619460E+01  0.27853704679E+02 -0.18996938679E+00  0.96276033940E+02  0.91891286230E+02 0.  0.
         13    1    3    3    0    0  0.25892296193E+01  0.10087222428E+02 -0.45883498028E+02  0.47050639971E+02  0.10566000000E+00 0.  1.
         22    1    1    0    0    0 -0.70143619460E+01 -0.27853704679E+02  0.18996938679E+00  0.28723966060E+02  0.00000000000E+00 0. -1.
</event>
<event>
 5    1  0.1324057E-009  0.9118800E+02  0.7818608E-02  0.1130116E+00
         25   -1    0    0    0    0  0.00000000000E+00  0.00000000000E+00  0.99999998245E-14  0.12500000000E+03  0.12500000000E+03 0.  0.
        -13    1    3    3    0    0  0.24049010939E+02  0.23719008316E+02 -0.33003008053E+02  0.47224527391E+02  0.10566000000E+00 0. -1.
         23    2    1    0    0    0 -0.93231666997E+01 -0.10694005471E+02 -0.25602228317E+02  0.95729583448E+02  0.91144916819E+02 0.  0.
         13    1    3    3    0    0 -0.33372177639E+02 -0.34413013788E+02  0.74007797361E+01  0.48505056057E+02  0.10566000000E+00 0.  1.
         22    1    1    0    0    0  0.93231666997E+01  0.10694005471E+02  0.25602228317E+02  0.29270416552E+02  0.00000000000E+00 0. -1.
</event>
<event>
 5    1  0.1324057E-009  0.9118800E+02  0.7818608E-02  0.1130116E+00
         25   -1    0    0    0    0  0.00000000000E+00  0.00000000000E+00  0.99999998245E-14  0.12500000000E+03  0.12500000000E+03 0.  0.
        -13    1    3    3    0    0  0.24665733878E+02 -0.23480296184E+02 -0.13904704784E+02  0.36784163927E+02  0.10566000000E+00 0.  1.
         23    2    1    0    0    0  0.97305585710E+01  0.27257575237E+02  0.93833012551E+01  0.94574590877E+02  0.89546902342E+02 0.  0.
         13    1    3    3    0    0 -0.14935175307E+02  0.50737871421E+02  0.23288006039E+02  0.57790426950E+02  0.10566000000E+00 0. -1.
         22    1    1    0    0    0 -0.97305585710E+01 -0.27257575237E+02 -0.93833012551E+01  0.30425409123E+02  0.00000000000E+00 0. -1.
</event>
<event>
 5    1  0.1324057E-009  0.9118800E+02  0.7818608E-02  0.1130116E+00
         25   -1    0    0    0    0  0.00000000000E+00  0.00000000000E+00  0.99999998245E-14  0.12500000000E+03  0.12500000000E+03 0.  0.
        -13    1    3    3    0    0  0.22677720226E+02  0.26839287127E+01  0.35330010145E+02  0.42067841030E+02  0.10566000000E+00 0.  1.
         23    2    1    0    0    0  0.11335761009E+02  0.25921555074E+02 -0.10609103689E+02  0.94784448107E+02  0.89839367911E+02 0.  0.
         13    1    3    3    0    0 -0.11341959217E+02  0.23237626362E+02 -0.45939113834E+02  0.52716607077E+02  0.10566000000E+00 0. -1.
         22    1    1    0    0    0 -0.11335761009E+02 -0.25921555074E+02  0.10609103689E+02  0.30215551893E+02  0.00000000000E+00 0. -1.
</event>
<event>
 5    1  0.1324057E-009  0.9118800E+02  0.7818608E-02  0.1130116E+00
         25   -1    0    0    0    0  0.00000000000E+00  0.00000000000E+00  0.99999998245E-14  0.12500000000E+03  0.12500000000E+03 0.  0.
        -13    1    3    3    0    0  0.28370959879E+02 -0.35991442781E+02 -0.33063198435E+02  0.56510897822E+02  0.10566000000E+00 0.  1.
         23    2    1    0    0    0  0.42551934445E+01 -0.23598069887E+02  0.21178032363E+01  0.10092801080E+03  0.98015318697E+02 0.  0.
         13    1    3    3    0    0 -0.24115766434E+02  0.12393372894E+02  0.35181001671E+02  0.44417112975E+02  0.10566000000E+00 0. -1.
         22    1    1    0    0    0 -0.42551934445E+01  0.23598069887E+02 -0.21178032363E+01  0.24071989203E+02  0.00000000000E+00 0. -1.
</event>
<event>
 5    1  0.1324057E-009  0.9118800E+02  0.7818608E-02  0.1130116E+00
         25   -1    0    0    0    0  0.00000000000E+00  0.00000000000E+00  0.99999998245E-14  0.12500000000E+03  0.12500000000E+03 0.  0.
        -13    1    3    3    0    0  0.14149275966E+02 -0.66333966408E+01 -0.45821622555E+02  0.48413182285E+02  0.10566000000E+00 0. -1.
         23    2    1    0    0    0  0.27815991874E+02 -0.10772515556E+02 -0.13290032516E+01  0.95141286950E+02  0.90334499155E+02 0.  0.
         13    1    3    3    0    0  0.13666715908E+02 -0.41391189149E+01  0.44492619303E+02  0.46728104665E+02  0.10566000000E+00 0.  1.
         22    1    1    0    0    0 -0.27815991874E+02  0.10772515556E+02  0.13290032516E+01  0.29858713050E+02  0.00000000000E+00 0.  1.
</event>
<event>
 5    1  0.1324057E-009  0.9118800E+02  0.7818608E-02  0.1130116E+00
         25   -1    0    0    0    0  0.00000000000E+00  0.00000000000E+00  0.99999998245E-14  0.12500000000E+03  0.12500000000E+03 0.  0.
        -13    1    3    3    0    0  0.10118467951E+02  0.50299538619E+02  0.28372681478E+02  0.58629746693E+02  0.10566000000E+00 0. -1.
         23    2    1    0    0    0  0.16911939991E+02  0.26144210342E+02  0.40069353102E+01  0.93605908530E+02  0.88184336094E+02 0.  0.
         13    1    3    3    0    0  0.67934720397E+01 -0.24155328276E+02 -0.24365746168E+02  0.34976161837E+02  0.10566000000E+00 0.  1.
         22    1    1    0    0    0 -0.16911939991E+02 -0.26144210342E+02 -0.40069353102E+01  0.31394091470E+02  0.00000000000E+00 0. -1.
</event>
<event>
 5    1  0.1324057E-009  0.9118800E+02  0.7818608E-02  0.1130116E+00
         25   -1    0    0    0    0  0.00000000000E+00  0.00000000000E+00  0.99999998245E-14  0.12500000000E+03  0.12500000000E+03 0.  0.
        -13    1    3    3    0    0 -0.13399052741E+02 -0.14206823597E+02  0.32789710685E+02  0.38164705448E+02  0.10566000000E+00 0. -1.
         23    2    1    0    0    0  0.31854506179E+02 -0.14627257874E+02  0.12185714759E+02  0.87889922110E+02  0.79671077108E+02 0.  0.
         13    1    3    3    0    0  0.45253558920E+02 -0.42043427708E+00 -0.20603995926E+02  0.49725216662E+02  0.10566000000E+00 0.  1.
         22    1    1    0    0    0 -0.31854506179E+02  0.14627257874E+02 -0.12185714759E+02  0.37110077890E+02  0.00000000000E+00 0.  1.
</event>
<event>
 5    1  0.1324057E-009  0.9118800E+02  0.7818608E-02  0.1130116E+00
         25   -1    0    0    0    0  0.00000000000E+00  0.00000000000E+00  0.99999998245E-14  0.12500000000E+03  0.12500000000E+03 0.  0.
        -13    1    3    3    0    0 -0.33872774813E+02  0.84496637315E+00 -0.15930197811E+02  0.37441437046E+02  0.10566000000E+00 0. -1.
         23    2    1    0    0    0  0.16660245757E+02 -0.24259101674E+02 -0.23540709117E+01  0.95476967423E+02  0.90797807549E+02 0.  0.
         13    1    3    3    0    0  0.50533020570E+02 -0.25104068047E+02  0.13576126900E+02  0.58035530377E+02  0.10566000000E+00 0.  1.
         22    1    1    0    0    0 -0.16660245757E+02  0.24259101674E+02  0.23540709117E+01  0.29523032577E+02  0.00000000000E+00 0.  1.
</event>
<event>
 5    1  0.1324057E-009  0.9118800E+02  0.7818608E-02  0.1130116E+00
         25   -1    0    0    0    0  0.00000000000E+00  0.00000000000E+00  0.99999998245E-14  0.12500000000E+03  0.12500000000E+03 0.  0.
        -13    1    3    3    0    0  0.80963734528E+01  0.16488842457E+02 -0.43097902487E+02  0.46849477600E+02  0.10566000000E+00 0. -1.
         23    2    1    0    0    0 -0.19558921107E+02 -0.13974335237E+02 -0.16569011247E+02  0.95804699455E+02  0.91247875941E+02 0.  0.
         13    1    3    3    0    0 -0.27655294560E+02 -0.30463177694E+02  0.26528891240E+02  0.48955221855E+02  0.10566000000E+00 0.  1.
         22    1    1    0    0    0  0.19558921107E+02  0.13974335237E+02  0.16569011247E+02  0.29195300545E+02  0.00000000000E+00 0. -1.
</event>
<event>
 5    1  0.1324057E-009  0.9118800E+02  0.7818608E-02  0.1130116E+00
         25   -1    0    0    0    0  0.00000000000E+00  0.00000000000E+00  0.99999998245E-14  0.12500000000E+03  0.12500000000E+03 0.  0.
        -13    1    3    3    0    0 -0.20871932348E+02 -0.22982605081E+02  0.89334211130E+01  0.32305647696E+02  0.10566000000E+00 0.  1.
         23    2    1    0    0    0  0.20088022631E+02  0.20227840228E+02  0.16076779487E+02  0.92271464863E+02  0.86272047709E+02 0.  0.
         13    1    3    3    0    0  0.40959954979E+02  0.43210445309E+02  0.71433583741E+01  0.59965817167E+02  0.10566000000E+00 0. -1.
         22    1    1    0    0    0 -0.20088022631E+02 -0.20227840228E+02 -0.16076779487E+02  0.32728535137E+02  0.00000000000E+00 0. -1.
</event>
<event>
 5    1  0.1324057E-009  0.9118800E+02  0.7818608E-02  0.1130116E+00
         25   -1    0    0    0    0  0.00000000000E+00  0.00000000000E+00  0.99999998245E-14  0.12500000000E+03  0.12500000000E+03 0.  0.
        -13    1    3    3    0    0  0.47920883687E+02  0.13255588092E+01  0.34629036197E+02  0.59138392872E+02  0.10566000000E+00 0.  1.
         23    2    1    0    0    0  0.25973201672E+02 -0.13068995925E+02  0.12995041369E+02  0.93152284858E+02  0.87538969691E+02 0.  0.
         13    1    3    3    0    0 -0.21947682016E+02 -0.14394554734E+02 -0.21633994827E+02  0.34013891987E+02  0.10566000000E+00 0. -1.
         22    1    1    0    0    0 -0.25973201672E+02  0.13068995925E+02 -0.12995041369E+02  0.31847715142E+02  0.00000000000E+00 0.  1.
</event>
<event>
 5    1  0.1324057E-009  0.9118800E+02  0.7818608E-02  0.1130116E+00
         25   -1    0    0    0    0  0.00000000000E+00  0.00000000000E+00  0.99999998245E-14  0.12500000000E+03  0.12500000000E+03 0.  0.
        -13    1    3    3    0    0 -0.30980689386E+02 -0.18746548142E+02  0.51929896394E+01  0.36581614063E+02  0.10566000000E+00 0. -1.
         23    2    1    0    0    0  0.18625705874E+02  0.99621901283E+01  0.20141326077E+02  0.95813784630E+02  0.91260320827E+02 0.  0.
         13    1    3    3    0    0  0.49606395260E+02  0.28708738270E+02  0.14948336438E+02  0.59232170567E+02  0.10566000000E+00 0.  1.
         22    1    1    0    0    0 -0.18625705874E+02 -0.99621901283E+01 -0.20141326077E+02  0.29186215370E+02  0.00000000000E+00 0.  1.
</event>
<event>
 5    1  0.1324057E-009  0.9118800E+02  0.7818608E-02  0.1130116E+00
         25   -1    0    0    0    0  0.00000000000E+00  0.00000000000E+00  0.99999998245E-14  0.12500000000E+03  0.12500000000E+03 0.  0.
        -13    1    3    3    0    0 -0.28007963054E+02 -0.30661685854E+02  0.46505574978E+01  0.41787843004E+02  0.10566000000E+00 0. -1.
         23    2    1    0    0    0 -0.56292575086E+01  0.14148859594E+02  0.24898949494E+02  0.95813762596E+02  0.91260290647E+02 0.  0.
         13    1    3    3    0    0  0.22378705545E+02  0.44810545449E+02  0.20248391996E+02  0.54025919592E+02  0.10566000000E+00 0.  1.
         22    1    1    0    0    0  0.56292575086E+01 -0.14148859594E+02 -0.24898949494E+02  0.29186237404E+02  0.00000000000E+00 0.  1.
</event>
<event>
 5    1  0.1324057E-009  0.9118800E+02  0.7818608E-02  0.1130116E+00
         25   -1    0    0    0    0  0.00000000000E+00  0.00000000000E+00  0.99999998245E-14  0.12500000000E+03  0.12500000000E+03 0.  0.
        -13    1    3    3    0    0 -0.22511104170E+00 -0.47290698044E+02 -0.50814123726E+00  0.47294081744E+02  0.10566000000E+00 0. -1.
         23    2    1    0    0    0 -0.38667263937E+01 -0.46462172137E+01 -0.26801566345E+02  0.97525232195E+02  0.93575146533E+02 0.  0.
         13    1    3    3    0    0 -0.36416153520E+01  0.42644480830E+02 -0.26293425108E+02  0.50231150451E+02  0.10566000000E+00 0.  1.
         22    1    1    0    0    0  0.38667263937E+01  0.46462172137E+01  0.26801566345E+02  0.27474767805E+02  0.00000000000E+00 0. -1.
</event>
<event>
 5    1  0.1324057E-009  0.9118800E+02  0.7818608E-02  0.1130116E+00
         25   -1    0    0    0    0  0.00000000000E+00  0.00000000000E+00  0.99999998245E-14  0.12500000000E+03  0.12500000000E+03 0.  0.
        -13    1    3    3    0    0 -0.13287701021E+02 -0.52905442512E+02  0.15267105702E+02  0.56644898502E+02  0.10566000000E+00 0.  1.
         23    2    1    0    0    0  0.52636183501E+01 -0.18709247332E+02  0.21468973334E+02  0.96040400040E+02  0.91570191711E+02 0.  0.
         13    1    3    3    0    0  0.18551319371E+02  0.34196195180E+02  0.62018676319E+01  0.39395501537E+02  0.10566000000E+00 0. -1.
         22    1    1    0    0    0 -0.52636183501E+01  0.18709247332E+02 -0.21468973334E+02  0.28959599960E+02  0.00000000000E+00 0. -1.
</event>
<event>
 5    1  0.1324057E-009  0.9118800E+02  0.7818608E-02  0.1130116E+00
         25   -1    0    0    0    0  0.00000000000E+00  0.00000000000E+00  0.99999998245E-14  0.12500000000E+03  0.12500000000E+03 0.  0.
        -13    1    3    3    0    0  0.27566589473E+02 -0.13185906617E+02 -0.51584407797E+02  0.59956211357E+02  0.10566000000E+00 0.  1.
         23    2    1    0    0    0  0.10389989081E+02 -0.17484315087E+02 -0.18379144581E+02  0.97587482737E+02  0.93658265435E+02 0.  0.
         13    1    3    3    0    0 -0.17176600392E+02 -0.42984084701E+01  0.33205263216E+02  0.37631271380E+02  0.10566000000E+00 0. -1.
         22    1    1    0    0    0 -0.10389989081E+02  0.17484315087E+02  0.18379144581E+02  0.27412517263E+02  0.00000000000E+00 0.  1.
</event>
<event>
 5    1  0.1324057E-009  0.9118800E+02  0.7818608E-02  0.1130116E+00
         25   -1    0    0    0    0  0.00000000000E+00  0.00000000000E+00  0.99999998245E-14  0.12500000000E+03  0.12500000000E+03 0.  0.
        -13    1    3    3    0    0  0.22898924883E+02 -0.75618235348E+01  0.50853013490E+02  0.56281276469E+02  0.10566000000E+00 0. -1.
         23    2    1    0    0    0  0.20196353477E+02 -0.21423848398E+02  0.22544846498E+02  0.87917064874E+02  0.79713651394E+02 0.  0.
         13    1    3    3    0    0 -0.27025714065E+01 -0.13862024863E+02 -0.28308166992E+02  0.31635788405E+02  0.10566000000E+00 0.  1.
         22    1    1    0    0    0 -0.20196353477E+02  0.21423848398E+02 -0.22544846498E+02  0.37082935126E+02  0.00000000000E+00 0. -1.
</event>
<event>
 5    1  0.1324057E-009  0.9118800E+02  0.7818608E-02  0.1130116E+00
         25   -1    0    0    0    0  0.00000000000E+00  0.00000000000E+00  0.99999998245E-14  0.12500000000E+03  0.12500000000E+03 0.  0.
        -13    1    3    3    0    0  0.34705056493E+02 -0.38585660933E+02 -0.33590754655E+02  0.61819447896E+02  0.10566000000E+00 0.  1.
         23    2    1    0    0    0  0.21346000142E+02 -0.25733239844E+02 -0.14112382135E+02  0.88709358170E+02  0.80946522733E+02 0.  0.
         13    1    3    3    0    0 -0.13359056351E+02  0.12852421089E+02  0.19478372521E+02  0.26889910274E+02  0.10566000000E+00 0. -1.
         22    1    1    0    0    0 -0.21346000142E+02  0.25733239844E+02  0.14112382135E+02  0.36290641830E+02  0.00000000000E+00 0.  1.
</event>
<event>
 5    1  0.1324057E-009  0.9118800E+02  0.7818608E-02  0.1130116E+00
         25   -1    0    0    0    0  0.00000000000E+00  0.00000000000E+00  0.99999998245E-14  0.12500000000E+03  0.12500000000E+03 0.  0.
        -13    1    3    3    0    0 -0.23703308474E+02  0.46681994559E+02 -0.16791035733E+02  0.54981865134E+02  0.10566000000E+00 0.  1.
         23    2    1    0    0    0 -0.60146496468E+01  0.11322459020E+02 -0.26383664308E+02  0.95666199855E+02  0.91057948383E+02 0.  0.
         13    1    3    3    0    0  0.17688658827E+02 -0.35359535539E+02 -0.95926285751E+01  0.40684334721E+02  0.10566000000E+00 0. -1.
         22    1    1    0    0    0  0.60146496468E+01 -0.11322459020E+02  0.26383664308E+02  0.29333800145E+02  0.00000000000E+00 0.  1.
</event>
<event>
 5    1  0.1324057E-009  0.9118800E+02  0.7818608E-02  0.1130116E+00
         25   -1    0    0    0    0  0.00000000000E+00  0.00000000000E+00  0.99999998245E-14  0.12500000000E+03  0.12500000000E+03 0.  0.
        -13    1    3    3    0    0  0.32340534142E+02 -0.46513494052E+02  0.30081425219E+01  0.56731608147E+02  0.10566000000E+00 0.  1.
         23    2    1    0    0    0  0.28056089878E+02 -0.83655729938E+01  0.55431587809E+01  0.95203127681E+02  0.90420030525E+02 0.  0.
         13    1    3    3    0    0 -0.42844442641E+01  0.38147921059E+02  0.25350162590E+01  0.38471519533E+02  0.10566000000E+00 0. -1.
         22    1    1    0    0    0 -0.28056089878E+02  0.83655729938E+01 -0.55431587809E+01  0.29796872319E+02  0.00000000000E+00 0.  1.
</event>
<event>
 5    1  0.1324057E-009  0.9118800E+02  0.7818608E-02  0.1130116E+00
         25   -1    0    0    0    0  0.00000000000E+00  0.00000000000E+00  0.99999998245E-14  0.12500000000E+03  0.12500000000E+03 0.  0.
        -13    1    3    3    0    0  0.28443768719E+02  0.37883018176E+02 -0.50609104895E+01  0.47642365853E+02  0.10566000000E+00 0.  1.
         23    2    1    0    0    0  0.53295440594E+01  0.45698789230E+00 -0.27472885138E+02  0.97011211252E+02  0.92885966717E+02 0.  0.
         13    1    3    3    0    0 -0.23114224660E+02 -0.37426030283E+02 -0.22411974648E+02  0.49368845399E+02  0.10566000000E+00 0. -1.
         22    1    1    0    0    0 -0.53295440594E+01 -0.45698789230E+00  0.27472885138E+02  0.27988788748E+02  0.00000000000E+00 0.  1.
</event>
<event>
 5    1  0.1324057E-009  0.9118800E+02  0.7818608E-02  0.1130116E+00
         25   -1    0    0    0    0  0.00000000000E+00  0.00000000000E+00  0.99999998245E-14  0.12500000000E+03  0.12500000000E+03 0.  0.
        -13    1    3    3    0    0  0.67741134152E-01  0.30638979332E+02  0.12018359658E+02  0.32912061258E+02  0.10566000000E+00 0.  1.
         23    2    1    0    0    0  0.34887754427E+00 -0.20059172241E+02 -0.22962458984E+02  0.94507925142E+02  0.89453794136E+02 0.  0.
         13    1    3    3    0    0  0.28113641012E+00 -0.50698151573E+02 -0.34980818643E+02  0.61595863884E+02  0.10566000000E+00 0. -1.
         22    1    1    0    0    0 -0.34887754427E+00  0.20059172241E+02  0.22962458984E+02  0.30492074858E+02  0.00000000000E+00 0. -1.
</event>
<event>
 5    1  0.1324057E-009  0.9118800E+02  0.7818608E-02  0.1130116E+00
         25   -1    0    0    0    0  0.00000000000E+00  0.00000000000E+00  0.99999998245E-14  0.12500000000E+03  0.12500000000E+03 0.  0.
        -13    1    3    3    0    0  0.19521935327E+02 -0.20861662790E+02  0.47616414760E+02  0.55530613646E+02  0.10566000000E+00 0. -1.
         23    2    1    0    0    0  0.18815719286E+02 -0.18688717646E+02  0.52415282529E+01  0.97967185165E+02  0.94163667575E+02 0.  0.
         13    1    3    3    0    0 -0.70621604121E+00  0.21729451437E+01 -0.42374886507E+02  0.42436571519E+02  0.10566000000E+00 0.  1.
         22    1    1    0    0    0 -0.18815719286E+02  0.18688717646E+02 -0.52415282529E+01  0.27032814835E+02  0.00000000000E+00 0. -1.
</event>
<event>
 5    1  0.1324057E-009  0.9118800E+02  0.7818608E-02  0.1130116E+00
         25   -1    0    0    0    0  0.00000000000E+00  0.00000000000E+00  0.99999998245E-14  0.12500000000E+03  0.12500000000E+03 0.  0.
        -13    1    3    3    0    0  0.95756128468E+01  0.40014454661E+02 -0.38688584492E+01  0.41325877764E+02  0.10566000000E+00 0. -1.
         23    2    1    0    0    0 -0.28507661919E+02  0.28177398886E+00 -0.11008727318E+00  0.96490733017E+02  0.92182879399E+02 0.  0.
         13    1    3    3    0    0 -0.38083274766E+02 -0.39732680672E+02  0.37587711760E+01  0.55164855253E+02  0.10566000000E+00 0.  1.
         22    1    1    0    0    0  0.28507661919E+02 -0.28177398886E+00  0.11008727318E+00  0.28509266983E+02  0.00000000000E+00 0.  1.
</event>
<event>
 5    1  0.1324057E-009  0.9118800E+02  0.7818608E-02  0.1130116E+00
         25   -1    0    0    0    0  0.00000000000E+00  0.00000000000E+00  0.99999998245E-14  0.12500000000E+03  0.12500000000E+03 0.  0.
        -13    1    3    3    0    0  0.44148464031E+02 -0.34141206199E+02 -0.24834308271E+02  0.61085701014E+02  0.10566000000E+00 0.  1.
         23    2    1    0    0    0  0.20248466804E+02 -0.23005156327E+02 -0.53060172230E+01  0.93897083025E+02  0.88596110278E+02 0.  0.
         13    1    3    3    0    0 -0.23899997227E+02  0.11136049872E+02  0.19528291048E+02  0.32811382011E+02  0.10566000000E+00 0. -1.
         22    1    1    0    0    0 -0.20248466804E+02  0.23005156327E+02  0.53060172230E+01  0.31102916975E+02  0.00000000000E+00 0.  1.
</event>
<event>
 5    1  0.1324057E-009  0.9118800E+02  0.7818608E-02  0.1130116E+00
         25   -1    0    0    0    0  0.00000000000E+00  0.00000000000E+00  0.99999998245E-14  0.12500000000E+03  0.12500000000E+03 0.  0.
        -13    1    3    3    0    0 -0.46692160591E+02 -0.28780641898E+02 -0.22919461285E+02  0.59445740624E+02  0.10566000000E+00 0. -1.
         23    2    1    0    0    0 -0.19121968141E+02 -0.76172880760E+01 -0.22909151197E+02  0.94202241124E+02  0.89025615870E+02 0.  0.
         13    1    3    3    0    0  0.27570192450E+02  0.21163353822E+02  0.10310088026E-01  0.34756500500E+02  0.10566000000E+00 0.  1.
         22    1    1    0    0    0  0.19121968141E+02  0.76172880760E+01  0.22909151197E+02  0.30797758876E+02  0.00000000000E+00 0. -1.
</event>
<event>
 5    1  0.1324057E-009  0.9118800E+02  0.7818608E-02  0.1130116E+00
         25   -1    0    0    0    0  0.00000000000E+00  0.00000000000E+00  0.99999998245E-14  0.12500000000E+03  0.12500000000E+03 0.  0.
        -13    1    3    3    0    0 -0.37093811795E+02  0.47437768101E+01 -0.26775662929E+02  0.45993494988E+02  0.10566000000E+00 0.  1.
         23    2    1    0    0    0  0.11219087530E+02  0.15604764060E+02 -0.22068925025E+02  0.95735447413E+02  0.91152958554E+02 0.  0.
         13    1    3    3    0    0  0.48312899325E+02  0.10860987250E+02  0.47067379042E+01  0.49741952424E+02  0.10566000000E+00 0. -1.
         22    1    1    0    0    0 -0.11219087530E+02 -0.15604764060E+02  0.22068925025E+02  0.29264552587E+02  0.00000000000E+00 0. -1.
</event>
<event>
 5    1  0.1324057E-009  0.9118800E+02  0.7818608E-02  0.1130116E+00
         25   -1    0    0    0    0  0.00000000000E+00  0.00000000000E+00  0.99999998245E-14  0.12500000000E+03  0.12500000000E+03 0.  0.
        -13    1    3    3    0    0 -0.27071805764E+02 -0.13692505836E+02  0.29288926292E+02  0.42168942965E+02  0.10566000000E+00 0.  1.
         23    2    1    0    0    0 -0.15913231745E+02  0.22453129336E+02 -0.90507195067E+01  0.96029506647E+02  0.91555320226E+02 0.  0.
         13    1    3    3    0    0  0.11158574019E+02  0.36145635172E+02 -0.38339645799E+02  0.53860563682E+02  0.10566000000E+00 0. -1.
         22    1    1    0    0    0  0.15913231745E+02 -0.22453129336E+02  0.90507195067E+01  0.28970493353E+02  0.00000000000E+00 0. -1.
</event>
<event>
 5    1  0.1324057E-009  0.9118800E+02  0.7818608E-02  0.1130116E+00
         25   -1    0    0    0    0  0.00000000000E+00  0.00000000000E+00  0.99999998245E-14  0.12500000000E+03  0.12500000000E+03 0.  0.
        -13    1    3    3    0    0 -0.22867235356E+02  0.10867637510E+02  0.27456249487E+02  0.37347995901E+02  0.10566000000E+00 0.  1.
         23    2    1    0    0    0  0.18912367246E+02  0.17774778457E+02 -0.13051066570E+02  0.95949170017E+02  0.91445571267E+02 0.  0.
         13    1    3    3    0    0  0.41779602602E+02  0.69071409466E+01 -0.40507316057E+02  0.58601174117E+02  0.10566000000E+00 0. -1.
         22    1    1    0    0    0 -0.18912367246E+02 -0.17774778457E+02  0.13051066570E+02  0.29050829983E+02  0.00000000000E+00 0. -1.
</event>
<event>
 5    1  0.1324057E-009  0.9118800E+02  0.7818608E-02  0.1130116E+00
         25   -1    0    0    0    0  0.00000000000E+00  0.00000000000E+00  0.99999998245E-14  0.12500000000E+03  0.12500000000E+03 0.  0.
        -13    1    3    3    0    0  0.35967081472E+02 -0.25628268652E+02 -0.15319629362E+02  0.46745495094E+02  0.10566000000E+00 0.  1.
         23    2    1    0    0    0  0.14054960370E+02 -0.64267268658E+01  0.24468039546E+02  0.96059894810E+02  0.91596799630E+02 0.  0.
         13    1    3    3    0    0 -0.21912121102E+02  0.19201541786E+02  0.39787668908E+02  0.49314399716E+02  0.10566000000E+00 0. -1.
         22    1    1    0    0    0 -0.14054960370E+02  0.64267268658E+01 -0.24468039546E+02  0.28940105190E+02  0.00000000000E+00 0. -1.
</event>
<event>
 5    1  0.1324057E-009  0.9118800E+02  0.7818608E-02  0.1130116E+00
         25   -1    0    0    0    0  0.00000000000E+00  0.00000000000E+00  0.99999998245E-14  0.12500000000E+03  0.12500000000E+03 0.  0.
        -13    1    3    3    0    0  0.27471381323E+02 -0.19578842403E+02  0.18541493194E+02  0.38494233277E+02  0.10566000000E+00 0.  1.
         23    2    1    0    0    0  0.29598410165E+02  0.25393374287E+02  0.40494783071E+01  0.85791740455E+02  0.76308158894E+02 0.  0.
         13    1    3    3    0    0  0.21270288422E+01  0.44972216690E+02 -0.14492014887E+02  0.47297507178E+02  0.10566000000E+00 0. -1.
         22    1    1    0    0    0 -0.29598410165E+02 -0.25393374287E+02 -0.40494783071E+01  0.39208259545E+02  0.00000000000E+00 0. -1.
</event>
<event>
 5    1  0.1324057E-009  0.9118800E+02  0.7818608E-02  0.1130116E+00
         25   -1    0    0    0    0  0.00000000000E+00  0.00000000000E+00  0.99999998245E-14  0.12500000000E+03  0.12500000000E+03 0.  0.
        -13    1    3    3    0    0  0.11231024113E+02  0.20962028266E+02  0.25658076205E+02  0.34984147413E+02  0.10566000000E+00 0.  1.
         23    2    1    0    0    0  0.22622969702E+01 -0.26255471821E+02 -0.12001554095E+02  0.96043047660E+02  0.91573805835E+02 0.  0.
         13    1    3    3    0    0 -0.89687271427E+01 -0.47217500087E+02 -0.37659630300E+02  0.61058900247E+02  0.10566000000E+00 0. -1.
         22    1    1    0    0    0 -0.22622969702E+01  0.26255471821E+02  0.12001554095E+02  0.28956952340E+02  0.00000000000E+00 0. -1.
</event>
<event>
 5    1  0.1324057E-009  0.9118800E+02  0.7818608E-02  0.1130116E+00
         25   -1    0    0    0    0  0.00000000000E+00  0.00000000000E+00  0.99999998245E-14  0.12500000000E+03  0.12500000000E+03 0.  0.
        -13    1    3    3    0    0 -0.56668800178E+02  0.92807917824E+00 -0.19245591673E+02  0.59854976463E+02  0.10566000000E+00 0.  1.
         23    2    1    0    0    0 -0.29643098226E+02 -0.25861658760E+01  0.30799151184E+01  0.95085331299E+02  0.90257037536E+02 0.  0.
         13    1    3    3    0    0  0.27025701952E+02 -0.35142450543E+01  0.22325506791E+02  0.35230354835E+02  0.10566000000E+00 0. -1.
         22    1    1    0    0    0  0.29643098226E+02  0.25861658760E+01 -0.30799151184E+01  0.29914668701E+02  0.00000000000E+00 0.  1.
</event>
<event>
 5    1  0.1324057E-009  0.9118800E+02  0.7818608E-02  0.1130116E+00
         25   -1    0    0    0    0  0.00000000000E+00  0.00000000000E+00  0.99999998245E-14  0.12500000000E+03  0.12500000000E+03 0.  0.
        -13    1    3    3    0    0  0.16451841961E+02  0.97199745504E+01  0.29674522995E+02  0.35294893231E+02  0.10566000000E+00 0.  1.
         23    2    1    0    0    0  0.69755904880E+01 -0.11392124924E+02 -0.26100270631E+02  0.95679981243E+02  0.91076864849E+02 0.  0.
         13    1    3    3    0    0 -0.94762514734E+01 -0.21112099474E+02 -0.55774793625E+02  0.60385088012E+02  0.10566000000E+00 0. -1.
         22    1    1    0    0    0 -0.69755904880E+01  0.11392124924E+02  0.26100270631E+02  0.29320018757E+02  0.00000000000E+00 0. -1.
</event>
<event>
 5    1  0.1324057E-009  0.9118800E+02  0.7818608E-02  0.1130116E+00
         25   -1    0    0    0    0  0.00000000000E+00  0.00000000000E+00  0.99999998245E-14  0.12500000000E+03  0.12500000000E+03 0.  0.
        -13    1    3    3    0    0 -0.14101744736E+02  0.89825750610E+01  0.33594740440E+02  0.37525506107E+02  0.10566000000E+00 0.  1.
         23    2    1    0    0    0  0.15426177207E+01 -0.28533981045E+02 -0.76337328305E+01  0.95422278305E+02  0.90722486608E+02 0.  0.
         13    1    3    3    0    0  0.15644362456E+02 -0.37516556106E+02 -0.41228473270E+02  0.57896772198E+02  0.10566000000E+00 0. -1.
         22    1    1    0    0    0 -0.15426177207E+01  0.28533981045E+02  0.76337328305E+01  0.29577721695E+02  0.00000000000E+00 0. -1.
</event>
<event>
 5    1  0.1324057E-009  0.9118800E+02  0.7818608E-02  0.1130116E+00
         25   -1    0    0    0    0  0.00000000000E+00  0.00000000000E+00  0.99999998245E-14  0.12500000000E+03  0.12500000000E+03 0.  0.
        -13    1    3    3    0    0 -0.18153250155E+02  0.32120586877E+01 -0.56139630668E+02  0.59089145431E+02  0.10566000000E+00 0.  1.
         23    2    1    0    0    0 -0.67753900636E+01 -0.13009259164E+02 -0.25677732913E+02  0.95428177228E+02  0.90730613946E+02 0.  0.
         13    1    3    3    0    0  0.11377860092E+02 -0.16221317851E+02  0.30461897755E+02  0.36339031797E+02  0.10566000000E+00 0. -1.
         22    1    1    0    0    0  0.67753900636E+01  0.13009259164E+02  0.25677732913E+02  0.29571822772E+02  0.00000000000E+00 0.  1.
</event>
<event>
 5    1  0.1324057E-009  0.9118800E+02  0.7818608E-02  0.1130116E+00
         25   -1    0    0    0    0  0.00000000000E+00  0.00000000000E+00  0.99999998245E-14  0.12500000000E+03  0.12500000000E+03 0.  0.
        -13    1    3    3    0    0 -0.11155372896E+02  0.21234182528E+02  0.77921961089E+00  0.23998983297E+02  0.10566000000E+00 0.  1.
         23    2    1    0    0    0  0.35216535934E+00 -0.12483028261E+02  0.43567703413E+02  0.79677877414E+02  0.65532200891E+02 0.  0.
         13    1    3    3    0    0  0.11507538255E+02 -0.33717210789E+02  0.42788483802E+02  0.55678894117E+02  0.10566000000E+00 0. -1.
         22    1    1    0    0    0 -0.35216535934E+00  0.12483028261E+02 -0.43567703413E+02  0.45322122586E+02  0.00000000000E+00 0. -1.
</event>
<event>
 5    1  0.1324057E-009  0.9118800E+02  0.7818608E-02  0.1130116E+00
         25   -1    0    0    0    0  0.00000000000E+00  0.00000000000E+00  0.99999998245E-14  0.12500000000E+03  0.12500000000E+03 0.  0.
        -13    1    3    3    0    0  0.45265884474E+02 -0.28949853548E+02 -0.30977595605E+02  0.62021906704E+02  0.10566000000E+00 0.  1.
         23    2    1    0    0    0  0.14818812981E+02 -0.14341948530E+02 -0.15669774319E+02  0.99099603613E+02  0.95655114360E+02 0.  0.
         13    1    3    3    0    0 -0.30447071492E+02  0.14607905018E+02  0.15307821287E+02  0.37077696909E+02  0.10566000000E+00 0. -1.
         22    1    1    0    0    0 -0.14818812981E+02  0.14341948530E+02  0.15669774319E+02  0.25900396387E+02  0.00000000000E+00 0.  1.
</event>
<event>
 5    1  0.1324057E-009  0.9118800E+02  0.7818608E-02  0.1130116E+00
         25   -1    0    0    0    0  0.00000000000E+00  0.00000000000E+00  0.99999998245E-14  0.12500000000E+03  0.12500000000E+03 0.  0.
        -13    1    3    3    0    0  0.33233588282E+02  0.38923754067E+02 -0.10661201682E+02  0.52280038314E+02  0.10566000000E+00 0.  1.
         23    2    1    0    0    0  0.29209264189E+02  0.71572704737E+01  0.13143738691E+02  0.92179800399E+02  0.86139132221E+02 0.  0.
         13    1    3    3    0    0 -0.40243240931E+01 -0.31766483593E+02  0.23804940372E+02  0.39899762085E+02  0.10566000000E+00 0. -1.
         22    1    1    0    0    0 -0.29209264189E+02 -0.71572704737E+01 -0.13143738691E+02  0.32820199601E+02  0.00000000000E+00 0.  1.
</event>
<event>
 5    1  0.1324057E-009  0.9118800E+02  0.7818608E-02  0.1130116E+00
         25   -1    0    0    0    0  0.00000000000E+00  0.00000000000E+00  0.99999998245E-14  0.12500000000E+03  0.12500000000E+03 0.  0.
        -13    1    3    3    0    0 -0.34809658709E+01 -0.30716056633E+02  0.18541058190E+02  0.36046848147E+02  0.10566000000E+00 0.  1.
         23    2    1    0    0    0 -0.19332149185E+02  0.16783122218E+02 -0.14053878242E+02  0.95795262762E+02  0.91234947748E+02 0.  0.
         13    1    3    3    0    0 -0.15851183314E+02  0.47499178851E+02 -0.32594936433E+02  0.59748414615E+02  0.10566000000E+00 0. -1.
         22    1    1    0    0    0  0.19332149185E+02 -0.16783122218E+02  0.14053878242E+02  0.29204737238E+02  0.00000000000E+00 0. -1.
</event>
<event>
 5    1  0.1324057E-009  0.9118800E+02  0.7818608E-02  0.1130116E+00
         25   -1    0    0    0    0  0.00000000000E+00  0.00000000000E+00  0.99999998245E-14  0.12500000000E+03  0.12500000000E+03 0.  0.
        -13    1    3    3    0    0 -0.19020568781E+02 -0.57730554785E+02  0.10545579510E+02  0.61691323570E+02  0.10566000000E+00 0.  1.
         23    2    1    0    0    0 -0.15812147812E+02 -0.25313646208E+02  0.53177821944E+01  0.94683609875E+02  0.89698954669E+02 0.  0.
         13    1    3    3    0    0  0.32084209691E+01  0.32416908577E+02 -0.52277973152E+01  0.32992286305E+02  0.10566000000E+00 0. -1.
         22    1    1    0    0    0  0.15812147812E+02  0.25313646208E+02 -0.53177821944E+01  0.30316390125E+02  0.00000000000E+00 0.  1.
</event>
<event>
 5    1  0.1324057E-009  0.9118800E+02  0.7818608E-02  0.1130116E+00
         25   -1    0    0    0    0  0.00000000000E+00  0.00000000000E+00  0.99999998245E-14  0.12500000000E+03  0.12500000000E+03 0.  0.
        -13    1    3    3    0    0 -0.20501614598E+02 -0.63990345140E+01  0.25420602955E+02  0.33278853082E+02  0.10566000000E+00 0.  1.
         23    2    1    0    0    0  0.28490472527E+02  0.79960760410E+01 -0.80490779072E+01  0.94333537667E+02  0.89209777585E+02 0.  0.
         13    1    3    3    0    0  0.48992087125E+02  0.14395110555E+02 -0.33469680862E+02  0.61054684585E+02  0.10566000000E+00 0. -1.
         22    1    1    0    0    0 -0.28490472527E+02 -0.79960760410E+01  0.80490779072E+01  0.30666462333E+02  0.00000000000E+00 0. -1.
</event>
<event>
 5    1  0.1324057E-009  0.9118800E+02  0.7818608E-02  0.1130116E+00
         25   -1    0    0    0    0  0.00000000000E+00  0.00000000000E+00  0.99999998245E-14  0.12500000000E+03  0.12500000000E+03 0.  0.
        -13    1    3    3    0    0  0.16567420583E+01  0.56380839196E+02 -0.14915252190E+02  0.58343977707E+02  0.10566000000E+00 0.  1.
         23    2    1    0    0    0  0.16651872835E+02  0.26906078966E+02 -0.43524116077E+01  0.93059971180E+02  0.87407052318E+02 0.  0.
         13    1    3    3    0    0  0.14995130776E+02 -0.29474760230E+02  0.10562840582E+02  0.34715993473E+02  0.10566000000E+00 0. -1.
         22    1    1    0    0    0 -0.16651872835E+02 -0.26906078966E+02  0.43524116077E+01  0.31940028820E+02  0.00000000000E+00 0.  1.
</event>
<event>
 5    1  0.1324057E-009  0.9118800E+02  0.7818608E-02  0.1130116E+00
         25   -1    0    0    0    0  0.00000000000E+00  0.00000000000E+00  0.99999998245E-14  0.12500000000E+03  0.12500000000E+03 0.  0.
        -13    1    3    3    0    0 -0.40234825950E+02 -0.11197496806E+02  0.12552523721E+02  0.43609656840E+02  0.10566000000E+00 0. -1.
         23    2    1    0    0    0 -0.94354237575E-01  0.18344645213E+02  0.24043744288E+02  0.94757041314E+02  0.89801226765E+02 0.  0.
         13    1    3    3    0    0  0.40140471712E+02  0.29542142019E+02  0.11491220566E+02  0.51147384474E+02  0.10566000000E+00 0.  1.
         22    1    1    0    0    0  0.94354237575E-01 -0.18344645213E+02 -0.24043744288E+02  0.30242958686E+02  0.00000000000E+00 0. -1.
</event>
<event>
 5    1  0.1324057E-009  0.9118800E+02  0.7818608E-02  0.1130116E+00
         25   -1    0    0    0    0  0.00000000000E+00  0.00000000000E+00  0.99999998245E-14  0.12500000000E+03  0.12500000000E+03 0.  0.
        -13    1    3    3    0    0 -0.52539525290E+01 -0.38102761008E+01  0.36827216128E+02  0.37394882443E+02  0.10566000000E+00 0.  1.
         23    2    1    0    0    0  0.77592321233E+00  0.25643779313E+02 -0.13493041546E+02  0.96012629570E+02  0.91532275141E+02 0.  0.
         13    1    3    3    0    0  0.60298757413E+01  0.29454055413E+02 -0.50320257675E+02  0.58617747127E+02  0.10566000000E+00 0. -1.
         22    1    1    0    0    0 -0.77592321233E+00 -0.25643779313E+02  0.13493041546E+02  0.28987370430E+02  0.00000000000E+00 0. -1.
</event>
<event>
 5    1  0.1324057E-009  0.9118800E+02  0.7818608E-02  0.1130116E+00
         25   -1    0    0    0    0  0.00000000000E+00  0.00000000000E+00  0.99999998245E-14  0.12500000000E+03  0.12500000000E+03 0.  0.
        -13    1    3    3    0    0 -0.21498550579E+02 -0.12298216547E+00  0.26996138150E+02  0.34510946678E+02  0.10566000000E+00 0. -1.
         23    2    1    0    0    0  0.21405827395E+02 -0.78128496115E+01 -0.17097084712E+02  0.96512101321E+02  0.92211850270E+02 0.  0.
         13    1    3    3    0    0  0.42904377974E+02 -0.76898674460E+01 -0.44093222862E+02  0.62001154643E+02  0.10566000000E+00 0.  1.
         22    1    1    0    0    0 -0.21405827395E+02  0.78128496115E+01  0.17097084712E+02  0.28487898679E+02  0.00000000000E+00 0.  1.
</event>
<event>
 5    1  0.1324057E-009  0.9118800E+02  0.7818608E-02  0.1130116E+00
         25   -1    0    0    0    0  0.00000000000E+00  0.00000000000E+00  0.99999998245E-14  0.12500000000E+03  0.12500000000E+03 0.  0.
        -13    1    3    3    0    0  0.18790435699E+02 -0.24413815034E+02 -0.45744573300E+01  0.31145652380E+02  0.10566000000E+00 0. -1.
         23    2    1    0    0    0 -0.29819667042E+02  0.12842300966E+02 -0.45273208117E+00  0.92529363989E+02  0.86644913280E+02 0.  0.
         13    1    3    3    0    0 -0.48610102741E+02  0.37256115999E+02  0.41217252488E+01  0.61383711609E+02  0.10566000000E+00 0.  1.
         22    1    1    0    0    0  0.29819667042E+02 -0.12842300966E+02  0.45273208117E+00  0.32470636011E+02  0.00000000000E+00 0.  1.
</event>
<event>
 5    1  0.1324057E-009  0.9118800E+02  0.7818608E-02  0.1130116E+00
         25   -1    0    0    0    0  0.00000000000E+00  0.00000000000E+00  0.99999998245E-14  0.12500000000E+03  0.12500000000E+03 0.  0.
        -13    1    3    3    0    0  0.23965162818E+02 -0.23844924140E+02 -0.19029442078E+02  0.38794848446E+02  0.10566000000E+00 0. -1.
         23    2    1    0    0    0 -0.24696294642E+02  0.56771477954E+00 -0.19954272809E+02  0.93244649704E+02  0.87670761523E+02 0.  0.
         13    1    3    3    0    0 -0.48661457460E+02  0.24412638919E+02 -0.92483073058E+00  0.54449801258E+02  0.10566000000E+00 0.  1.
         22    1    1    0    0    0  0.24696294642E+02 -0.56771477954E+00  0.19954272809E+02  0.31755350296E+02  0.00000000000E+00 0.  1.
</event>
<event>
 5    1  0.1324057E-009  0.9118800E+02  0.7818608E-02  0.1130116E+00
         25   -1    0    0    0    0  0.00000000000E+00  0.00000000000E+00  0.99999998245E-14  0.12500000000E+03  0.12500000000E+03 0.  0.
        -13    1    3    3    0    0  0.31330386610E+02 -0.26247437579E+02 -0.19237388587E+02  0.45173104700E+02  0.10566000000E+00 0. -1.
         23    2    1    0    0    0 -0.12146561125E+02  0.44665011534E+01 -0.23075734964E+02  0.98542900313E+02  0.94924839100E+02 0.  0.
         13    1    3    3    0    0 -0.43476947735E+02  0.30713938732E+02 -0.38383463776E+01  0.53369795613E+02  0.10566000000E+00 0.  1.
         22    1    1    0    0    0  0.12146561125E+02 -0.44665011534E+01  0.23075734964E+02  0.26457099687E+02  0.00000000000E+00 0. -1.
</event>
<event>
 5    1  0.1324057E-009  0.9118800E+02  0.7818608E-02  0.1130116E+00
         25   -1    0    0    0    0  0.00000000000E+00  0.00000000000E+00  0.99999998245E-14  0.12500000000E+03  0.12500000000E+03 0.  0.
        -13    1    3    3    0    0  0.28031747450E+02  0.50077538530E+02  0.45140045419E+01  0.57566710270E+02  0.10566000000E+00 0. -1.
         23    2    1    0    0    0  0.41300025559E+01  0.19345574918E+02  0.17480165645E+02  0.98601811028E+02  0.95002382902E+02 0.  0.
         13    1    3    3    0    0 -0.23901744894E+02 -0.30731963612E+02  0.12966161103E+02  0.41035100758E+02  0.10566000000E+00 0.  1.
         22    1    1    0    0    0 -0.41300025559E+01 -0.19345574918E+02 -0.17480165645E+02  0.26398188972E+02  0.00000000000E+00 0. -1.
</event>
<event>
 5    1  0.1324057E-009  0.9118800E+02  0.7818608E-02  0.1130116E+00
         25   -1    0    0    0    0  0.00000000000E+00  0.00000000000E+00  0.99999998245E-14  0.12500000000E+03  0.12500000000E+03 0.  0.
        -13    1    3    3    0    0  0.35905980114E+02  0.14660449080E+02 -0.31419521309E+02  0.49913581904E+02  0.10566000000E+00 0.  1.
         23    2    1    0    0    0 -0.96095536811E+01  0.64579908220E+01 -0.26074876665E+02  0.96470219761E+02  0.92155059222E+02 0.  0.
         13    1    3    3    0    0 -0.45515533795E+02 -0.82024582576E+01  0.53446446435E+01  0.46556637857E+02  0.10566000000E+00 0. -1.
         22    1    1    0    0    0  0.96095536811E+01 -0.64579908220E+01  0.26074876665E+02  0.28529780239E+02  0.00000000000E+00 0.  1.
</event>
<event>
 5    1  0.1324057E-009  0.9118800E+02  0.7818608E-02  0.1130116E+00
         25   -1    0    0    0    0  0.00000000000E+00  0.00000000000E+00  0.99999998245E-14  0.12500000000E+03  0.12500000000E+03 0.  0.
        -13    1    3    3    0    0 -0.12061263895E+02  0.24865540373E+02 -0.33013296771E+02  0.43054130028E+02  0.10566000000E+00 0.  1.
         23    2    1    0    0    0 -0.25688164477E+02 -0.15361296987E+02 -0.33009763022E+01  0.94887748609E+02  0.89982982570E+02 0.  0.
         13    1    3    3    0    0 -0.13626900582E+02 -0.40226837360E+02  0.29712320468E+02  0.51833618580E+02  0.10566000000E+00 0. -1.
         22    1    1    0    0    0  0.25688164477E+02  0.15361296987E+02  0.33009763022E+01  0.30112251391E+02  0.00000000000E+00 0. -1.
</event>
<event>
 5    1  0.1324057E-009  0.9118800E+02  0.7818608E-02  0.1130116E+00
         25   -1    0    0    0    0  0.00000000000E+00  0.00000000000E+00  0.99999998245E-14  0.12500000000E+03  0.12500000000E+03 0.  0.
        -13    1    3    3    0    0 -0.15871019542E+02 -0.58487007792E+01 -0.43183927702E+02  0.46378436130E+02  0.10566000000E+00 0.  1.
         23    2    1    0    0    0  0.14648732291E+02 -0.23676101503E+02 -0.85213928376E+01  0.95883728330E+02  0.91356073046E+02 0.  0.
         13    1    3    3    0    0  0.30519751833E+02 -0.17827400724E+02  0.34662534864E+02  0.49505292199E+02  0.10566000000E+00 0. -1.
         22    1    1    0    0    0 -0.14648732291E+02  0.23676101503E+02  0.85213928376E+01  0.29116271670E+02  0.00000000000E+00 0.  1.
</event>
<event>
 5    1  0.1324057E-009  0.9118800E+02  0.7818608E-02  0.1130116E+00
         25   -1    0    0    0    0  0.00000000000E+00  0.00000000000E+00  0.99999998245E-14  0.12500000000E+03  0.12500000000E+03 0.  0.
        -13    1    3    3    0    0 -0.41613953256E+02 -0.29547873763E+02 -0.21174064304E+02  0.55255317506E+02  0.10566000000E+00 0.  1.
         23    2    1    0    0    0 -0.10670106372E+02 -0.30050534348E+02  0.61681408158E+00  0.93105388477E+02  0.87471979052E+02 0.  0.
         13    1    3    3    0    0  0.30943846884E+02 -0.50266058517E+00  0.21790878385E+02  0.37850070971E+02  0.10566000000E+00 0. -1.
         22    1    1    0    0    0  0.10670106372E+02  0.30050534348E+02 -0.61681408158E+00  0.31894611523E+02  0.00000000000E+00 0.  1.
</event>
<event>
 5    1  0.1324057E-009  0.9118800E+02  0.7818608E-02  0.1130116E+00
         25   -1    0    0    0    0  0.00000000000E+00  0.00000000000E+00  0.99999998245E-14  0.12500000000E+03  0.12500000000E+03 0.  0.
        -13    1    3    3    0    0  0.43080161285E+02  0.18897957821E+02 -0.16809105899E+01  0.47073025510E+02  0.10566000000E+00 0.  1.
         23    2    1    0    0    0  0.13397099504E+02 -0.58984825873E+01  0.26361626283E+02  0.94846895480E+02  0.89926213475E+02 0.  0.
         13    1    3    3    0    0 -0.29683061782E+02 -0.24796440408E+02  0.28042536872E+02  0.47773869970E+02  0.10566000000E+00 0. -1.
         22    1    1    0    0    0 -0.13397099504E+02  0.58984825873E+01 -0.26361626283E+02  0.30153104520E+02  0.00000000000E+00 0. -1.
</event>
<event>
 5    1  0.1324057E-009  0.9118800E+02  0.7818608E-02  0.1130116E+00
         25   -1    0    0    0    0  0.00000000000E+00  0.00000000000E+00  0.99999998245E-14  0.12500000000E+03  0.12500000000E+03 0.  0.
        -13    1    3    3    0    0  0.10081759933E+02 -0.66059194299E+01  0.28979933091E+02  0.31386744667E+02  0.10566000000E+00 0. -1.
         23    2    1    0    0    0 -0.19084002926E+02 -0.10383026749E+02 -0.24398350313E+02  0.92330657948E+02  0.86357770276E+02 0.  0.
         13    1    3    3    0    0 -0.29165762858E+02 -0.37771073192E+01 -0.53378283403E+02  0.60943913280E+02  0.10566000000E+00 0.  1.
         22    1    1    0    0    0  0.19084002926E+02  0.10383026749E+02  0.24398350313E+02  0.32669342052E+02  0.00000000000E+00 0.  1.
</event>
<event>
 5    1  0.1324057E-009  0.9118800E+02  0.7818608E-02  0.1130116E+00
         25   -1    0    0    0    0  0.00000000000E+00  0.00000000000E+00  0.99999998245E-14  0.12500000000E+03  0.12500000000E+03 0.  0.
        -13    1    3    3    0    0 -0.22140783113E+02 -0.90712409571E+00 -0.24600624962E+02  0.33109501107E+02  0.10566000000E+00 0.  1.
         23    2    1    0    0    0  0.27762260201E+02  0.17754968081E+02  0.58416642875E+00  0.92040582022E+02  0.85936869302E+02 0.  0.
         13    1    3    3    0    0  0.49903043314E+02  0.18662092176E+02  0.25184791391E+02  0.58931080915E+02  0.10566000000E+00 0. -1.
         22    1    1    0    0    0 -0.27762260201E+02 -0.17754968081E+02 -0.58416642875E+00  0.32959417978E+02  0.00000000000E+00 0. -1.
</event>
<event>
 5    1  0.1324057E-009  0.9118800E+02  0.7818608E-02  0.1130116E+00
         25   -1    0    0    0    0  0.00000000000E+00  0.00000000000E+00  0.99999998245E-14  0.12500000000E+03  0.12500000000E+03 0.  0.
        -13    1    3    3    0    0  0.18543261261E+02 -0.12898788434E+02  0.38097978143E+02  0.44291064380E+02  0.10566000000E+00 0.  1.
         23    2    1    0    0    0  0.18845805551E+01 -0.22859902850E+02 -0.12777711640E+02  0.98743634735E+02  0.95188805454E+02 0.  0.
         13    1    3    3    0    0 -0.16658680706E+02 -0.99611144156E+01 -0.50875689784E+02  0.54452570355E+02  0.10566000000E+00 0. -1.
         22    1    1    0    0    0 -0.18845805551E+01  0.22859902850E+02  0.12777711640E+02  0.26256365265E+02  0.00000000000E+00 0. -1.
</event>
<event>
 5    1  0.1324057E-009  0.9118800E+02  0.7818608E-02  0.1130116E+00
         25   -1    0    0    0    0  0.00000000000E+00  0.00000000000E+00  0.99999998245E-14  0.12500000000E+03  0.12500000000E+03 0.  0.
        -13    1    3    3    0    0 -0.15945060470E+02  0.35076467049E+02 -0.12441410072E+02  0.40489546091E+02  0.10566000000E+00 0. -1.
         23    2    1    0    0    0 -0.29865193607E+02 -0.10959657514E+02  0.71034028839E+01  0.92403954004E+02  0.86463798789E+02 0.  0.
         13    1    3    3    0    0 -0.13920133138E+02 -0.46036124564E+02  0.19544812956E+02  0.51914407913E+02  0.10566000000E+00 0.  1.
         22    1    1    0    0    0  0.29865193607E+02  0.10959657514E+02 -0.71034028839E+01  0.32596045996E+02  0.00000000000E+00 0.  1.
</event>
<event>
 5    1  0.1324057E-009  0.9118800E+02  0.7818608E-02  0.1130116E+00
         25   -1    0    0    0    0  0.00000000000E+00  0.00000000000E+00  0.99999998245E-14  0.12500000000E+03  0.12500000000E+03 0.  0.
        -13    1    3    3    0    0 -0.18040262396E+02  0.77850051222E+01  0.51961900240E+02  0.55552746221E+02  0.10566000000E+00 0.  1.
         23    2    1    0    0    0  0.12258805979E+02  0.35582270279E+00  0.26421925075E+02  0.95870580876E+02  0.91338081976E+02 0.  0.
         13    1    3    3    0    0  0.30299068375E+02 -0.74291824194E+01 -0.25539975166E+02  0.40317834655E+02  0.10566000000E+00 0. -1.
         22    1    1    0    0    0 -0.12258805979E+02 -0.35582270279E+00 -0.26421925075E+02  0.29129419124E+02  0.00000000000E+00 0.  1.
</event>
<event>
 5    1  0.1324057E-009  0.9118800E+02  0.7818608E-02  0.1130116E+00
         25   -1    0    0    0    0  0.00000000000E+00  0.00000000000E+00  0.99999998245E-14  0.12500000000E+03  0.12500000000E+03 0.  0.
        -13    1    3    3    0    0 -0.37654492662E+02  0.21220754877E+02 -0.41654930134E+02  0.60027707134E+02  0.10566000000E+00 0.  1.
         23    2    1    0    0    0 -0.76323740472E+01  0.14619754087E+02 -0.25169236237E+02  0.94908792050E+02  0.90012210352E+02 0.  0.
         13    1    3    3    0    0  0.30022118615E+02 -0.66010007893E+01  0.16485693898E+02  0.34881084916E+02  0.10566000000E+00 0. -1.
         22    1    1    0    0    0  0.76323740472E+01 -0.14619754087E+02  0.25169236237E+02  0.30091207950E+02  0.00000000000E+00 0.  1.
</event>
<event>
 5    1  0.1324057E-009  0.9118800E+02  0.7818608E-02  0.1130116E+00
         25   -1    0    0    0    0  0.00000000000E+00  0.00000000000E+00  0.99999998245E-14  0.12500000000E+03  0.12500000000E+03 0.  0.
        -13    1    3    3    0    0  0.83348294802E+01 -0.21442151369E+02 -0.15893169896E+02  0.27961388577E+02  0.10566000000E+00 0. -1.
         23    2    1    0    0    0 -0.38390565935E+02 -0.13257391376E+01  0.10368418621E+02  0.85211845459E+02  0.75352248572E+02 0.  0.
         13    1    3    3    0    0 -0.46725395415E+02  0.20116412232E+02  0.26261588516E+02  0.57250456882E+02  0.10566000000E+00 0.  1.
         22    1    1    0    0    0  0.38390565935E+02  0.13257391376E+01 -0.10368418621E+02  0.39788154541E+02  0.00000000000E+00 0.  1.
</event>
<event>
 5    1  0.1324057E-009  0.9118800E+02  0.7818608E-02  0.1130116E+00
         25   -1    0    0    0    0  0.00000000000E+00  0.00000000000E+00  0.99999998245E-14  0.12500000000E+03  0.12500000000E+03 0.  0.
        -13    1    3    3    0    0  0.25407678260E+01 -0.18407576929E+01 -0.43835288255E+02  0.43947554545E+02  0.10566000000E+00 0. -1.
         23    2    1    0    0    0  0.22710181683E+02  0.13084171462E+02  0.44994804214E+01  0.98406895274E+02  0.94745574136E+02 0.  0.
         13    1    3    3    0    0  0.20169413857E+02  0.14924929154E+02  0.48334768676E+02  0.54459340729E+02  0.10566000000E+00 0.  1.
         22    1    1    0    0    0 -0.22710181683E+02 -0.13084171462E+02 -0.44994804214E+01  0.26593104726E+02  0.00000000000E+00 0.  1.
</event>
<event>
 5    1  0.1324057E-009  0.9118800E+02  0.7818608E-02  0.1130116E+00
         25   -1    0    0    0    0  0.00000000000E+00  0.00000000000E+00  0.99999998245E-14  0.12500000000E+03  0.12500000000E+03 0.  0.
        -13    1    3    3    0    0 -0.15416323260E+02  0.28978886660E+02 -0.49116723504E+02  0.59075397474E+02  0.10566000000E+00 0. -1.
         23    2    1    0    0    0  0.26974657177E+01  0.24087178682E+02 -0.20709768903E+02  0.93119551036E+02  0.87492215420E+02 0.  0.
         13    1    3    3    0    0  0.18113788977E+02 -0.48917079785E+01  0.28406954601E+02  0.34044153563E+02  0.10566000000E+00 0.  1.
         22    1    1    0    0    0 -0.26974657177E+01 -0.24087178682E+02  0.20709768903E+02  0.31880448964E+02  0.00000000000E+00 0. -1.
</event>
<event>
 5    1  0.1324057E-009  0.9118800E+02  0.7818608E-02  0.1130116E+00
         25   -1    0    0    0    0  0.00000000000E+00  0.00000000000E+00  0.99999998245E-14  0.12500000000E+03  0.12500000000E+03 0.  0.
        -13    1    3    3    0    0  0.30256541762E+02 -0.50577582720E+02  0.12735949278E+02  0.60297311393E+02  0.10566000000E+00 0. -1.
         23    2    1    0    0    0  0.22543333740E+02 -0.16570511965E+02  0.13154418945E+01  0.96990820250E+02  0.92858521755E+02 0.  0.
         13    1    3    3    0    0 -0.77132080221E+01  0.34007070755E+02 -0.11420507384E+02  0.36693508858E+02  0.10566000000E+00 0.  1.
         22    1    1    0    0    0 -0.22543333740E+02  0.16570511965E+02 -0.13154418945E+01  0.28009179750E+02  0.00000000000E+00 0. -1.
</event>
<event>
 5    1  0.1324057E-009  0.9118800E+02  0.7818608E-02  0.1130116E+00
         25   -1    0    0    0    0  0.00000000000E+00  0.00000000000E+00  0.99999998245E-14  0.12500000000E+03  0.12500000000E+03 0.  0.
        -13    1    3    3    0    0 -0.97575442821E+01  0.99735784776E+01 -0.58982394396E+02  0.60610361744E+02  0.10566000000E+00 0.  1.
         23    2    1    0    0    0 -0.12961451202E+02 -0.21855325752E+01 -0.27180734124E+02  0.94807814299E+02  0.89871873102E+02 0.  0.
         13    1    3    3    0    0 -0.32039069197E+01 -0.12159111053E+02  0.31801660272E+02  0.34197452555E+02  0.10566000000E+00 0. -1.
         22    1    1    0    0    0  0.12961451202E+02  0.21855325752E+01  0.27180734124E+02  0.30192185701E+02  0.00000000000E+00 0.  1.
</event>
<event>
 5    1  0.1324057E-009  0.9118800E+02  0.7818608E-02  0.1130116E+00
         25   -1    0    0    0    0  0.00000000000E+00  0.00000000000E+00  0.99999998245E-14  0.12500000000E+03  0.12500000000E+03 0.  0.
        -13    1    3    3    0    0 -0.88931893001E+01 -0.30226598937E+02  0.35394292481E+02  0.47386740798E+02  0.10566000000E+00 0. -1.
         23    2    1    0    0    0  0.25416336089E+02 -0.38227060083E+01  0.14969491696E+02  0.95256279603E+02  0.90493479880E+02 0.  0.
         13    1    3    3    0    0  0.34309525389E+02  0.26403892929E+02 -0.20424800785E+02  0.47869538805E+02  0.10566000000E+00 0.  1.
         22    1    1    0    0    0 -0.25416336089E+02  0.38227060083E+01 -0.14969491696E+02  0.29743720397E+02  0.00000000000E+00 0.  1.
</event>
<event>
 5    1  0.1324057E-009  0.9118800E+02  0.7818608E-02  0.1130116E+00
         25   -1    0    0    0    0  0.00000000000E+00  0.00000000000E+00  0.99999998245E-14  0.12500000000E+03  0.12500000000E+03 0.  0.
        -13    1    3    3    0    0 -0.13802410752E+02 -0.13782266240E+02  0.33995037881E+02  0.39193509282E+02  0.10566000000E+00 0.  1.
         23    2    1    0    0    0  0.26306566083E+01  0.13904063945E+02  0.48479297833E+02  0.74497666720E+02  0.54766930533E+02 0.  0.
         13    1    3    3    0    0  0.16433067360E+02  0.27686330186E+02  0.14484259952E+02  0.35304157438E+02  0.10566000000E+00 0. -1.
         22    1    1    0    0    0 -0.26306566083E+01 -0.13904063945E+02 -0.48479297833E+02  0.50502333280E+02  0.00000000000E+00 0.  1.
</event>
<event>
 5    1  0.1324057E-009  0.9118800E+02  0.7818608E-02  0.1130116E+00
         25   -1    0    0    0    0  0.00000000000E+00  0.00000000000E+00  0.99999998245E-14  0.12500000000E+03  0.12500000000E+03 0.  0.
        -13    1    3    3    0    0 -0.40596483633E+02 -0.62988470836E+01  0.45655102609E+02  0.61417827349E+02  0.10566000000E+00 0.  1.
         23    2    1    0    0    0 -0.24039230754E+02 -0.17878098671E+01  0.14830316444E+02  0.96697718021E+02  0.92463125111E+02 0.  0.
         13    1    3    3    0    0  0.16557252879E+02  0.45110372165E+01 -0.30824786165E+02  0.35279890672E+02  0.10566000000E+00 0. -1.
         22    1    1    0    0    0  0.24039230754E+02  0.17878098671E+01 -0.14830316444E+02  0.28302281979E+02  0.00000000000E+00 0.  1.
</event>
<event>
 5    1  0.1324057E-009  0.9118800E+02  0.7818608E-02  0.1130116E+00
         25   -1    0    0    0    0  0.00000000000E+00  0.00000000000E+00  0.99999998245E-14  0.12500000000E+03  0.12500000000E+03 0.  0.
        -13    1    3    3    0    0 -0.70765714895E+01  0.36424325012E+02 -0.20457254324E+01  0.37161881993E+02  0.10566000000E+00 0. -1.
         23    2    1    0    0    0  0.25792869977E+02 -0.12473802814E+02 -0.37462151440E+01  0.96105328758E+02  0.91658781300E+02 0.  0.
         13    1    3    3    0    0  0.32869441466E+02 -0.48898127826E+02 -0.17004897116E+01  0.58943446765E+02  0.10566000000E+00 0.  1.
         22    1    1    0    0    0 -0.25792869977E+02  0.12473802814E+02  0.37462151440E+01  0.28894671242E+02  0.00000000000E+00 0.  1.
</event>
<event>
 5    1  0.1324057E-009  0.9118800E+02  0.7818608E-02  0.1130116E+00
         25   -1    0    0    0    0  0.00000000000E+00  0.00000000000E+00  0.99999998245E-14  0.12500000000E+03  0.12500000000E+03 0.  0.
        -13    1    3    3    0    0  0.21004322714E+02  0.18554809514E+02  0.24231843369E+02  0.37049371464E+02  0.10566000000E+00 0.  1.
         23    2    1    0    0    0 -0.29969679994E+02  0.90258774806E+01  0.15149194771E+01  0.93664027632E+02  0.88266680622E+02 0.  0.
         13    1    3    3    0    0 -0.50974002708E+02 -0.95289320334E+01 -0.22716923892E+02  0.56614656168E+02  0.10566000000E+00 0. -1.
         22    1    1    0    0    0  0.29969679994E+02 -0.90258774806E+01 -0.15149194771E+01  0.31335972368E+02  0.00000000000E+00 0.  1.
</event>
<event>
 5    1  0.1324057E-009  0.9118800E+02  0.7818608E-02  0.1130116E+00
         25   -1    0    0    0    0  0.00000000000E+00  0.00000000000E+00  0.99999998245E-14  0.12500000000E+03  0.12500000000E+03 0.  0.
        -13    1    3    3    0    0 -0.54943773315E+02  0.29006150252E+02 -0.43164654396E+01  0.62280157486E+02  0.10566000000E+00 0. -1.
         23    2    1    0    0    0 -0.26437898154E+02  0.16847743967E+02 -0.48607475694E+01  0.93275627626E+02  0.87714918381E+02 0.  0.
         13    1    3    3    0    0  0.28505875161E+02 -0.12158406286E+02 -0.54428212977E+00  0.30995470140E+02  0.10566000000E+00 0.  1.
         22    1    1    0    0    0  0.26437898154E+02 -0.16847743967E+02  0.48607475694E+01  0.31724372374E+02  0.00000000000E+00 0. -1.
</event>
<event>
 5    1  0.1324057E-009  0.9118800E+02  0.7818608E-02  0.1130116E+00
         25   -1    0    0    0    0  0.00000000000E+00  0.00000000000E+00  0.99999998245E-14  0.12500000000E+03  0.12500000000E+03 0.  0.
        -13    1    3    3    0    0 -0.30725065216E+02 -0.26859971848E+02  0.10331527838E+02  0.42097973249E+02  0.10566000000E+00 0. -1.
         23    2    1    0    0    0  0.41954738275E+01 -0.46135862750E+01 -0.26660050985E+02  0.97620345191E+02  0.93702114691E+02 0.  0.
         13    1    3    3    0    0  0.34920539044E+02  0.22246385573E+02 -0.36991578823E+02  0.55522371941E+02  0.10566000000E+00 0.  1.
         22    1    1    0    0    0 -0.41954738275E+01  0.46135862750E+01  0.26660050985E+02  0.27379654809E+02  0.00000000000E+00 0. -1.
</event>
<event>
 5    1  0.1324057E-009  0.9118800E+02  0.7818608E-02  0.1130116E+00
         25   -1    0    0    0    0  0.00000000000E+00  0.00000000000E+00  0.99999998245E-14  0.12500000000E+03  0.12500000000E+03 0.  0.
        -13    1    3    3    0    0 -0.37572571487E+02  0.12595934816E+02  0.14787719791E+02  0.42297086456E+02  0.10566000000E+00 0.  1.
         23    2    1    0    0    0  0.11002605313E+02  0.14304519870E+01  0.28854284064E+02  0.94086035107E+02  0.88862302338E+02 0.  0.
         13    1    3    3    0    0  0.48575176800E+02 -0.11165482829E+02  0.14066564273E+02  0.51788948651E+02  0.10566000000E+00 0. -1.
         22    1    1    0    0    0 -0.11002605313E+02 -0.14304519870E+01 -0.28854284064E+02  0.30913964893E+02  0.00000000000E+00 0.  1.
</event>
<event>
 5    1  0.1324057E-009  0.9118800E+02  0.7818608E-02  0.1130116E+00
         25   -1    0    0    0    0  0.00000000000E+00  0.00000000000E+00  0.99999998245E-14  0.12500000000E+03  0.12500000000E+03 0.  0.
        -13    1    3    3    0    0 -0.65917969943E+01  0.51733224892E+02  0.30198476559E+02  0.60263898777E+02  0.10566000000E+00 0. -1.
         23    2    1    0    0    0  0.63167847669E+01  0.27342822724E+02  0.76163276979E+01  0.95921826538E+02  0.91408186912E+02 0.  0.
         13    1    3    3    0    0  0.12908581761E+02 -0.24390402168E+02 -0.22582148861E+02  0.35657927761E+02  0.10566000000E+00 0.  1.
         22    1    1    0    0    0 -0.63167847669E+01 -0.27342822724E+02 -0.76163276979E+01  0.29078173462E+02  0.00000000000E+00 0. -1.
</event>
<event>
 5    1  0.1324057E-009  0.9118800E+02  0.7818608E-02  0.1130116E+00
         25   -1    0    0    0    0  0.00000000000E+00  0.00000000000E+00  0.99999998245E-14  0.12500000000E+03  0.12500000000E+03 0.  0.
        -13    1    3    3    0    0  0.28065636976E+01 -0.58759355966E+02  0.75051617182E+01  0.59303265760E+02  0.10566000000E+00 0.  1.
         23    2    1    0    0    0  0.71544729832E+01 -0.28433950974E+02  0.16659430002E+02  0.91277416178E+02  0.84819538106E+02 0.  0.
         13    1    3    3    0    0  0.43479092856E+01  0.30325404992E+02  0.91542682840E+01  0.31974150418E+02  0.10566000000E+00 0. -1.
         22    1    1    0    0    0 -0.71544729832E+01  0.28433950974E+02 -0.16659430002E+02  0.33722583822E+02  0.00000000000E+00 0.  1.
</event>
<event>
 5    1  0.1324057E-009  0.9118800E+02  0.7818608E-02  0.1130116E+00
         25   -1    0    0    0    0  0.00000000000E+00  0.00000000000E+00  0.99999998245E-14  0.12500000000E+03  0.12500000000E+03 0.  0.
        -13    1    3    3    0    0  0.54476540796E+01 -0.44646730969E+02  0.47593430095E+01  0.45229083907E+02  0.10566000000E+00 0.  1.
         23    2    1    0    0    0 -0.26769582716E+02 -0.92667080047E+01 -0.94368315912E+01  0.95141396106E+02  0.90334650198E+02 0.  0.
         13    1    3    3    0    0 -0.32217236796E+02  0.35380022964E+02 -0.14196174601E+02  0.49912312199E+02  0.10566000000E+00 0. -1.
         22    1    1    0    0    0  0.26769582716E+02  0.92667080047E+01  0.94368315912E+01  0.29858603894E+02  0.00000000000E+00 0. -1.
</event>
<event>
 5    1  0.1324057E-009  0.9118800E+02  0.7818608E-02  0.1130116E+00
         25   -1    0    0    0    0  0.00000000000E+00  0.00000000000E+00  0.99999998245E-14  0.12500000000E+03  0.12500000000E+03 0.  0.
        -13    1    3    3    0    0 -0.19078849896E+02  0.32126719692E+02 -0.97493738829E+01  0.38615930478E+02  0.10566000000E+00 0.  1.
         23    2    1    0    0    0  0.24662708743E+02 -0.38934608367E+01 -0.15565306955E+02  0.95577440281E+02  0.90936021852E+02 0.  0.
         13    1    3    3    0    0  0.43741558639E+02 -0.36020180529E+02 -0.58159330724E+01  0.56961509803E+02  0.10566000000E+00 0. -1.
         22    1    1    0    0    0 -0.24662708743E+02  0.38934608367E+01  0.15565306955E+02  0.29422559719E+02  0.00000000000E+00 0. -1.
</event>
<event>
 5    1  0.1324057E-009  0.9118800E+02  0.7818608E-02  0.1130116E+00
         25   -1    0    0    0    0  0.00000000000E+00  0.00000000000E+00  0.99999998245E-14  0.12500000000E+03  0.12500000000E+03 0.  0.
        -13    1    3    3    0    0 -0.69441543604E+01  0.38423418939E+02  0.11738913846E+02  0.40772462092E+02  0.10566000000E+00 0. -1.
         23    2    1    0    0    0  0.24706758915E+02  0.51402111290E+01 -0.16648758863E+02  0.94767122562E+02  0.89815258394E+02 0.  0.
         13    1    3    3    0    0  0.31650913275E+02 -0.33283207810E+02 -0.28387672709E+02  0.53994660469E+02  0.10566000000E+00 0.  1.
         22    1    1    0    0    0 -0.24706758915E+02 -0.51402111290E+01  0.16648758863E+02  0.30232877438E+02  0.00000000000E+00 0. -1.
</event>
<event>
 5    1  0.1324057E-009  0.9118800E+02  0.7818608E-02  0.1130116E+00
         25   -1    0    0    0    0  0.00000000000E+00  0.00000000000E+00  0.99999998245E-14  0.12500000000E+03  0.12500000000E+03 0.  0.
        -13    1    3    3    0    0  0.95486553127E+01 -0.15469330113E+02  0.41439899779E+02  0.45252109897E+02  0.10566000000E+00 0.  1.
         23    2    1    0    0    0  0.66378825852E+01  0.25653447769E+02  0.11996220896E+02  0.95912714402E+02  0.91395725286E+02 0.  0.
         13    1    3    3    0    0 -0.29107727275E+01  0.41122777882E+02 -0.29443678883E+02  0.50660604505E+02  0.10566000000E+00 0. -1.
         22    1    1    0    0    0 -0.66378825852E+01 -0.25653447769E+02 -0.11996220896E+02  0.29087285598E+02  0.00000000000E+00 0. -1.
</event>
<event>
 5    1  0.1324057E-009  0.9118800E+02  0.7818608E-02  0.1130116E+00
         25   -1    0    0    0    0  0.00000000000E+00  0.00000000000E+00  0.99999998245E-14  0.12500000000E+03  0.12500000000E+03 0.  0.
        -13    1    3    3    0    0  0.30771865805E+02  0.14341182302E+02 -0.73108173132E+01  0.34728035486E+02  0.10566000000E+00 0.  1.
         23    2    1    0    0    0 -0.24836364045E+02 -0.11896452757E+02 -0.83473331280E+01  0.96224167475E+02  0.91820705011E+02 0.  0.
         13    1    3    3    0    0 -0.55608229849E+02 -0.26237635059E+02 -0.10365158148E+01  0.61496131989E+02  0.10566000000E+00 0. -1.
         22    1    1    0    0    0  0.24836364045E+02  0.11896452757E+02  0.83473331280E+01  0.28775832525E+02  0.00000000000E+00 0. -1.
</event>
<event>
 5    1  0.1324057E-009  0.9118800E+02  0.7818608E-02  0.1130116E+00
         25   -1    0    0    0    0  0.00000000000E+00  0.00000000000E+00  0.99999998245E-14  0.12500000000E+03  0.12500000000E+03 0.  0.
        -13    1    3    3    0    0  0.42624024832E+02  0.28097479410E+02  0.82530234410E+01  0.51714595638E+02  0.10566000000E+00 0.  1.
         23    2    1    0    0    0  0.18369751333E+02  0.35309889400E+01 -0.20937161423E+02  0.96923668769E+02  0.92768082832E+02 0.  0.
         13    1    3    3    0    0 -0.24254273499E+02 -0.24566490470E+02 -0.29190184864E+02  0.45209073131E+02  0.10566000000E+00 0. -1.
         22    1    1    0    0    0 -0.18369751333E+02 -0.35309889400E+01  0.20937161423E+02  0.28076331231E+02  0.00000000000E+00 0. -1.
</event>
<event>
 5    1  0.1324057E-009  0.9118800E+02  0.7818608E-02  0.1130116E+00
         25   -1    0    0    0    0  0.00000000000E+00  0.00000000000E+00  0.99999998245E-14  0.12500000000E+03  0.12500000000E+03 0.  0.
        -13    1    3    3    0    0  0.88282735744E+01 -0.93491837130E+01 -0.32071215853E+02  0.34553143139E+02  0.10566000000E+00 0. -1.
         23    2    1    0    0    0 -0.16899238377E+02 -0.19647913596E+01  0.23355778280E+02  0.96104722845E+02  0.91657954981E+02 0.  0.
         13    1    3    3    0    0 -0.25727511952E+02  0.73843923535E+01  0.55426994133E+02  0.61551579706E+02  0.10566000000E+00 0.  1.
         22    1    1    0    0    0  0.16899238377E+02  0.19647913596E+01 -0.23355778280E+02  0.28895277155E+02  0.00000000000E+00 0.  1.
</event>
<event>
 5    1  0.1324057E-009  0.9118800E+02  0.7818608E-02  0.1130116E+00
         25   -1    0    0    0    0  0.00000000000E+00  0.00000000000E+00  0.99999998245E-14  0.12500000000E+03  0.12500000000E+03 0.  0.
        -13    1    3    3    0    0  0.93152612179E+00 -0.13173007358E+02  0.35281468546E+02  0.37672125645E+02  0.10566000000E+00 0.  1.
         23    2    1    0    0    0 -0.29769663379E+02 -0.31758756418E+02  0.24000343145E+02  0.75292174278E+02  0.56551247286E+02 0.  0.
         13    1    3    3    0    0 -0.30701189500E+02 -0.18585749060E+02 -0.11281125401E+02  0.37620048634E+02  0.10566000000E+00 0. -1.
         22    1    1    0    0    0  0.29769663379E+02  0.31758756418E+02 -0.24000343145E+02  0.49707825722E+02  0.00000000000E+00 0. -1.
</event>
<event>
 5    1  0.1324057E-009  0.9118800E+02  0.7818608E-02  0.1130116E+00
         25   -1    0    0    0    0  0.00000000000E+00  0.00000000000E+00  0.99999998245E-14  0.12500000000E+03  0.12500000000E+03 0.  0.
        -13    1    3    3    0    0  0.29431079202E+02 -0.16120326638E+02  0.18283206672E+02  0.38214397341E+02  0.10566000000E+00 0. -1.
         23    2    1    0    0    0 -0.15042382429E+02 -0.16795290607E+02 -0.18423281929E+02  0.95883469081E+02  0.91355718323E+02 0.  0.
         13    1    3    3    0    0 -0.44473461632E+02 -0.67496396869E+00 -0.36706488601E+02  0.57669071740E+02  0.10566000000E+00 0.  1.
         22    1    1    0    0    0  0.15042382429E+02  0.16795290607E+02  0.18423281929E+02  0.29116530919E+02  0.00000000000E+00 0.  1.
</event>
<event>
 4    1  0.1324057E-009  0.9118800E+02  0.7818608E-02  0.1130116E+00
         25   -1    0    0    0    0  0.00000000000E+00  0.00000000000E+00  0.99999998245E-14  0.12500000000E+03  0.12500000000E+03 0.  0.
        -13    1    1    0    0    0 -0.30137993782E+02 -0.19492261247E+02 -0.22708551890E+01  0.35964077425E+02  0.10566000000E+00 0.  1.
         13    1    1    0    0    0 -0.62882987678E+01 -0.15160069704E+02  0.28078169290E+02  0.32523301946E+02  0.10566000000E+00 0. -1.
         22    1    1    0    0    0  0.36426292550E+02  0.34652330951E+02 -0.25807314101E+02  0.56512620628E+02  0.00000000000E+00 0. -1.
</event>
<event>
 5    1  0.1324057E-009  0.9118800E+02  0.7818608E-02  0.1130116E+00
         25   -1    0    0    0    0  0.00000000000E+00  0.00000000000E+00  0.99999998245E-14  0.12500000000E+03  0.12500000000E+03 0.  0.
        -13    1    3    3    0    0 -0.21902227090E+02 -0.53224991350E+02  0.18397181309E+02  0.60424123493E+02  0.10566000000E+00 0. -1.
         23    2    1    0    0    0 -0.14603729821E+02 -0.16815161728E+02  0.15886355035E+02  0.97643193445E+02  0.93732589643E+02 0.  0.
         13    1    3    3    0    0  0.72984972688E+01  0.36409829622E+02 -0.25108262745E+01  0.37219069952E+02  0.10566000000E+00 0.  1.
         22    1    1    0    0    0  0.14603729821E+02  0.16815161728E+02 -0.15886355035E+02  0.27356806555E+02  0.00000000000E+00 0. -1.
</event>
<event>
 5    1  0.1324057E-009  0.9118800E+02  0.7818608E-02  0.1130116E+00
         25   -1    0    0    0    0  0.00000000000E+00  0.00000000000E+00  0.99999998245E-14  0.12500000000E+03  0.12500000000E+03 0.  0.
        -13    1    3    3    0    0  0.40526810592E+02 -0.11352081421E+02 -0.85812882554E+00  0.42095601652E+02  0.10566000000E+00 0.  1.
         23    2    1    0    0    0 -0.57443561198E+00  0.57826345595E+01 -0.29428688085E+02  0.95003058137E+02  0.90143022660E+02 0.  0.
         13    1    3    3    0    0 -0.41101246204E+02  0.17134715980E+02 -0.28570559260E+02  0.52907456485E+02  0.10566000000E+00 0. -1.
         22    1    1    0    0    0  0.57443561198E+00 -0.57826345595E+01  0.29428688085E+02  0.29996941863E+02  0.00000000000E+00 0. -1.
</event>
<event>
 5    1  0.1324057E-009  0.9118800E+02  0.7818608E-02  0.1130116E+00
         25   -1    0    0    0    0  0.00000000000E+00  0.00000000000E+00  0.99999998245E-14  0.12500000000E+03  0.12500000000E+03 0.  0.
        -13    1    3    3    0    0 -0.23464231709E+02  0.30873897454E+02  0.59376542275E+01  0.39230531674E+02  0.10566000000E+00 0. -1.
         23    2    1    0    0    0  0.12386150201E+02  0.96260556798E+00 -0.26262439341E+02  0.95947305694E+02  0.91443022826E+02 0.  0.
         13    1    3    3    0    0  0.35850381909E+02 -0.29911291886E+02 -0.32200093569E+02  0.56716774020E+02  0.10566000000E+00 0.  1.
         22    1    1    0    0    0 -0.12386150201E+02 -0.96260556798E+00  0.26262439341E+02  0.29052694306E+02  0.00000000000E+00 0.  1.
</event>
<event>
 5    1  0.1324057E-009  0.9118800E+02  0.7818608E-02  0.1130116E+00
         25   -1    0    0    0    0  0.00000000000E+00  0.00000000000E+00  0.99999998245E-14  0.12500000000E+03  0.12500000000E+03 0.  0.
        -13    1    3    3    0    0 -0.12140977832E+02 -0.37085367152E+02  0.82131077922E+01  0.39877237908E+02  0.10566000000E+00 0. -1.
         23    2    1    0    0    0 -0.11350645988E+00  0.14601867854E+02  0.25436171287E+02  0.95670386326E+02  0.91063695189E+02 0.  0.
         13    1    3    3    0    0  0.12027471372E+02  0.51687235006E+02  0.17223063495E+02  0.55793148418E+02  0.10566000000E+00 0.  1.
         22    1    1    0    0    0  0.11350645988E+00 -0.14601867854E+02 -0.25436171287E+02  0.29329613674E+02  0.00000000000E+00 0.  1.
</event>
<event>
 5    1  0.1324057E-009  0.9118800E+02  0.7818608E-02  0.1130116E+00
         25   -1    0    0    0    0  0.00000000000E+00  0.00000000000E+00  0.99999998245E-14  0.12500000000E+03  0.12500000000E+03 0.  0.
        -13    1    3    3    0    0 -0.15425076314E+01 -0.13955302092E+02 -0.31556338009E+02  0.34539012997E+02  0.10566000000E+00 0.  1.
         23    2    1    0    0    0 -0.44704043027E+01 -0.10553013401E+02  0.28250036492E+02  0.94513688838E+02  0.89461847787E+02 0.  0.
         13    1    3    3    0    0 -0.29278966713E+01  0.34022886917E+01  0.59806374501E+02  0.59974675841E+02  0.10566000000E+00 0. -1.
         22    1    1    0    0    0  0.44704043027E+01  0.10553013401E+02 -0.28250036492E+02  0.30486311162E+02  0.00000000000E+00 0. -1.
</event>
<event>
 5    1  0.1324057E-009  0.9118800E+02  0.7818608E-02  0.1130116E+00
         25   -1    0    0    0    0  0.00000000000E+00  0.00000000000E+00  0.99999998245E-14  0.12500000000E+03  0.12500000000E+03 0.  0.
        -13    1    3    3    0    0 -0.70674096816E+01 -0.64843162129E+01  0.59711405857E+02  0.60476919481E+02  0.10566000000E+00 0.  1.
         23    2    1    0    0    0 -0.13938206369E+02 -0.50251195641E+01  0.24612150626E+02  0.96272254146E+02  0.91886144421E+02 0.  0.
         13    1    3    3    0    0 -0.68707966873E+01  0.14591966488E+01 -0.35099255231E+02  0.35795334666E+02  0.10566000000E+00 0. -1.
         22    1    1    0    0    0  0.13938206369E+02  0.50251195641E+01 -0.24612150626E+02  0.28727745854E+02  0.00000000000E+00 0.  1.
</event>
<event>
 5    1  0.1324057E-009  0.9118800E+02  0.7818608E-02  0.1130116E+00
         25   -1    0    0    0    0  0.00000000000E+00  0.00000000000E+00  0.99999998245E-14  0.12500000000E+03  0.12500000000E+03 0.  0.
        -13    1    3    3    0    0 -0.10919736636E+02 -0.12532544369E+02  0.57405784751E+02  0.59764041057E+02  0.10566000000E+00 0.  1.
         23    2    1    0    0    0  0.78320145422E+01 -0.32122241448E+01  0.27159232482E+02  0.96552104739E+02  0.92266061934E+02 0.  0.
         13    1    3    3    0    0  0.18751751178E+02  0.93203202245E+01 -0.30246552269E+02  0.36788063682E+02  0.10566000000E+00 0. -1.
         22    1    1    0    0    0 -0.78320145422E+01  0.32122241448E+01 -0.27159232482E+02  0.28447895261E+02  0.00000000000E+00 0.  1.
</event>
<event>
 5    1  0.1324057E-009  0.9118800E+02  0.7818608E-02  0.1130116E+00
         25   -1    0    0    0    0  0.00000000000E+00  0.00000000000E+00  0.99999998245E-14  0.12500000000E+03  0.12500000000E+03 0.  0.
        -13    1    3    3    0    0 -0.27261757575E+02 -0.35622542541E+02  0.86892953194E+01  0.45691180553E+02  0.10566000000E+00 0.  1.
         23    2    1    0    0    0  0.20513777711E+02 -0.19560209670E+02  0.48796119827E+01  0.96238437257E+02  0.91840129106E+02 0.  0.
         13    1    3    3    0    0  0.47775535286E+02  0.16062332871E+02 -0.38096833366E+01  0.50547256704E+02  0.10566000000E+00 0. -1.
         22    1    1    0    0    0 -0.20513777711E+02  0.19560209670E+02 -0.48796119827E+01  0.28761562743E+02  0.00000000000E+00 0.  1.
</event>
<event>
 5    1  0.1324057E-009  0.9118800E+02  0.7818608E-02  0.1130116E+00
         25   -1    0    0    0    0  0.00000000000E+00  0.00000000000E+00  0.99999998245E-14  0.12500000000E+03  0.12500000000E+03 0.  0.
        -13    1    3    3    0    0 -0.23960009579E+02  0.22903859448E+02 -0.50806052189E+02  0.60662467306E+02  0.10566000000E+00 0. -1.
         23    2    1    0    0    0 -0.20910614988E+02  0.71387476941E+01 -0.21009461044E+02  0.94510444556E+02  0.89457314620E+02 0.  0.
         13    1    3    3    0    0  0.30493945912E+01 -0.15765111754E+02  0.29796591145E+02  0.33847977250E+02  0.10566000000E+00 0.  1.
         22    1    1    0    0    0  0.20910614988E+02 -0.71387476941E+01  0.21009461044E+02  0.30489555444E+02  0.00000000000E+00 0. -1.
</event>
<event>
 5    1  0.1324057E-009  0.9118800E+02  0.7818608E-02  0.1130116E+00
         25   -1    0    0    0    0  0.00000000000E+00  0.00000000000E+00  0.99999998245E-14  0.12500000000E+03  0.12500000000E+03 0.  0.
        -13    1    3    3    0    0  0.14722028020E+02  0.19172288070E+01  0.43359484087E+02  0.45830883689E+02  0.10566000000E+00 0.  1.
         23    2    1    0    0    0  0.86232946901E+01  0.26110197213E+02 -0.18206929742E+01  0.97442450531E+02  0.93464499318E+02 0.  0.
         13    1    3    3    0    0 -0.60987333303E+01  0.24192968406E+02 -0.45180177062E+02  0.51611566842E+02  0.10566000000E+00 0. -1.
         22    1    1    0    0    0 -0.86232946901E+01 -0.26110197213E+02  0.18206929742E+01  0.27557549469E+02  0.00000000000E+00 0. -1.
</event>
<event>
 5    1  0.1324057E-009  0.9118800E+02  0.7818608E-02  0.1130116E+00
         25   -1    0    0    0    0  0.00000000000E+00  0.00000000000E+00  0.99999998245E-14  0.12500000000E+03  0.12500000000E+03 0.  0.
        -13    1    3    3    0    0 -0.31181253114E+02  0.13819548506E+02  0.22199009934E+02  0.40694688508E+02  0.10566000000E+00 0.  1.
         23    2    1    0    0    0 -0.13116641499E+02 -0.14191934232E+02 -0.21783299381E+02  0.95880085622E+02  0.91351088694E+02 0.  0.
         13    1    3    3    0    0  0.18064611615E+02 -0.28011482738E+02 -0.43982309315E+02  0.55185397114E+02  0.10566000000E+00 0. -1.
         22    1    1    0    0    0  0.13116641499E+02  0.14191934232E+02  0.21783299381E+02  0.29119914378E+02  0.00000000000E+00 0. -1.
</event>
<event>
 5    1  0.1324057E-009  0.9118800E+02  0.7818608E-02  0.1130116E+00
         25   -1    0    0    0    0  0.00000000000E+00  0.00000000000E+00  0.99999998245E-14  0.12500000000E+03  0.12500000000E+03 0.  0.
        -13    1    3    3    0    0 -0.29203555632E+02 -0.37775573718E+01 -0.18762609652E+02  0.34916533136E+02  0.10566000000E+00 0.  1.
         23    2    1    0    0    0  0.19955191507E+02 -0.35355075069E+01  0.19242589961E+02  0.97053859841E+02  0.92943342743E+02 0.  0.
         13    1    3    3    0    0  0.49158747139E+02  0.24204986498E+00  0.38005199613E+02  0.62137326705E+02  0.10566000000E+00 0. -1.
         22    1    1    0    0    0 -0.19955191507E+02  0.35355075069E+01 -0.19242589961E+02  0.27946140159E+02  0.00000000000E+00 0. -1.
</event>
<event>
 5    1  0.1324057E-009  0.9118800E+02  0.7818608E-02  0.1130116E+00
         25   -1    0    0    0    0  0.00000000000E+00  0.00000000000E+00  0.99999998245E-14  0.12500000000E+03  0.12500000000E+03 0.  0.
        -13    1    3    3    0    0 -0.16710263396E+02 -0.40151949903E+02 -0.32015072442E+02  0.54003592577E+02  0.10566000000E+00 0. -1.
         23    2    1    0    0    0  0.11898640406E+02 -0.27451219311E+02 -0.65090572622E+01  0.94381134710E+02  0.89276445256E+02 0.  0.
         13    1    3    3    0    0  0.28608903802E+02  0.12700730592E+02  0.25506015180E+02  0.40377542133E+02  0.10566000000E+00 0.  1.
         22    1    1    0    0    0 -0.11898640406E+02  0.27451219311E+02  0.65090572622E+01  0.30618865290E+02  0.00000000000E+00 0.  1.
</event>
<event>
 5    1  0.1324057E-009  0.9118800E+02  0.7818608E-02  0.1130116E+00
         25   -1    0    0    0    0  0.00000000000E+00  0.00000000000E+00  0.99999998245E-14  0.12500000000E+03  0.12500000000E+03 0.  0.
        -13    1    3    3    0    0  0.33315175697E+02  0.48904416743E+01 -0.20724062294E+02  0.39538781892E+02  0.10566000000E+00 0.  1.
         23    2    1    0    0    0  0.12060642172E+02  0.79610319459E+01  0.28390475873E+02  0.93143191630E+02  0.87525984185E+02 0.  0.
         13    1    3    3    0    0 -0.21254533525E+02  0.30705902716E+01  0.49114538167E+02  0.53604409738E+02  0.10566000000E+00 0. -1.
         22    1    1    0    0    0 -0.12060642172E+02 -0.79610319459E+01 -0.28390475873E+02  0.31856808370E+02  0.00000000000E+00 0. -1.
</event>
<event>
 5    1  0.1324057E-009  0.9118800E+02  0.7818608E-02  0.1130116E+00
         25   -1    0    0    0    0  0.00000000000E+00  0.00000000000E+00  0.99999998245E-14  0.12500000000E+03  0.12500000000E+03 0.  0.
        -13    1    3    3    0    0 -0.32569377075E+02 -0.10173170289E+02  0.17057458869E+02  0.38147421720E+02  0.10566000000E+00 0.  1.
         23    2    1    0    0    0 -0.22064889961E+01  0.11802595152E+02 -0.26676858274E+02  0.95745519772E+02  0.91166769950E+02 0.  0.
         13    1    3    3    0    0  0.30362888079E+02  0.21975765441E+02 -0.43734317143E+02  0.57598098052E+02  0.10566000000E+00 0. -1.
         22    1    1    0    0    0  0.22064889961E+01 -0.11802595152E+02  0.26676858274E+02  0.29254480228E+02  0.00000000000E+00 0. -1.
</event>
<event>
 5    1  0.1324057E-009  0.9118800E+02  0.7818608E-02  0.1130116E+00
         25   -1    0    0    0    0  0.00000000000E+00  0.00000000000E+00  0.99999998245E-14  0.12500000000E+03  0.12500000000E+03 0.  0.
        -13    1    3    3    0    0 -0.37811261713E+02 -0.25410149345E+02 -0.42349634959E+02  0.62200240733E+02  0.10566000000E+00 0.  1.
         23    2    1    0    0    0 -0.20605574567E+02 -0.12249241776E+02 -0.16640917514E+02  0.95818605876E+02  0.91266924288E+02 0.  0.
         13    1    3    3    0    0  0.17205687146E+02  0.13160907569E+02  0.25708717445E+02  0.33618365143E+02  0.10566000000E+00 0. -1.
         22    1    1    0    0    0  0.20605574567E+02  0.12249241776E+02  0.16640917514E+02  0.29181394124E+02  0.00000000000E+00 0.  1.
</event>
<event>
 5    1  0.1324057E-009  0.9118800E+02  0.7818608E-02  0.1130116E+00
         25   -1    0    0    0    0  0.00000000000E+00  0.00000000000E+00  0.99999998245E-14  0.12500000000E+03  0.12500000000E+03 0.  0.
        -13    1    3    3    0    0 -0.21507095867E+02  0.21920309999E+01  0.54816905512E+02  0.58925923552E+02  0.10566000000E+00 0. -1.
         23    2    1    0    0    0  0.43075964348E+01 -0.23146326193E+01  0.28567319320E+02  0.96017166385E+02  0.91538470581E+02 0.  0.
         13    1    3    3    0    0  0.25814692302E+02 -0.45066636192E+01 -0.26249586192E+02  0.37091242833E+02  0.10566000000E+00 0.  1.
         22    1    1    0    0    0 -0.43075964348E+01  0.23146326193E+01 -0.28567319320E+02  0.28982833615E+02  0.00000000000E+00 0. -1.
</event>
<event>
 5    1  0.1324057E-009  0.9118800E+02  0.7818608E-02  0.1130116E+00
         25   -1    0    0    0    0  0.00000000000E+00  0.00000000000E+00  0.99999998245E-14  0.12500000000E+03  0.12500000000E+03 0.  0.
        -13    1    3    3    0    0 -0.49714640104E+02  0.19599380204E+02  0.20634042881E+02  0.57283994577E+02  0.10566000000E+00 0.  1.
         23    2    1    0    0    0 -0.16048280998E+02  0.51834794544E+00  0.23995870154E+02  0.96127559992E+02  0.91689094215E+02 0.  0.
         13    1    3    3    0    0  0.33666359106E+02 -0.19081032258E+02  0.33618272727E+01  0.38843565415E+02  0.10566000000E+00 0. -1.
         22    1    1    0    0    0  0.16048280998E+02 -0.51834794544E+00 -0.23995870154E+02  0.28872440008E+02  0.00000000000E+00 0.  1.
</event>
<event>
 5    1  0.1324057E-009  0.9118800E+02  0.7818608E-02  0.1130116E+00
         25   -1    0    0    0    0  0.00000000000E+00  0.00000000000E+00  0.99999998245E-14  0.12500000000E+03  0.12500000000E+03 0.  0.
        -13    1    3    3    0    0  0.27815553419E+02 -0.30957702811E+02  0.48591783234E+01  0.41901159332E+02  0.10566000000E+00 0. -1.
         23    2    1    0    0    0 -0.94184641658E+01  0.30523321524E+01 -0.23317327063E+02  0.99667768749E+02  0.96394720743E+02 0.  0.
         13    1    3    3    0    0 -0.37234017585E+02  0.34010034963E+02 -0.28176505386E+02  0.57766609417E+02  0.10566000000E+00 0.  1.
         22    1    1    0    0    0  0.94184641658E+01 -0.30523321524E+01  0.23317327063E+02  0.25332231251E+02  0.00000000000E+00 0.  1.
</event>
<event>
 5    1  0.1324057E-009  0.9118800E+02  0.7818608E-02  0.1130116E+00
         25   -1    0    0    0    0  0.00000000000E+00  0.00000000000E+00  0.99999998245E-14  0.12500000000E+03  0.12500000000E+03 0.  0.
        -13    1    3    3    0    0  0.38099183106E+02  0.73645436965E+01 -0.13029703488E+02  0.40933709754E+02  0.10566000000E+00 0.  1.
         23    2    1    0    0    0 -0.16198038665E+02  0.36563795032E+01 -0.23370051065E+02  0.96331116965E+02  0.91966185315E+02 0.  0.
         13    1    3    3    0    0 -0.54297221771E+02 -0.37081641933E+01 -0.10340347578E+02  0.55397407212E+02  0.10566000000E+00 0. -1.
         22    1    1    0    0    0  0.16198038665E+02 -0.36563795032E+01  0.23370051065E+02  0.28668883035E+02  0.00000000000E+00 0. -1.
</event>
<event>
 5    1  0.1324057E-009  0.9118800E+02  0.7818608E-02  0.1130116E+00
         25   -1    0    0    0    0  0.00000000000E+00  0.00000000000E+00  0.99999998245E-14  0.12500000000E+03  0.12500000000E+03 0.  0.
        -13    1    3    3    0    0  0.40499949138E+02  0.67425216948E+01 -0.29347130981E+02  0.50467541448E+02  0.10566000000E+00 0. -1.
         23    2    1    0    0    0  0.18922135453E+02 -0.20848764052E+02  0.10212109964E+01  0.96826234819E+02  0.92636702795E+02 0.  0.
         13    1    3    3    0    0 -0.21577813686E+02 -0.27591285747E+02  0.30368341977E+02  0.46358693371E+02  0.10566000000E+00 0.  1.
         22    1    1    0    0    0 -0.18922135453E+02  0.20848764052E+02 -0.10212109964E+01  0.28173765181E+02  0.00000000000E+00 0. -1.
</event>
<event>
 5    1  0.1324057E-009  0.9118800E+02  0.7818608E-02  0.1130116E+00
         25   -1    0    0    0    0  0.00000000000E+00  0.00000000000E+00  0.99999998245E-14  0.12500000000E+03  0.12500000000E+03 0.  0.
        -13    1    3    3    0    0  0.31392574859E+02 -0.25232834467E+02 -0.13798451674E+02  0.42574618309E+02  0.10566000000E+00 0. -1.
         23    2    1    0    0    0 -0.14307240742E+01  0.18505970940E+02 -0.20122528140E+02  0.97624206486E+02  0.93707265574E+02 0.  0.
         13    1    3    3    0    0 -0.32823298933E+02  0.43738805407E+02 -0.63240764657E+01  0.55049588177E+02  0.10566000000E+00 0.  1.
         22    1    1    0    0    0  0.14307240742E+01 -0.18505970940E+02  0.20122528140E+02  0.27375793514E+02  0.00000000000E+00 0.  1.
</event>
<event>
 5    1  0.1324057E-009  0.9118800E+02  0.7818608E-02  0.1130116E+00
         25   -1    0    0    0    0  0.00000000000E+00  0.00000000000E+00  0.99999998245E-14  0.12500000000E+03  0.12500000000E+03 0.  0.
        -13    1    3    3    0    0 -0.49334432281E+02  0.26383668953E+02  0.26961854923E+02  0.62104242857E+02  0.10566000000E+00 0.  1.
         23    2    1    0    0    0 -0.27630576813E+02  0.17418369415E+02  0.20413320055E+02  0.86483094572E+02  0.77432381101E+02 0.  0.
         13    1    3    3    0    0  0.21703855468E+02 -0.89652995383E+01 -0.65485348674E+01  0.24378851715E+02  0.10566000000E+00 0. -1.
         22    1    1    0    0    0  0.27630576813E+02 -0.17418369415E+02 -0.20413320055E+02  0.38516905428E+02  0.00000000000E+00 0.  1.
</event>
<event>
 5    1  0.1324057E-009  0.9118800E+02  0.7818608E-02  0.1130116E+00
         25   -1    0    0    0    0  0.00000000000E+00  0.00000000000E+00  0.99999998245E-14  0.12500000000E+03  0.12500000000E+03 0.  0.
        -13    1    3    3    0    0  0.23817115259E+02  0.23759356684E+02 -0.16444296357E+02  0.37445801581E+02  0.10566000000E+00 0. -1.
         23    2    1    0    0    0 -0.28723493879E+02  0.47568470350E+01  0.66325002678E+00  0.95877730258E+02  0.91347865681E+02 0.  0.
         13    1    3    3    0    0 -0.52540609138E+02 -0.19002509649E+02  0.17107546384E+02  0.58431928677E+02  0.10566000000E+00 0.  1.
         22    1    1    0    0    0  0.28723493879E+02 -0.47568470350E+01 -0.66325002678E+00  0.29122269742E+02  0.00000000000E+00 0.  1.
</event>
<event>
 5    1  0.1324057E-009  0.9118800E+02  0.7818608E-02  0.1130116E+00
         25   -1    0    0    0    0  0.00000000000E+00  0.00000000000E+00  0.99999998245E-14  0.12500000000E+03  0.12500000000E+03 0.  0.
        -13    1    3    3    0    0  0.15225229962E+02 -0.66948732126E+01 -0.57629029870E+02  0.59981207078E+02  0.10566000000E+00 0. -1.
         23    2    1    0    0    0  0.17607618136E+02  0.22398258988E+01 -0.22310577908E+02  0.96490231094E+02  0.92182198789E+02 0.  0.
         13    1    3    3    0    0  0.23823881740E+01  0.89346991114E+01  0.35318451962E+02  0.36509024016E+02  0.10566000000E+00 0.  1.
         22    1    1    0    0    0 -0.17607618136E+02 -0.22398258988E+01  0.22310577908E+02  0.28509768906E+02  0.00000000000E+00 0. -1.
</event>
<event>
 5    1  0.1324057E-009  0.9118800E+02  0.7818608E-02  0.1130116E+00
         25   -1    0    0    0    0  0.00000000000E+00  0.00000000000E+00  0.99999998245E-14  0.12500000000E+03  0.12500000000E+03 0.  0.
        -13    1    3    3    0    0  0.15150086843E+02 -0.48203406827E+02 -0.35182701047E+02  0.61570505748E+02  0.10566000000E+00 0.  1.
         23    2    1    0    0    0  0.19706011167E+01 -0.23906595019E+02 -0.98353396191E+01  0.99074289603E+02  0.95622028847E+02 0.  0.
         13    1    3    3    0    0 -0.13179485726E+02  0.24296811808E+02  0.25347361428E+02  0.37503783855E+02  0.10566000000E+00 0. -1.
         22    1    1    0    0    0 -0.19706011167E+01  0.23906595019E+02  0.98353396191E+01  0.25925710397E+02  0.00000000000E+00 0.  1.
</event>
<event>
 5    1  0.1324057E-009  0.9118800E+02  0.7818608E-02  0.1130116E+00
         25   -1    0    0    0    0  0.00000000000E+00  0.00000000000E+00  0.99999998245E-14  0.12500000000E+03  0.12500000000E+03 0.  0.
        -13    1    3    3    0    0  0.26341761148E+02  0.43486147298E+02  0.26675335384E+02  0.57415312148E+02  0.10566000000E+00 0.  1.
         23    2    1    0    0    0  0.27209537182E+01  0.14788117357E+02  0.26438216111E+02  0.94585015613E+02  0.89561453223E+02 0.  0.
         13    1    3    3    0    0 -0.23620807430E+02 -0.28698029941E+02 -0.23711927292E+00  0.37169703465E+02  0.10566000000E+00 0. -1.
         22    1    1    0    0    0 -0.27209537182E+01 -0.14788117357E+02 -0.26438216111E+02  0.30414984387E+02  0.00000000000E+00 0.  1.
</event>
<event>
 5    1  0.1324057E-009  0.9118800E+02  0.7818608E-02  0.1130116E+00
         25   -1    0    0    0    0  0.00000000000E+00  0.00000000000E+00  0.99999998245E-14  0.12500000000E+03  0.12500000000E+03 0.  0.
        -13    1    3    3    0    0 -0.97771435947E+01  0.14014296295E+02 -0.11274076089E+02  0.20472151651E+02  0.10566000000E+00 0.  1.
         23    2    1    0    0    0  0.19451449836E+02 -0.31551982174E+02  0.19887933986E+02  0.82935568492E+02  0.71476514485E+02 0.  0.
         13    1    3    3    0    0  0.29228593431E+02 -0.45566278469E+02  0.31162010075E+02  0.62463416841E+02  0.10566000000E+00 0. -1.
         22    1    1    0    0    0 -0.19451449836E+02  0.31551982174E+02 -0.19887933986E+02  0.42064431508E+02  0.00000000000E+00 0. -1.
</event>
<event>
 5    1  0.1324057E-009  0.9118800E+02  0.7818608E-02  0.1130116E+00
         25   -1    0    0    0    0  0.00000000000E+00  0.00000000000E+00  0.99999998245E-14  0.12500000000E+03  0.12500000000E+03 0.  0.
        -13    1    3    3    0    0 -0.36168444138E+02 -0.13803388589E+02 -0.43225774667E+02  0.58027309497E+02  0.10566000000E+00 0. -1.
         23    2    1    0    0    0 -0.25999793987E+02 -0.89540416884E+01 -0.60889052151E+01  0.96835502549E+02  0.92649207430E+02 0.  0.
         13    1    3    3    0    0  0.10168650151E+02  0.48493469004E+01  0.37136869452E+02  0.38808193052E+02  0.10566000000E+00 0.  1.
         22    1    1    0    0    0  0.25999793987E+02  0.89540416884E+01  0.60889052151E+01  0.28164497451E+02  0.00000000000E+00 0. -1.
</event>
<event>
 5    1  0.1324057E-009  0.9118800E+02  0.7818608E-02  0.1130116E+00
         25   -1    0    0    0    0  0.00000000000E+00  0.00000000000E+00  0.99999998245E-14  0.12500000000E+03  0.12500000000E+03 0.  0.
        -13    1    3    3    0    0 -0.30449550326E+01  0.48544415232E+02 -0.11688376684E+02  0.50024607094E+02  0.10566000000E+00 0. -1.
         23    2    1    0    0    0 -0.32264430878E+01  0.54811595538E+01 -0.28159722377E+02  0.96130933347E+02  0.91693693004E+02 0.  0.
         13    1    3    3    0    0 -0.18148805525E+00 -0.43063255678E+02 -0.16471345694E+02  0.46106326253E+02  0.10566000000E+00 0.  1.
         22    1    1    0    0    0  0.32264430878E+01 -0.54811595538E+01  0.28159722377E+02  0.28869066653E+02  0.00000000000E+00 0.  1.
</event>
<event>
 5    1  0.1324057E-009  0.9118800E+02  0.7818608E-02  0.1130116E+00
         25   -1    0    0    0    0  0.00000000000E+00  0.00000000000E+00  0.99999998245E-14  0.12500000000E+03  0.12500000000E+03 0.  0.
        -13    1    3    3    0    0  0.60524510301E+01  0.38607767333E+02  0.29012524205E+02  0.48671650750E+02  0.10566000000E+00 0. -1.
         23    2    1    0    0    0  0.19292710193E+02 -0.62833411193E+01  0.20337534632E+02  0.96271889078E+02  0.91885647789E+02 0.  0.
         13    1    3    3    0    0  0.13240259163E+02 -0.44891108453E+02 -0.86749895727E+01  0.47600238329E+02  0.10566000000E+00 0.  1.
         22    1    1    0    0    0 -0.19292710193E+02  0.62833411193E+01 -0.20337534632E+02  0.28728110922E+02  0.00000000000E+00 0. -1.
</event>
<event>
 5    1  0.1324057E-009  0.9118800E+02  0.7818608E-02  0.1130116E+00
         25   -1    0    0    0    0  0.00000000000E+00  0.00000000000E+00  0.99999998245E-14  0.12500000000E+03  0.12500000000E+03 0.  0.
        -13    1    3    3    0    0 -0.25879335851E+02 -0.25484395428E+02  0.62558720533E+01  0.36855685227E+02  0.10566000000E+00 0.  1.
         23    2    1    0    0    0  0.27606337106E+02 -0.40202947270E+01  0.11708718816E+02  0.94744972080E+02  0.89784425265E+02 0.  0.
         13    1    3    3    0    0  0.53485672957E+02  0.21464100701E+02  0.54528467630E+01  0.57889286853E+02  0.10566000000E+00 0. -1.
         22    1    1    0    0    0 -0.27606337106E+02  0.40202947270E+01 -0.11708718816E+02  0.30255027920E+02  0.00000000000E+00 0. -1.
</event>
<event>
 5    1  0.1324057E-009  0.9118800E+02  0.7818608E-02  0.1130116E+00
         25   -1    0    0    0    0  0.00000000000E+00  0.00000000000E+00  0.99999998245E-14  0.12500000000E+03  0.12500000000E+03 0.  0.
        -13    1    3    3    0    0  0.14808929823E+02 -0.87454658914E+01 -0.36323397067E+02  0.40189400527E+02  0.10566000000E+00 0.  1.
         23    2    1    0    0    0 -0.66646164336E+00  0.32150279936E+02 -0.95765405038E+01  0.91447134264E+02  0.85069286855E+02 0.  0.
         13    1    3    3    0    0 -0.15475391467E+02  0.40895745827E+02  0.26746856563E+02  0.51257733737E+02  0.10566000000E+00 0. -1.
         22    1    1    0    0    0  0.66646164336E+00 -0.32150279936E+02  0.95765405038E+01  0.33552865736E+02  0.00000000000E+00 0.  1.
</event>
<event>
 5    1  0.1324057E-009  0.9118800E+02  0.7818608E-02  0.1130116E+00
         25   -1    0    0    0    0  0.00000000000E+00  0.00000000000E+00  0.99999998245E-14  0.12500000000E+03  0.12500000000E+03 0.  0.
        -13    1    3    3    0    0  0.14066650353E+02 -0.20336210935E+02  0.27148575063E+02  0.36721770373E+02  0.10566000000E+00 0. -1.
         23    2    1    0    0    0 -0.12899106316E+02  0.23301187327E+02 -0.58709448078E+01  0.97727298126E+02  0.93844683021E+02 0.  0.
         13    1    3    3    0    0 -0.26965756669E+02  0.43637398262E+02 -0.33019519871E+02  0.61005527752E+02  0.10566000000E+00 0.  1.
         22    1    1    0    0    0  0.12899106316E+02 -0.23301187327E+02  0.58709448078E+01  0.27272701874E+02  0.00000000000E+00 0.  1.
</event>
<event>
 5    1  0.1324057E-009  0.9118800E+02  0.7818608E-02  0.1130116E+00
         25   -1    0    0    0    0  0.00000000000E+00  0.00000000000E+00  0.99999998245E-14  0.12500000000E+03  0.12500000000E+03 0.  0.
        -13    1    3    3    0    0  0.16701284419E+02 -0.33949333439E+02 -0.48182202208E+02  0.61261945087E+02  0.10566000000E+00 0. -1.
         23    2    1    0    0    0  0.28938804829E+01 -0.99858172156E+01 -0.26904005583E+02  0.96157035414E+02  0.91729269339E+02 0.  0.
         13    1    3    3    0    0 -0.13807403936E+02  0.23963516223E+02  0.21278196625E+02  0.34895090327E+02  0.10566000000E+00 0.  1.
         22    1    1    0    0    0 -0.28938804829E+01  0.99858172156E+01  0.26904005583E+02  0.28842964586E+02  0.00000000000E+00 0. -1.
</event>
<event>
 5    1  0.1324057E-009  0.9118800E+02  0.7818608E-02  0.1130116E+00
         25   -1    0    0    0    0  0.00000000000E+00  0.00000000000E+00  0.99999998245E-14  0.12500000000E+03  0.12500000000E+03 0.  0.
        -13    1    3    3    0    0 -0.10963211091E+02 -0.91142452328E+00 -0.42312364434E+02  0.43719218201E+02  0.10566000000E+00 0.  1.
         23    2    1    0    0    0 -0.15635853494E+02  0.29332436112E+02 -0.59730281817E+01  0.91227988091E+02  0.84746663785E+02 0.  0.
         13    1    3    3    0    0 -0.46726424034E+01  0.30243860635E+02  0.36339336252E+02  0.47508769890E+02  0.10566000000E+00 0. -1.
         22    1    1    0    0    0  0.15635853494E+02 -0.29332436112E+02  0.59730281817E+01  0.33772011909E+02  0.00000000000E+00 0.  1.
</event>
<event>
 5    1  0.1324057E-009  0.9118800E+02  0.7818608E-02  0.1130116E+00
         25   -1    0    0    0    0  0.00000000000E+00  0.00000000000E+00  0.99999998245E-14  0.12500000000E+03  0.12500000000E+03 0.  0.
        -13    1    3    3    0    0 -0.27223671603E+02  0.13897113193E+02  0.19083027562E+02  0.36033750230E+02  0.10566000000E+00 0.  1.
         23    2    1    0    0    0  0.22676090709E+02 -0.16439034520E+02  0.10642608232E+02  0.95038156670E+02  0.90191680145E+02 0.  0.
         13    1    3    3    0    0  0.49899762312E+02 -0.30336147712E+02 -0.84404193300E+01  0.59004406440E+02  0.10566000000E+00 0. -1.
         22    1    1    0    0    0 -0.22676090709E+02  0.16439034520E+02 -0.10642608232E+02  0.29961843330E+02  0.00000000000E+00 0. -1.
</event>
<event>
 5    1  0.1324057E-009  0.9118800E+02  0.7818608E-02  0.1130116E+00
         25   -1    0    0    0    0  0.00000000000E+00  0.00000000000E+00  0.99999998245E-14  0.12500000000E+03  0.12500000000E+03 0.  0.
        -13    1    3    3    0    0  0.91129076473E+01 -0.68233248554E+01  0.61330203172E+02  0.62377943482E+02  0.10566000000E+00 0. -1.
         23    2    1    0    0    0  0.50622653001E+01 -0.51040203146E+00  0.27952542322E+02  0.96588177417E+02  0.92314919456E+02 0.  0.
         13    1    3    3    0    0 -0.40506423472E+01  0.63129228239E+01 -0.33377660850E+02  0.34210233935E+02  0.10566000000E+00 0.  1.
         22    1    1    0    0    0 -0.50622653001E+01  0.51040203146E+00 -0.27952542322E+02  0.28411822583E+02  0.00000000000E+00 0. -1.
</event>
<event>
 5    1  0.1324057E-009  0.9118800E+02  0.7818608E-02  0.1130116E+00
         25   -1    0    0    0    0  0.00000000000E+00  0.00000000000E+00  0.99999998245E-14  0.12500000000E+03  0.12500000000E+03 0.  0.
        -13    1    3    3    0    0 -0.40926178270E+02  0.27713000284E+02 -0.52204844661E+01  0.49701379001E+02  0.10566000000E+00 0.  1.
         23    2    1    0    0    0 -0.11829066703E+02  0.90010923045E+01  0.25182972449E+02  0.95757418324E+02  0.91183082756E+02 0.  0.
         13    1    3    3    0    0  0.29097111566E+02 -0.18711907979E+02  0.30403456915E+02  0.46056039323E+02  0.10566000000E+00 0. -1.
         22    1    1    0    0    0  0.11829066703E+02 -0.90010923045E+01 -0.25182972449E+02  0.29242581676E+02  0.00000000000E+00 0.  1.
</event>
<event>
 5    1  0.1324057E-009  0.9118800E+02  0.7818608E-02  0.1130116E+00
         25   -1    0    0    0    0  0.00000000000E+00  0.00000000000E+00  0.99999998245E-14  0.12500000000E+03  0.12500000000E+03 0.  0.
        -13    1    3    3    0    0 -0.45843733952E+02  0.28747160636E+02  0.18696156391E+02  0.57250367816E+02  0.10566000000E+00 0.  1.
         23    2    1    0    0    0 -0.11246398240E+02  0.13020790149E+02  0.23838884262E+02  0.95600767827E+02  0.90968082078E+02 0.  0.
         13    1    3    3    0    0  0.34597335711E+02 -0.15726370487E+02  0.51427278709E+01  0.38350400011E+02  0.10566000000E+00 0. -1.
         22    1    1    0    0    0  0.11246398240E+02 -0.13020790149E+02 -0.23838884262E+02  0.29399232173E+02  0.00000000000E+00 0.  1.
</event>
<event>
 5    1  0.1324057E-009  0.9118800E+02  0.7818608E-02  0.1130116E+00
         25   -1    0    0    0    0  0.00000000000E+00  0.00000000000E+00  0.99999998245E-14  0.12500000000E+03  0.12500000000E+03 0.  0.
        -13    1    3    3    0    0  0.12295768641E+01 -0.32798132091E+01  0.30164777946E+02  0.30367647695E+02  0.10566000000E+00 0. -1.
         23    2    1    0    0    0 -0.12709673045E+02 -0.39327923622E+02 -0.59244953843E+01  0.83246904176E+02  0.72018928372E+02 0.  0.
         13    1    3    3    0    0 -0.13939249909E+02 -0.36048110413E+02 -0.36089273330E+02  0.52879256481E+02  0.10566000000E+00 0.  1.
         22    1    1    0    0    0  0.12709673045E+02  0.39327923622E+02  0.59244953843E+01  0.41753095824E+02  0.00000000000E+00 0.  1.
</event>
<event>
 5    1  0.1324057E-009  0.9118800E+02  0.7818608E-02  0.1130116E+00
         25   -1    0    0    0    0  0.00000000000E+00  0.00000000000E+00  0.99999998245E-14  0.12500000000E+03  0.12500000000E+03 0.  0.
        -13    1    3    3    0    0  0.29522534532E+02 -0.57160208187E+01 -0.27307599950E+02  0.40619811894E+02  0.10566000000E+00 0.  1.
         23    2    1    0    0    0  0.64853114818E+01 -0.17823273601E+02  0.21743080391E+02  0.96147099076E+02  0.91715728035E+02 0.  0.
         13    1    3    3    0    0 -0.23037223051E+02 -0.12107252782E+02  0.49050680341E+02  0.55527287182E+02  0.10566000000E+00 0. -1.
         22    1    1    0    0    0 -0.64853114818E+01  0.17823273601E+02 -0.21743080391E+02  0.28852900924E+02  0.00000000000E+00 0. -1.
</event>
<event>
 5    1  0.1324057E-009  0.9118800E+02  0.7818608E-02  0.1130116E+00
         25   -1    0    0    0    0  0.00000000000E+00  0.00000000000E+00  0.99999998245E-14  0.12500000000E+03  0.12500000000E+03 0.  0.
        -13    1    3    3    0    0 -0.38035718861E+02  0.16078758368E+02 -0.44977328133E+02  0.61059099158E+02  0.10566000000E+00 0.  1.
         23    2    1    0    0    0 -0.14438908973E+02  0.16215466434E+02 -0.19073002080E+02  0.96100123662E+02  0.91651682556E+02 0.  0.
         13    1    3    3    0    0  0.23596809888E+02  0.13670806635E+00  0.25904326052E+02  0.35041024504E+02  0.10566000000E+00 0. -1.
         22    1    1    0    0    0  0.14438908973E+02 -0.16215466434E+02  0.19073002080E+02  0.28899876338E+02  0.00000000000E+00 0.  1.
</event>
<event>
 5    1  0.1324057E-009  0.9118800E+02  0.7818608E-02  0.1130116E+00
         25   -1    0    0    0    0  0.00000000000E+00  0.00000000000E+00  0.99999998245E-14  0.12500000000E+03  0.12500000000E+03 0.  0.
        -13    1    3    3    0    0 -0.83081537796E+00 -0.37506825083E+02 -0.20661631283E+02  0.42829503304E+02  0.10566000000E+00 0.  1.
         23    2    1    0    0    0  0.27813512023E+02 -0.40827345870E+01  0.84996529537E+01  0.95631576938E+02  0.91010407287E+02 0.  0.
         13    1    3    3    0    0  0.28644327401E+02  0.33424090496E+02  0.29161284236E+02  0.52802073634E+02  0.10566000000E+00 0. -1.
         22    1    1    0    0    0 -0.27813512023E+02  0.40827345870E+01 -0.84996529537E+01  0.29368423062E+02  0.00000000000E+00 0.  1.
</event>
<event>
 5    1  0.1324057E-009  0.9118800E+02  0.7818608E-02  0.1130116E+00
         25   -1    0    0    0    0  0.00000000000E+00  0.00000000000E+00  0.99999998245E-14  0.12500000000E+03  0.12500000000E+03 0.  0.
        -13    1    3    3    0    0 -0.18651130486E+02 -0.23391388196E+01 -0.43886542071E+02  0.47742810745E+02  0.10566000000E+00 0. -1.
         23    2    1    0    0    0  0.22386250981E+02 -0.16981170837E+01 -0.17486429558E+02  0.96542961270E+02  0.92253673734E+02 0.  0.
         13    1    3    3    0    0  0.41037381467E+02  0.64102173584E+00  0.26400112513E+02  0.48800150525E+02  0.10566000000E+00 0.  1.
         22    1    1    0    0    0 -0.22386250981E+02  0.16981170837E+01  0.17486429558E+02  0.28457038730E+02  0.00000000000E+00 0.  1.
</event>
<event>
 5    1  0.1324057E-009  0.9118800E+02  0.7818608E-02  0.1130116E+00
         25   -1    0    0    0    0  0.00000000000E+00  0.00000000000E+00  0.99999998245E-14  0.12500000000E+03  0.12500000000E+03 0.  0.
        -13    1    3    3    0    0 -0.91703667059E+01  0.44343001325E+02 -0.39263457718E+02  0.59933527078E+02  0.10566000000E+00 0.  1.
         23    2    1    0    0    0  0.72600599183E+01  0.17577871319E+02 -0.22519475989E+02  0.95524301044E+02  0.90862947680E+02 0.  0.
         13    1    3    3    0    0  0.16430426624E+02 -0.26765130006E+02  0.16743981730E+02  0.35590773966E+02  0.10566000000E+00 0. -1.
         22    1    1    0    0    0 -0.72600599183E+01 -0.17577871319E+02  0.22519475989E+02  0.29475698956E+02  0.00000000000E+00 0.  1.
</event>
<event>
 5    1  0.1324057E-009  0.9118800E+02  0.7818608E-02  0.1130116E+00
         25   -1    0    0    0    0  0.00000000000E+00  0.00000000000E+00  0.99999998245E-14  0.12500000000E+03  0.12500000000E+03 0.  0.
        -13    1    3    3    0    0 -0.14703094880E+02 -0.21801271220E+02 -0.91086817643E+01  0.27829043702E+02  0.10566000000E+00 0. -1.
         23    2    1    0    0    0  0.51967558855E+01  0.22113989406E+02  0.28197338740E+02  0.88790543898E+02  0.81071795185E+02 0.  0.
         13    1    3    3    0    0  0.19899850766E+02  0.43915260625E+02  0.37306020504E+02  0.60961500196E+02  0.10566000000E+00 0.  1.
         22    1    1    0    0    0 -0.51967558855E+01 -0.22113989406E+02 -0.28197338740E+02  0.36209456102E+02  0.00000000000E+00 0.  1.
</event>
<event>
 5    1  0.1324057E-009  0.9118800E+02  0.7818608E-02  0.1130116E+00
         25   -1    0    0    0    0  0.00000000000E+00  0.00000000000E+00  0.99999998245E-14  0.12500000000E+03  0.12500000000E+03 0.  0.
        -13    1    3    3    0    0  0.40012506387E+02  0.16920475982E+02 -0.38783656118E+02  0.58236468992E+02  0.10566000000E+00 0.  1.
         23    2    1    0    0    0  0.12427086856E+02 -0.41105379613E+01 -0.27211591048E+02  0.94803978782E+02  0.89866538241E+02 0.  0.
         13    1    3    3    0    0 -0.27585419531E+02 -0.21031013944E+02  0.11572065070E+02  0.36567509789E+02  0.10566000000E+00 0. -1.
         22    1    1    0    0    0 -0.12427086856E+02  0.41105379613E+01  0.27211591048E+02  0.30196021218E+02  0.00000000000E+00 0.  1.
</event>
<event>
 5    1  0.1324057E-009  0.9118800E+02  0.7818608E-02  0.1130116E+00
         25   -1    0    0    0    0  0.00000000000E+00  0.00000000000E+00  0.99999998245E-14  0.12500000000E+03  0.12500000000E+03 0.  0.
        -13    1    3    3    0    0 -0.34145119279E+02 -0.51962096511E+01 -0.15088366057E+02  0.37690313339E+02  0.10566000000E+00 0.  1.
         23    2    1    0    0    0  0.20815103463E+02 -0.20111086131E+02 -0.30566702007E+01  0.95895575074E+02  0.91372281182E+02 0.  0.
         13    1    3    3    0    0  0.54960222743E+02 -0.14914876480E+02  0.12031695856E+02  0.58205261734E+02  0.10566000000E+00 0. -1.
         22    1    1    0    0    0 -0.20815103463E+02  0.20111086131E+02  0.30566702007E+01  0.29104424926E+02  0.00000000000E+00 0. -1.
</event>
<event>
 5    1  0.1324057E-009  0.9118800E+02  0.7818608E-02  0.1130116E+00
         25   -1    0    0    0    0  0.00000000000E+00  0.00000000000E+00  0.99999998245E-14  0.12500000000E+03  0.12500000000E+03 0.  0.
        -13    1    3    3    0    0  0.97205608530E+01 -0.79354289351E+01  0.55345038197E+02  0.56749843636E+02  0.10566000000E+00 0.  1.
         23    2    1    0    0    0 -0.40860941893E+00  0.14740138188E+02  0.25145643881E+02  0.95849664811E+02  0.91309452976E+02 0.  0.
         13    1    3    3    0    0 -0.10129170272E+02  0.22675567123E+02 -0.30199394317E+02  0.39099821175E+02  0.10566000000E+00 0. -1.
         22    1    1    0    0    0  0.40860941893E+00 -0.14740138188E+02 -0.25145643881E+02  0.29150335189E+02  0.00000000000E+00 0.  1.
</event>
<event>
 5    1  0.1324057E-009  0.9118800E+02  0.7818608E-02  0.1130116E+00
         25   -1    0    0    0    0  0.00000000000E+00  0.00000000000E+00  0.99999998245E-14  0.12500000000E+03  0.12500000000E+03 0.  0.
        -13    1    3    3    0    0  0.11746624360E+01 -0.14682527378E+02  0.32028092450E+02  0.35252890833E+02  0.10566000000E+00 0. -1.
         23    2    1    0    0    0  0.40846578022E+01  0.25249639338E+02 -0.13660809765E+02  0.96002647715E+02  0.91518642521E+02 0.  0.
         13    1    3    3    0    0  0.29099953662E+01  0.39932166716E+02 -0.45688902215E+02  0.60749756883E+02  0.10566000000E+00 0.  1.
         22    1    1    0    0    0 -0.40846578022E+01 -0.25249639338E+02  0.13660809765E+02  0.28997352285E+02  0.00000000000E+00 0.  1.
</event>
<event>
 5    1  0.1324057E-009  0.9118800E+02  0.7818608E-02  0.1130116E+00
         25   -1    0    0    0    0  0.00000000000E+00  0.00000000000E+00  0.99999998245E-14  0.12500000000E+03  0.12500000000E+03 0.  0.
        -13    1    3    3    0    0  0.48024767595E+02 -0.35458560506E+00 -0.13462162817E+02  0.49877299699E+02  0.10566000000E+00 0. -1.
         23    2    1    0    0    0  0.11225327409E+02 -0.26441666831E+02 -0.36162424753E+01  0.96047505637E+02  0.91579890856E+02 0.  0.
         13    1    3    3    0    0 -0.36799440186E+02 -0.26087081226E+02  0.98459203416E+01  0.46170205938E+02  0.10566000000E+00 0.  1.
         22    1    1    0    0    0 -0.11225327409E+02  0.26441666831E+02  0.36162424753E+01  0.28952494363E+02  0.00000000000E+00 0. -1.
</event>
<event>
 5    1  0.1324057E-009  0.9118800E+02  0.7818608E-02  0.1130116E+00
         25   -1    0    0    0    0  0.00000000000E+00  0.00000000000E+00  0.99999998245E-14  0.12500000000E+03  0.12500000000E+03 0.  0.
        -13    1    3    3    0    0  0.29028596208E+02 -0.41708725064E+02 -0.13175895956E+02  0.52496595533E+02  0.10566000000E+00 0. -1.
         23    2    1    0    0    0 -0.54592142961E+01 -0.17552457912E+02 -0.22824072365E+02  0.95694197182E+02  0.91096373668E+02 0.  0.
         13    1    3    3    0    0 -0.34487810504E+02  0.24156267152E+02 -0.96481764091E+01  0.43197601648E+02  0.10566000000E+00 0.  1.
         22    1    1    0    0    0  0.54592142961E+01  0.17552457912E+02  0.22824072365E+02  0.29305802818E+02  0.00000000000E+00 0. -1.
</event>
<event>
 5    1  0.1324057E-009  0.9118800E+02  0.7818608E-02  0.1130116E+00
         25   -1    0    0    0    0  0.00000000000E+00  0.00000000000E+00  0.99999998245E-14  0.12500000000E+03  0.12500000000E+03 0.  0.
        -13    1    3    3    0    0  0.59689272008E+01 -0.30164727255E+02 -0.23435864778E+02  0.38662511354E+02  0.10566000000E+00 0.  1.
         23    2    1    0    0    0  0.18784900625E+02  0.22235842827E+02 -0.95299862379E+01  0.94371160070E+02  0.89262478218E+02 0.  0.
         13    1    3    3    0    0  0.12815973425E+02  0.52400570082E+02  0.13905878540E+02  0.55708648716E+02  0.10566000000E+00 0. -1.
         22    1    1    0    0    0 -0.18784900625E+02 -0.22235842827E+02  0.95299862379E+01  0.30628839930E+02  0.00000000000E+00 0. -1.
</event>
<event>
 5    1  0.1324057E-009  0.9118800E+02  0.7818608E-02  0.1130116E+00
         25   -1    0    0    0    0  0.00000000000E+00  0.00000000000E+00  0.99999998245E-14  0.12500000000E+03  0.12500000000E+03 0.  0.
        -13    1    3    3    0    0 -0.58839113576E+02 -0.16275714526E+02  0.51892567033E+01  0.61268913153E+02  0.10566000000E+00 0.  1.
         23    2    1    0    0    0 -0.27529962641E+02 -0.10137651017E+02 -0.59549666352E+01  0.95064528753E+02  0.90228222792E+02 0.  0.
         13    1    3    3    0    0  0.31309150935E+02  0.61380635083E+01 -0.11144223338E+02  0.33795615600E+02  0.10566000000E+00 0. -1.
         22    1    1    0    0    0  0.27529962641E+02  0.10137651017E+02  0.59549666352E+01  0.29935471247E+02  0.00000000000E+00 0.  1.
</event>
<event>
 5    1  0.1324057E-009  0.9118800E+02  0.7818608E-02  0.1130116E+00
         25   -1    0    0    0    0  0.00000000000E+00  0.00000000000E+00  0.99999998245E-14  0.12500000000E+03  0.12500000000E+03 0.  0.
        -13    1    3    3    0    0  0.39691242818E+02  0.31583709677E+01  0.47391364311E+02  0.61897678784E+02  0.10566000000E+00 0. -1.
         23    2    1    0    0    0  0.21980174833E+02  0.42547206654E+01  0.17816482472E+02  0.96387803627E+02  0.92043201306E+02 0.  0.
         13    1    3    3    0    0 -0.17711067985E+02  0.10963496977E+01 -0.29574881839E+02  0.34490124843E+02  0.10566000000E+00 0.  1.
         22    1    1    0    0    0 -0.21980174833E+02 -0.42547206654E+01 -0.17816482472E+02  0.28612196373E+02  0.00000000000E+00 0. -1.
</event>
<event>
 5    1  0.1324057E-009  0.9118800E+02  0.7818608E-02  0.1130116E+00
         25   -1    0    0    0    0  0.00000000000E+00  0.00000000000E+00  0.99999998245E-14  0.12500000000E+03  0.12500000000E+03 0.  0.
        -13    1    3    3    0    0 -0.10552778233E+02 -0.51334087040E+02 -0.19246706557E+02  0.55830068046E+02  0.10566000000E+00 0.  1.
         23    2    1    0    0    0  0.12208535715E+01 -0.29148517402E+02  0.97945273601E+01  0.94225671146E+02  0.89058507660E+02 0.  0.
         13    1    3    3    0    0  0.11773631804E+02  0.22185569638E+02  0.29041233917E+02  0.38395603101E+02  0.10566000000E+00 0. -1.
         22    1    1    0    0    0 -0.12208535715E+01  0.29148517402E+02 -0.97945273601E+01  0.30774328854E+02  0.00000000000E+00 0.  1.
</event>
<event>
 5    1  0.1324057E-009  0.9118800E+02  0.7818608E-02  0.1130116E+00
         25   -1    0    0    0    0  0.00000000000E+00  0.00000000000E+00  0.99999998245E-14  0.12500000000E+03  0.12500000000E+03 0.  0.
        -13    1    3    3    0    0 -0.26227833774E+02  0.41742974890E+02 -0.35844133531E+02  0.60952344416E+02  0.10566000000E+00 0.  1.
         23    2    1    0    0    0 -0.43608329120E+01  0.17913712940E+02 -0.22428038813E+02  0.95966658822E+02  0.91469474173E+02 0.  0.
         13    1    3    3    0    0  0.21867000862E+02 -0.23829261950E+02  0.13416094718E+02  0.35014314406E+02  0.10566000000E+00 0. -1.
         22    1    1    0    0    0  0.43608329120E+01 -0.17913712940E+02  0.22428038813E+02  0.29033341178E+02  0.00000000000E+00 0.  1.
</event>
<event>
 5    1  0.1324057E-009  0.9118800E+02  0.7818608E-02  0.1130116E+00
         25   -1    0    0    0    0  0.00000000000E+00  0.00000000000E+00  0.99999998245E-14  0.12500000000E+03  0.12500000000E+03 0.  0.
        -13    1    3    3    0    0 -0.48306856501E+02  0.43960531758E+01  0.12960569408E+02  0.50208218371E+02  0.10566000000E+00 0.  1.
         23    2    1    0    0    0 -0.22315464932E+02 -0.12096891991E+02 -0.18011405889E+02  0.93875644375E+02  0.88565857381E+02 0.  0.
         13    1    3    3    0    0  0.25991391569E+02 -0.16492945167E+02 -0.30971975297E+02  0.43667426004E+02  0.10566000000E+00 0. -1.
         22    1    1    0    0    0  0.22315464932E+02  0.12096891991E+02  0.18011405889E+02  0.31124355625E+02  0.00000000000E+00 0. -1.
</event>
<event>
 5    1  0.1324057E-009  0.9118800E+02  0.7818608E-02  0.1130116E+00
         25   -1    0    0    0    0  0.00000000000E+00  0.00000000000E+00  0.99999998245E-14  0.12500000000E+03  0.12500000000E+03 0.  0.
        -13    1    3    3    0    0 -0.47966323031E+02 -0.11090607705E+02  0.17386083793E+02  0.52211653853E+02  0.10566000000E+00 0.  1.
         23    2    1    0    0    0 -0.59913696348E+01 -0.18213978896E+02  0.22889103023E+02  0.95141055369E+02  0.90334178704E+02 0.  0.
         13    1    3    3    0    0  0.41974953397E+02 -0.71233711907E+01  0.55030192301E+01  0.42929401515E+02  0.10566000000E+00 0. -1.
         22    1    1    0    0    0  0.59913696348E+01  0.18213978896E+02 -0.22889103023E+02  0.29858944631E+02  0.00000000000E+00 0.  1.
</event>
<event>
 5    1  0.1324057E-009  0.9118800E+02  0.7818608E-02  0.1130116E+00
         25   -1    0    0    0    0  0.00000000000E+00  0.00000000000E+00  0.99999998245E-14  0.12500000000E+03  0.12500000000E+03 0.  0.
        -13    1    3    3    0    0 -0.32684037419E+02 -0.13655127362E+02  0.26177607828E+02  0.44045284889E+02  0.10566000000E+00 0.  1.
         23    2    1    0    0    0  0.48928693586E+01 -0.27260253748E+02 -0.74992448386E+01  0.96306790383E+02  0.91933114794E+02 0.  0.
         13    1    3    3    0    0  0.37576906778E+02 -0.13605126386E+02 -0.33676852666E+02  0.52261505494E+02  0.10566000000E+00 0. -1.
         22    1    1    0    0    0 -0.48928693586E+01  0.27260253748E+02  0.74992448386E+01  0.28693209617E+02  0.00000000000E+00 0.  1.
</event>
<event>
 5    1  0.1324057E-009  0.9118800E+02  0.7818608E-02  0.1130116E+00
         25   -1    0    0    0    0  0.00000000000E+00  0.00000000000E+00  0.99999998245E-14  0.12500000000E+03  0.12500000000E+03 0.  0.
        -13    1    3    3    0    0 -0.60296987138E+01  0.54561085936E+02 -0.19241118943E+02  0.58167870748E+02  0.10566000000E+00 0.  1.
         23    2    1    0    0    0 -0.34862824185E+01  0.28313733352E+02  0.72696900069E+01  0.95560739578E+02  0.90913062287E+02 0.  0.
         13    1    3    3    0    0  0.25434162954E+01 -0.26247352584E+02  0.26510808950E+02  0.37392868830E+02  0.10566000000E+00 0. -1.
         22    1    1    0    0    0  0.34862824185E+01 -0.28313733352E+02 -0.72696900069E+01  0.29439260422E+02  0.00000000000E+00 0.  1.
</event>
<event>
 5    1  0.1324057E-009  0.9118800E+02  0.7818608E-02  0.1130116E+00
         25   -1    0    0    0    0  0.00000000000E+00  0.00000000000E+00  0.99999998245E-14  0.12500000000E+03  0.12500000000E+03 0.  0.
        -13    1    3    3    0    0 -0.41435943539E+02 -0.11250424312E+01  0.81697112259E+01  0.42248769012E+02  0.10566000000E+00 0.  1.
         23    2    1    0    0    0  0.17662092961E+01  0.26986545807E+02 -0.88744110453E+01  0.96536895439E+02  0.92245454412E+02 0.  0.
         13    1    3    3    0    0  0.43202152836E+02  0.28111588238E+02 -0.17044122271E+02  0.54288126427E+02  0.10566000000E+00 0. -1.
         22    1    1    0    0    0 -0.17662092961E+01 -0.26986545807E+02  0.88744110453E+01  0.28463104561E+02  0.00000000000E+00 0. -1.
</event>
<event>
 5    1  0.1324057E-009  0.9118800E+02  0.7818608E-02  0.1130116E+00
         25   -1    0    0    0    0  0.00000000000E+00  0.00000000000E+00  0.99999998245E-14  0.12500000000E+03  0.12500000000E+03 0.  0.
        -13    1    3    3    0    0 -0.30526050547E+01 -0.27461394183E+02 -0.16337371521E+02  0.32099337070E+02  0.10566000000E+00 0.  1.
         23    2    1    0    0    0  0.59913935011E+01  0.30369543997E+02  0.33709026119E+01  0.93862097323E+02  0.88546735292E+02 0.  0.
         13    1    3    3    0    0  0.90439985558E+01  0.57830938180E+02  0.19708274133E+02  0.61762760253E+02  0.10566000000E+00 0. -1.
         22    1    1    0    0    0 -0.59913935011E+01 -0.30369543997E+02 -0.33709026119E+01  0.31137902677E+02  0.00000000000E+00 0. -1.
</event>
<event>
 5    1  0.1324057E-009  0.9118800E+02  0.7818608E-02  0.1130116E+00
         25   -1    0    0    0    0  0.00000000000E+00  0.00000000000E+00  0.99999998245E-14  0.12500000000E+03  0.12500000000E+03 0.  0.
        -13    1    3    3    0    0 -0.21512802759E+02 -0.14493031296E+02 -0.37513092670E+02  0.45608024781E+02  0.10566000000E+00 0.  1.
         23    2    1    0    0    0  0.44030443308E+01 -0.30450216032E+02  0.40606888031E+00  0.94230415218E+02  0.89065166055E+02 0.  0.
         13    1    3    3    0    0  0.25915847089E+02 -0.15957184736E+02  0.37919161551E+02  0.48622390437E+02  0.10566000000E+00 0. -1.
         22    1    1    0    0    0 -0.44030443308E+01  0.30450216032E+02 -0.40606888031E+00  0.30769584782E+02  0.00000000000E+00 0. -1.
</event>
<event>
 5    1  0.1324057E-009  0.9118800E+02  0.7818608E-02  0.1130116E+00
         25   -1    0    0    0    0  0.00000000000E+00  0.00000000000E+00  0.99999998245E-14  0.12500000000E+03  0.12500000000E+03 0.  0.
        -13    1    3    3    0    0  0.32311575192E+01  0.34439752524E+02 -0.72204173147E+01  0.35336702210E+02  0.10566000000E+00 0.  1.
         23    2    1    0    0    0 -0.85421895750E+00 -0.18362900879E+02 -0.27394285918E+02  0.92009505616E+02  0.85891655031E+02 0.  0.
         13    1    3    3    0    0 -0.40853764767E+01 -0.52802653404E+02 -0.20173868603E+02  0.56672803406E+02  0.10566000000E+00 0. -1.
         22    1    1    0    0    0  0.85421895750E+00  0.18362900879E+02  0.27394285918E+02  0.32990494384E+02  0.00000000000E+00 0. -1.
</event>
<event>
 5    1  0.1324057E-009  0.9118800E+02  0.7818608E-02  0.1130116E+00
         25   -1    0    0    0    0  0.00000000000E+00  0.00000000000E+00  0.99999998245E-14  0.12500000000E+03  0.12500000000E+03 0.  0.
        -13    1    3    3    0    0 -0.21094981221E+02 -0.44508241138E+02 -0.12583661166E+02  0.50836418582E+02  0.10566000000E+00 0.  1.
         23    2    1    0    0    0 -0.27494061512E+02 -0.68117523682E+01  0.96612296685E+01  0.95072374844E+02  0.90239091923E+02 0.  0.
         13    1    3    3    0    0 -0.63990802917E+01  0.37696488770E+02  0.22244890834E+02  0.44235956262E+02  0.10566000000E+00 0. -1.
         22    1    1    0    0    0  0.27494061512E+02  0.68117523682E+01 -0.96612296685E+01  0.29927625156E+02  0.00000000000E+00 0.  1.
</event>
<event>
 5    1  0.1324057E-009  0.9118800E+02  0.7818608E-02  0.1130116E+00
         25   -1    0    0    0    0  0.00000000000E+00  0.00000000000E+00  0.99999998245E-14  0.12500000000E+03  0.12500000000E+03 0.  0.
        -13    1    3    3    0    0  0.51933600606E+00 -0.87235047358E+01 -0.37201981036E+02  0.38214758953E+02  0.10566000000E+00 0.  1.
         23    2    1    0    0    0  0.29802421238E+02  0.17177545262E+01  0.89267369819E+01  0.93841989386E+02  0.88518344690E+02 0.  0.
         13    1    3    3    0    0  0.29283085232E+02  0.10441259262E+02  0.46128718018E+02  0.55627230434E+02  0.10566000000E+00 0. -1.
         22    1    1    0    0    0 -0.29802421238E+02 -0.17177545262E+01 -0.89267369819E+01  0.31158010614E+02  0.00000000000E+00 0. -1.
</event>
<event>
 5    1  0.1324057E-009  0.9118800E+02  0.7818608E-02  0.1130116E+00
         25   -1    0    0    0    0  0.00000000000E+00  0.00000000000E+00  0.99999998245E-14  0.12500000000E+03  0.12500000000E+03 0.  0.
        -13    1    3    3    0    0  0.69327646824E+01 -0.25650226179E+02  0.46073955591E+02  0.53186632503E+02  0.10566000000E+00 0.  1.
         23    2    1    0    0    0 -0.19940998463E+02 -0.17717117112E+02  0.18215324677E+02  0.92699261439E+02  0.86889673494E+02 0.  0.
         13    1    3    3    0    0 -0.26873763146E+02  0.79331090667E+01 -0.27858630914E+02  0.39512628937E+02  0.10566000000E+00 0. -1.
         22    1    1    0    0    0  0.19940998463E+02  0.17717117112E+02 -0.18215324677E+02  0.32300738561E+02  0.00000000000E+00 0.  1.
</event>
<event>
 5    1  0.1324057E-009  0.9118800E+02  0.7818608E-02  0.1130116E+00
         25   -1    0    0    0    0  0.00000000000E+00  0.00000000000E+00  0.99999998245E-14  0.12500000000E+03  0.12500000000E+03 0.  0.
        -13    1    3    3    0    0  0.41642771355E+02  0.20618944286E+02  0.41784854901E+02  0.62491971746E+02  0.10566000000E+00 0.  1.
         23    2    1    0    0    0  0.19687598447E+02  0.99467670679E+01  0.18916813113E+02  0.95941687488E+02  0.91435342575E+02 0.  0.
         13    1    3    3    0    0 -0.21955172908E+02 -0.10672177218E+02 -0.22868041788E+02  0.33449715742E+02  0.10566000000E+00 0. -1.
         22    1    1    0    0    0 -0.19687598447E+02 -0.99467670679E+01 -0.18916813113E+02  0.29058312512E+02  0.00000000000E+00 0.  1.
</event>
<event>
 5    1  0.1324057E-009  0.9118800E+02  0.7818608E-02  0.1130116E+00
         25   -1    0    0    0    0  0.00000000000E+00  0.00000000000E+00  0.99999998245E-14  0.12500000000E+03  0.12500000000E+03 0.  0.
        -13    1    3    3    0    0 -0.17364187894E+02  0.34065645214E+02 -0.52658845402E+00  0.38239660884E+02  0.10566000000E+00 0.  1.
         23    2    1    0    0    0 -0.30866793623E+02 -0.15905581302E+02  0.31502373732E+01  0.90133533867E+02  0.83116685850E+02 0.  0.
         13    1    3    3    0    0 -0.13502605729E+02 -0.49971226516E+02  0.36768258272E+01  0.51893872983E+02  0.10566000000E+00 0. -1.
         22    1    1    0    0    0  0.30866793623E+02  0.15905581302E+02 -0.31502373732E+01  0.34866466133E+02  0.00000000000E+00 0. -1.
</event>
<event>
 5    1  0.1324057E-009  0.9118800E+02  0.7818608E-02  0.1130116E+00
         25   -1    0    0    0    0  0.00000000000E+00  0.00000000000E+00  0.99999998245E-14  0.12500000000E+03  0.12500000000E+03 0.  0.
        -13    1    3    3    0    0  0.42822013464E+02  0.16087938818E+02 -0.36161724930E+02  0.58311475084E+02  0.10566000000E+00 0.  1.
         23    2    1    0    0    0  0.78897845584E+01  0.16898464018E+02 -0.22367745224E+02  0.95877451812E+02  0.91347484657E+02 0.  0.
         13    1    3    3    0    0 -0.34932228905E+02  0.81052519975E+00  0.13793979706E+02  0.37565976729E+02  0.10566000000E+00 0. -1.
         22    1    1    0    0    0 -0.78897845584E+01 -0.16898464018E+02  0.22367745224E+02  0.29122548188E+02  0.00000000000E+00 0.  1.
</event>
<event>
 5    1  0.1324057E-009  0.9118800E+02  0.7818608E-02  0.1130116E+00
         25   -1    0    0    0    0  0.00000000000E+00  0.00000000000E+00  0.99999998245E-14  0.12500000000E+03  0.12500000000E+03 0.  0.
        -13    1    3    3    0    0  0.24129045094E+02  0.21949206006E+02  0.16248846101E+02  0.36441934980E+02  0.10566000000E+00 0. -1.
         23    2    1    0    0    0 -0.12781239170E+01 -0.29411283096E+02  0.19720462679E+01  0.95494981095E+02  0.90822603320E+02 0.  0.
         13    1    3    3    0    0 -0.25407169011E+02 -0.51360489102E+02 -0.14276799833E+02  0.59053046115E+02  0.10566000000E+00 0.  1.
         22    1    1    0    0    0  0.12781239170E+01  0.29411283096E+02 -0.19720462679E+01  0.29505018905E+02  0.00000000000E+00 0.  1.
</event>
<event>
 5    1  0.1324057E-009  0.9118800E+02  0.7818608E-02  0.1130116E+00
         25   -1    0    0    0    0  0.00000000000E+00  0.00000000000E+00  0.99999998245E-14  0.12500000000E+03  0.12500000000E+03 0.  0.
        -13    1    3    3    0    0 -0.51232743805E+02 -0.31001950841E+02 -0.27848026545E+01  0.59947320905E+02  0.10566000000E+00 0.  1.
         23    2    1    0    0    0 -0.28534730369E+02 -0.34327712323E+01  0.29220180440E+01  0.96111369969E+02  0.91667019655E+02 0.  0.
         13    1    3    3    0    0  0.22698013436E+02  0.27569179609E+02  0.57068206985E+01  0.36164049065E+02  0.10566000000E+00 0. -1.
         22    1    1    0    0    0  0.28534730369E+02  0.34327712323E+01 -0.29220180440E+01  0.28888630031E+02  0.00000000000E+00 0.  1.
</event>
<event>
 5    1  0.1324057E-009  0.9118800E+02  0.7818608E-02  0.1130116E+00
         25   -1    0    0    0    0  0.00000000000E+00  0.00000000000E+00  0.99999998245E-14  0.12500000000E+03  0.12500000000E+03 0.  0.
        -13    1    3    3    0    0 -0.33631338007E+02  0.38806794992E+02  0.15697544090E+02  0.53697842491E+02  0.10566000000E+00 0. -1.
         23    2    1    0    0    0  0.12502135629E+01  0.30707934852E+02 -0.30456844284E+01  0.94116080390E+02  0.88904556112E+02 0.  0.
         13    1    3    3    0    0  0.34881551570E+02 -0.80988601401E+01 -0.18743228519E+02  0.40418237899E+02  0.10566000000E+00 0.  1.
         22    1    1    0    0    0 -0.12502135629E+01 -0.30707934852E+02  0.30456844284E+01  0.30883919610E+02  0.00000000000E+00 0. -1.
</event>
<event>
 5    1  0.1324057E-009  0.9118800E+02  0.7818608E-02  0.1130116E+00
         25   -1    0    0    0    0  0.00000000000E+00  0.00000000000E+00  0.99999998245E-14  0.12500000000E+03  0.12500000000E+03 0.  0.
        -13    1    3    3    0    0  0.12930578586E+02  0.31143849472E+02 -0.12617341812E+02  0.36004828856E+02  0.10566000000E+00 0. -1.
         23    2    1    0    0    0  0.14858487100E+02  0.32784725816E+02  0.29660947145E+02  0.78358980808E+02  0.62966222707E+02 0.  0.
         13    1    3    3    0    0  0.19279085143E+01  0.16408763442E+01  0.42278288957E+02  0.42354151952E+02  0.10566000000E+00 0.  1.
         22    1    1    0    0    0 -0.14858487100E+02 -0.32784725816E+02 -0.29660947145E+02  0.46641019192E+02  0.00000000000E+00 0.  1.
</event>
<event>
 5    1  0.1324057E-009  0.9118800E+02  0.7818608E-02  0.1130116E+00
         25   -1    0    0    0    0  0.00000000000E+00  0.00000000000E+00  0.99999998245E-14  0.12500000000E+03  0.12500000000E+03 0.  0.
        -13    1    3    3    0    0 -0.13570539898E+02 -0.29136323236E+02  0.12314892288E+02  0.34420235632E+02  0.10566000000E+00 0. -1.
         23    2    1    0    0    0 -0.29651522495E+01  0.18888130871E+02 -0.23091162998E+02  0.95020750105E+02  0.90167552513E+02 0.  0.
         13    1    3    3    0    0  0.10605387648E+02  0.48024454107E+02 -0.35406055286E+02  0.60600514473E+02  0.10566000000E+00 0.  1.
         22    1    1    0    0    0  0.29651522495E+01 -0.18888130871E+02  0.23091162998E+02  0.29979249895E+02  0.00000000000E+00 0.  1.
</event>
<event>
 5    1  0.1324057E-009  0.9118800E+02  0.7818608E-02  0.1130116E+00
         25   -1    0    0    0    0  0.00000000000E+00  0.00000000000E+00  0.99999998245E-14  0.12500000000E+03  0.12500000000E+03 0.  0.
        -13    1    3    3    0    0 -0.10177257908E+02 -0.29522773208E+02  0.50635511199E+02  0.59490645271E+02  0.10566000000E+00 0. -1.
         23    2    1    0    0    0  0.59904213110E+01 -0.21617352127E+02  0.20389132391E+02  0.94686442305E+02  0.89702901716E+02 0.  0.
         13    1    3    3    0    0  0.16167679219E+02  0.79054210811E+01 -0.30246378808E+02  0.35195797034E+02  0.10566000000E+00 0.  1.
         22    1    1    0    0    0 -0.59904213110E+01  0.21617352127E+02 -0.20389132391E+02  0.30313557695E+02  0.00000000000E+00 0. -1.
</event>
<event>
 5    1  0.1324057E-009  0.9118800E+02  0.7818608E-02  0.1130116E+00
         25   -1    0    0    0    0  0.00000000000E+00  0.00000000000E+00  0.99999998245E-14  0.12500000000E+03  0.12500000000E+03 0.  0.
        -13    1    3    3    0    0  0.56073760164E+02 -0.21247972480E+02 -0.23412595719E+01  0.60010295565E+02  0.10566000000E+00 0.  1.
         23    2    1    0    0    0  0.24258209585E+02 -0.38557791930E+01  0.10237262858E+02  0.98389300718E+02  0.94722358393E+02 0.  0.
         13    1    3    3    0    0 -0.31815550579E+02  0.17392193287E+02  0.12578522430E+02  0.38379005153E+02  0.10566000000E+00 0. -1.
         22    1    1    0    0    0 -0.24258209585E+02  0.38557791930E+01 -0.10237262858E+02  0.26610699282E+02  0.00000000000E+00 0.  1.
</event>
<event>
 5    1  0.1324057E-009  0.9118800E+02  0.7818608E-02  0.1130116E+00
         25   -1    0    0    0    0  0.00000000000E+00  0.00000000000E+00  0.99999998245E-14  0.12500000000E+03  0.12500000000E+03 0.  0.
        -13    1    3    3    0    0 -0.15026732057E+02 -0.38294942800E+02 -0.15038595371E+01  0.41165253284E+02  0.10566000000E+00 0. -1.
         23    2    1    0    0    0  0.23230506910E+02 -0.11638391910E+02 -0.20887853233E+02  0.91662168183E+02  0.85384671024E+02 0.  0.
         13    1    3    3    0    0  0.38257238967E+02  0.26656550890E+02 -0.19383993696E+02  0.50496914900E+02  0.10566000000E+00 0.  1.
         22    1    1    0    0    0 -0.23230506910E+02  0.11638391910E+02  0.20887853233E+02  0.33337831817E+02  0.00000000000E+00 0.  1.
</event>
<event>
 5    1  0.1324057E-009  0.9118800E+02  0.7818608E-02  0.1130116E+00
         25   -1    0    0    0    0  0.00000000000E+00  0.00000000000E+00  0.99999998245E-14  0.12500000000E+03  0.12500000000E+03 0.  0.
        -13    1    3    3    0    0 -0.12255376916E+01  0.43357480296E+02  0.88583181810E+01  0.44270238369E+02  0.10566000000E+00 0. -1.
         23    2    1    0    0    0 -0.17338618813E+02  0.55498174150E+01 -0.22566268196E+02  0.96005782715E+02  0.91522924335E+02 0.  0.
         13    1    3    3    0    0 -0.16113081121E+02 -0.37807662881E+02 -0.31424586377E+02  0.51735544346E+02  0.10566000000E+00 0.  1.
         22    1    1    0    0    0  0.17338618813E+02 -0.55498174150E+01  0.22566268196E+02  0.28994217285E+02  0.00000000000E+00 0. -1.
</event>
<event>
 5    1  0.1324057E-009  0.9118800E+02  0.7818608E-02  0.1130116E+00
         25   -1    0    0    0    0  0.00000000000E+00  0.00000000000E+00  0.99999998245E-14  0.12500000000E+03  0.12500000000E+03 0.  0.
        -13    1    3    3    0    0 -0.26497584514E+02 -0.55954203182E+02 -0.53052829567E+01  0.62138168867E+02  0.10566000000E+00 0. -1.
         23    2    1    0    0    0 -0.15691950916E+02 -0.24893528532E+02  0.68200304935E+00  0.95565492794E+02  0.90919597439E+02 0.  0.
         13    1    3    3    0    0  0.10805633599E+02  0.31060674650E+02  0.59872860060E+01  0.33427323927E+02  0.10566000000E+00 0.  1.
         22    1    1    0    0    0  0.15691950916E+02  0.24893528532E+02 -0.68200304935E+00  0.29434507206E+02  0.00000000000E+00 0. -1.
</event>
<event>
 5    1  0.1324057E-009  0.9118800E+02  0.7818608E-02  0.1130116E+00
         25   -1    0    0    0    0  0.00000000000E+00  0.00000000000E+00  0.99999998245E-14  0.12500000000E+03  0.12500000000E+03 0.  0.
        -13    1    3    3    0    0  0.21440397120E+02 -0.45497959229E+00  0.48339927129E+02  0.52883431753E+02  0.10566000000E+00 0. -1.
         23    2    1    0    0    0 -0.12907352042E+02 -0.91864452882E+01  0.25281405149E+02  0.95164786576E+02  0.90367010816E+02 0.  0.
         13    1    3    3    0    0 -0.34347749162E+02 -0.87314656959E+01 -0.23058521980E+02  0.42281354822E+02  0.10566000000E+00 0.  1.
         22    1    1    0    0    0  0.12907352042E+02  0.91864452882E+01 -0.25281405149E+02  0.29835213424E+02  0.00000000000E+00 0. -1.
</event>
<event>
 5    1  0.1324057E-009  0.9118800E+02  0.7818608E-02  0.1130116E+00
         25   -1    0    0    0    0  0.00000000000E+00  0.00000000000E+00  0.99999998245E-14  0.12500000000E+03  0.12500000000E+03 0.  0.
        -13    1    3    3    0    0  0.13438940261E+02 -0.34657285437E+02 -0.28791792669E+01  0.37283151509E+02  0.10566000000E+00 0. -1.
         23    2    1    0    0    0 -0.97251383032E+01  0.16096357966E+02 -0.21813862743E+02  0.96198686445E+02  0.91786009888E+02 0.  0.
         13    1    3    3    0    0 -0.23164078564E+02  0.50753643402E+02 -0.18934683476E+02  0.58915534935E+02  0.10566000000E+00 0.  1.
         22    1    1    0    0    0  0.97251383032E+01 -0.16096357966E+02  0.21813862743E+02  0.28801313555E+02  0.00000000000E+00 0.  1.
</event>
<event>
 5    1  0.1324057E-009  0.9118800E+02  0.7818608E-02  0.1130116E+00
         25   -1    0    0    0    0  0.00000000000E+00  0.00000000000E+00  0.99999998245E-14  0.12500000000E+03  0.12500000000E+03 0.  0.
        -13    1    3    3    0    0 -0.86785267806E+01  0.56159536603E+02  0.68938111479E+00  0.56830421333E+02  0.10566000000E+00 0. -1.
         23    2    1    0    0    0 -0.71003438064E+01  0.28443052306E+02 -0.18277987308E+02  0.90452830410E+02  0.83595499894E+02 0.  0.
         13    1    3    3    0    0  0.15781829742E+01 -0.27716484297E+02 -0.18967368422E+02  0.33622409077E+02  0.10566000000E+00 0.  1.
         22    1    1    0    0    0  0.71003438064E+01 -0.28443052306E+02  0.18277987308E+02  0.34547169590E+02  0.00000000000E+00 0. -1.
</event>
<event>
 5    1  0.1324057E-009  0.9118800E+02  0.7818608E-02  0.1130116E+00
         25   -1    0    0    0    0  0.00000000000E+00  0.00000000000E+00  0.99999998245E-14  0.12500000000E+03  0.12500000000E+03 0.  0.
        -13    1    3    3    0    0  0.52879474962E+02  0.25002900286E+02  0.32243915916E+01  0.58581496739E+02  0.10566000000E+00 0.  1.
         23    2    1    0    0    0  0.36092164954E+02  0.60389305833E+01 -0.98771759385E+01  0.87096548203E+02  0.78416433550E+02 0.  0.
         13    1    3    3    0    0 -0.16787310009E+02 -0.18963969702E+02 -0.13101567530E+02  0.28515051464E+02  0.10566000000E+00 0. -1.
         22    1    1    0    0    0 -0.36092164954E+02 -0.60389305833E+01  0.98771759385E+01  0.37903451797E+02  0.00000000000E+00 0.  1.
</event>
<event>
 5    1  0.1324057E-009  0.9118800E+02  0.7818608E-02  0.1130116E+00
         25   -1    0    0    0    0  0.00000000000E+00  0.00000000000E+00  0.99999998245E-14  0.12500000000E+03  0.12500000000E+03 0.  0.
        -13    1    3    3    0    0 -0.34292924041E+02 -0.26310335999E+02  0.13054470444E+02  0.45151619929E+02  0.10566000000E+00 0.  1.
         23    2    1    0    0    0  0.42646094392E+01  0.31208649359E+01  0.28465986617E+02  0.96047641103E+02  0.91580075757E+02 0.  0.
         13    1    3    3    0    0  0.38557533480E+02  0.29431200935E+02  0.15411516173E+02  0.50896021174E+02  0.10566000000E+00 0. -1.
         22    1    1    0    0    0 -0.42646094392E+01 -0.31208649359E+01 -0.28465986617E+02  0.28952358897E+02  0.00000000000E+00 0. -1.
</event>
<event>
 5    1  0.1324057E-009  0.9118800E+02  0.7818608E-02  0.1130116E+00
         25   -1    0    0    0    0  0.00000000000E+00  0.00000000000E+00  0.99999998245E-14  0.12500000000E+03  0.12500000000E+03 0.  0.
        -13    1    3    3    0    0 -0.45052828052E+02 -0.31579465679E+02  0.27595514555E+02  0.61551145851E+02  0.10566000000E+00 0.  1.
         23    2    1    0    0    0 -0.18587307961E+02 -0.14939173164E+02  0.20369796665E+02  0.93637673424E+02  0.88229350876E+02 0.  0.
         13    1    3    3    0    0  0.26465520090E+02  0.16640292515E+02 -0.72257178893E+01  0.32086527573E+02  0.10566000000E+00 0. -1.
         22    1    1    0    0    0  0.18587307961E+02  0.14939173164E+02 -0.20369796665E+02  0.31362326576E+02  0.00000000000E+00 0.  1.
</event>
<event>
 5    1  0.1324057E-009  0.9118800E+02  0.7818608E-02  0.1130116E+00
         25   -1    0    0    0    0  0.00000000000E+00  0.00000000000E+00  0.99999998245E-14  0.12500000000E+03  0.12500000000E+03 0.  0.
        -13    1    3    3    0    0 -0.28286298594E+02 -0.24156014804E+02  0.22427242020E+02  0.43435240163E+02  0.10566000000E+00 0.  1.
         23    2    1    0    0    0  0.22015248089E+02 -0.83793959209E+01  0.15955973919E+02  0.96548663861E+02  0.92261400191E+02 0.  0.
         13    1    3    3    0    0  0.50301546682E+02  0.15776618883E+02 -0.64712681007E+01  0.53113423698E+02  0.10566000000E+00 0. -1.
         22    1    1    0    0    0 -0.22015248089E+02  0.83793959209E+01 -0.15955973919E+02  0.28451336139E+02  0.00000000000E+00 0.  1.
</event>
<event>
 5    1  0.1324057E-009  0.9118800E+02  0.7818608E-02  0.1130116E+00
         25   -1    0    0    0    0  0.00000000000E+00  0.00000000000E+00  0.99999998245E-14  0.12500000000E+03  0.12500000000E+03 0.  0.
        -13    1    3    3    0    0  0.20275036639E+01  0.13957293649E+02  0.51278286303E+02  0.53182615838E+02  0.10566000000E+00 0. -1.
         23    2    1    0    0    0 -0.29475748488E+01 -0.17294110690E+02  0.25753616129E+02  0.93838754746E+02  0.88513776817E+02 0.  0.
         13    1    3    3    0    0 -0.49750785127E+01 -0.31251404339E+02 -0.25524670174E+02  0.40656138908E+02  0.10566000000E+00 0.  1.
         22    1    1    0    0    0  0.29475748488E+01  0.17294110690E+02 -0.25753616129E+02  0.31161245254E+02  0.00000000000E+00 0. -1.
</event>
<event>
 5    1  0.1324057E-009  0.9118800E+02  0.7818608E-02  0.1130116E+00
         25   -1    0    0    0    0  0.00000000000E+00  0.00000000000E+00  0.99999998245E-14  0.12500000000E+03  0.12500000000E+03 0.  0.
        -13    1    3    3    0    0 -0.11808815392E+02  0.41034055969E+02 -0.43530135597E+01  0.42920877918E+02  0.10566000000E+00 0.  1.
         23    2    1    0    0    0  0.27424753598E+02  0.55059732319E+01 -0.77951103429E+01  0.95962152346E+02  0.91463315523E+02 0.  0.
         13    1    3    3    0    0  0.39233568989E+02 -0.35528082737E+02 -0.34420967832E+01  0.53041274428E+02  0.10566000000E+00 0. -1.
         22    1    1    0    0    0 -0.27424753598E+02 -0.55059732319E+01  0.77951103429E+01  0.29037847654E+02  0.00000000000E+00 0. -1.
</event>
<event>
 5    1  0.1324057E-009  0.9118800E+02  0.7818608E-02  0.1130116E+00
         25   -1    0    0    0    0  0.00000000000E+00  0.00000000000E+00  0.99999998245E-14  0.12500000000E+03  0.12500000000E+03 0.  0.
        -13    1    3    3    0    0 -0.34098077819E+02 -0.23004258973E+02  0.22205043736E+02  0.46743448452E+02  0.10566000000E+00 0. -1.
         23    2    1    0    0    0  0.76819187990E+01  0.46152209887E+01  0.26513884223E+02  0.97012534988E+02  0.92887748099E+02 0.  0.
         13    1    3    3    0    0  0.41779996618E+02  0.27619479961E+02  0.43088404865E+01  0.50269086536E+02  0.10566000000E+00 0.  1.
         22    1    1    0    0    0 -0.76819187990E+01 -0.46152209887E+01 -0.26513884223E+02  0.27987465012E+02  0.00000000000E+00 0. -1.
</event>
<event>
 5    1  0.1324057E-009  0.9118800E+02  0.7818608E-02  0.1130116E+00
         25   -1    0    0    0    0  0.00000000000E+00  0.00000000000E+00  0.99999998245E-14  0.12500000000E+03  0.12500000000E+03 0.  0.
        -13    1    3    3    0    0 -0.16945250452E+02  0.21779193231E+02 -0.37498543286E+02  0.46557777904E+02  0.10566000000E+00 0.  1.
         23    2    1    0    0    0 -0.26655156772E+02 -0.11209709569E+02 -0.19492003923E+01  0.96018033998E+02  0.91539655339E+02 0.  0.
         13    1    3    3    0    0 -0.97099063197E+01 -0.32988902801E+02  0.35549342894E+02  0.49460256095E+02  0.10566000000E+00 0. -1.
         22    1    1    0    0    0  0.26655156772E+02  0.11209709569E+02  0.19492003923E+01  0.28981966002E+02  0.00000000000E+00 0. -1.
</event>
<event>
 5    1  0.1324057E-009  0.9118800E+02  0.7818608E-02  0.1130116E+00
         25   -1    0    0    0    0  0.00000000000E+00  0.00000000000E+00  0.99999998245E-14  0.12500000000E+03  0.12500000000E+03 0.  0.
        -13    1    3    3    0    0 -0.47753638730E+02  0.29663179992E+02 -0.43359784650E+01  0.56383739965E+02  0.10566000000E+00 0.  1.
         23    2    1    0    0    0 -0.33552069545E+01  0.19165881313E+02 -0.11245585080E+02  0.10252664680E+03  0.10003330296E+03 0.  0.
         13    1    3    3    0    0  0.44398431775E+02 -0.10497298679E+02 -0.69096066148E+01  0.46142906836E+02  0.10566000000E+00 0. -1.
         22    1    1    0    0    0  0.33552069545E+01 -0.19165881313E+02  0.11245585080E+02  0.22473353199E+02  0.00000000000E+00 0.  1.
</event>
<event>
 5    1  0.1324057E-009  0.9118800E+02  0.7818608E-02  0.1130116E+00
         25   -1    0    0    0    0  0.00000000000E+00  0.00000000000E+00  0.99999998245E-14  0.12500000000E+03  0.12500000000E+03 0.  0.
        -13    1    3    3    0    0  0.75423499890E+01 -0.45051188635E+02  0.14272432031E+02  0.47856139845E+02  0.10566000000E+00 0. -1.
         23    2    1    0    0    0  0.23061359194E+02  0.68835860437E+00  0.17165171520E+02  0.96243379219E+02  0.91846855170E+02 0.  0.
         13    1    3    3    0    0  0.15519009205E+02  0.45739547240E+02  0.28927394896E+01  0.48387239373E+02  0.10566000000E+00 0.  1.
         22    1    1    0    0    0 -0.23061359194E+02 -0.68835860437E+00 -0.17165171520E+02  0.28756620781E+02  0.00000000000E+00 0.  1.
</event>
<event>
 5    1  0.1324057E-009  0.9118800E+02  0.7818608E-02  0.1130116E+00
         25   -1    0    0    0    0  0.00000000000E+00  0.00000000000E+00  0.99999998245E-14  0.12500000000E+03  0.12500000000E+03 0.  0.
        -13    1    3    3    0    0 -0.40537178785E+02  0.95833703285E+01  0.25360947408E+02  0.48767742086E+02  0.10566000000E+00 0.  1.
         23    2    1    0    0    0  0.19424395252E+01 -0.82662936814E+01  0.28800797318E+02  0.94973501558E+02  0.90102027666E+02 0.  0.
         13    1    3    3    0    0  0.42479618310E+02 -0.17849664010E+02  0.34398499092E+01  0.46205759473E+02  0.10566000000E+00 0. -1.
         22    1    1    0    0    0 -0.19424395252E+01  0.82662936814E+01 -0.28800797318E+02  0.30026498442E+02  0.00000000000E+00 0.  1.
</event>
<event>
 5    1  0.1324057E-009  0.9118800E+02  0.7818608E-02  0.1130116E+00
         25   -1    0    0    0    0  0.00000000000E+00  0.00000000000E+00  0.99999998245E-14  0.12500000000E+03  0.12500000000E+03 0.  0.
        -13    1    3    3    0    0  0.42573215212E-01 -0.59993202982E+02 -0.13287593415E+02  0.61447192933E+02  0.10566000000E+00 0. -1.
         23    2    1    0    0    0 -0.76765291792E+01 -0.33503490056E+02 -0.98007678870E+01  0.89258315690E+02  0.81789846084E+02 0.  0.
         13    1    3    3    0    0 -0.77191023944E+01  0.26489712926E+02  0.34868255278E+01  0.27811122757E+02  0.10566000000E+00 0.  1.
         22    1    1    0    0    0  0.76765291792E+01  0.33503490056E+02  0.98007678870E+01  0.35741684310E+02  0.00000000000E+00 0. -1.
</event>
<event>
 5    1  0.1324057E-009  0.9118800E+02  0.7818608E-02  0.1130116E+00
         25   -1    0    0    0    0  0.00000000000E+00  0.00000000000E+00  0.99999998245E-14  0.12500000000E+03  0.12500000000E+03 0.  0.
        -13    1    3    3    0    0  0.33815328931E+01 -0.26365777705E+02  0.39468169739E+02  0.47585045816E+02  0.10566000000E+00 0. -1.
         23    2    1    0    0    0 -0.19669155163E+02  0.10390081515E+02  0.19794987212E+02  0.95222979037E+02  0.90447469612E+02 0.  0.
         13    1    3    3    0    0 -0.23050688056E+02  0.36755859220E+02 -0.19673182527E+02  0.47637933221E+02  0.10566000000E+00 0.  1.
         22    1    1    0    0    0  0.19669155163E+02 -0.10390081515E+02 -0.19794987212E+02  0.29777020963E+02  0.00000000000E+00 0.  1.
</event>
<event>
 5    1  0.1324057E-009  0.9118800E+02  0.7818608E-02  0.1130116E+00
         25   -1    0    0    0    0  0.00000000000E+00  0.00000000000E+00  0.99999998245E-14  0.12500000000E+03  0.12500000000E+03 0.  0.
        -13    1    3    3    0    0  0.29624109474E+01 -0.42674277818E+02 -0.39550021264E+02  0.58258777982E+02  0.10566000000E+00 0.  1.
         23    2    1    0    0    0 -0.82743337176E+01 -0.26112834558E+02 -0.65792990111E+01  0.96828526794E+02  0.92639795436E+02 0.  0.
         13    1    3    3    0    0 -0.11236744665E+02  0.16561443259E+02  0.32970722253E+02  0.38569748812E+02  0.10566000000E+00 0. -1.
         22    1    1    0    0    0  0.82743337176E+01  0.26112834558E+02  0.65792990111E+01  0.28171473206E+02  0.00000000000E+00 0. -1.
</event>
<event>
 5    1  0.1324057E-009  0.9118800E+02  0.7818608E-02  0.1130116E+00
         25   -1    0    0    0    0  0.00000000000E+00  0.00000000000E+00  0.99999998245E-14  0.12500000000E+03  0.12500000000E+03 0.  0.
        -13    1    3    3    0    0 -0.51199827264E+02 -0.98409828442E+00 -0.18309642422E+02  0.54384234213E+02  0.10566000000E+00 0. -1.
         23    2    1    0    0    0 -0.99969536410E+01 -0.76624210804E+01 -0.25329910559E+02  0.96711201018E+02  0.92481350847E+02 0.  0.
         13    1    3    3    0    0  0.41202873623E+02 -0.66783227960E+01 -0.70202681373E+01  0.42326966805E+02  0.10566000000E+00 0.  1.
         22    1    1    0    0    0  0.99969536410E+01  0.76624210804E+01  0.25329910559E+02  0.28288798982E+02  0.00000000000E+00 0. -1.
</event>
<event>
 5    1  0.1324057E-009  0.9118800E+02  0.7818608E-02  0.1130116E+00
         25   -1    0    0    0    0  0.00000000000E+00  0.00000000000E+00  0.99999998245E-14  0.12500000000E+03  0.12500000000E+03 0.  0.
        -13    1    3    3    0    0 -0.54811973665E+01  0.46296870234E+02  0.69457550864E+01  0.47134895734E+02  0.10566000000E+00 0.  1.
         23    2    1    0    0    0  0.24803192279E+02  0.53304334165E+01  0.88923551844E+01  0.98117183028E+02  0.94362576040E+02 0.  0.
         13    1    3    3    0    0  0.30284389646E+02 -0.40966436818E+02  0.19466000980E+01  0.50982287294E+02  0.10566000000E+00 0. -1.
         22    1    1    0    0    0 -0.24803192279E+02 -0.53304334165E+01 -0.88923551844E+01  0.26882816972E+02  0.00000000000E+00 0.  1.
</event>
<event>
 5    1  0.1324057E-009  0.9118800E+02  0.7818608E-02  0.1130116E+00
         25   -1    0    0    0    0  0.00000000000E+00  0.00000000000E+00  0.99999998245E-14  0.12500000000E+03  0.12500000000E+03 0.  0.
        -13    1    3    3    0    0  0.33853776441E+02 -0.78291680896E+01  0.42926521381E+02  0.55227451998E+02  0.10566000000E+00 0. -1.
         23    2    1    0    0    0 -0.42557911917E+01 -0.30260548585E+01  0.28129022630E+02  0.96390374334E+02  0.92046692409E+02 0.  0.
         13    1    3    3    0    0 -0.38109567633E+02  0.48031132311E+01 -0.14797498751E+02  0.41162922336E+02  0.10566000000E+00 0.  1.
         22    1    1    0    0    0  0.42557911917E+01  0.30260548585E+01 -0.28129022630E+02  0.28609625666E+02  0.00000000000E+00 0. -1.
</event>
<event>
 5    1  0.1324057E-009  0.9118800E+02  0.7818608E-02  0.1130116E+00
         25   -1    0    0    0    0  0.00000000000E+00  0.00000000000E+00  0.99999998245E-14  0.12500000000E+03  0.12500000000E+03 0.  0.
        -13    1    3    3    0    0 -0.15293222499E+02 -0.12865273471E+02  0.32580893461E+02  0.38222031587E+02  0.10566000000E+00 0.  1.
         23    2    1    0    0    0 -0.38364126214E+02  0.73198304725E+01 -0.37574242663E+01  0.85763482119E+02  0.76261855010E+02 0.  0.
         13    1    3    3    0    0 -0.23070903715E+02  0.20185103943E+02 -0.36338317727E+02  0.47541450532E+02  0.10566000000E+00 0. -1.
         22    1    1    0    0    0  0.38364126214E+02 -0.73198304725E+01  0.37574242663E+01  0.39236517881E+02  0.00000000000E+00 0. -1.
</event>
<event>
 5    1  0.1324057E-009  0.9118800E+02  0.7818608E-02  0.1130116E+00
         25   -1    0    0    0    0  0.00000000000E+00  0.00000000000E+00  0.99999998245E-14  0.12500000000E+03  0.12500000000E+03 0.  0.
        -13    1    3    3    0    0 -0.24303271531E+02  0.90015511379E+00 -0.51994026197E+02  0.57400777091E+02  0.10566000000E+00 0. -1.
         23    2    1    0    0    0 -0.91674589407E+01  0.18094731815E+02 -0.23756845622E+02  0.93761412695E+02  0.88404486163E+02 0.  0.
         13    1    3    3    0    0  0.15135812591E+02  0.17194576701E+02  0.28237180575E+02  0.36360635605E+02  0.10566000000E+00 0.  1.
         22    1    1    0    0    0  0.91674589407E+01 -0.18094731815E+02  0.23756845622E+02  0.31238587305E+02  0.00000000000E+00 0. -1.
</event>
<event>
 5    1  0.1324057E-009  0.9118800E+02  0.7818608E-02  0.1130116E+00
         25   -1    0    0    0    0  0.00000000000E+00  0.00000000000E+00  0.99999998245E-14  0.12500000000E+03  0.12500000000E+03 0.  0.
        -13    1    3    3    0    0 -0.21132999959E+02 -0.20487815634E+02  0.45882630867E+02  0.54512211990E+02  0.10566000000E+00 0. -1.
         23    2    1    0    0    0  0.12279588568E+02 -0.81340680160E+01  0.25492147424E+02  0.95558516712E+02  0.90910005929E+02 0.  0.
         13    1    3    3    0    0  0.33412588527E+02  0.12353747618E+02 -0.20390483443E+02  0.41046304723E+02  0.10566000000E+00 0.  1.
         22    1    1    0    0    0 -0.12279588568E+02  0.81340680160E+01 -0.25492147424E+02  0.29441483288E+02  0.00000000000E+00 0. -1.
</event>
<event>
 5    1  0.1324057E-009  0.9118800E+02  0.7818608E-02  0.1130116E+00
         25   -1    0    0    0    0  0.00000000000E+00  0.00000000000E+00  0.99999998245E-14  0.12500000000E+03  0.12500000000E+03 0.  0.
        -13    1    3    3    0    0 -0.30587614753E+02  0.33355790315E+02 -0.72793714153E+01  0.45838971804E+02  0.10566000000E+00 0.  1.
         23    2    1    0    0    0 -0.95869771261E+00 -0.15133298530E+01 -0.28617037336E+02  0.96326944801E+02  0.91960514354E+02 0.  0.
         13    1    3    3    0    0  0.29628917040E+02 -0.34869120168E+02 -0.21337665921E+02  0.50487972996E+02  0.10566000000E+00 0. -1.
         22    1    1    0    0    0  0.95869771261E+00  0.15133298530E+01  0.28617037336E+02  0.28673055199E+02  0.00000000000E+00 0. -1.
</event>
<event>
 5    1  0.1324057E-009  0.9118800E+02  0.7818608E-02  0.1130116E+00
         25   -1    0    0    0    0  0.00000000000E+00  0.00000000000E+00  0.99999998245E-14  0.12500000000E+03  0.12500000000E+03 0.  0.
        -13    1    3    3    0    0 -0.51147696531E+01  0.20795576728E+02  0.24581490688E+02  0.32601805603E+02  0.10566000000E+00 0. -1.
         23    2    1    0    0    0  0.27913412709E+02  0.57888784463E+01 -0.20072534975E+02  0.90134883005E+02  0.83118714808E+02 0.  0.
         13    1    3    3    0    0  0.33028182362E+02 -0.15006698282E+02 -0.44654025663E+02  0.57533077403E+02  0.10566000000E+00 0.  1.
         22    1    1    0    0    0 -0.27913412709E+02 -0.57888784463E+01  0.20072534975E+02  0.34865116995E+02  0.00000000000E+00 0.  1.
</event>
<event>
 5    1  0.1324057E-009  0.9118800E+02  0.7818608E-02  0.1130116E+00
         25   -1    0    0    0    0  0.00000000000E+00  0.00000000000E+00  0.99999998245E-14  0.12500000000E+03  0.12500000000E+03 0.  0.
        -13    1    3    3    0    0  0.27667660938E+02 -0.26031248761E+02  0.70289857167E+00  0.37995139219E+02  0.10566000000E+00 0.  1.
         23    2    1    0    0    0 -0.15740751339E+02  0.58794165957E+01 -0.22719451193E+02  0.96742040861E+02  0.92523025324E+02 0.  0.
         13    1    3    3    0    0 -0.43408412277E+02  0.31910665357E+02 -0.23422349764E+02  0.58746901641E+02  0.10566000000E+00 0. -1.
         22    1    1    0    0    0  0.15740751339E+02 -0.58794165957E+01  0.22719451193E+02  0.28257959139E+02  0.00000000000E+00 0. -1.
</event>
<event>
 5    1  0.1324057E-009  0.9118800E+02  0.7818608E-02  0.1130116E+00
         25   -1    0    0    0    0  0.00000000000E+00  0.00000000000E+00  0.99999998245E-14  0.12500000000E+03  0.12500000000E+03 0.  0.
        -13    1    3    3    0    0  0.33904317114E+02  0.57926646836E+01  0.11211371353E+02  0.36176839204E+02  0.10566000000E+00 0. -1.
         23    2    1    0    0    0 -0.25627452630E+02  0.11236579262E+02  0.72782224624E+01  0.96086342949E+02  0.91632885676E+02 0.  0.
         13    1    3    3    0    0 -0.59531769744E+02  0.54439145785E+01 -0.39331488905E+01  0.59909503746E+02  0.10566000000E+00 0.  1.
         22    1    1    0    0    0  0.25627452630E+02 -0.11236579262E+02 -0.72782224624E+01  0.28913657051E+02  0.00000000000E+00 0.  1.
</event>
<event>
 5    1  0.1324057E-009  0.9118800E+02  0.7818608E-02  0.1130116E+00
         25   -1    0    0    0    0  0.00000000000E+00  0.00000000000E+00  0.99999998245E-14  0.12500000000E+03  0.12500000000E+03 0.  0.
        -13    1    3    3    0    0  0.47672140037E+02  0.71935566490E+01  0.28515546376E+02  0.56013638894E+02  0.10566000000E+00 0. -1.
         23    2    1    0    0    0  0.29880281318E+02 -0.14536761898E+02  0.79215220168E+01  0.90840094128E+02  0.84172581831E+02 0.  0.
         13    1    3    3    0    0 -0.17791858719E+02 -0.21730318547E+02 -0.20594024359E+02  0.34826455234E+02  0.10566000000E+00 0.  1.
         22    1    1    0    0    0 -0.29880281318E+02  0.14536761898E+02 -0.79215220168E+01  0.34159905872E+02  0.00000000000E+00 0. -1.
</event>
<event>
 5    1  0.1324057E-009  0.9118800E+02  0.7818608E-02  0.1130116E+00
         25   -1    0    0    0    0  0.00000000000E+00  0.00000000000E+00  0.99999998245E-14  0.12500000000E+03  0.12500000000E+03 0.  0.
        -13    1    3    3    0    0  0.40695923335E+02 -0.12853339614E+01 -0.23042858873E+00  0.40717005303E+02  0.10566000000E+00 0. -1.
         23    2    1    0    0    0 -0.33394613735E+01 -0.27270448696E+02  0.14509343574E+02  0.93929911084E+02  0.88642415191E+02 0.  0.
         13    1    3    3    0    0 -0.44035384708E+02 -0.25985114734E+02  0.14739772163E+02  0.53212905781E+02  0.10566000000E+00 0.  1.
         22    1    1    0    0    0  0.33394613735E+01  0.27270448696E+02 -0.14509343574E+02  0.31070088916E+02  0.00000000000E+00 0.  1.
</event>
<event>
 5    1  0.1324057E-009  0.9118800E+02  0.7818608E-02  0.1130116E+00
         25   -1    0    0    0    0  0.00000000000E+00  0.00000000000E+00  0.99999998245E-14  0.12500000000E+03  0.12500000000E+03 0.  0.
        -13    1    3    3    0    0  0.29903160676E+02  0.28064221593E+02  0.96919382114E+01  0.42139582134E+02  0.10566000000E+00 0. -1.
         23    2    1    0    0    0 -0.45628768693E+01 -0.91268280391E+01  0.27331283100E+02  0.95826075491E+02  0.91277154166E+02 0.  0.
         13    1    3    3    0    0 -0.34466037545E+02 -0.37191049632E+02  0.17639344889E+02  0.53686493357E+02  0.10566000000E+00 0.  1.
         22    1    1    0    0    0  0.45628768693E+01  0.91268280391E+01 -0.27331283100E+02  0.29173924509E+02  0.00000000000E+00 0.  1.
</event>
<event>
 5    1  0.1324057E-009  0.9118800E+02  0.7818608E-02  0.1130116E+00
         25   -1    0    0    0    0  0.00000000000E+00  0.00000000000E+00  0.99999998245E-14  0.12500000000E+03  0.12500000000E+03 0.  0.
        -13    1    3    3    0    0 -0.43592799287E+02  0.53284395311E+01 -0.61519701684E+01  0.44346164643E+02  0.10566000000E+00 0.  1.
         23    2    1    0    0    0 -0.33632670912E+01 -0.19647160488E+02  0.18564775506E+02  0.97760811864E+02  0.93889312309E+02 0.  0.
         13    1    3    3    0    0  0.40229532196E+02 -0.24975600019E+02  0.24716745674E+02  0.53414647221E+02  0.10566000000E+00 0. -1.
         22    1    1    0    0    0  0.33632670912E+01  0.19647160488E+02 -0.18564775506E+02  0.27239188136E+02  0.00000000000E+00 0. -1.
</event>
<event>
 5    1  0.1324057E-009  0.9118800E+02  0.7818608E-02  0.1130116E+00
         25   -1    0    0    0    0  0.00000000000E+00  0.00000000000E+00  0.99999998245E-14  0.12500000000E+03  0.12500000000E+03 0.  0.
        -13    1    3    3    0    0 -0.27912430815E+02 -0.35920279826E+02 -0.35586793265E+02  0.57756396318E+02  0.10566000000E+00 0. -1.
         23    2    1    0    0    0 -0.11317732926E+02 -0.25409924712E+01 -0.26422794150E+02  0.96143254306E+02  0.91710487822E+02 0.  0.
         13    1    3    3    0    0  0.16594697889E+02  0.33379287355E+02  0.91639991142E+01  0.38386857988E+02  0.10566000000E+00 0.  1.
         22    1    1    0    0    0  0.11317732926E+02  0.25409924712E+01  0.26422794150E+02  0.28856745694E+02  0.00000000000E+00 0. -1.
</event>
<event>
 5    1  0.1324057E-009  0.9118800E+02  0.7818608E-02  0.1130116E+00
         25   -1    0    0    0    0  0.00000000000E+00  0.00000000000E+00  0.99999998245E-14  0.12500000000E+03  0.12500000000E+03 0.  0.
        -13    1    3    3    0    0  0.50738330561E+02 -0.20229151013E+02 -0.50409938182E+00  0.54624738160E+02  0.10566000000E+00 0. -1.
         23    2    1    0    0    0  0.23498331566E+02  0.89324053242E+01  0.12930386644E+02  0.96730681826E+02  0.92507677825E+02 0.  0.
         13    1    3    3    0    0 -0.27239998995E+02  0.29161556337E+02  0.13434486026E+02  0.42105943667E+02  0.10566000000E+00 0.  1.
         22    1    1    0    0    0 -0.23498331566E+02 -0.89324053242E+01 -0.12930386644E+02  0.28269318174E+02  0.00000000000E+00 0. -1.
</event>
<event>
 5    1  0.1324057E-009  0.9118800E+02  0.7818608E-02  0.1130116E+00
         25   -1    0    0    0    0  0.00000000000E+00  0.00000000000E+00  0.99999998245E-14  0.12500000000E+03  0.12500000000E+03 0.  0.
        -13    1    3    3    0    0  0.34371766136E+02 -0.23431987720E+02  0.10720928831E+02  0.42958419837E+02  0.10566000000E+00 0.  1.
         23    2    1    0    0    0  0.56552152751E+01 -0.79555996708E+01 -0.29025204370E+02  0.94377532518E+02  0.89271401521E+02 0.  0.
         13    1    3    3    0    0 -0.28716550861E+02  0.15476388050E+02 -0.39746133201E+02  0.51419112681E+02  0.10566000000E+00 0. -1.
         22    1    1    0    0    0 -0.56552152751E+01  0.79555996708E+01  0.29025204370E+02  0.30622467482E+02  0.00000000000E+00 0.  1.
</event>
<event>
 5    1  0.1324057E-009  0.9118800E+02  0.7818608E-02  0.1130116E+00
         25   -1    0    0    0    0  0.00000000000E+00  0.00000000000E+00  0.99999998245E-14  0.12500000000E+03  0.12500000000E+03 0.  0.
        -13    1    3    3    0    0 -0.11635365691E+02 -0.20195523360E+02 -0.57807726931E+02  0.62329650693E+02  0.10566000000E+00 0.  1.
         23    2    1    0    0    0 -0.71244337886E+01 -0.10754483378E+02 -0.23570441505E+02  0.98130273871E+02  0.94379915595E+02 0.  0.
         13    1    3    3    0    0  0.45109319029E+01  0.94410399813E+01  0.34237285426E+02  0.35800623178E+02  0.10566000000E+00 0. -1.
         22    1    1    0    0    0  0.71244337886E+01  0.10754483378E+02  0.23570441505E+02  0.26869726129E+02  0.00000000000E+00 0.  1.
</event>
<event>
 5    1  0.1324057E-009  0.9118800E+02  0.7818608E-02  0.1130116E+00
         25   -1    0    0    0    0  0.00000000000E+00  0.00000000000E+00  0.99999998245E-14  0.12500000000E+03  0.12500000000E+03 0.  0.
        -13    1    3    3    0    0  0.13300509775E+02 -0.18153815174E+02  0.35113663875E+02  0.41706655589E+02  0.10566000000E+00 0.  1.
         23    2    1    0    0    0  0.83387414359E+01  0.27511921189E+02  0.75478027397E+01  0.95277790418E+02  0.90523188214E+02 0.  0.
         13    1    3    3    0    0 -0.49617683387E+01  0.45665736364E+02 -0.27565861135E+02  0.53571134829E+02  0.10566000000E+00 0. -1.
         22    1    1    0    0    0 -0.83387414359E+01 -0.27511921189E+02 -0.75478027397E+01  0.29722209582E+02  0.00000000000E+00 0.  1.
</event>
<event>
 5    1  0.1324057E-009  0.9118800E+02  0.7818608E-02  0.1130116E+00
         25   -1    0    0    0    0  0.00000000000E+00  0.00000000000E+00  0.99999998245E-14  0.12500000000E+03  0.12500000000E+03 0.  0.
        -13    1    3    3    0    0 -0.31732608175E+02 -0.13487262095E+02  0.15484820752E+02  0.37797559421E+02  0.10566000000E+00 0. -1.
         23    2    1    0    0    0  0.86930717899E+01 -0.15304826909E+02 -0.24596624569E+02  0.94754319911E+02  0.89797438593E+02 0.  0.
         13    1    3    3    0    0  0.40425679965E+02 -0.18175648141E+01 -0.40081445321E+02  0.56956760490E+02  0.10566000000E+00 0.  1.
         22    1    1    0    0    0 -0.86930717899E+01  0.15304826909E+02  0.24596624569E+02  0.30245680089E+02  0.00000000000E+00 0.  1.
</event>
<event>
 5    1  0.1324057E-009  0.9118800E+02  0.7818608E-02  0.1130116E+00
         25   -1    0    0    0    0  0.00000000000E+00  0.00000000000E+00  0.99999998245E-14  0.12500000000E+03  0.12500000000E+03 0.  0.
        -13    1    3    3    0    0  0.63129333743E+01 -0.83981213922E+01  0.13381120394E+02  0.17013145440E+02  0.10566000000E+00 0.  1.
         23    2    1    0    0    0  0.10982418946E+02  0.48634898621E+02  0.81939148728E+01  0.74471719495E+02  0.54707676553E+02 0.  0.
         13    1    3    3    0    0  0.46694855712E+01  0.57033020014E+02 -0.51872055214E+01  0.57458574056E+02  0.10566000000E+00 0. -1.
         22    1    1    0    0    0 -0.10982418946E+02 -0.48634898621E+02 -0.81939148728E+01  0.50528280505E+02  0.00000000000E+00 0. -1.
</event>
<event>
 5    1  0.1324057E-009  0.9118800E+02  0.7818608E-02  0.1130116E+00
         25   -1    0    0    0    0  0.00000000000E+00  0.00000000000E+00  0.99999998245E-14  0.12500000000E+03  0.12500000000E+03 0.  0.
        -13    1    3    3    0    0  0.28465082707E+02  0.64088567328E+00 -0.92024214737E+00  0.28487359962E+02  0.10566000000E+00 0. -1.
         23    2    1    0    0    0 -0.30257302855E+02 -0.17577431287E+02  0.86449572215E+00  0.89996888430E+02  0.82910928758E+02 0.  0.
         13    1    3    3    0    0 -0.58722385562E+02 -0.18218316961E+02  0.17847378695E+01  0.61509528468E+02  0.10566000000E+00 0.  1.
         22    1    1    0    0    0  0.30257302855E+02  0.17577431287E+02 -0.86449572215E+00  0.35003111570E+02  0.00000000000E+00 0.  1.
</event>
<event>
 5    1  0.1324057E-009  0.9118800E+02  0.7818608E-02  0.1130116E+00
         25   -1    0    0    0    0  0.00000000000E+00  0.00000000000E+00  0.99999998245E-14  0.12500000000E+03  0.12500000000E+03 0.  0.
        -13    1    3    3    0    0  0.13598295896E+02 -0.35284480395E+02 -0.17813615771E+02  0.41800051183E+02  0.10566000000E+00 0.  1.
         23    2    1    0    0    0  0.24334250203E+02  0.15015401970E+02  0.51532956983E+00  0.96401335803E+02  0.92061576952E+02 0.  0.
         13    1    3    3    0    0  0.10735954307E+02  0.50299882365E+02  0.18328945341E+02  0.54601284620E+02  0.10566000000E+00 0. -1.
         22    1    1    0    0    0 -0.24334250203E+02 -0.15015401970E+02 -0.51532956983E+00  0.28598664197E+02  0.00000000000E+00 0.  1.
</event>
<event>
 5    1  0.1324057E-009  0.9118800E+02  0.7818608E-02  0.1130116E+00
         25   -1    0    0    0    0  0.00000000000E+00  0.00000000000E+00  0.99999998245E-14  0.12500000000E+03  0.12500000000E+03 0.  0.
        -13    1    3    3    0    0 -0.18461103047E+02  0.11429637097E+02 -0.37628432143E+02  0.43443745228E+02  0.10566000000E+00 0. -1.
         23    2    1    0    0    0  0.17757476025E+02 -0.18298408479E+02 -0.13547357550E+02  0.96126299090E+02  0.91687375208E+02 0.  0.
         13    1    3    3    0    0  0.36218579072E+02 -0.29728045577E+02  0.24081074593E+02  0.52682553862E+02  0.10566000000E+00 0.  1.
         22    1    1    0    0    0 -0.17757476025E+02  0.18298408479E+02  0.13547357550E+02  0.28873700910E+02  0.00000000000E+00 0.  1.
</event>
<event>
 5    1  0.1324057E-009  0.9118800E+02  0.7818608E-02  0.1130116E+00
         25   -1    0    0    0    0  0.00000000000E+00  0.00000000000E+00  0.99999998245E-14  0.12500000000E+03  0.12500000000E+03 0.  0.
        -13    1    3    3    0    0  0.26224658345E+02  0.32406362595E+00  0.26889331242E+02  0.37561749443E+02  0.10566000000E+00 0.  1.
         23    2    1    0    0    0 -0.61554628857E+01 -0.13039026074E+02 -0.22598928667E+02  0.98192957993E+02  0.94462900115E+02 0.  0.
         13    1    3    3    0    0 -0.32380121231E+02 -0.13363089700E+02 -0.49488259909E+02  0.60631208549E+02  0.10566000000E+00 0. -1.
         22    1    1    0    0    0  0.61554628857E+01  0.13039026074E+02  0.22598928667E+02  0.26807042007E+02  0.00000000000E+00 0. -1.
</event>
<event>
 5    1  0.1324057E-009  0.9118800E+02  0.7818608E-02  0.1130116E+00
         25   -1    0    0    0    0  0.00000000000E+00  0.00000000000E+00  0.99999998245E-14  0.12500000000E+03  0.12500000000E+03 0.  0.
        -13    1    3    3    0    0  0.47619912524E+02  0.21187736927E+02  0.32360947497E+02  0.61349966193E+02  0.10566000000E+00 0. -1.
         23    2    1    0    0    0  0.24020798849E+02  0.16044029271E+01  0.15819092991E+02  0.96193462736E+02  0.91778895635E+02 0.  0.
         13    1    3    3    0    0 -0.23599113676E+02 -0.19583334000E+02 -0.16541854506E+02  0.34843496543E+02  0.10566000000E+00 0.  1.
         22    1    1    0    0    0 -0.24020798849E+02 -0.16044029271E+01 -0.15819092991E+02  0.28806537264E+02  0.00000000000E+00 0. -1.
</event>
<event>
 5    1  0.1324057E-009  0.9118800E+02  0.7818608E-02  0.1130116E+00
         25   -1    0    0    0    0  0.00000000000E+00  0.00000000000E+00  0.99999998245E-14  0.12500000000E+03  0.12500000000E+03 0.  0.
        -13    1    3    3    0    0 -0.33793645031E+02 -0.37986376268E+01  0.38462290212E+01  0.34223452982E+02  0.10566000000E+00 0.  1.
         23    2    1    0    0    0  0.24192257170E+02  0.16458451576E+02  0.19468726129E+01  0.95675330381E+02  0.91070481471E+02 0.  0.
         13    1    3    3    0    0  0.57985902201E+02  0.20257089203E+02 -0.18993564083E+01  0.61451877399E+02  0.10566000000E+00 0. -1.
         22    1    1    0    0    0 -0.24192257170E+02 -0.16458451576E+02 -0.19468726129E+01  0.29324669619E+02  0.00000000000E+00 0. -1.
</event>
<event>
 5    1  0.1324057E-009  0.9118800E+02  0.7818608E-02  0.1130116E+00
         25   -1    0    0    0    0  0.00000000000E+00  0.00000000000E+00  0.99999998245E-14  0.12500000000E+03  0.12500000000E+03 0.  0.
        -13    1    3    3    0    0 -0.28360923723E+02 -0.75412302096E+01  0.91336247611E+01  0.30735100663E+02  0.10566000000E+00 0.  1.
         23    2    1    0    0    0  0.31127091465E+02 -0.24144705244E+01  0.14287019908E+02  0.90665696034E+02  0.83913193292E+02 0.  0.
         13    1    3    3    0    0  0.59488015188E+02  0.51267596852E+01  0.51533951466E+01  0.59930595370E+02  0.10566000000E+00 0. -1.
         22    1    1    0    0    0 -0.31127091465E+02  0.24144705244E+01 -0.14287019908E+02  0.34334303966E+02  0.00000000000E+00 0. -1.
</event>
<event>
 5    1  0.1324057E-009  0.9118800E+02  0.7818608E-02  0.1130116E+00
         25   -1    0    0    0    0  0.00000000000E+00  0.00000000000E+00  0.99999998245E-14  0.12500000000E+03  0.12500000000E+03 0.  0.
        -13    1    3    3    0    0 -0.46856138788E+01  0.19451625458E+02 -0.41109003048E+02  0.45719601989E+02  0.10566000000E+00 0. -1.
         23    2    1    0    0    0  0.12705545839E+02  0.25439968212E+02  0.56869084266E+01  0.96000624056E+02  0.91515878480E+02 0.  0.
         13    1    3    3    0    0  0.17391159718E+02  0.59883427547E+01  0.46795911475E+02  0.50281022067E+02  0.10566000000E+00 0.  1.
         22    1    1    0    0    0 -0.12705545839E+02 -0.25439968212E+02 -0.56869084266E+01  0.28999375944E+02  0.00000000000E+00 0. -1.
</event>
<event>
 5    1  0.1324057E-009  0.9118800E+02  0.7818608E-02  0.1130116E+00
         25   -1    0    0    0    0  0.00000000000E+00  0.00000000000E+00  0.99999998245E-14  0.12500000000E+03  0.12500000000E+03 0.  0.
        -13    1    3    3    0    0  0.25767019094E+02 -0.44062642473E+02 -0.29629331059E+02  0.59020031834E+02  0.10566000000E+00 0.  1.
         23    2    1    0    0    0  0.27212225167E+02 -0.17506421087E+02 -0.16171456557E+02  0.88826861001E+02  0.81127771141E+02 0.  0.
         13    1    3    3    0    0  0.14452060731E+01  0.26556221385E+02  0.13457874502E+02  0.29806829167E+02  0.10566000000E+00 0. -1.
         22    1    1    0    0    0 -0.27212225167E+02  0.17506421087E+02  0.16171456557E+02  0.36173138999E+02  0.00000000000E+00 0.  1.
</event>
<event>
 5    1  0.1324057E-009  0.9118800E+02  0.7818608E-02  0.1130116E+00
         25   -1    0    0    0    0  0.00000000000E+00  0.00000000000E+00  0.99999998245E-14  0.12500000000E+03  0.12500000000E+03 0.  0.
        -13    1    3    3    0    0  0.25415938591E+02 -0.35546365192E+02 -0.33700438930E+02  0.55183736381E+02  0.10566000000E+00 0.  1.
         23    2    1    0    0    0  0.22346565416E+02 -0.21347479496E+02  0.23053278913E+01  0.94009704690E+02  0.88754865627E+02 0.  0.
         13    1    3    3    0    0 -0.30693731750E+01  0.14198885696E+02  0.36005766821E+02  0.38825968309E+02  0.10566000000E+00 0. -1.
         22    1    1    0    0    0 -0.22346565416E+02  0.21347479496E+02 -0.23053278913E+01  0.30990295310E+02  0.00000000000E+00 0.  1.
</event>
<event>
 5    1  0.1324057E-009  0.9118800E+02  0.7818608E-02  0.1130116E+00
         25   -1    0    0    0    0  0.00000000000E+00  0.00000000000E+00  0.99999998245E-14  0.12500000000E+03  0.12500000000E+03 0.  0.
        -13    1    3    3    0    0  0.30779082233E+01 -0.17562907762E+02  0.28991627594E+02  0.34036082070E+02  0.10566000000E+00 0.  1.
         23    2    1    0    0    0 -0.11617101566E+02  0.12611224016E+02 -0.23238749028E+02  0.96120258375E+02  0.91679139359E+02 0.  0.
         13    1    3    3    0    0 -0.14695009789E+02  0.30174131778E+02 -0.52230376622E+02  0.62084176304E+02  0.10566000000E+00 0. -1.
         22    1    1    0    0    0  0.11617101566E+02 -0.12611224016E+02  0.23238749028E+02  0.28879741625E+02  0.00000000000E+00 0. -1.
</event>
<event>
 5    1  0.1324057E-009  0.9118800E+02  0.7818608E-02  0.1130116E+00
         25   -1    0    0    0    0  0.00000000000E+00  0.00000000000E+00  0.99999998245E-14  0.12500000000E+03  0.12500000000E+03 0.  0.
        -13    1    3    3    0    0 -0.22034488934E+02  0.44129248913E+02 -0.12917999083E+02  0.50988186637E+02  0.10566000000E+00 0.  1.
         23    2    1    0    0    0  0.13831211574E+02  0.17649805640E+02 -0.18515827438E+02  0.95919870729E+02  0.91405512319E+02 0.  0.
         13    1    3    3    0    0  0.35865700508E+02 -0.26479443274E+02 -0.55978283549E+01  0.44931684092E+02  0.10566000000E+00 0. -1.
         22    1    1    0    0    0 -0.13831211574E+02 -0.17649805640E+02  0.18515827438E+02  0.29080129271E+02  0.00000000000E+00 0.  1.
</event>
<event>
 5    1  0.1324057E-009  0.9118800E+02  0.7818608E-02  0.1130116E+00
         25   -1    0    0    0    0  0.00000000000E+00  0.00000000000E+00  0.99999998245E-14  0.12500000000E+03  0.12500000000E+03 0.  0.
        -13    1    3    3    0    0 -0.33611569894E+02 -0.16479790170E+02 -0.15577852669E+02  0.40546291724E+02  0.10566000000E+00 0. -1.
         23    2    1    0    0    0  0.19930298286E+02 -0.16870350570E+02 -0.16525832757E+02  0.94098079891E+02  0.88879243768E+02 0.  0.
         13    1    3    3    0    0  0.53541868180E+02 -0.39056040052E+00 -0.94798008778E+00  0.53551788167E+02  0.10566000000E+00 0.  1.
         22    1    1    0    0    0 -0.19930298286E+02  0.16870350570E+02  0.16525832757E+02  0.30901920109E+02  0.00000000000E+00 0.  1.
</event>
<event>
 5    1  0.1324057E-009  0.9118800E+02  0.7818608E-02  0.1130116E+00
         25   -1    0    0    0    0  0.00000000000E+00  0.00000000000E+00  0.99999998245E-14  0.12500000000E+03  0.12500000000E+03 0.  0.
        -13    1    3    3    0    0 -0.11424378969E+02 -0.84437326515E+01 -0.54695450234E+02  0.56510322033E+02  0.10566000000E+00 0. -1.
         23    2    1    0    0    0  0.14080504002E+01  0.14509379278E+02 -0.23891936408E+02  0.97011979021E+02  0.92886999926E+02 0.  0.
         13    1    3    3    0    0  0.12832429369E+02  0.22953111930E+02  0.30803513826E+02  0.40501656988E+02  0.10566000000E+00 0.  1.
         22    1    1    0    0    0 -0.14080504002E+01 -0.14509379278E+02  0.23891936408E+02  0.27988020979E+02  0.00000000000E+00 0. -1.
</event>
<event>
 5    1  0.1324057E-009  0.9118800E+02  0.7818608E-02  0.1130116E+00
         25   -1    0    0    0    0  0.00000000000E+00  0.00000000000E+00  0.99999998245E-14  0.12500000000E+03  0.12500000000E+03 0.  0.
        -13    1    3    3    0    0 -0.27846580201E+02 -0.20970097085E+02  0.57541361789E+01  0.35331264453E+02  0.10566000000E+00 0.  1.
         23    2    1    0    0    0  0.21572780201E+02  0.22970166881E+00 -0.20559205134E+02  0.95198682509E+02  0.90413885147E+02 0.  0.
         13    1    3    3    0    0  0.49419360401E+02  0.21199798754E+02 -0.26313341313E+02  0.59867418057E+02  0.10566000000E+00 0. -1.
         22    1    1    0    0    0 -0.21572780201E+02 -0.22970166881E+00  0.20559205134E+02  0.29801317491E+02  0.00000000000E+00 0. -1.
</event>
<event>
 5    1  0.1324057E-009  0.9118800E+02  0.7818608E-02  0.1130116E+00
         25   -1    0    0    0    0  0.00000000000E+00  0.00000000000E+00  0.99999998245E-14  0.12500000000E+03  0.12500000000E+03 0.  0.
        -13    1    3    3    0    0  0.41431025580E+02  0.61232309217E+01 -0.92948857628E+01  0.42900231968E+02  0.10566000000E+00 0.  1.
         23    2    1    0    0    0  0.32346709082E+01 -0.28559294140E+02  0.34710834243E+01  0.96049269477E+02  0.91582298341E+02 0.  0.
         13    1    3    3    0    0 -0.38196354672E+02 -0.34682525062E+02  0.12765969187E+02  0.53149037509E+02  0.10566000000E+00 0. -1.
         22    1    1    0    0    0 -0.32346709082E+01  0.28559294140E+02 -0.34710834243E+01  0.28950730523E+02  0.00000000000E+00 0. -1.
</event>
<event>
 5    1  0.1324057E-009  0.9118800E+02  0.7818608E-02  0.1130116E+00
         25   -1    0    0    0    0  0.00000000000E+00  0.00000000000E+00  0.99999998245E-14  0.12500000000E+03  0.12500000000E+03 0.  0.
        -13    1    3    3    0    0  0.39941067610E+01 -0.57622232275E+02  0.37403200231E+01  0.57881566142E+02  0.10566000000E+00 0.  1.
         23    2    1    0    0    0  0.13600630496E+02 -0.21145464125E+02  0.12962652681E+02  0.96713286379E+02  0.92484169428E+02 0.  0.
         13    1    3    3    0    0  0.96065237348E+01  0.36476768150E+02  0.92223326578E+01  0.38831720237E+02  0.10566000000E+00 0. -1.
         22    1    1    0    0    0 -0.13600630496E+02  0.21145464125E+02 -0.12962652681E+02  0.28286713621E+02  0.00000000000E+00 0.  1.
</event>
<event>
 5    1  0.1324057E-009  0.9118800E+02  0.7818608E-02  0.1130116E+00
         25   -1    0    0    0    0  0.00000000000E+00  0.00000000000E+00  0.99999998245E-14  0.12500000000E+03  0.12500000000E+03 0.  0.
        -13    1    3    3    0    0 -0.25628054367E+01 -0.22376390929E+02  0.38809283359E+02  0.44871399372E+02  0.10566000000E+00 0. -1.
         23    2    1    0    0    0 -0.10785907452E+01  0.23834566774E+02  0.12598497604E+02  0.98019042397E+02  0.94232481657E+02 0.  0.
         13    1    3    3    0    0  0.14842146915E+01  0.46210957703E+02 -0.26210785756E+02  0.53147643025E+02  0.10566000000E+00 0.  1.
         22    1    1    0    0    0  0.10785907452E+01 -0.23834566774E+02 -0.12598497604E+02  0.26980957603E+02  0.00000000000E+00 0.  1.
</event>
<event>
 5    1  0.1324057E-009  0.9118800E+02  0.7818608E-02  0.1130116E+00
         25   -1    0    0    0    0  0.00000000000E+00  0.00000000000E+00  0.99999998245E-14  0.12500000000E+03  0.12500000000E+03 0.  0.
        -13    1    3    3    0    0  0.18635794461E+02  0.98008650204E+01  0.29367258274E+02  0.36135810672E+02  0.10566000000E+00 0.  1.
         23    2    1    0    0    0 -0.16497011847E+02 -0.25948032226E+02 -0.46264525924E-01  0.94251765633E+02  0.89095125614E+02 0.  0.
         13    1    3    3    0    0 -0.35132806308E+02 -0.35748897247E+02 -0.29413522800E+02  0.58115954961E+02  0.10566000000E+00 0. -1.
         22    1    1    0    0    0  0.16497011847E+02  0.25948032226E+02  0.46264525924E-01  0.30748234367E+02  0.00000000000E+00 0. -1.
</event>
<event>
 5    1  0.1324057E-009  0.9118800E+02  0.7818608E-02  0.1130116E+00
         25   -1    0    0    0    0  0.00000000000E+00  0.00000000000E+00  0.99999998245E-14  0.12500000000E+03  0.12500000000E+03 0.  0.
        -13    1    3    3    0    0  0.32573586717E+02  0.47092038658E+02  0.10914793157E+02  0.58291015862E+02  0.10566000000E+00 0. -1.
         23    2    1    0    0    0  0.10886024404E+02  0.18400163932E+02  0.20360118377E+02  0.95477026228E+02  0.90797888505E+02 0.  0.
         13    1    3    3    0    0 -0.21687562313E+02 -0.28691874725E+02  0.94453252196E+01  0.37186010365E+02  0.10566000000E+00 0.  1.
         22    1    1    0    0    0 -0.10886024404E+02 -0.18400163932E+02 -0.20360118377E+02  0.29522973772E+02  0.00000000000E+00 0. -1.
</event>
<event>
 5    1  0.1324057E-009  0.9118800E+02  0.7818608E-02  0.1130116E+00
         25   -1    0    0    0    0  0.00000000000E+00  0.00000000000E+00  0.99999998245E-14  0.12500000000E+03  0.12500000000E+03 0.  0.
        -13    1    3    3    0    0 -0.18959557381E+02 -0.27870673333E+02  0.51256121282E+02  0.61346885667E+02  0.10566000000E+00 0.  1.
         23    2    1    0    0    0 -0.14583188693E+02 -0.70171199579E+01  0.25803763066E+02  0.94541117005E+02  0.89500163414E+02 0.  0.
         13    1    3    3    0    0  0.43763686883E+01  0.20853553375E+02 -0.25452358216E+02  0.33194231337E+02  0.10566000000E+00 0. -1.
         22    1    1    0    0    0  0.14583188693E+02  0.70171199579E+01 -0.25803763066E+02  0.30458882995E+02  0.00000000000E+00 0.  1.
</event>
<event>
 5    1  0.1324057E-009  0.9118800E+02  0.7818608E-02  0.1130116E+00
         25   -1    0    0    0    0  0.00000000000E+00  0.00000000000E+00  0.99999998245E-14  0.12500000000E+03  0.12500000000E+03 0.  0.
        -13    1    3    3    0    0 -0.10302449850E+02 -0.58653467511E+02  0.10723460681E+01  0.59561151887E+02  0.10566000000E+00 0.  1.
         23    2    1    0    0    0  0.67987753739E+01 -0.28482929779E+02 -0.63724113101E+01  0.95031545564E+02  0.90182517103E+02 0.  0.
         13    1    3    3    0    0  0.17101225224E+02  0.30170537732E+02 -0.74447573782E+01  0.35470393678E+02  0.10566000000E+00 0. -1.
         22    1    1    0    0    0 -0.67987753739E+01  0.28482929779E+02  0.63724113101E+01  0.29968454436E+02  0.00000000000E+00 0.  1.
</event>
<event>
 5    1  0.1324057E-009  0.9118800E+02  0.7818608E-02  0.1130116E+00
         25   -1    0    0    0    0  0.00000000000E+00  0.00000000000E+00  0.99999998245E-14  0.12500000000E+03  0.12500000000E+03 0.  0.
        -13    1    3    3    0    0  0.38019833246E+02  0.28059134408E+02 -0.25160091117E+02  0.53533765913E+02  0.10566000000E+00 0. -1.
         23    2    1    0    0    0  0.17940493284E+02 -0.96811510838E+01 -0.19735628058E+02  0.96626050673E+02  0.92366187906E+02 0.  0.
         13    1    3    3    0    0 -0.20079339962E+02 -0.37740285492E+02  0.54244630590E+01  0.43092284760E+02  0.10566000000E+00 0.  1.
         22    1    1    0    0    0 -0.17940493284E+02  0.96811510838E+01  0.19735628058E+02  0.28373949327E+02  0.00000000000E+00 0. -1.
</event>
<event>
 5    1  0.1324057E-009  0.9118800E+02  0.7818608E-02  0.1130116E+00
         25   -1    0    0    0    0  0.00000000000E+00  0.00000000000E+00  0.99999998245E-14  0.12500000000E+03  0.12500000000E+03 0.  0.
        -13    1    3    3    0    0 -0.42266505193E+02  0.35620439144E+02  0.86854306632E+01  0.55952846361E+02  0.10566000000E+00 0.  1.
         23    2    1    0    0    0 -0.15771335701E+02  0.17252865245E+02 -0.16098600996E+02  0.96617587436E+02  0.92354733820E+02 0.  0.
         13    1    3    3    0    0  0.26495169492E+02 -0.18367573899E+02 -0.24784031660E+02  0.40664741075E+02  0.10566000000E+00 0. -1.
         22    1    1    0    0    0  0.15771335701E+02 -0.17252865245E+02  0.16098600996E+02  0.28382412564E+02  0.00000000000E+00 0. -1.
</event>
<event>
 5    1  0.1324057E-009  0.9118800E+02  0.7818608E-02  0.1130116E+00
         25   -1    0    0    0    0  0.00000000000E+00  0.00000000000E+00  0.99999998245E-14  0.12500000000E+03  0.12500000000E+03 0.  0.
        -13    1    3    3    0    0  0.34197545411E+02  0.84014576410E-01 -0.26737290082E+02  0.43409365528E+02  0.10566000000E+00 0.  1.
         23    2    1    0    0    0  0.10290435769E+02  0.16132028601E+02  0.19372224770E+02  0.97770998776E+02  0.93902873726E+02 0.  0.
         13    1    3    3    0    0 -0.23907109641E+02  0.16048014025E+02  0.46109514852E+02  0.54361633249E+02  0.10566000000E+00 0. -1.
         22    1    1    0    0    0 -0.10290435769E+02 -0.16132028601E+02 -0.19372224770E+02  0.27229001224E+02  0.00000000000E+00 0. -1.
</event>
<event>
 5    1  0.1324057E-009  0.9118800E+02  0.7818608E-02  0.1130116E+00
         25   -1    0    0    0    0  0.00000000000E+00  0.00000000000E+00  0.99999998245E-14  0.12500000000E+03  0.12500000000E+03 0.  0.
        -13    1    3    3    0    0  0.88522799900E+01  0.75958884678E+01 -0.39065311827E+02  0.40769720808E+02  0.10566000000E+00 0. -1.
         23    2    1    0    0    0 -0.99867636456E+01 -0.28080176240E+02 -0.27175587215E+01  0.95073141308E+02  0.90240153629E+02 0.  0.
         13    1    3    3    0    0 -0.18839043636E+02 -0.35676064708E+02  0.36347753105E+02  0.54303420500E+02  0.10566000000E+00 0.  1.
         22    1    1    0    0    0  0.99867636456E+01  0.28080176240E+02  0.27175587215E+01  0.29926858692E+02  0.00000000000E+00 0.  1.
</event>
<event>
 5    1  0.1324057E-009  0.9118800E+02  0.7818608E-02  0.1130116E+00
         25   -1    0    0    0    0  0.00000000000E+00  0.00000000000E+00  0.99999998245E-14  0.12500000000E+03  0.12500000000E+03 0.  0.
        -13    1    3    3    0    0  0.38726031849E+02  0.43045026586E+01 -0.42223995584E+01  0.39192781325E+02  0.10566000000E+00 0. -1.
         23    2    1    0    0    0 -0.10530494581E+02 -0.18418001688E+02 -0.20162682168E+02  0.95731452812E+02  0.91147480508E+02 0.  0.
         13    1    3    3    0    0 -0.49256526430E+02 -0.22722504347E+02 -0.15940282610E+02  0.56538671487E+02  0.10566000000E+00 0.  1.
         22    1    1    0    0    0  0.10530494581E+02  0.18418001688E+02  0.20162682168E+02  0.29268547188E+02  0.00000000000E+00 0.  1.
</event>
<event>
 5    1  0.1324057E-009  0.9118800E+02  0.7818608E-02  0.1130116E+00
         25   -1    0    0    0    0  0.00000000000E+00  0.00000000000E+00  0.99999998245E-14  0.12500000000E+03  0.12500000000E+03 0.  0.
        -13    1    3    3    0    0  0.44398109528E+02  0.15280532696E+02  0.60862766788E+01  0.47347024585E+02  0.10566000000E+00 0.  1.
         23    2    1    0    0    0  0.12685539905E+02 -0.19133330131E+02  0.18219638939E+02  0.95691938180E+02  0.91093273873E+02 0.  0.
         13    1    3    3    0    0 -0.31712569623E+02 -0.34413862827E+02  0.12133362260E+02  0.48344913595E+02  0.10566000000E+00 0. -1.
         22    1    1    0    0    0 -0.12685539905E+02  0.19133330131E+02 -0.18219638939E+02  0.29308061820E+02  0.00000000000E+00 0. -1.
</event>
<event>
 5    1  0.1324057E-009  0.9118800E+02  0.7818608E-02  0.1130116E+00
         25   -1    0    0    0    0  0.00000000000E+00  0.00000000000E+00  0.99999998245E-14  0.12500000000E+03  0.12500000000E+03 0.  0.
        -13    1    3    3    0    0  0.11609473481E+02  0.13655718676E+01 -0.37158364310E+02  0.38953817056E+02  0.10566000000E+00 0. -1.
         23    2    1    0    0    0  0.98731491415E+01  0.21569897977E+02  0.16358741339E+02  0.96184240581E+02  0.91766334487E+02 0.  0.
         13    1    3    3    0    0 -0.17363243393E+01  0.20204326110E+02  0.53517105649E+02  0.57230423525E+02  0.10566000000E+00 0.  1.
         22    1    1    0    0    0 -0.98731491415E+01 -0.21569897977E+02 -0.16358741339E+02  0.28815759419E+02  0.00000000000E+00 0.  1.
</event>
<event>
 5    1  0.1324057E-009  0.9118800E+02  0.7818608E-02  0.1130116E+00
         25   -1    0    0    0    0  0.00000000000E+00  0.00000000000E+00  0.99999998245E-14  0.12500000000E+03  0.12500000000E+03 0.  0.
        -13    1    3    3    0    0  0.22005151793E+02 -0.13830172438E+02  0.44600952548E+02  0.51621279597E+02  0.10566000000E+00 0.  1.
         23    2    1    0    0    0 -0.10350634619E+01 -0.27944568387E+02  0.10498669774E+02  0.95130411356E+02  0.90319448842E+02 0.  0.
         13    1    3    3    0    0 -0.23040215254E+02 -0.14114395950E+02 -0.34102282774E+02  0.43509131759E+02  0.10566000000E+00 0. -1.
         22    1    1    0    0    0  0.10350634619E+01  0.27944568387E+02 -0.10498669774E+02  0.29869588644E+02  0.00000000000E+00 0.  1.
</event>
<event>
 5    1  0.1324057E-009  0.9118800E+02  0.7818608E-02  0.1130116E+00
         25   -1    0    0    0    0  0.00000000000E+00  0.00000000000E+00  0.99999998245E-14  0.12500000000E+03  0.12500000000E+03 0.  0.
        -13    1    3    3    0    0  0.30207219194E+02 -0.39713922741E+02  0.33369180244E+02  0.60026536674E+02  0.10566000000E+00 0. -1.
         23    2    1    0    0    0  0.23532232417E+02 -0.14343671284E+02  0.85380571019E+01  0.96148565244E+02  0.91717726264E+02 0.  0.
         13    1    3    3    0    0 -0.66749867773E+01  0.25370251457E+02 -0.24831123142E+02  0.36122028570E+02  0.10566000000E+00 0.  1.
         22    1    1    0    0    0 -0.23532232417E+02  0.14343671284E+02 -0.85380571019E+01  0.28851434756E+02  0.00000000000E+00 0. -1.
</event>
<event>
 5    1  0.1324057E-009  0.9118800E+02  0.7818608E-02  0.1130116E+00
         25   -1    0    0    0    0  0.00000000000E+00  0.00000000000E+00  0.99999998245E-14  0.12500000000E+03  0.12500000000E+03 0.  0.
        -13    1    3    3    0    0 -0.35287403051E+01  0.16610285514E+02 -0.32248446387E+02  0.36446221360E+02  0.10566000000E+00 0. -1.
         23    2    1    0    0    0 -0.11785390882E+02 -0.20964282115E+02  0.14444062406E+02  0.96945989563E+02  0.92798154026E+02 0.  0.
         13    1    3    3    0    0 -0.82566505771E+01 -0.37574567629E+02  0.46692508793E+02  0.60499768203E+02  0.10566000000E+00 0.  1.
         22    1    1    0    0    0  0.11785390882E+02  0.20964282115E+02 -0.14444062406E+02  0.28054010437E+02  0.00000000000E+00 0.  1.
</event>
<event>
 5    1  0.1324057E-009  0.9118800E+02  0.7818608E-02  0.1130116E+00
         25   -1    0    0    0    0  0.00000000000E+00  0.00000000000E+00  0.99999998245E-14  0.12500000000E+03  0.12500000000E+03 0.  0.
        -13    1    3    3    0    0  0.20956429449E+02  0.63796803725E+01  0.14818052295E+02  0.26447270082E+02  0.10566000000E+00 0. -1.
         23    2    1    0    0    0 -0.14140311076E+02  0.43860092182E+02  0.67227054224E+01  0.78429077187E+02  0.63105224004E+02 0.  0.
         13    1    3    3    0    0 -0.35096740525E+02  0.37480411809E+02 -0.80953468724E+01  0.51981807105E+02  0.10566000000E+00 0.  1.
         22    1    1    0    0    0  0.14140311076E+02 -0.43860092182E+02 -0.67227054224E+01  0.46570922813E+02  0.00000000000E+00 0.  1.
</event>
<event>
 5    1  0.1324057E-009  0.9118800E+02  0.7818608E-02  0.1130116E+00
         25   -1    0    0    0    0  0.00000000000E+00  0.00000000000E+00  0.99999998245E-14  0.12500000000E+03  0.12500000000E+03 0.  0.
        -13    1    3    3    0    0  0.21760951656E+02 -0.45588184097E+02  0.26322588049E+02  0.56962367857E+02  0.10566000000E+00 0.  1.
         23    2    1    0    0    0  0.22261206397E+02 -0.19167681354E+02 -0.18207271560E+01  0.95567426784E+02  0.90922256329E+02 0.  0.
         13    1    3    3    0    0  0.50025474071E+00  0.26420502743E+02 -0.28143315205E+02  0.38605058927E+02  0.10566000000E+00 0. -1.
         22    1    1    0    0    0 -0.22261206397E+02  0.19167681354E+02  0.18207271560E+01  0.29432573216E+02  0.00000000000E+00 0.  1.
</event>
<event>
 5    1  0.1324057E-009  0.9118800E+02  0.7818608E-02  0.1130116E+00
         25   -1    0    0    0    0  0.00000000000E+00  0.00000000000E+00  0.99999998245E-14  0.12500000000E+03  0.12500000000E+03 0.  0.
        -13    1    3    3    0    0 -0.51666635848E+01 -0.12455421917E+02  0.60820295941E+02  0.62297283329E+02  0.10566000000E+00 0. -1.
         23    2    1    0    0    0 -0.52463073094E+01 -0.36849173634E+01  0.28603373342E+02  0.95686942791E+02  0.91086418844E+02 0.  0.
         13    1    3    3    0    0 -0.79643724535E-01  0.87705045533E+01 -0.32216922599E+02  0.33389659463E+02  0.10566000000E+00 0.  1.
         22    1    1    0    0    0  0.52463073094E+01  0.36849173634E+01 -0.28603373342E+02  0.29313057209E+02  0.00000000000E+00 0. -1.
</event>
<event>
 5    1  0.1324057E-009  0.9118800E+02  0.7818608E-02  0.1130116E+00
         25   -1    0    0    0    0  0.00000000000E+00  0.00000000000E+00  0.99999998245E-14  0.12500000000E+03  0.12500000000E+03 0.  0.
        -13    1    3    3    0    0 -0.33128263548E+02  0.22505105650E+01 -0.28127574643E+02  0.43516873312E+02  0.10566000000E+00 0.  1.
         23    2    1    0    0    0 -0.14893907791E+02  0.16602597061E+02  0.18774785870E+02  0.95845801281E+02  0.91304163762E+02 0.  0.
         13    1    3    3    0    0  0.18234355758E+02  0.14352086496E+02  0.46902360513E+02  0.52328927969E+02  0.10566000000E+00 0. -1.
         22    1    1    0    0    0  0.14893907791E+02 -0.16602597061E+02 -0.18774785870E+02  0.29154198719E+02  0.00000000000E+00 0. -1.
</event>
<event>
 5    1  0.1324057E-009  0.9118800E+02  0.7818608E-02  0.1130116E+00
         25   -1    0    0    0    0  0.00000000000E+00  0.00000000000E+00  0.99999998245E-14  0.12500000000E+03  0.12500000000E+03 0.  0.
        -13    1    3    3    0    0 -0.22436158298E+02 -0.12044587953E+02  0.27811914113E+02  0.37708978093E+02  0.10566000000E+00 0.  1.
         23    2    1    0    0    0  0.15515655981E+02  0.25181827049E+02  0.96346856544E+01  0.93892329536E+02  0.88589403339E+02 0.  0.
         13    1    3    3    0    0  0.37951814279E+02  0.37226415002E+02 -0.18177228458E+02  0.56183351443E+02  0.10566000000E+00 0. -1.
         22    1    1    0    0    0 -0.15515655981E+02 -0.25181827049E+02 -0.96346856544E+01  0.31107670464E+02  0.00000000000E+00 0. -1.
</event>
<event>
 5    1  0.1324057E-009  0.9118800E+02  0.7818608E-02  0.1130116E+00
         25   -1    0    0    0    0  0.00000000000E+00  0.00000000000E+00  0.99999998245E-14  0.12500000000E+03  0.12500000000E+03 0.  0.
        -13    1    3    3    0    0  0.27466809604E+02 -0.62643462305E+01 -0.47115915649E+02  0.54896159565E+02  0.10566000000E+00 0.  1.
         23    2    1    0    0    0  0.23347280359E+02  0.13330346236E+02 -0.11491457710E+02  0.95762229373E+02  0.91189677833E+02 0.  0.
         13    1    3    3    0    0 -0.41195292447E+01  0.19594692467E+02  0.35624457939E+02  0.40866069808E+02  0.10566000000E+00 0. -1.
         22    1    1    0    0    0 -0.23347280359E+02 -0.13330346236E+02  0.11491457710E+02  0.29237770627E+02  0.00000000000E+00 0.  1.
</event>
<event>
 5    1  0.1324057E-009  0.9118800E+02  0.7818608E-02  0.1130116E+00
         25   -1    0    0    0    0  0.00000000000E+00  0.00000000000E+00  0.99999998245E-14  0.12500000000E+03  0.12500000000E+03 0.  0.
        -13    1    3    3    0    0  0.51750432872E+01 -0.55346836663E+02  0.20386824389E+01  0.55625720595E+02  0.10566000000E+00 0.  1.
         23    2    1    0    0    0  0.19327554955E+02 -0.20866180192E+02 -0.10089212601E+02  0.94821463467E+02  0.89890855301E+02 0.  0.
         13    1    3    3    0    0  0.14152511668E+02  0.34480656471E+02 -0.12127895040E+02  0.39195742872E+02  0.10566000000E+00 0. -1.
         22    1    1    0    0    0 -0.19327554955E+02  0.20866180192E+02  0.10089212601E+02  0.30178536533E+02  0.00000000000E+00 0.  1.
</event>
<event>
 5    1  0.1324057E-009  0.9118800E+02  0.7818608E-02  0.1130116E+00
         25   -1    0    0    0    0  0.00000000000E+00  0.00000000000E+00  0.99999998245E-14  0.12500000000E+03  0.12500000000E+03 0.  0.
        -13    1    3    3    0    0 -0.17988150602E+02 -0.16009331421E+02  0.14054927290E+02  0.27882331320E+02  0.10566000000E+00 0.  1.
         23    2    1    0    0    0 -0.18994086804E+02  0.35727054286E+02  0.19811619236E+02  0.79947830260E+02  0.66045117647E+02 0.  0.
         13    1    3    3    0    0 -0.10059362020E+01  0.51736385708E+02  0.57566919465E+01  0.52065498941E+02  0.10566000000E+00 0. -1.
         22    1    1    0    0    0  0.18994086804E+02 -0.35727054286E+02 -0.19811619236E+02  0.45052169740E+02  0.00000000000E+00 0. -1.
</event>
<event>
 5    1  0.1324057E-009  0.9118800E+02  0.7818608E-02  0.1130116E+00
         25   -1    0    0    0    0  0.00000000000E+00  0.00000000000E+00  0.99999998245E-14  0.12500000000E+03  0.12500000000E+03 0.  0.
        -13    1    3    3    0    0 -0.33757860128E+02  0.32475647251E+02 -0.24011350791E+02  0.52638549711E+02  0.10566000000E+00 0. -1.
         23    2    1    0    0    0 -0.63317472093E+01 -0.30917912813E+01 -0.26458874141E+02  0.97618944198E+02  0.93700245727E+02 0.  0.
         13    1    3    3    0    0  0.27426112919E+02 -0.35567438533E+02 -0.24475233502E+01  0.44980394487E+02  0.10566000000E+00 0.  1.
         22    1    1    0    0    0  0.63317472093E+01  0.30917912813E+01  0.26458874141E+02  0.27381055802E+02  0.00000000000E+00 0. -1.
</event>
<event>
 5    1  0.1324057E-009  0.9118800E+02  0.7818608E-02  0.1130116E+00
         25   -1    0    0    0    0  0.00000000000E+00  0.00000000000E+00  0.99999998245E-14  0.12500000000E+03  0.12500000000E+03 0.  0.
        -13    1    3    3    0    0 -0.32385941678E+02 -0.47943506449E+02 -0.38238689659E+01  0.57983292136E+02  0.10566000000E+00 0. -1.
         23    2    1    0    0    0 -0.24526012996E+02 -0.12260711354E+02 -0.11410012703E+02  0.95300862870E+02  0.90555042474E+02 0.  0.
         13    1    3    3    0    0  0.78599286823E+01  0.35682795095E+02 -0.75861437371E+01  0.37317570734E+02  0.10566000000E+00 0.  1.
         22    1    1    0    0    0  0.24526012996E+02  0.12260711354E+02  0.11410012703E+02  0.29699137130E+02  0.00000000000E+00 0. -1.
</event>
<event>
 5    1  0.1324057E-009  0.9118800E+02  0.7818608E-02  0.1130116E+00
         25   -1    0    0    0    0  0.00000000000E+00  0.00000000000E+00  0.99999998245E-14  0.12500000000E+03  0.12500000000E+03 0.  0.
        -13    1    3    3    0    0  0.40595606699E+02 -0.24030224951E+02  0.13634822956E+02  0.49105748702E+02  0.10566000000E+00 0.  1.
         23    2    1    0    0    0  0.12816004098E+02 -0.83491184366E+01  0.34525808286E+02  0.87237728120E+02  0.78641159897E+02 0.  0.
         13    1    3    3    0    0 -0.27779602602E+02  0.15681106514E+02  0.20890985331E+02  0.38131979418E+02  0.10566000000E+00 0. -1.
         22    1    1    0    0    0 -0.12816004098E+02  0.83491184366E+01 -0.34525808286E+02  0.37762271880E+02  0.00000000000E+00 0. -1.
</event>
<event>
 5    1  0.1324057E-009  0.9118800E+02  0.7818608E-02  0.1130116E+00
         25   -1    0    0    0    0  0.00000000000E+00  0.00000000000E+00  0.99999998245E-14  0.12500000000E+03  0.12500000000E+03 0.  0.
        -13    1    3    3    0    0 -0.36224562326E+02  0.54808542847E+00 -0.25375197875E+02  0.44231562764E+02  0.10566000000E+00 0. -1.
         23    2    1    0    0    0 -0.38548429734E+01  0.28423920609E+02  0.39474122282E+01  0.96045533325E+02  0.91577198752E+02 0.  0.
         13    1    3    3    0    0  0.32369719352E+02  0.27875835180E+02  0.29322610103E+02  0.51813970561E+02  0.10566000000E+00 0.  1.
         22    1    1    0    0    0  0.38548429734E+01 -0.28423920609E+02 -0.39474122282E+01  0.28954466675E+02  0.00000000000E+00 0. -1.
</event>
<event>
 5    1  0.1324057E-009  0.9118800E+02  0.7818608E-02  0.1130116E+00
         25   -1    0    0    0    0  0.00000000000E+00  0.00000000000E+00  0.99999998245E-14  0.12500000000E+03  0.12500000000E+03 0.  0.
        -13    1    3    3    0    0 -0.53818960944E+01  0.45722375631E+02 -0.35718902424E+02  0.58269645557E+02  0.10566000000E+00 0.  1.
         23    2    1    0    0    0  0.10172451870E+02  0.12881889416E+02 -0.22947013899E+02  0.96786753131E+02  0.92583412568E+02 0.  0.
         13    1    3    3    0    0  0.15554347964E+02 -0.32840486215E+02  0.12771888525E+02  0.38517107575E+02  0.10566000000E+00 0. -1.
         22    1    1    0    0    0 -0.10172451870E+02 -0.12881889416E+02  0.22947013899E+02  0.28213246869E+02  0.00000000000E+00 0.  1.
</event>
<event>
 5    1  0.1324057E-009  0.9118800E+02  0.7818608E-02  0.1130116E+00
         25   -1    0    0    0    0  0.00000000000E+00  0.00000000000E+00  0.99999998245E-14  0.12500000000E+03  0.12500000000E+03 0.  0.
        -13    1    3    3    0    0  0.16248349501E+02 -0.36370727819E+02  0.10137409504E+02  0.41104950299E+02  0.10566000000E+00 0. -1.
         23    2    1    0    0    0  0.11967908061E+02 -0.94169140097E+00 -0.28725181180E+02  0.93867161390E+02  0.88553883865E+02 0.  0.
         13    1    3    3    0    0 -0.42804414401E+01  0.35429036418E+02 -0.38862590685E+02  0.52762211091E+02  0.10566000000E+00 0.  1.
         22    1    1    0    0    0 -0.11967908061E+02  0.94169140097E+00  0.28725181180E+02  0.31132838610E+02  0.00000000000E+00 0. -1.
</event>
<event>
 5    1  0.1324057E-009  0.9118800E+02  0.7818608E-02  0.1130116E+00
         25   -1    0    0    0    0  0.00000000000E+00  0.00000000000E+00  0.99999998245E-14  0.12500000000E+03  0.12500000000E+03 0.  0.
        -13    1    3    3    0    0  0.23555868943E+02  0.18934520305E+02  0.45346159408E+02  0.54494773675E+02  0.10566000000E+00 0.  1.
         23    2    1    0    0    0  0.24353291920E+02 -0.84157100543E+01  0.15750550582E+02  0.94800880035E+02  0.89862227931E+02 0.  0.
         13    1    3    3    0    0  0.79742297629E+00 -0.27350230359E+02 -0.29595608825E+02  0.40306106359E+02  0.10566000000E+00 0. -1.
         22    1    1    0    0    0 -0.24353291920E+02  0.84157100543E+01 -0.15750550582E+02  0.30199119965E+02  0.00000000000E+00 0. -1.
</event>
<event>
 5    1  0.1324057E-009  0.9118800E+02  0.7818608E-02  0.1130116E+00
         25   -1    0    0    0    0  0.00000000000E+00  0.00000000000E+00  0.99999998245E-14  0.12500000000E+03  0.12500000000E+03 0.  0.
        -13    1    3    3    0    0 -0.82395377701E+01  0.25333032908E+02 -0.16142444536E+02  0.31148711347E+02  0.10566000000E+00 0.  1.
         23    2    1    0    0    0  0.27522596823E+02 -0.19362839732E+02 -0.14343975764E+02  0.88419095977E+02  0.80497043389E+02 0.  0.
         13    1    3    3    0    0  0.35762134593E+02 -0.44695872640E+02  0.17984687713E+01  0.57270384630E+02  0.10566000000E+00 0. -1.
         22    1    1    0    0    0 -0.27522596823E+02  0.19362839732E+02  0.14343975764E+02  0.36580904023E+02  0.00000000000E+00 0. -1.
</event>
<event>
 5    1  0.1324057E-009  0.9118800E+02  0.7818608E-02  0.1130116E+00
         25   -1    0    0    0    0  0.00000000000E+00  0.00000000000E+00  0.99999998245E-14  0.12500000000E+03  0.12500000000E+03 0.  0.
        -13    1    3    3    0    0  0.32164232165E+02 -0.35439507782E+02 -0.33434699334E+01  0.47975894966E+02  0.10566000000E+00 0. -1.
         23    2    1    0    0    0 -0.11142891121E+02 -0.24537100489E+02  0.12409529976E+02  0.95331333748E+02  0.90597093977E+02 0.  0.
         13    1    3    3    0    0 -0.43307123286E+02  0.10902407293E+02  0.15752999909E+02  0.47355438782E+02  0.10566000000E+00 0.  1.
         22    1    1    0    0    0  0.11142891121E+02  0.24537100489E+02 -0.12409529976E+02  0.29668666252E+02  0.00000000000E+00 0. -1.
</event>
<event>
 5    1  0.1324057E-009  0.9118800E+02  0.7818608E-02  0.1130116E+00
         25   -1    0    0    0    0  0.00000000000E+00  0.00000000000E+00  0.99999998245E-14  0.12500000000E+03  0.12500000000E+03 0.  0.
        -13    1    3    3    0    0  0.38501703111E+02  0.16760896856E+02  0.50174427495E+01  0.42290598266E+02  0.10566000000E+00 0.  1.
         23    2    1    0    0    0  0.66599814526E+01 -0.26159670589E+02  0.10547759351E+02  0.96018299815E+02  0.91540018319E+02 0.  0.
         13    1    3    3    0    0 -0.31841721659E+02 -0.42920567445E+02  0.55303166010E+01  0.53727701549E+02  0.10566000000E+00 0. -1.
         22    1    1    0    0    0 -0.66599814526E+01  0.26159670589E+02 -0.10547759351E+02  0.28981700185E+02  0.00000000000E+00 0. -1.
</event>
<event>
 5    1  0.1324057E-009  0.9118800E+02  0.7818608E-02  0.1130116E+00
         25   -1    0    0    0    0  0.00000000000E+00  0.00000000000E+00  0.99999998245E-14  0.12500000000E+03  0.12500000000E+03 0.  0.
        -13    1    3    3    0    0  0.13836515185E+02  0.22918323404E+02 -0.31856289925E+02  0.41611693932E+02  0.10566000000E+00 0.  1.
         23    2    1    0    0    0 -0.19829680980E+02  0.18177533952E+02  0.10672402980E+02  0.96059730932E+02  0.91596575989E+02 0.  0.
         13    1    3    3    0    0 -0.33666196165E+02 -0.47407894516E+01  0.42528692905E+02  0.54448036999E+02  0.10566000000E+00 0. -1.
         22    1    1    0    0    0  0.19829680980E+02 -0.18177533952E+02 -0.10672402980E+02  0.28940269068E+02  0.00000000000E+00 0. -1.
</event>
<event>
 5    1  0.1324057E-009  0.9118800E+02  0.7818608E-02  0.1130116E+00
         25   -1    0    0    0    0  0.00000000000E+00  0.00000000000E+00  0.99999998245E-14  0.12500000000E+03  0.12500000000E+03 0.  0.
        -13    1    3    3    0    0 -0.21243451091E+02  0.35397783901E+02  0.15711467934E+02  0.44171808974E+02  0.10566000000E+00 0.  1.
         23    2    1    0    0    0  0.24770766956E+02  0.13358506884E+02  0.34364753955E+01  0.96647752031E+02  0.92395551883E+02 0.  0.
         13    1    3    3    0    0  0.46014218047E+02 -0.22039277017E+02 -0.12274992538E+02  0.52475943057E+02  0.10566000000E+00 0. -1.
         22    1    1    0    0    0 -0.24770766956E+02 -0.13358506884E+02 -0.34364753955E+01  0.28352247969E+02  0.00000000000E+00 0. -1.
</event>
<event>
 5    1  0.1324057E-009  0.9118800E+02  0.7818608E-02  0.1130116E+00
         25   -1    0    0    0    0  0.00000000000E+00  0.00000000000E+00  0.99999998245E-14  0.12500000000E+03  0.12500000000E+03 0.  0.
        -13    1    3    3    0    0  0.35294695325E+02 -0.33815824297E+02 -0.94615597892E+01  0.49787124527E+02  0.10566000000E+00 0. -1.
         23    2    1    0    0    0  0.10505064274E+02  0.33231754308E+01 -0.25491087013E+02  0.97229595116E+02  0.93179390312E+02 0.  0.
         13    1    3    3    0    0 -0.24789631051E+02  0.37138999728E+02 -0.16029527224E+02  0.47442470588E+02  0.10566000000E+00 0.  1.
         22    1    1    0    0    0 -0.10505064274E+02 -0.33231754308E+01  0.25491087013E+02  0.27770404884E+02  0.00000000000E+00 0.  1.
</event>
<event>
 5    1  0.1324057E-009  0.9118800E+02  0.7818608E-02  0.1130116E+00
         25   -1    0    0    0    0  0.00000000000E+00  0.00000000000E+00  0.99999998245E-14  0.12500000000E+03  0.12500000000E+03 0.  0.
        -13    1    3    3    0    0 -0.10556817182E+02  0.29092056897E+01  0.22791961450E+02  0.25286251947E+02  0.10566000000E+00 0.  1.
         23    2    1    0    0    0  0.38172295583E+02 -0.87411112346E+01 -0.92545300055E+01  0.84760995274E+02  0.74600595296E+02 0.  0.
         13    1    3    3    0    0  0.48729112765E+02 -0.11650316924E+02 -0.32046491455E+02  0.59474743328E+02  0.10566000000E+00 0. -1.
         22    1    1    0    0    0 -0.38172295583E+02  0.87411112346E+01  0.92545300055E+01  0.40239004726E+02  0.00000000000E+00 0. -1.
</event>
<event>
 5    1  0.1324057E-009  0.9118800E+02  0.7818608E-02  0.1130116E+00
         25   -1    0    0    0    0  0.00000000000E+00  0.00000000000E+00  0.99999998245E-14  0.12500000000E+03  0.12500000000E+03 0.  0.
        -13    1    3    3    0    0  0.71740278847E+01  0.14505576766E+02 -0.36659633466E+02  0.40072663042E+02  0.10566000000E+00 0. -1.
         23    2    1    0    0    0 -0.23723525381E+02  0.13681661124E+02  0.98331875924E+01  0.95902146371E+02  0.91381270470E+02 0.  0.
         13    1    3    3    0    0 -0.30897553265E+02 -0.82391564216E+00  0.46492821058E+02  0.55829483329E+02  0.10566000000E+00 0.  1.
         22    1    1    0    0    0  0.23723525381E+02 -0.13681661124E+02 -0.98331875924E+01  0.29097853629E+02  0.00000000000E+00 0.  1.
</event>
<event>
 5    1  0.1324057E-009  0.9118800E+02  0.7818608E-02  0.1130116E+00
         25   -1    0    0    0    0  0.00000000000E+00  0.00000000000E+00  0.99999998245E-14  0.12500000000E+03  0.12500000000E+03 0.  0.
        -13    1    3    3    0    0  0.38619910316E+02 -0.48701537589E+02  0.26787922466E+01  0.62213538144E+02  0.10566000000E+00 0. -1.
         23    2    1    0    0    0  0.26041079753E+02 -0.26804375674E+02  0.33776007799E+01  0.87476399733E+02  0.79019617395E+02 0.  0.
         13    1    3    3    0    0 -0.12578830564E+02  0.21897161916E+02  0.69880853327E+00  0.25262861590E+02  0.10566000000E+00 0.  1.
         22    1    1    0    0    0 -0.26041079753E+02  0.26804375674E+02 -0.33776007799E+01  0.37523600267E+02  0.00000000000E+00 0. -1.
</event>
<event>
 5    1  0.1324057E-009  0.9118800E+02  0.7818608E-02  0.1130116E+00
         25   -1    0    0    0    0  0.00000000000E+00  0.00000000000E+00  0.99999998245E-14  0.12500000000E+03  0.12500000000E+03 0.  0.
        -13    1    3    3    0    0  0.71629473265E+01 -0.22835220010E+02  0.50223193036E+02  0.55633940810E+02  0.10566000000E+00 0.  1.
         23    2    1    0    0    0  0.21885810509E+02 -0.20136335593E+01  0.19001136426E+02  0.95946831373E+02  0.91442374440E+02 0.  0.
         13    1    3    3    0    0  0.14722863183E+02  0.20821586451E+02 -0.31222056609E+02  0.40312890563E+02  0.10566000000E+00 0. -1.
         22    1    1    0    0    0 -0.21885810509E+02  0.20136335593E+01 -0.19001136426E+02  0.29053168627E+02  0.00000000000E+00 0.  1.
</event>
<event>
 5    1  0.1324057E-009  0.9118800E+02  0.7818608E-02  0.1130116E+00
         25   -1    0    0    0    0  0.00000000000E+00  0.00000000000E+00  0.99999998245E-14  0.12500000000E+03  0.12500000000E+03 0.  0.
        -13    1    3    3    0    0 -0.10282850839E+02 -0.50622235338E+02  0.15370768601E+02  0.53894521274E+02  0.10566000000E+00 0. -1.
         23    2    1    0    0    0 -0.23862632448E+02 -0.19158148268E+02 -0.53394441168E+01  0.93936041207E+02  0.88651059225E+02 0.  0.
         13    1    3    3    0    0 -0.13579781609E+02  0.31464087070E+02 -0.20710212718E+02  0.40041519933E+02  0.10566000000E+00 0.  1.
         22    1    1    0    0    0  0.23862632448E+02  0.19158148268E+02  0.53394441168E+01  0.31063958793E+02  0.00000000000E+00 0. -1.
</event>
<event>
 5    1  0.1324057E-009  0.9118800E+02  0.7818608E-02  0.1130116E+00
         25   -1    0    0    0    0  0.00000000000E+00  0.00000000000E+00  0.99999998245E-14  0.12500000000E+03  0.12500000000E+03 0.  0.
        -13    1    3    3    0    0 -0.12911650820E+02 -0.37259442142E+01 -0.35986075578E+02  0.38413567742E+02  0.10566000000E+00 0.  1.
         23    2    1    0    0    0  0.12721644765E+02  0.24118338800E+02  0.81363209700E+01  0.96544170528E+02  0.92255312216E+02 0.  0.
         13    1    3    3    0    0  0.25633295585E+02  0.27844283014E+02  0.44122396548E+02  0.58130602786E+02  0.10566000000E+00 0. -1.
         22    1    1    0    0    0 -0.12721644765E+02 -0.24118338800E+02 -0.81363209700E+01  0.28455829472E+02  0.00000000000E+00 0. -1.
</event>
<event>
 5    1  0.1324057E-009  0.9118800E+02  0.7818608E-02  0.1130116E+00
         25   -1    0    0    0    0  0.00000000000E+00  0.00000000000E+00  0.99999998245E-14  0.12500000000E+03  0.12500000000E+03 0.  0.
        -13    1    3    3    0    0  0.52046623952E+01 -0.21966655110E+02 -0.39627808058E+02  0.45606981734E+02  0.10566000000E+00 0.  1.
         23    2    1    0    0    0  0.22091078793E+02  0.14723811625E+02 -0.69594728074E+01  0.97554769945E+02  0.93614595477E+02 0.  0.
         13    1    3    3    0    0  0.16886416398E+02  0.36690466735E+02  0.32668335250E+02  0.51947788211E+02  0.10566000000E+00 0. -1.
         22    1    1    0    0    0 -0.22091078793E+02 -0.14723811625E+02  0.69594728074E+01  0.27445230055E+02  0.00000000000E+00 0.  1.
</event>
<event>
 5    1  0.1324057E-009  0.9118800E+02  0.7818608E-02  0.1130116E+00
         25   -1    0    0    0    0  0.00000000000E+00  0.00000000000E+00  0.99999998245E-14  0.12500000000E+03  0.12500000000E+03 0.  0.
        -13    1    3    3    0    0 -0.35038661817E+02 -0.37665070248E+02  0.19358439473E+02  0.54964767639E+02  0.10566000000E+00 0.  1.
         23    2    1    0    0    0 -0.20307951853E+02 -0.15063404564E+02 -0.12568346966E+02  0.96763810261E+02  0.92552431439E+02 0.  0.
         13    1    3    3    0    0  0.14730709964E+02  0.22601665684E+02 -0.31926786439E+02  0.41799042622E+02  0.10566000000E+00 0. -1.
         22    1    1    0    0    0  0.20307951853E+02  0.15063404564E+02  0.12568346966E+02  0.28236189739E+02  0.00000000000E+00 0.  1.
</event>
<event>
 5    1  0.1324057E-009  0.9118800E+02  0.7818608E-02  0.1130116E+00
         25   -1    0    0    0    0  0.00000000000E+00  0.00000000000E+00  0.99999998245E-14  0.12500000000E+03  0.12500000000E+03 0.  0.
        -13    1    3    3    0    0 -0.28453276630E+02 -0.10340386857E+02  0.33295488707E+02  0.45001258689E+02  0.10566000000E+00 0. -1.
         23    2    1    0    0    0 -0.26387115978E+02  0.12816898850E+02 -0.98859207749E+01  0.94043833969E+02  0.88802919390E+02 0.  0.
         13    1    3    3    0    0  0.20661606517E+01  0.23157285707E+02 -0.43181409482E+02  0.49042575280E+02  0.10566000000E+00 0.  1.
         22    1    1    0    0    0  0.26387115978E+02 -0.12816898850E+02  0.98859207749E+01  0.30956166031E+02  0.00000000000E+00 0.  1.
</event>
<event>
 5    1  0.1324057E-009  0.9118800E+02  0.7818608E-02  0.1130116E+00
         25   -1    0    0    0    0  0.00000000000E+00  0.00000000000E+00  0.99999998245E-14  0.12500000000E+03  0.12500000000E+03 0.  0.
        -13    1    3    3    0    0 -0.94404745426E+01 -0.62341413734E+01  0.50141689626E+02  0.51402210855E+02  0.10566000000E+00 0.  1.
         23    2    1    0    0    0 -0.21497853919E+02  0.15040264058E+02  0.13395580480E+02  0.95541404609E+02  0.90886473978E+02 0.  0.
         13    1    3    3    0    0 -0.12057379376E+02  0.21274405431E+02 -0.36746109145E+02  0.44139193754E+02  0.10566000000E+00 0. -1.
         22    1    1    0    0    0  0.21497853919E+02 -0.15040264058E+02 -0.13395580480E+02  0.29458595391E+02  0.00000000000E+00 0. -1.
</event>
<event>
 5    1  0.1324057E-009  0.9118800E+02  0.7818608E-02  0.1130116E+00
         25   -1    0    0    0    0  0.00000000000E+00  0.00000000000E+00  0.99999998245E-14  0.12500000000E+03  0.12500000000E+03 0.  0.
        -13    1    3    3    0    0 -0.38044853402E+02 -0.14642827717E+01  0.18269207295E+01  0.38116975192E+02  0.10566000000E+00 0.  1.
         23    2    1    0    0    0  0.14004458344E+02  0.11107570034E+02  0.23149763692E+02  0.95752529604E+02  0.91176380719E+02 0.  0.
         13    1    3    3    0    0  0.52049311747E+02  0.12571852806E+02  0.21322842962E+02  0.57635554411E+02  0.10566000000E+00 0. -1.
         22    1    1    0    0    0 -0.14004458344E+02 -0.11107570034E+02 -0.23149763692E+02  0.29247470396E+02  0.00000000000E+00 0. -1.
</event>
<event>
 5    1  0.1324057E-009  0.9118800E+02  0.7818608E-02  0.1130116E+00
         25   -1    0    0    0    0  0.00000000000E+00  0.00000000000E+00  0.99999998245E-14  0.12500000000E+03  0.12500000000E+03 0.  0.
        -13    1    3    3    0    0 -0.21968127487E+02  0.31965539367E+02 -0.46497540422E+02  0.60551026099E+02  0.10566000000E+00 0.  1.
         23    2    1    0    0    0 -0.13778957761E+02  0.52933092787E+01 -0.25744371696E+02  0.95324227489E+02  0.90587288690E+02 0.  0.
         13    1    3    3    0    0  0.81891697262E+01 -0.26672230089E+02  0.20753168726E+02  0.34773201390E+02  0.10566000000E+00 0. -1.
         22    1    1    0    0    0  0.13778957761E+02 -0.52933092787E+01  0.25744371696E+02  0.29675772511E+02  0.00000000000E+00 0.  1.
</event>
<event>
 5    1  0.1324057E-009  0.9118800E+02  0.7818608E-02  0.1130116E+00
         25   -1    0    0    0    0  0.00000000000E+00  0.00000000000E+00  0.99999998245E-14  0.12500000000E+03  0.12500000000E+03 0.  0.
        -13    1    3    3    0    0 -0.40885972366E+02  0.32963164223E+02  0.16453350484E+02  0.55035959500E+02  0.10566000000E+00 0. -1.
         23    2    1    0    0    0 -0.32141591478E+01  0.28540085331E+02  0.26102993794E+00  0.96278310872E+02  0.91894383495E+02 0.  0.
         13    1    3    3    0    0  0.37671813218E+02 -0.44230788922E+01 -0.16192320546E+02  0.41242351372E+02  0.10566000000E+00 0.  1.
         22    1    1    0    0    0  0.32141591478E+01 -0.28540085331E+02 -0.26102993794E+00  0.28721689128E+02  0.00000000000E+00 0. -1.
</event>
<event>
 5    1  0.1324057E-009  0.9118800E+02  0.7818608E-02  0.1130116E+00
         25   -1    0    0    0    0  0.00000000000E+00  0.00000000000E+00  0.99999998245E-14  0.12500000000E+03  0.12500000000E+03 0.  0.
        -13    1    3    3    0    0  0.49326846134E+02  0.24952097299E+02  0.12528654944E+02  0.56680889795E+02  0.10566000000E+00 0.  1.
         23    2    1    0    0    0  0.11292014920E+02  0.16370849409E+02  0.20456428560E+02  0.96469669109E+02  0.92154312310E+02 0.  0.
         13    1    3    3    0    0 -0.38034831214E+02 -0.85812478900E+01  0.79277736153E+01  0.39788779315E+02  0.10566000000E+00 0. -1.
         22    1    1    0    0    0 -0.11292014920E+02 -0.16370849409E+02 -0.20456428560E+02  0.28530330891E+02  0.00000000000E+00 0.  1.
</event>
<event>
 5    1  0.1324057E-009  0.9118800E+02  0.7818608E-02  0.1130116E+00
         25   -1    0    0    0    0  0.00000000000E+00  0.00000000000E+00  0.99999998245E-14  0.12500000000E+03  0.12500000000E+03 0.  0.
        -13    1    3    3    0    0 -0.92958980730E+01 -0.26808257206E+02  0.47231316349E+02  0.55099045214E+02  0.10566000000E+00 0.  1.
         23    2    1    0    0    0  0.17107568133E+02 -0.14258348347E+02  0.21508720988E+02  0.94038823285E+02  0.88795866014E+02 0.  0.
         13    1    3    3    0    0  0.26403466206E+02  0.12549908859E+02 -0.25722595360E+02  0.38939778071E+02  0.10566000000E+00 0. -1.
         22    1    1    0    0    0 -0.17107568133E+02  0.14258348347E+02 -0.21508720988E+02  0.30961176715E+02  0.00000000000E+00 0.  1.
</event>
<event>
 5    1  0.1324057E-009  0.9118800E+02  0.7818608E-02  0.1130116E+00
         25   -1    0    0    0    0  0.00000000000E+00  0.00000000000E+00  0.99999998245E-14  0.12500000000E+03  0.12500000000E+03 0.  0.
        -13    1    3    3    0    0 -0.35944607026E+02 -0.15374020107E+02  0.82637379077E+01  0.39958425854E+02  0.10566000000E+00 0.  1.
         23    2    1    0    0    0 -0.60865045639E+01  0.93460331002E+01 -0.29123552938E+02  0.93813861921E+02  0.88478615950E+02 0.  0.
         13    1    3    3    0    0  0.29858102462E+02  0.24720053207E+02 -0.37387290846E+02  0.53855436067E+02  0.10566000000E+00 0. -1.
         22    1    1    0    0    0  0.60865045639E+01 -0.93460331002E+01  0.29123552938E+02  0.31186138079E+02  0.00000000000E+00 0. -1.
</event>
<event>
 5    1  0.1324057E-009  0.9118800E+02  0.7818608E-02  0.1130116E+00
         25   -1    0    0    0    0  0.00000000000E+00  0.00000000000E+00  0.99999998245E-14  0.12500000000E+03  0.12500000000E+03 0.  0.
        -13    1    3    3    0    0 -0.33052744086E+02  0.21181907512E+02  0.16009961921E+02  0.42396782215E+02  0.10566000000E+00 0.  1.
         23    2    1    0    0    0 -0.13557779568E+01 -0.18531298988E+02  0.24849546782E+02  0.93971832937E+02  0.88701512017E+02 0.  0.
         13    1    3    3    0    0  0.31696966129E+02 -0.39713206500E+02  0.88395848607E+01  0.51575050721E+02  0.10566000000E+00 0. -1.
         22    1    1    0    0    0  0.13557779568E+01  0.18531298988E+02 -0.24849546782E+02  0.31028167063E+02  0.00000000000E+00 0. -1.
</event>
<event>
 5    1  0.1324057E-009  0.9118800E+02  0.7818608E-02  0.1130116E+00
         25   -1    0    0    0    0  0.00000000000E+00  0.00000000000E+00  0.99999998245E-14  0.12500000000E+03  0.12500000000E+03 0.  0.
        -13    1    3    3    0    0  0.48077068683E+02  0.30084088511E+02  0.15089757497E+02  0.58687041671E+02  0.10566000000E+00 0.  1.
         23    2    1    0    0    0  0.22338895765E+02  0.23441434048E+01  0.17382817674E+02  0.96597823630E+02  0.92327980090E+02 0.  0.
         13    1    3    3    0    0 -0.25738172919E+02 -0.27739945107E+02  0.22930601766E+01  0.37910781959E+02  0.10566000000E+00 0. -1.
         22    1    1    0    0    0 -0.22338895765E+02 -0.23441434048E+01 -0.17382817674E+02  0.28402176370E+02  0.00000000000E+00 0.  1.
</event>
<event>
 5    1  0.1324057E-009  0.9118800E+02  0.7818608E-02  0.1130116E+00
         25   -1    0    0    0    0  0.00000000000E+00  0.00000000000E+00  0.99999998245E-14  0.12500000000E+03  0.12500000000E+03 0.  0.
        -13    1    3    3    0    0  0.21135071640E+02 -0.43337888328E+02 -0.17532681427E+02  0.51305651735E+02  0.10566000000E+00 0.  1.
         23    2    1    0    0    0  0.33133569383E+01 -0.26036823361E+02  0.16915314640E+02  0.93774651735E+02  0.88423203594E+02 0.  0.
         13    1    3    3    0    0 -0.17821714702E+02  0.17301064967E+02  0.34447996067E+02  0.42469000000E+02  0.10566000000E+00 0. -1.
         22    1    1    0    0    0 -0.33133569383E+01  0.26036823361E+02 -0.16915314640E+02  0.31225348265E+02  0.00000000000E+00 0.  1.
</event>
<event>
 5    1  0.1324057E-009  0.9118800E+02  0.7818608E-02  0.1130116E+00
         25   -1    0    0    0    0  0.00000000000E+00  0.00000000000E+00  0.99999998245E-14  0.12500000000E+03  0.12500000000E+03 0.  0.
        -13    1    3    3    0    0  0.25162670799E+02  0.25870891547E+02 -0.32619770758E+02  0.48646928367E+02  0.10566000000E+00 0. -1.
         23    2    1    0    0    0 -0.16371169405E+02  0.52004917974E+01 -0.23440227756E+02  0.95939639027E+02  0.91432542110E+02 0.  0.
         13    1    3    3    0    0 -0.41533840203E+02 -0.20670399750E+02  0.91795430019E+01  0.47292710660E+02  0.10566000000E+00 0.  1.
         22    1    1    0    0    0  0.16371169405E+02 -0.52004917974E+01  0.23440227756E+02  0.29060360973E+02  0.00000000000E+00 0. -1.
</event>
<event>
 5    1  0.1324057E-009  0.9118800E+02  0.7818608E-02  0.1130116E+00
         25   -1    0    0    0    0  0.00000000000E+00  0.00000000000E+00  0.99999998245E-14  0.12500000000E+03  0.12500000000E+03 0.  0.
        -13    1    3    3    0    0  0.39700661460E+02 -0.33394799440E+02 -0.13252260301E+02  0.53544268761E+02  0.10566000000E+00 0.  1.
         23    2    1    0    0    0  0.17766323176E+02 -0.11222719163E+01 -0.25012889488E+02  0.94299081871E+02  0.89161485338E+02 0.  0.
         13    1    3    3    0    0 -0.21934338284E+02  0.32272527524E+02 -0.11760629187E+02  0.40754813110E+02  0.10566000000E+00 0. -1.
         22    1    1    0    0    0 -0.17766323176E+02  0.11222719163E+01  0.25012889488E+02  0.30700918129E+02  0.00000000000E+00 0.  1.
</event>
<event>
 5    1  0.1324057E-009  0.9118800E+02  0.7818608E-02  0.1130116E+00
         25   -1    0    0    0    0  0.00000000000E+00  0.00000000000E+00  0.99999998245E-14  0.12500000000E+03  0.12500000000E+03 0.  0.
        -13    1    3    3    0    0 -0.12159057633E+02  0.26468129756E+02 -0.20281967458E+02  0.35493294343E+02  0.10566000000E+00 0.  1.
         23    2    1    0    0    0  0.22027432239E+02 -0.18187603316E+02  0.28259128092E+01  0.96294905180E+02  0.91916953252E+02 0.  0.
         13    1    3    3    0    0  0.34186489872E+02 -0.44655733072E+02  0.23107880267E+02  0.60801610837E+02  0.10566000000E+00 0. -1.
         22    1    1    0    0    0 -0.22027432239E+02  0.18187603316E+02 -0.28259128092E+01  0.28705094820E+02  0.00000000000E+00 0. -1.
</event>
<event>
 5    1  0.1324057E-009  0.9118800E+02  0.7818608E-02  0.1130116E+00
         25   -1    0    0    0    0  0.00000000000E+00  0.00000000000E+00  0.99999998245E-14  0.12500000000E+03  0.12500000000E+03 0.  0.
        -13    1    3    3    0    0 -0.29215745305E+02 -0.74722224961E+01 -0.24019429184E+02  0.38553054679E+02  0.10566000000E+00 0.  1.
         23    2    1    0    0    0  0.17602039294E+02  0.16372672305E+02  0.74938922743E+01  0.99819559037E+02  0.96591354474E+02 0.  0.
         13    1    3    3    0    0  0.46817784598E+02  0.23844894801E+02  0.31513321459E+02  0.61266504357E+02  0.10566000000E+00 0. -1.
         22    1    1    0    0    0 -0.17602039294E+02 -0.16372672305E+02 -0.74938922743E+01  0.25180440963E+02  0.00000000000E+00 0. -1.
</event>
<event>
 5    1  0.1324057E-009  0.9118800E+02  0.7818608E-02  0.1130116E+00
         25   -1    0    0    0    0  0.00000000000E+00  0.00000000000E+00  0.99999998245E-14  0.12500000000E+03  0.12500000000E+03 0.  0.
        -13    1    3    3    0    0 -0.31861782460E+02 -0.48625152294E+00 -0.44902215513E+02  0.55060237414E+02  0.10566000000E+00 0. -1.
         23    2    1    0    0    0 -0.50897771808E+01 -0.19906528091E+02 -0.16965418535E+02  0.98354153824E+02  0.94675965566E+02 0.  0.
         13    1    3    3    0    0  0.26772005279E+02 -0.19420276568E+02  0.27936796978E+02  0.43293916410E+02  0.10566000000E+00 0.  1.
         22    1    1    0    0    0  0.50897771808E+01  0.19906528091E+02  0.16965418535E+02  0.26645846176E+02  0.00000000000E+00 0. -1.
</event>
<event>
 5    1  0.1324057E-009  0.9118800E+02  0.7818608E-02  0.1130116E+00
         25   -1    0    0    0    0  0.00000000000E+00  0.00000000000E+00  0.99999998245E-14  0.12500000000E+03  0.12500000000E+03 0.  0.
        -13    1    3    3    0    0 -0.39186367978E+02 -0.22759911331E+01  0.18090504087E+02  0.43220701904E+02  0.10566000000E+00 0.  1.
         23    2    1    0    0    0 -0.43294366942E+01 -0.27930959624E+02 -0.10227363966E+02  0.94942030985E+02  0.90058357448E+02 0.  0.
         13    1    3    3    0    0  0.34856931284E+02 -0.25654968491E+02 -0.28317868053E+02  0.51721329081E+02  0.10566000000E+00 0. -1.
         22    1    1    0    0    0  0.43294366942E+01  0.27930959624E+02  0.10227363966E+02  0.30057969015E+02  0.00000000000E+00 0. -1.
</event>
<event>
 5    1  0.1324057E-009  0.9118800E+02  0.7818608E-02  0.1130116E+00
         25   -1    0    0    0    0  0.00000000000E+00  0.00000000000E+00  0.99999998245E-14  0.12500000000E+03  0.12500000000E+03 0.  0.
        -13    1    3    3    0    0 -0.20672753872E+02  0.44421268915E+02  0.19008249167E+02  0.52554130048E+02  0.10566000000E+00 0.  1.
         23    2    1    0    0    0 -0.46476136353E+01  0.57377136702E+01  0.28559586835E+02  0.95501327643E+02  0.90831337713E+02 0.  0.
         13    1    3    3    0    0  0.16025140236E+02 -0.38683555245E+02  0.95513376674E+01  0.42947197595E+02  0.10566000000E+00 0. -1.
         22    1    1    0    0    0  0.46476136353E+01 -0.57377136702E+01 -0.28559586835E+02  0.29498672357E+02  0.00000000000E+00 0.  1.
</event>
<event>
 5    1  0.1324057E-009  0.9118800E+02  0.7818608E-02  0.1130116E+00
         25   -1    0    0    0    0  0.00000000000E+00  0.00000000000E+00  0.99999998245E-14  0.12500000000E+03  0.12500000000E+03 0.  0.
        -13    1    3    3    0    0 -0.57604698537E+02  0.39580052909E+01 -0.12925580505E+02  0.59169661946E+02  0.10566000000E+00 0. -1.
         23    2    1    0    0    0 -0.22467965420E+02  0.14611125700E+02 -0.11277333243E+02  0.95922986580E+02  0.91409773247E+02 0.  0.
         13    1    3    3    0    0  0.35136733117E+02  0.10653120409E+02  0.16482472623E+01  0.36753324634E+02  0.10566000000E+00 0.  1.
         22    1    1    0    0    0  0.22467965420E+02 -0.14611125700E+02  0.11277333243E+02  0.29077013420E+02  0.00000000000E+00 0. -1.
</event>
<event>
 5    1  0.1324057E-009  0.9118800E+02  0.7818608E-02  0.1130116E+00
         25   -1    0    0    0    0  0.00000000000E+00  0.00000000000E+00  0.99999998245E-14  0.12500000000E+03  0.12500000000E+03 0.  0.
        -13    1    3    3    0    0  0.36306542573E+02  0.47280425655E+02  0.18136320178E+02  0.62310038978E+02  0.10566000000E+00 0. -1.
         23    2    1    0    0    0  0.14061421211E+02  0.23569789745E+02  0.95947680119E+01  0.95925644834E+02  0.91413408254E+02 0.  0.
         13    1    3    3    0    0 -0.22245121362E+02 -0.23710635910E+02 -0.85415521665E+01  0.33615605857E+02  0.10566000000E+00 0.  1.
         22    1    1    0    0    0 -0.14061421211E+02 -0.23569789745E+02 -0.95947680119E+01  0.29074355166E+02  0.00000000000E+00 0. -1.
</event>
<event>
 5    1  0.1324057E-009  0.9118800E+02  0.7818608E-02  0.1130116E+00
         25   -1    0    0    0    0  0.00000000000E+00  0.00000000000E+00  0.99999998245E-14  0.12500000000E+03  0.12500000000E+03 0.  0.
        -13    1    3    3    0    0 -0.22674267197E+02 -0.67472531670E+01 -0.50093974670E+02  0.55399145124E+02  0.10566000000E+00 0.  1.
         23    2    1    0    0    0  0.35107261978E+01  0.13701272869E+02 -0.21670754085E+02  0.99121985020E+02  0.95684357421E+02 0.  0.
         13    1    3    3    0    0  0.26184993395E+02  0.20448526036E+02  0.28423220585E+02  0.43722839896E+02  0.10566000000E+00 0. -1.
         22    1    1    0    0    0 -0.35107261978E+01 -0.13701272869E+02  0.21670754085E+02  0.25878014980E+02  0.00000000000E+00 0. -1.
</event>
<event>
 5    1  0.1324057E-009  0.9118800E+02  0.7818608E-02  0.1130116E+00
         25   -1    0    0    0    0  0.00000000000E+00  0.00000000000E+00  0.99999998245E-14  0.12500000000E+03  0.12500000000E+03 0.  0.
        -13    1    3    3    0    0  0.37486592256E+02 -0.28157377150E+02  0.38191924745E+02  0.60470792675E+02  0.10566000000E+00 0. -1.
         23    2    1    0    0    0  0.85297723795E+01 -0.18625982244E+02  0.91928164381E+01  0.10254577756E+03  0.10005720558E+03 0.  0.
         13    1    3    3    0    0 -0.28956819877E+02  0.95313949055E+01 -0.28999108307E+02  0.42074984883E+02  0.10566000000E+00 0.  1.
         22    1    1    0    0    0 -0.85297723795E+01  0.18625982244E+02 -0.91928164381E+01  0.22454222442E+02  0.00000000000E+00 0. -1.
</event>
<event>
 5    1  0.1324057E-009  0.9118800E+02  0.7818608E-02  0.1130116E+00
         25   -1    0    0    0    0  0.00000000000E+00  0.00000000000E+00  0.99999998245E-14  0.12500000000E+03  0.12500000000E+03 0.  0.
        -13    1    3    3    0    0 -0.36584566153E+02  0.24065802761E+02 -0.20940517877E+02  0.48539775403E+02  0.10566000000E+00 0.  1.
         23    2    1    0    0    0  0.10508877295E+02  0.23114770819E+02 -0.13550146111E+02  0.96219180143E+02  0.91813915263E+02 0.  0.
         13    1    3    3    0    0  0.47093443448E+02 -0.95103194187E+00  0.73903717666E+01  0.47679404741E+02  0.10566000000E+00 0. -1.
         22    1    1    0    0    0 -0.10508877295E+02 -0.23114770819E+02  0.13550146111E+02  0.28780819857E+02  0.00000000000E+00 0.  1.
</event>
<event>
 5    1  0.1324057E-009  0.9118800E+02  0.7818608E-02  0.1130116E+00
         25   -1    0    0    0    0  0.00000000000E+00  0.00000000000E+00  0.99999998245E-14  0.12500000000E+03  0.12500000000E+03 0.  0.
        -13    1    3    3    0    0 -0.23527624583E+02  0.55394987488E+02 -0.10403538094E+02  0.61076988516E+02  0.10566000000E+00 0. -1.
         23    2    1    0    0    0 -0.43183420211E+01  0.29774313707E+02  0.51564123189E+00  0.94909740439E+02  0.90013527371E+02 0.  0.
         13    1    3    3    0    0  0.19209282562E+02 -0.25620673780E+02  0.10919179326E+02  0.33832751923E+02  0.10566000000E+00 0.  1.
         22    1    1    0    0    0  0.43183420211E+01 -0.29774313707E+02 -0.51564123189E+00  0.30090259561E+02  0.00000000000E+00 0. -1.
</event>
<event>
 5    1  0.1324057E-009  0.9118800E+02  0.7818608E-02  0.1130116E+00
         25   -1    0    0    0    0  0.00000000000E+00  0.00000000000E+00  0.99999998245E-14  0.12500000000E+03  0.12500000000E+03 0.  0.
        -13    1    3    3    0    0  0.14676862183E+02 -0.25671693275E+02 -0.29117725883E+02  0.41500593294E+02  0.10566000000E+00 0. -1.
         23    2    1    0    0    0  0.39154154596E+01  0.25584282447E+02 -0.99251275883E+01  0.97280076764E+02  0.93247086769E+02 0.  0.
         13    1    3    3    0    0 -0.10761446724E+02  0.51255975722E+02  0.19192598295E+02  0.55779483470E+02  0.10566000000E+00 0.  1.
         22    1    1    0    0    0 -0.39154154596E+01 -0.25584282447E+02  0.99251275883E+01  0.27719923236E+02  0.00000000000E+00 0.  1.
</event>
<event>
 5    1  0.1324057E-009  0.9118800E+02  0.7818608E-02  0.1130116E+00
         25   -1    0    0    0    0  0.00000000000E+00  0.00000000000E+00  0.99999998245E-14  0.12500000000E+03  0.12500000000E+03 0.  0.
        -13    1    3    3    0    0 -0.16878881383E+01  0.31779669613E+02 -0.32832266943E+02  0.45724886919E+02  0.10566000000E+00 0.  1.
         23    2    1    0    0    0 -0.27519848396E+02 -0.39479262610E+01 -0.94059299081E+01  0.95650388505E+02  0.91036240729E+02 0.  0.
         13    1    3    3    0    0 -0.25831960258E+02 -0.35727595874E+02  0.23426337035E+02  0.49925501586E+02  0.10566000000E+00 0. -1.
         22    1    1    0    0    0  0.27519848396E+02  0.39479262610E+01  0.94059299081E+01  0.29349611495E+02  0.00000000000E+00 0. -1.
</event>
<event>
 5    1  0.1324057E-009  0.9118800E+02  0.7818608E-02  0.1130116E+00
         25   -1    0    0    0    0  0.00000000000E+00  0.00000000000E+00  0.99999998245E-14  0.12500000000E+03  0.12500000000E+03 0.  0.
        -13    1    3    3    0    0  0.51861579910E+02 -0.26713190343E+02 -0.14970144880E+02  0.60227356000E+02  0.10566000000E+00 0.  1.
         23    2    1    0    0    0  0.28417031377E+02 -0.42408003181E+01  0.64277637654E+00  0.96261085249E+02  0.91870949229E+02 0.  0.
         13    1    3    3    0    0 -0.23444548533E+02  0.22472390025E+02  0.15612921256E+02  0.36033729248E+02  0.10566000000E+00 0. -1.
         22    1    1    0    0    0 -0.28417031377E+02  0.42408003181E+01 -0.64277637654E+00  0.28738914751E+02  0.00000000000E+00 0.  1.
</event>
<event>
 5    1  0.1324057E-009  0.9118800E+02  0.7818608E-02  0.1130116E+00
         25   -1    0    0    0    0  0.00000000000E+00  0.00000000000E+00  0.99999998245E-14  0.12500000000E+03  0.12500000000E+03 0.  0.
        -13    1    3    3    0    0 -0.10116857376E+02  0.45571630207E+02  0.14994961791E+02  0.49030442850E+02  0.10566000000E+00 0.  1.
         23    2    1    0    0    0  0.18809128810E+02  0.77216225428E+01  0.19433040158E+02  0.96874391899E+02  0.92701661122E+02 0.  0.
         13    1    3    3    0    0  0.28925986186E+02 -0.37850007664E+02  0.44380783663E+01  0.47843949049E+02  0.10566000000E+00 0. -1.
         22    1    1    0    0    0 -0.18809128810E+02 -0.77216225428E+01 -0.19433040158E+02  0.28125608101E+02  0.00000000000E+00 0.  1.
</event>
<event>
 5    1  0.1324057E-009  0.9118800E+02  0.7818608E-02  0.1130116E+00
         25   -1    0    0    0    0  0.00000000000E+00  0.00000000000E+00  0.99999998245E-14  0.12500000000E+03  0.12500000000E+03 0.  0.
        -13    1    3    3    0    0 -0.28707846177E+02 -0.28762740148E+02  0.10970007641E+02  0.42092610808E+02  0.10566000000E+00 0. -1.
         23    2    1    0    0    0 -0.68101136376E+01  0.80547385525E-01 -0.28522650086E+02  0.95675510174E+02  0.91070728247E+02 0.  0.
         13    1    3    3    0    0  0.21897732540E+02  0.28843287533E+02 -0.39492657727E+02  0.53582899366E+02  0.10566000000E+00 0.  1.
         22    1    1    0    0    0  0.68101136376E+01 -0.80547385525E-01  0.28522650086E+02  0.29324489826E+02  0.00000000000E+00 0.  1.
</event>
<event>
 5    1  0.1324057E-009  0.9118800E+02  0.7818608E-02  0.1130116E+00
         25   -1    0    0    0    0  0.00000000000E+00  0.00000000000E+00  0.99999998245E-14  0.12500000000E+03  0.12500000000E+03 0.  0.
        -13    1    3    3    0    0  0.12858314683E+02 -0.44296219720E+02  0.35689003907E+02  0.58319872272E+02  0.10566000000E+00 0.  1.
         23    2    1    0    0    0 -0.10364767966E+02 -0.18961992514E+02  0.17429754386E+02  0.97237040629E+02  0.93189377921E+02 0.  0.
         13    1    3    3    0    0 -0.23223082649E+02  0.25334227206E+02 -0.18259249521E+02  0.38917168357E+02  0.10566000000E+00 0. -1.
         22    1    1    0    0    0  0.10364767966E+02  0.18961992514E+02 -0.17429754386E+02  0.27762959371E+02  0.00000000000E+00 0.  1.
</event>
<event>
 5    1  0.1324057E-009  0.9118800E+02  0.7818608E-02  0.1130116E+00
         25   -1    0    0    0    0  0.00000000000E+00  0.00000000000E+00  0.99999998245E-14  0.12500000000E+03  0.12500000000E+03 0.  0.
        -13    1    3    3    0    0  0.26529205978E+02 -0.19329518796E+02  0.10593451355E+02  0.34491469124E+02  0.10566000000E+00 0.  1.
         23    2    1    0    0    0 -0.35990823817E+01  0.30362257724E+02 -0.33189256697E+01  0.94245563642E+02  0.89086423829E+02 0.  0.
         13    1    3    3    0    0 -0.30128288359E+02  0.49691776520E+02 -0.13912377024E+02  0.59754094518E+02  0.10566000000E+00 0. -1.
         22    1    1    0    0    0  0.35990823817E+01 -0.30362257724E+02  0.33189256697E+01  0.30754436358E+02  0.00000000000E+00 0. -1.
</event>
<event>
 5    1  0.1324057E-009  0.9118800E+02  0.7818608E-02  0.1130116E+00
         25   -1    0    0    0    0  0.00000000000E+00  0.00000000000E+00  0.99999998245E-14  0.12500000000E+03  0.12500000000E+03 0.  0.
        -13    1    3    3    0    0 -0.28690004664E+01 -0.46905879674E+02 -0.33322045376E+02  0.57608702327E+02  0.10566000000E+00 0.  1.
         23    2    1    0    0    0  0.15123800388E+02 -0.21260963845E+02 -0.85614178418E+01  0.97539923575E+02  0.93594769585E+02 0.  0.
         13    1    3    3    0    0  0.17992800854E+02  0.25644915829E+02  0.24760627534E+02  0.39931221248E+02  0.10566000000E+00 0. -1.
         22    1    1    0    0    0 -0.15123800388E+02  0.21260963845E+02  0.85614178418E+01  0.27460076425E+02  0.00000000000E+00 0.  1.
</event>
<event>
 5    1  0.1324057E-009  0.9118800E+02  0.7818608E-02  0.1130116E+00
         25   -1    0    0    0    0  0.00000000000E+00  0.00000000000E+00  0.99999998245E-14  0.12500000000E+03  0.12500000000E+03 0.  0.
        -13    1    3    3    0    0  0.52052176111E+02  0.18830426137E+02  0.24982024467E+02  0.60729948929E+02  0.10566000000E+00 0.  1.
         23    2    1    0    0    0  0.26920185439E+02 -0.12503427887E+01  0.13227796522E+02  0.94979434682E+02  0.90110258409E+02 0.  0.
         13    1    3    3    0    0 -0.25131990671E+02 -0.20080768926E+02 -0.11754227945E+02  0.34249485754E+02  0.10566000000E+00 0. -1.
         22    1    1    0    0    0 -0.26920185439E+02  0.12503427887E+01 -0.13227796522E+02  0.30020565318E+02  0.00000000000E+00 0.  1.
</event>
<event>
 5    1  0.1324057E-009  0.9118800E+02  0.7818608E-02  0.1130116E+00
         25   -1    0    0    0    0  0.00000000000E+00  0.00000000000E+00  0.99999998245E-14  0.12500000000E+03  0.12500000000E+03 0.  0.
        -13    1    3    3    0    0  0.42794902519E+02  0.21756906520E+01 -0.73661536807E+01  0.43478830430E+02  0.10566000000E+00 0.  1.
         23    2    1    0    0    0  0.57101375964E+01 -0.30815514341E+02  0.11475237107E-01  0.93659902247E+02  0.88260838212E+02 0.  0.
         13    1    3    3    0    0 -0.37084764923E+02 -0.32991204993E+02  0.73776289178E+01  0.50181071818E+02  0.10566000000E+00 0. -1.
         22    1    1    0    0    0 -0.57101375964E+01  0.30815514341E+02 -0.11475237107E-01  0.31340097753E+02  0.00000000000E+00 0. -1.
</event>
<event>
 5    1  0.1324057E-009  0.9118800E+02  0.7818608E-02  0.1130116E+00
         25   -1    0    0    0    0  0.00000000000E+00  0.00000000000E+00  0.99999998245E-14  0.12500000000E+03  0.12500000000E+03 0.  0.
        -13    1    3    3    0    0 -0.33311807817E+02  0.29013257207E+02  0.23792991866E+02  0.50175325208E+02  0.10566000000E+00 0.  1.
         23    2    1    0    0    0 -0.51222708532E+01 -0.67168129412E+01  0.27878518026E+02  0.95869860932E+02  0.91337096697E+02 0.  0.
         13    1    3    3    0    0  0.28189536964E+02 -0.35730070148E+02  0.40855261603E+01  0.45694535724E+02  0.10566000000E+00 0. -1.
         22    1    1    0    0    0  0.51222708532E+01  0.67168129412E+01 -0.27878518026E+02  0.29130139068E+02  0.00000000000E+00 0.  1.
</event>
<event>
 5    1  0.1324057E-009  0.9118800E+02  0.7818608E-02  0.1130116E+00
         25   -1    0    0    0    0  0.00000000000E+00  0.00000000000E+00  0.99999998245E-14  0.12500000000E+03  0.12500000000E+03 0.  0.
        -13    1    3    3    0    0  0.11712386563E+01 -0.22138735824E+02 -0.65806661903E+00  0.22179712343E+02  0.10566000000E+00 0. -1.
         23    2    1    0    0    0 -0.26527947905E+02  0.57721474208E+01 -0.39249720577E+02  0.77275894233E+02  0.60778068070E+02 0.  0.
         13    1    3    3    0    0 -0.27699186561E+02  0.27910883245E+02 -0.38591653957E+02  0.55096181890E+02  0.10566000000E+00 0.  1.
         22    1    1    0    0    0  0.26527947905E+02 -0.57721474208E+01  0.39249720577E+02  0.47724105767E+02  0.00000000000E+00 0.  1.
</event>
<event>
 5    1  0.1324057E-009  0.9118800E+02  0.7818608E-02  0.1130116E+00
         25   -1    0    0    0    0  0.00000000000E+00  0.00000000000E+00  0.99999998245E-14  0.12500000000E+03  0.12500000000E+03 0.  0.
        -13    1    3    3    0    0  0.34087714900E+02  0.20071263728E+02  0.44555592305E+02  0.59582211309E+02  0.10566000000E+00 0.  1.
         23    2    1    0    0    0  0.25992996588E+02  0.99877028209E+01  0.11875584517E+02  0.94727577122E+02  0.89760204325E+02 0.  0.
         13    1    3    3    0    0 -0.80947183120E+01 -0.10083560907E+02 -0.32680007788E+02  0.35145365814E+02  0.10566000000E+00 0. -1.
         22    1    1    0    0    0 -0.25992996588E+02 -0.99877028209E+01 -0.11875584517E+02  0.30272422878E+02  0.00000000000E+00 0.  1.
</event>
<event>
 5    1  0.1324057E-009  0.9118800E+02  0.7818608E-02  0.1130116E+00
         25   -1    0    0    0    0  0.00000000000E+00  0.00000000000E+00  0.99999998245E-14  0.12500000000E+03  0.12500000000E+03 0.  0.
        -13    1    3    3    0    0 -0.56218171121E+01 -0.13361218815E+02  0.33313916186E+02  0.36331187313E+02  0.10566000000E+00 0.  1.
         23    2    1    0    0    0  0.16705694777E+02 -0.54187693621E+01 -0.22200721295E+02  0.96692486414E+02  0.92456052282E+02 0.  0.
         13    1    3    3    0    0  0.22327511889E+02  0.79424494528E+01 -0.55514637481E+02  0.60361299101E+02  0.10566000000E+00 0. -1.
         22    1    1    0    0    0 -0.16705694777E+02  0.54187693621E+01  0.22200721295E+02  0.28307513586E+02  0.00000000000E+00 0. -1.
</event>
<event>
 5    1  0.1324057E-009  0.9118800E+02  0.7818608E-02  0.1130116E+00
         25   -1    0    0    0    0  0.00000000000E+00  0.00000000000E+00  0.99999998245E-14  0.12500000000E+03  0.12500000000E+03 0.  0.
        -13    1    3    3    0    0 -0.47608574116E+02  0.17484485786E+02 -0.10803645739E+02  0.51855698798E+02  0.10566000000E+00 0. -1.
         23    2    1    0    0    0 -0.22039545952E+02 -0.16166976410E+02  0.54349897790E+01  0.97131526308E+02  0.93047738162E+02 0.  0.
         13    1    3    3    0    0  0.25569028164E+02 -0.33651462197E+02  0.16238635518E+02  0.45275827510E+02  0.10566000000E+00 0.  1.
         22    1    1    0    0    0  0.22039545952E+02  0.16166976410E+02 -0.54349897790E+01  0.27868473692E+02  0.00000000000E+00 0. -1.
</event>
<event>
 5    1  0.1324057E-009  0.9118800E+02  0.7818608E-02  0.1130116E+00
         25   -1    0    0    0    0  0.00000000000E+00  0.00000000000E+00  0.99999998245E-14  0.12500000000E+03  0.12500000000E+03 0.  0.
        -13    1    3    3    0    0 -0.29136376717E+02 -0.71904622163E+01 -0.36313657348E+02  0.47109702494E+02  0.10566000000E+00 0. -1.
         23    2    1    0    0    0 -0.18319318447E+02 -0.20621445337E+02  0.93130861631E+01  0.95886858465E+02  0.91360355824E+02 0.  0.
         13    1    3    3    0    0  0.10817058270E+02 -0.13430983120E+02  0.45626743511E+02  0.48777155971E+02  0.10566000000E+00 0.  1.
         22    1    1    0    0    0  0.18319318447E+02  0.20621445337E+02 -0.93130861631E+01  0.29113141535E+02  0.00000000000E+00 0. -1.
</event>
<event>
 5    1  0.1324057E-009  0.9118800E+02  0.7818608E-02  0.1130116E+00
         25   -1    0    0    0    0  0.00000000000E+00  0.00000000000E+00  0.99999998245E-14  0.12500000000E+03  0.12500000000E+03 0.  0.
        -13    1    3    3    0    0  0.51889537630E+01 -0.36438678049E+02  0.34846123515E+02  0.50684968059E+02  0.10566000000E+00 0. -1.
         23    2    1    0    0    0  0.25657503746E+02 -0.12802069728E+02  0.16642663889E+01  0.96277704298E+02  0.91893558395E+02 0.  0.
         13    1    3    3    0    0  0.20468549983E+02  0.23636608320E+02 -0.33181857127E+02  0.45592736238E+02  0.10566000000E+00 0.  1.
         22    1    1    0    0    0 -0.25657503746E+02  0.12802069728E+02 -0.16642663889E+01  0.28722295702E+02  0.00000000000E+00 0. -1.
</event>
<event>
 5    1  0.1324057E-009  0.9118800E+02  0.7818608E-02  0.1130116E+00
         25   -1    0    0    0    0  0.00000000000E+00  0.00000000000E+00  0.99999998245E-14  0.12500000000E+03  0.12500000000E+03 0.  0.
        -13    1    3    3    0    0 -0.10819317544E+01 -0.17972686315E+02 -0.56593821306E+02  0.59389054579E+02  0.10566000000E+00 0. -1.
         23    2    1    0    0    0 -0.29541643916E+01  0.42883750736E+01 -0.31855984871E+02  0.92721198596E+02  0.86921226688E+02 0.  0.
         13    1    3    3    0    0 -0.18722326371E+01  0.22261061388E+02  0.24737836436E+02  0.33332144017E+02  0.10566000000E+00 0.  1.
         22    1    1    0    0    0  0.29541643916E+01 -0.42883750736E+01  0.31855984871E+02  0.32278801404E+02  0.00000000000E+00 0. -1.
</event>
<event>
 5    1  0.1324057E-009  0.9118800E+02  0.7818608E-02  0.1130116E+00
         25   -1    0    0    0    0  0.00000000000E+00  0.00000000000E+00  0.99999998245E-14  0.12500000000E+03  0.12500000000E+03 0.  0.
        -13    1    3    3    0    0 -0.32065930027E+02  0.20893107303E+02  0.18216324246E+02  0.42386217504E+02  0.10566000000E+00 0.  1.
         23    2    1    0    0    0  0.18308442872E+02  0.72247098662E+01  0.22914187295E+02  0.94793121770E+02  0.89851435394E+02 0.  0.
         13    1    3    3    0    0  0.50374372899E+02 -0.13668397437E+02  0.46978630488E+01  0.52406904265E+02  0.10566000000E+00 0. -1.
         22    1    1    0    0    0 -0.18308442872E+02 -0.72247098662E+01 -0.22914187295E+02  0.30206878230E+02  0.00000000000E+00 0. -1.
</event>
<event>
 5    1  0.1324057E-009  0.9118800E+02  0.7818608E-02  0.1130116E+00
         25   -1    0    0    0    0  0.00000000000E+00  0.00000000000E+00  0.99999998245E-14  0.12500000000E+03  0.12500000000E+03 0.  0.
        -13    1    3    3    0    0 -0.80687321515E+00 -0.31598598771E+02 -0.16762831574E+02  0.35778850947E+02  0.10566000000E+00 0. -1.
         23    2    1    0    0    0  0.17878111632E+02  0.23451830236E+02 -0.50733418439E+01  0.95077533283E+02  0.90246237156E+02 0.  0.
         13    1    3    3    0    0  0.18684984848E+02  0.55050429007E+02  0.11689489731E+02  0.59298682336E+02  0.10566000000E+00 0.  1.
         22    1    1    0    0    0 -0.17878111632E+02 -0.23451830236E+02  0.50733418439E+01  0.29922466717E+02  0.00000000000E+00 0.  1.
</event>
<event>
 5    1  0.1324057E-009  0.9118800E+02  0.7818608E-02  0.1130116E+00
         25   -1    0    0    0    0  0.00000000000E+00  0.00000000000E+00  0.99999998245E-14  0.12500000000E+03  0.12500000000E+03 0.  0.
        -13    1    3    3    0    0  0.22975691768E+02 -0.24301509964E+02  0.15719740919E+00  0.33443709032E+02  0.10566000000E+00 0. -1.
         23    2    1    0    0    0 -0.95095444031E+01  0.27610652566E+02 -0.66212311095E+01  0.95056381794E+02  0.90216935486E+02 0.  0.
         13    1    3    3    0    0 -0.32485236171E+02  0.51912162530E+02 -0.67784285187E+01  0.61612672762E+02  0.10566000000E+00 0.  1.
         22    1    1    0    0    0  0.95095444031E+01 -0.27610652566E+02  0.66212311095E+01  0.29943618206E+02  0.00000000000E+00 0.  1.
</event>
<event>
 5    1  0.1324057E-009  0.9118800E+02  0.7818608E-02  0.1130116E+00
         25   -1    0    0    0    0  0.00000000000E+00  0.00000000000E+00  0.99999998245E-14  0.12500000000E+03  0.12500000000E+03 0.  0.
        -13    1    3    3    0    0 -0.49582705844E+02 -0.23842115323E+02  0.26027522421E+02  0.60863242350E+02  0.10566000000E+00 0.  1.
         23    2    1    0    0    0 -0.19523731999E+02 -0.16993870265E+02  0.38712852005E+01  0.98828362931E+02  0.95300003845E+02 0.  0.
         13    1    3    3    0    0  0.30058973845E+02  0.68482450586E+01 -0.22156237220E+02  0.37965120582E+02  0.10566000000E+00 0. -1.
         22    1    1    0    0    0  0.19523731999E+02  0.16993870265E+02 -0.38712852005E+01  0.26171637069E+02  0.00000000000E+00 0.  1.
</event>
<event>
 5    1  0.1324057E-009  0.9118800E+02  0.7818608E-02  0.1130116E+00
         25   -1    0    0    0    0  0.00000000000E+00  0.00000000000E+00  0.99999998245E-14  0.12500000000E+03  0.12500000000E+03 0.  0.
        -13    1    3    3    0    0  0.14679346800E+02 -0.13584760380E+02  0.47073077605E+02  0.51146013884E+02  0.10566000000E+00 0.  1.
         23    2    1    0    0    0  0.46618640140E+01  0.20565301268E+02  0.20783528809E+02  0.95392236455E+02  0.90681084653E+02 0.  0.
         13    1    3    3    0    0 -0.10017482786E+02  0.34150061648E+02 -0.26289548795E+02  0.44246222571E+02  0.10566000000E+00 0. -1.
         22    1    1    0    0    0 -0.46618640140E+01 -0.20565301268E+02 -0.20783528809E+02  0.29607763545E+02  0.00000000000E+00 0.  1.
</event>
<event>
 5    1  0.1324057E-009  0.9118800E+02  0.7818608E-02  0.1130116E+00
         25   -1    0    0    0    0  0.00000000000E+00  0.00000000000E+00  0.99999998245E-14  0.12500000000E+03  0.12500000000E+03 0.  0.
        -13    1    3    3    0    0  0.45141159901E+01  0.16066453005E+02 -0.25236118477E+02  0.30255263925E+02  0.10566000000E+00 0. -1.
         23    2    1    0    0    0  0.30478240397E+02 -0.16357921845E+02  0.14270707971E+02  0.87581316822E+02  0.79185410307E+02 0.  0.
         13    1    3    3    0    0  0.25964124407E+02 -0.32424374850E+02  0.39506826448E+02  0.57326052897E+02  0.10566000000E+00 0.  1.
         22    1    1    0    0    0 -0.30478240397E+02  0.16357921845E+02 -0.14270707971E+02  0.37418683178E+02  0.00000000000E+00 0.  1.
</event>
<event>
 5    1  0.1324057E-009  0.9118800E+02  0.7818608E-02  0.1130116E+00
         25   -1    0    0    0    0  0.00000000000E+00  0.00000000000E+00  0.99999998245E-14  0.12500000000E+03  0.12500000000E+03 0.  0.
        -13    1    3    3    0    0 -0.33986757652E+02 -0.42067311944E+02  0.13902117194E+02  0.55839398782E+02  0.10566000000E+00 0. -1.
         23    2    1    0    0    0 -0.13440089537E+02 -0.18961430476E+02 -0.14318495666E+02  0.97701810123E+02  0.93810727162E+02 0.  0.
         13    1    3    3    0    0  0.20546668115E+02  0.23105881468E+02 -0.28220612860E+02  0.41862411341E+02  0.10566000000E+00 0.  1.
         22    1    1    0    0    0  0.13440089537E+02  0.18961430476E+02  0.14318495666E+02  0.27298189877E+02  0.00000000000E+00 0. -1.
</event>
<event>
 5    1  0.1324057E-009  0.9118800E+02  0.7818608E-02  0.1130116E+00
         25   -1    0    0    0    0  0.00000000000E+00  0.00000000000E+00  0.99999998245E-14  0.12500000000E+03  0.12500000000E+03 0.  0.
        -13    1    3    3    0    0  0.73822834949E+01  0.52460214754E+02 -0.16573151279E+02  0.55509033039E+02  0.10566000000E+00 0.  1.
         23    2    1    0    0    0 -0.16486552427E+02  0.16716508583E+02 -0.11707353768E+02  0.98764333391E+02  0.95215982628E+02 0.  0.
         13    1    3    3    0    0 -0.23868835922E+02 -0.35743706170E+02  0.48657975110E+01  0.43255300352E+02  0.10566000000E+00 0. -1.
         22    1    1    0    0    0  0.16486552427E+02 -0.16716508583E+02  0.11707353768E+02  0.26235666609E+02  0.00000000000E+00 0.  1.
</event>
<event>
 5    1  0.1324057E-009  0.9118800E+02  0.7818608E-02  0.1130116E+00
         25   -1    0    0    0    0  0.00000000000E+00  0.00000000000E+00  0.99999998245E-14  0.12500000000E+03  0.12500000000E+03 0.  0.
        -13    1    3    3    0    0  0.71900570565E+01  0.30827333529E+02 -0.49915205018E+02  0.59106347113E+02  0.10566000000E+00 0. -1.
         23    2    1    0    0    0  0.93116635462E+01  0.20833052601E+02 -0.10397667713E+02  0.99923424226E+02  0.96725674237E+02 0.  0.
         13    1    3    3    0    0  0.21216064898E+01 -0.99942809283E+01  0.39517537305E+02  0.40817077113E+02  0.10566000000E+00 0.  1.
         22    1    1    0    0    0 -0.93116635462E+01 -0.20833052601E+02  0.10397667713E+02  0.25076575774E+02  0.00000000000E+00 0. -1.
</event>
<event>
 5    1  0.1324057E-009  0.9118800E+02  0.7818608E-02  0.1130116E+00
         25   -1    0    0    0    0  0.00000000000E+00  0.00000000000E+00  0.99999998245E-14  0.12500000000E+03  0.12500000000E+03 0.  0.
        -13    1    3    3    0    0  0.28224975563E+01 -0.94237776005E+01  0.46040053514E+02  0.47079419796E+02  0.10566000000E+00 0.  1.
         23    2    1    0    0    0 -0.16098392881E+02  0.20763873069E+02  0.12927686860E+02  0.95718234928E+02  0.91129351649E+02 0.  0.
         13    1    3    3    0    0 -0.18920890437E+02  0.30187650670E+02 -0.33112366654E+02  0.48638815131E+02  0.10566000000E+00 0. -1.
         22    1    1    0    0    0  0.16098392881E+02 -0.20763873069E+02 -0.12927686860E+02  0.29281765072E+02  0.00000000000E+00 0. -1.
</event>
<event>
 5    1  0.1324057E-009  0.9118800E+02  0.7818608E-02  0.1130116E+00
         25   -1    0    0    0    0  0.00000000000E+00  0.00000000000E+00  0.99999998245E-14  0.12500000000E+03  0.12500000000E+03 0.  0.
        -13    1    3    3    0    0 -0.13403302799E+02 -0.72347693192E+00 -0.58012448101E+02  0.59545169775E+02  0.10566000000E+00 0.  1.
         23    2    1    0    0    0  0.39254157908E+01  0.86637223377E+01 -0.27804241921E+02  0.95613866490E+02  0.90986079278E+02 0.  0.
         13    1    3    3    0    0  0.17328718589E+02  0.93871992696E+01  0.30208206180E+02  0.36068696715E+02  0.10566000000E+00 0. -1.
         22    1    1    0    0    0 -0.39254157908E+01 -0.86637223377E+01  0.27804241921E+02  0.29386133510E+02  0.00000000000E+00 0.  1.
</event>
<event>
 5    1  0.1324057E-009  0.9118800E+02  0.7818608E-02  0.1130116E+00
         25   -1    0    0    0    0  0.00000000000E+00  0.00000000000E+00  0.99999998245E-14  0.12500000000E+03  0.12500000000E+03 0.  0.
        -13    1    3    3    0    0 -0.15455337751E+02 -0.10678757542E+02  0.28143335874E+02  0.33837284847E+02  0.10566000000E+00 0. -1.
         23    2    1    0    0    0  0.19344691945E+02  0.14727815287E+02 -0.16292242930E+02  0.95732905350E+02  0.91149472502E+02 0.  0.
         13    1    3    3    0    0  0.34800029696E+02  0.25406572829E+02 -0.44435578805E+02  0.61895620503E+02  0.10566000000E+00 0.  1.
         22    1    1    0    0    0 -0.19344691945E+02 -0.14727815287E+02  0.16292242930E+02  0.29267094650E+02  0.00000000000E+00 0.  1.
</event>
<event>
 5    1  0.1324057E-009  0.9118800E+02  0.7818608E-02  0.1130116E+00
         25   -1    0    0    0    0  0.00000000000E+00  0.00000000000E+00  0.99999998245E-14  0.12500000000E+03  0.12500000000E+03 0.  0.
        -13    1    3    3    0    0 -0.48299983153E+02 -0.43266706451E+01  0.90227548882E+01  0.49325751097E+02  0.10566000000E+00 0.  1.
         23    2    1    0    0    0 -0.15972134067E+02  0.26182233927E+01 -0.23996821716E+02  0.96055024394E+02  0.91590152847E+02 0.  0.
         13    1    3    3    0    0  0.32327849086E+02  0.69448940378E+01 -0.33019576604E+02  0.46729273297E+02  0.10566000000E+00 0. -1.
         22    1    1    0    0    0  0.15972134067E+02 -0.26182233927E+01  0.23996821716E+02  0.28944975606E+02  0.00000000000E+00 0.  1.
</event>
<event>
 5    1  0.1324057E-009  0.9118800E+02  0.7818608E-02  0.1130116E+00
         25   -1    0    0    0    0  0.00000000000E+00  0.00000000000E+00  0.99999998245E-14  0.12500000000E+03  0.12500000000E+03 0.  0.
        -13    1    3    3    0    0 -0.35563008259E+02 -0.29720173852E+02  0.17989164006E+02  0.49715565730E+02  0.10566000000E+00 0.  1.
         23    2    1    0    0    0 -0.28634964251E+02  0.41677806491E+01 -0.10180992061E+02  0.94324534681E+02  0.89197161784E+02 0.  0.
         13    1    3    3    0    0  0.69280440080E+01  0.33887954501E+02 -0.28170156067E+02  0.44608968951E+02  0.10566000000E+00 0. -1.
         22    1    1    0    0    0  0.28634964251E+02 -0.41677806491E+01  0.10180992061E+02  0.30675465319E+02  0.00000000000E+00 0. -1.
</event>
<event>
 5    1  0.1324057E-009  0.9118800E+02  0.7818608E-02  0.1130116E+00
         25   -1    0    0    0    0  0.00000000000E+00  0.00000000000E+00  0.99999998245E-14  0.12500000000E+03  0.12500000000E+03 0.  0.
        -13    1    3    3    0    0  0.18449115005E+02 -0.11224513646E+02 -0.30882504857E+02  0.37684211831E+02  0.10566000000E+00 0.  1.
         23    2    1    0    0    0  0.60405148695E+01  0.28783682006E+02  0.76616190590E+01  0.94607754668E+02  0.89593184267E+02 0.  0.
         13    1    3    3    0    0 -0.12408600135E+02  0.40008195651E+02  0.38544123916E+02  0.56923542837E+02  0.10566000000E+00 0. -1.
         22    1    1    0    0    0 -0.60405148695E+01 -0.28783682006E+02 -0.76616190590E+01  0.30392245332E+02  0.00000000000E+00 0. -1.
</event>
<event>
 5    1  0.1324057E-009  0.9118800E+02  0.7818608E-02  0.1130116E+00
         25   -1    0    0    0    0  0.00000000000E+00  0.00000000000E+00  0.99999998245E-14  0.12500000000E+03  0.12500000000E+03 0.  0.
        -13    1    3    3    0    0  0.16739944439E+02 -0.36579109066E+01 -0.30556218092E+02  0.35032837170E+02  0.10566000000E+00 0. -1.
         23    2    1    0    0    0 -0.16065017348E+02 -0.12223924056E+02  0.20440303933E+02  0.96271701641E+02  0.91885392802E+02 0.  0.
         13    1    3    3    0    0 -0.32804961787E+02 -0.85660131496E+01  0.50996522025E+02  0.61238864472E+02  0.10566000000E+00 0.  1.
         22    1    1    0    0    0  0.16065017348E+02  0.12223924056E+02 -0.20440303933E+02  0.28728298359E+02  0.00000000000E+00 0.  1.
</event>
<event>
 5    1  0.1324057E-009  0.9118800E+02  0.7818608E-02  0.1130116E+00
         25   -1    0    0    0    0  0.00000000000E+00  0.00000000000E+00  0.99999998245E-14  0.12500000000E+03  0.12500000000E+03 0.  0.
        -13    1    3    3    0    0  0.20452473141E+02 -0.12391523030E+02 -0.30673228299E+02  0.38893593288E+02  0.10566000000E+00 0.  1.
         23    2    1    0    0    0  0.18134045908E+02  0.68498853452E+01  0.22389480787E+02  0.95384912627E+02  0.90670988506E+02 0.  0.
         13    1    3    3    0    0 -0.23184272332E+01  0.19241408375E+02  0.53062709085E+02  0.56491319338E+02  0.10566000000E+00 0. -1.
         22    1    1    0    0    0 -0.18134045908E+02 -0.68498853452E+01 -0.22389480787E+02  0.29615087373E+02  0.00000000000E+00 0. -1.
</event>
<event>
 5    1  0.1324057E-009  0.9118800E+02  0.7818608E-02  0.1130116E+00
         25   -1    0    0    0    0  0.00000000000E+00  0.00000000000E+00  0.99999998245E-14  0.12500000000E+03  0.12500000000E+03 0.  0.
        -13    1    3    3    0    0  0.59682046264E+00 -0.37196478470E+02 -0.10570050601E+02  0.38673910314E+02  0.10566000000E+00 0.  1.
         23    2    1    0    0    0 -0.71169737385E+01  0.67719920117E+01  0.26524407686E+02  0.96714749531E+02  0.92486146978E+02 0.  0.
         13    1    3    3    0    0 -0.77137942011E+01  0.43968470482E+02  0.37094458286E+02  0.58040839217E+02  0.10566000000E+00 0. -1.
         22    1    1    0    0    0  0.71169737385E+01 -0.67719920117E+01 -0.26524407686E+02  0.28285250469E+02  0.00000000000E+00 0.  1.
</event>
<event>
 5    1  0.1324057E-009  0.9118800E+02  0.7818608E-02  0.1130116E+00
         25   -1    0    0    0    0  0.00000000000E+00  0.00000000000E+00  0.99999998245E-14  0.12500000000E+03  0.12500000000E+03 0.  0.
        -13    1    3    3    0    0 -0.23578478610E+02  0.17122483746E+02 -0.29652595589E+02  0.41574170977E+02  0.10566000000E+00 0. -1.
         23    2    1    0    0    0 -0.21809792465E+02 -0.18641651528E+02  0.96374316736E+01  0.94733544834E+02  0.89768514572E+02 0.  0.
         13    1    3    3    0    0  0.17686861447E+01 -0.35764135274E+02  0.39290027263E+02  0.53159373857E+02  0.10566000000E+00 0.  1.
         22    1    1    0    0    0  0.21809792465E+02  0.18641651528E+02 -0.96374316736E+01  0.30266455166E+02  0.00000000000E+00 0.  1.
</event>
<event>
 5    1  0.1324057E-009  0.9118800E+02  0.7818608E-02  0.1130116E+00
         25   -1    0    0    0    0  0.00000000000E+00  0.00000000000E+00  0.99999998245E-14  0.12500000000E+03  0.12500000000E+03 0.  0.
        -13    1    3    3    0    0 -0.10035227511E+02  0.16415672062E+02  0.37880112618E+02  0.42486399899E+02  0.10566000000E+00 0.  1.
         23    2    1    0    0    0  0.65605761103E+01  0.28150334096E+02 -0.99295373688E+01  0.94437307367E+02  0.89355060527E+02 0.  0.
         13    1    3    3    0    0  0.16595803621E+02  0.11734662034E+02 -0.47809649986E+02  0.51950907468E+02  0.10566000000E+00 0. -1.
         22    1    1    0    0    0 -0.65605761103E+01 -0.28150334096E+02  0.99295373688E+01  0.30562692633E+02  0.00000000000E+00 0. -1.
</event>
<event>
 5    1  0.1324057E-009  0.9118800E+02  0.7818608E-02  0.1130116E+00
         25   -1    0    0    0    0  0.00000000000E+00  0.00000000000E+00  0.99999998245E-14  0.12500000000E+03  0.12500000000E+03 0.  0.
        -13    1    3    3    0    0  0.24599852549E+02  0.53831047363E+02  0.16610991677E+02  0.61472519178E+02  0.10566000000E+00 0. -1.
         23    2    1    0    0    0  0.98649921027E+00  0.19892654278E+02  0.41436940633E+01  0.10465642422E+03  0.10266014833E+03 0.  0.
         13    1    3    3    0    0 -0.23613353339E+02 -0.33938393084E+02 -0.12467297614E+02  0.43183905044E+02  0.10566000000E+00 0.  1.
         22    1    1    0    0    0 -0.98649921027E+00 -0.19892654278E+02 -0.41436940633E+01  0.20343575778E+02  0.00000000000E+00 0. -1.
</event>
<event>
 5    1  0.1324057E-009  0.9118800E+02  0.7818608E-02  0.1130116E+00
         25   -1    0    0    0    0  0.00000000000E+00  0.00000000000E+00  0.99999998245E-14  0.12500000000E+03  0.12500000000E+03 0.  0.
        -13    1    3    3    0    0  0.21343543050E+02  0.13171190342E+02  0.47453454923E+02  0.53673723861E+02  0.10566000000E+00 0. -1.
         23    2    1    0    0    0 -0.10232997133E+02  0.18504798138E+02  0.16965837005E+02  0.97889459435E+02  0.94060431951E+02 0.  0.
         13    1    3    3    0    0 -0.31576540183E+02  0.53336077956E+01 -0.30487617918E+02  0.44215735574E+02  0.10566000000E+00 0.  1.
         22    1    1    0    0    0  0.10232997133E+02 -0.18504798138E+02 -0.16965837005E+02  0.27110540565E+02  0.00000000000E+00 0. -1.
</event>
<event>
 5    1  0.1324057E-009  0.9118800E+02  0.7818608E-02  0.1130116E+00
         25   -1    0    0    0    0  0.00000000000E+00  0.00000000000E+00  0.99999998245E-14  0.12500000000E+03  0.12500000000E+03 0.  0.
        -13    1    3    3    0    0  0.19746200573E+02 -0.18522747751E+02  0.33038363883E+02  0.42714743045E+02  0.10566000000E+00 0.  1.
         23    2    1    0    0    0  0.20015303347E+02 -0.10733088484E+02 -0.19033909403E+02  0.95367226528E+02  0.90646602981E+02 0.  0.
         13    1    3    3    0    0  0.26910277498E+00  0.77896592666E+01 -0.52072273286E+02  0.52652483483E+02  0.10566000000E+00 0. -1.
         22    1    1    0    0    0 -0.20015303347E+02  0.10733088484E+02  0.19033909403E+02  0.29632773472E+02  0.00000000000E+00 0. -1.
</event>
<event>
 5    1  0.1324057E-009  0.9118800E+02  0.7818608E-02  0.1130116E+00
         25   -1    0    0    0    0  0.00000000000E+00  0.00000000000E+00  0.99999998245E-14  0.12500000000E+03  0.12500000000E+03 0.  0.
        -13    1    3    3    0    0  0.76648651009E+01 -0.52639665949E+02  0.10335093865E+02  0.54189573882E+02  0.10566000000E+00 0.  1.
         23    2    1    0    0    0  0.47026523732E+01 -0.23191940539E+02 -0.18080915768E+02  0.95219124252E+02  0.90442142075E+02 0.  0.
         13    1    3    3    0    0 -0.29622127277E+01  0.29447725410E+02 -0.28416009633E+02  0.41029550370E+02  0.10566000000E+00 0. -1.
         22    1    1    0    0    0 -0.47026523732E+01  0.23191940539E+02  0.18080915768E+02  0.29780875748E+02  0.00000000000E+00 0.  1.
</event>
<event>
 5    1  0.1324057E-009  0.9118800E+02  0.7818608E-02  0.1130116E+00
         25   -1    0    0    0    0  0.00000000000E+00  0.00000000000E+00  0.99999998245E-14  0.12500000000E+03  0.12500000000E+03 0.  0.
        -13    1    3    3    0    0  0.33474408879E+01  0.24648734562E+01 -0.58434187305E+02  0.58581962853E+02  0.10566000000E+00 0. -1.
         23    2    1    0    0    0  0.10545085595E+02  0.13521867343E+02 -0.23623461989E+02  0.95809116440E+02  0.91253926546E+02 0.  0.
         13    1    3    3    0    0  0.71976447073E+01  0.11056993887E+02  0.34810725316E+02  0.37227153587E+02  0.10566000000E+00 0.  1.
         22    1    1    0    0    0 -0.10545085595E+02 -0.13521867343E+02  0.23623461989E+02  0.29190883560E+02  0.00000000000E+00 0. -1.
</event>
<event>
 5    1  0.1324057E-009  0.9118800E+02  0.7818608E-02  0.1130116E+00
         25   -1    0    0    0    0  0.00000000000E+00  0.00000000000E+00  0.99999998245E-14  0.12500000000E+03  0.12500000000E+03 0.  0.
        -13    1    3    3    0    0 -0.80401318591E+01 -0.36529364720E+02 -0.49381710988E+02  0.61948387802E+02  0.10566000000E+00 0. -1.
         23    2    1    0    0    0  0.21420655459E+01 -0.16750312406E+02 -0.23199224693E+02  0.96305654967E+02  0.91931570974E+02 0.  0.
         13    1    3    3    0    0  0.10182197405E+02  0.19779052313E+02  0.26182486295E+02  0.34357267165E+02  0.10566000000E+00 0.  1.
         22    1    1    0    0    0 -0.21420655459E+01  0.16750312406E+02  0.23199224693E+02  0.28694345033E+02  0.00000000000E+00 0. -1.
</event>
<event>
 5    1  0.1324057E-009  0.9118800E+02  0.7818608E-02  0.1130116E+00
         25   -1    0    0    0    0  0.00000000000E+00  0.00000000000E+00  0.99999998245E-14  0.12500000000E+03  0.12500000000E+03 0.  0.
        -13    1    3    3    0    0 -0.17526256801E+02 -0.55293436770E+02 -0.21150443411E+02  0.61740474957E+02  0.10566000000E+00 0. -1.
         23    2    1    0    0    0 -0.14809380022E+02 -0.24567009318E+02 -0.84848845159E+01  0.95085974048E+02  0.90257927695E+02 0.  0.
         13    1    3    3    0    0  0.27168767796E+01  0.30726427453E+02  0.12665558895E+02  0.33345499091E+02  0.10566000000E+00 0.  1.
         22    1    1    0    0    0  0.14809380022E+02  0.24567009318E+02  0.84848845159E+01  0.29914025952E+02  0.00000000000E+00 0. -1.
</event>
<event>
 5    1  0.1324057E-009  0.9118800E+02  0.7818608E-02  0.1130116E+00
         25   -1    0    0    0    0  0.00000000000E+00  0.00000000000E+00  0.99999998245E-14  0.12500000000E+03  0.12500000000E+03 0.  0.
        -13    1    3    3    0    0  0.27641143597E+02 -0.20697682681E+02  0.15104515088E+02  0.37690641117E+02  0.10566000000E+00 0.  1.
         23    2    1    0    0    0 -0.26385143020E+02  0.11459042239E+01  0.11840670224E+02  0.96057119355E+02  0.91593011953E+02 0.  0.
         13    1    3    3    0    0 -0.54026286618E+02  0.21843586905E+02 -0.32638448634E+01  0.58366478238E+02  0.10566000000E+00 0. -1.
         22    1    1    0    0    0  0.26385143020E+02 -0.11459042239E+01 -0.11840670224E+02  0.28942880645E+02  0.00000000000E+00 0. -1.
</event>
<event>
 5    1  0.1324057E-009  0.9118800E+02  0.7818608E-02  0.1130116E+00
         25   -1    0    0    0    0  0.00000000000E+00  0.00000000000E+00  0.99999998245E-14  0.12500000000E+03  0.12500000000E+03 0.  0.
        -13    1    3    3    0    0  0.22994946428E+02  0.83848720126E+01  0.77121562798E+01  0.25662465945E+02  0.10566000000E+00 0.  1.
         23    2    1    0    0    0 -0.25530778183E+02 -0.25652140881E+02  0.15846583393E+02  0.85490922922E+02  0.75813789843E+02 0.  0.
         13    1    3    3    0    0 -0.48525724610E+02 -0.34037012893E+02  0.81344271130E+01  0.59828456976E+02  0.10566000000E+00 0. -1.
         22    1    1    0    0    0  0.25530778183E+02  0.25652140881E+02 -0.15846583393E+02  0.39509077078E+02  0.00000000000E+00 0. -1.
</event>
<event>
 5    1  0.1324057E-009  0.9118800E+02  0.7818608E-02  0.1130116E+00
         25   -1    0    0    0    0  0.00000000000E+00  0.00000000000E+00  0.99999998245E-14  0.12500000000E+03  0.12500000000E+03 0.  0.
        -13    1    3    3    0    0  0.24590871338E+02  0.46662793559E+02 -0.14243021571E+01  0.52765206875E+02  0.10566000000E+00 0.  1.
         23    2    1    0    0    0  0.10459915175E+02  0.16217352363E+02  0.23514129416E+02  0.94580818135E+02  0.89555594654E+02 0.  0.
         13    1    3    3    0    0 -0.14130956163E+02 -0.30445441196E+02  0.24938431573E+02  0.41815611261E+02  0.10566000000E+00 0. -1.
         22    1    1    0    0    0 -0.10459915175E+02 -0.16217352363E+02 -0.23514129416E+02  0.30419181865E+02  0.00000000000E+00 0.  1.
</event>
<event>
 5    1  0.1324057E-009  0.9118800E+02  0.7818608E-02  0.1130116E+00
         25   -1    0    0    0    0  0.00000000000E+00  0.00000000000E+00  0.99999998245E-14  0.12500000000E+03  0.12500000000E+03 0.  0.
        -13    1    3    3    0    0 -0.35685178483E+02  0.47413817853E+02 -0.85520941586E+01  0.59955413145E+02  0.10566000000E+00 0.  1.
         23    2    1    0    0    0 -0.10342028670E+02  0.25236980037E+02  0.66855579398E+01  0.96918700113E+02  0.92761387593E+02 0.  0.
         13    1    3    3    0    0  0.25343149813E+02 -0.22176837816E+02  0.15237652098E+02  0.36963286968E+02  0.10566000000E+00 0. -1.
         22    1    1    0    0    0  0.10342028670E+02 -0.25236980037E+02 -0.66855579398E+01  0.28081299887E+02  0.00000000000E+00 0.  1.
</event>
<event>
 5    1  0.1324057E-009  0.9118800E+02  0.7818608E-02  0.1130116E+00
         25   -1    0    0    0    0  0.00000000000E+00  0.00000000000E+00  0.99999998245E-14  0.12500000000E+03  0.12500000000E+03 0.  0.
        -13    1    3    3    0    0  0.46470071838E+02 -0.30098630991E+02  0.79421970571E+01  0.55932859951E+02  0.10566000000E+00 0. -1.
         23    2    1    0    0    0  0.23108846786E+02  0.35859823861E+00  0.18106008159E+02  0.95640590539E+02  0.91022786348E+02 0.  0.
         13    1    3    3    0    0 -0.23361225052E+02  0.30457229229E+02  0.10163811102E+02  0.39707730588E+02  0.10566000000E+00 0.  1.
         22    1    1    0    0    0 -0.23108846786E+02 -0.35859823861E+00 -0.18106008159E+02  0.29359409461E+02  0.00000000000E+00 0. -1.
</event>
<event>
 5    1  0.1324057E-009  0.9118800E+02  0.7818608E-02  0.1130116E+00
         25   -1    0    0    0    0  0.00000000000E+00  0.00000000000E+00  0.99999998245E-14  0.12500000000E+03  0.12500000000E+03 0.  0.
        -13    1    3    3    0    0  0.16991515601E+02  0.36724260750E+01 -0.28919545905E+02  0.33742400849E+02  0.10566000000E+00 0. -1.
         23    2    1    0    0    0 -0.12221509319E+02 -0.71093222833E+01  0.25155999198E+02  0.96142902969E+02  0.91710008954E+02 0.  0.
         13    1    3    3    0    0 -0.29213024920E+02 -0.10781748358E+02  0.54075545103E+02  0.62400502120E+02  0.10566000000E+00 0.  1.
         22    1    1    0    0    0  0.12221509319E+02  0.71093222833E+01 -0.25155999198E+02  0.28857097031E+02  0.00000000000E+00 0.  1.
</event>
<event>
 5    1  0.1324057E-009  0.9118800E+02  0.7818608E-02  0.1130116E+00
         25   -1    0    0    0    0  0.00000000000E+00  0.00000000000E+00  0.99999998245E-14  0.12500000000E+03  0.12500000000E+03 0.  0.
        -13    1    3    3    0    0 -0.34177006024E+02  0.35937862865E+02  0.11857345761E+02  0.50992210588E+02  0.10566000000E+00 0. -1.
         23    2    1    0    0    0 -0.18230302308E+02 -0.59945297606E+01  0.20759436472E+02  0.96729299408E+02  0.92505809829E+02 0.  0.
         13    1    3    3    0    0  0.15946703716E+02 -0.41932392626E+02  0.89020907112E+01  0.45737088821E+02  0.10566000000E+00 0.  1.
         22    1    1    0    0    0  0.18230302308E+02  0.59945297606E+01 -0.20759436472E+02  0.28270700592E+02  0.00000000000E+00 0.  1.
</event>
<event>
 5    1  0.1324057E-009  0.9118800E+02  0.7818608E-02  0.1130116E+00
         25   -1    0    0    0    0  0.00000000000E+00  0.00000000000E+00  0.99999998245E-14  0.12500000000E+03  0.12500000000E+03 0.  0.
        -13    1    3    3    0    0 -0.16403263792E+02 -0.26927416276E+02  0.16515804856E+02  0.35594041417E+02  0.10566000000E+00 0.  1.
         23    2    1    0    0    0  0.12021252702E+01  0.29044359140E+02  0.77023388630E+01  0.94927655113E+02  0.90038401686E+02 0.  0.
         13    1    3    3    0    0  0.17605389062E+02  0.55971775417E+02 -0.88134659934E+01  0.59333613696E+02  0.10566000000E+00 0. -1.
         22    1    1    0    0    0 -0.12021252702E+01 -0.29044359140E+02 -0.77023388630E+01  0.30072344887E+02  0.00000000000E+00 0. -1.
</event>
<event>
 5    1  0.1324057E-009  0.9118800E+02  0.7818608E-02  0.1130116E+00
         25   -1    0    0    0    0  0.00000000000E+00  0.00000000000E+00  0.99999998245E-14  0.12500000000E+03  0.12500000000E+03 0.  0.
        -13    1    3    3    0    0  0.34118992248E+02 -0.17726637359E+02 -0.27835031978E+02  0.47467246321E+02  0.10566000000E+00 0.  1.
         23    2    1    0    0    0  0.17783201768E+02 -0.55223203101E+01  0.18906600852E+02  0.98463273704E+02  0.94819926313E+02 0.  0.
         13    1    3    3    0    0 -0.16335790479E+02  0.12204317049E+02  0.46741632830E+02  0.50996027383E+02  0.10566000000E+00 0. -1.
         22    1    1    0    0    0 -0.17783201768E+02  0.55223203101E+01 -0.18906600852E+02  0.26536726296E+02  0.00000000000E+00 0. -1.
</event>
<event>
 5    1  0.1324057E-009  0.9118800E+02  0.7818608E-02  0.1130116E+00
         25   -1    0    0    0    0  0.00000000000E+00  0.00000000000E+00  0.99999998245E-14  0.12500000000E+03  0.12500000000E+03 0.  0.
        -13    1    3    3    0    0  0.11010558035E+02 -0.24741026169E+01  0.54058587538E+02  0.55224049314E+02  0.10566000000E+00 0.  1.
         23    2    1    0    0    0  0.21778617481E+02 -0.10895626999E+02  0.15501901336E+02  0.96132512889E+02  0.91695846265E+02 0.  0.
         13    1    3    3    0    0  0.10768059446E+02 -0.84215243818E+01 -0.38556686202E+02  0.40908463575E+02  0.10566000000E+00 0. -1.
         22    1    1    0    0    0 -0.21778617481E+02  0.10895626999E+02 -0.15501901336E+02  0.28867487111E+02  0.00000000000E+00 0.  1.
</event>
<event>
 5    1  0.1324057E-009  0.9118800E+02  0.7818608E-02  0.1130116E+00
         25   -1    0    0    0    0  0.00000000000E+00  0.00000000000E+00  0.99999998245E-14  0.12500000000E+03  0.12500000000E+03 0.  0.
        -13    1    3    3    0    0  0.22212378114E+02 -0.86689929505E+01  0.22952672002E+02  0.33096487674E+02  0.10566000000E+00 0. -1.
         23    2    1    0    0    0 -0.11953679515E+02 -0.16187347147E+02 -0.25285395439E+02  0.92684804131E+02  0.86868872634E+02 0.  0.
         13    1    3    3    0    0 -0.34166057629E+02 -0.75183541961E+01 -0.48238067441E+02  0.59588316457E+02  0.10566000000E+00 0.  1.
         22    1    1    0    0    0  0.11953679515E+02  0.16187347147E+02  0.25285395439E+02  0.32315195869E+02  0.00000000000E+00 0.  1.
</event>
<event>
 5    1  0.1324057E-009  0.9118800E+02  0.7818608E-02  0.1130116E+00
         25   -1    0    0    0    0  0.00000000000E+00  0.00000000000E+00  0.99999998245E-14  0.12500000000E+03  0.12500000000E+03 0.  0.
        -13    1    3    3    0    0 -0.35020166407E+02  0.94175313970E+01  0.32414765609E+01  0.36409068749E+02  0.10566000000E+00 0. -1.
         23    2    1    0    0    0  0.24221102467E+02 -0.31155382185E+01 -0.10363652173E+02  0.98471267096E+02  0.94830463323E+02 0.  0.
         13    1    3    3    0    0  0.59241268874E+02 -0.12533069616E+02 -0.13605128734E+02  0.62062198348E+02  0.10566000000E+00 0.  1.
         22    1    1    0    0    0 -0.24221102467E+02  0.31155382185E+01  0.10363652173E+02  0.26528732904E+02  0.00000000000E+00 0.  1.
</event>
<event>
 5    1  0.1324057E-009  0.9118800E+02  0.7818608E-02  0.1130116E+00
         25   -1    0    0    0    0  0.00000000000E+00  0.00000000000E+00  0.99999998245E-14  0.12500000000E+03  0.12500000000E+03 0.  0.
        -13    1    3    3    0    0  0.44904775225E+01  0.44459508255E+02 -0.24978247164E+02  0.51193127059E+02  0.10566000000E+00 0. -1.
         23    2    1    0    0    0  0.17182849817E+02  0.38703737821E+02  0.31001799745E+01  0.82540127591E+02  0.70781578802E+02 0.  0.
         13    1    3    3    0    0  0.12692372294E+02 -0.57557704335E+01  0.28078427139E+02  0.31347000532E+02  0.10566000000E+00 0.  1.
         22    1    1    0    0    0 -0.17182849817E+02 -0.38703737821E+02 -0.31001799745E+01  0.42459872409E+02  0.00000000000E+00 0. -1.
</event>
<event>
 5    1  0.1324057E-009  0.9118800E+02  0.7818608E-02  0.1130116E+00
         25   -1    0    0    0    0  0.00000000000E+00  0.00000000000E+00  0.99999998245E-14  0.12500000000E+03  0.12500000000E+03 0.  0.
        -13    1    3    3    0    0  0.43922180268E+02 -0.21629643534E+02  0.16447860214E+02  0.51648259105E+02  0.10566000000E+00 0. -1.
         23    2    1    0    0    0  0.24335402893E+02  0.10707822249E+02 -0.86660388105E+01  0.97036282079E+02  0.92919699310E+02 0.  0.
         13    1    3    3    0    0 -0.19586777376E+02  0.32337465783E+02 -0.25113899025E+02  0.45388022974E+02  0.10566000000E+00 0.  1.
         22    1    1    0    0    0 -0.24335402893E+02 -0.10707822249E+02  0.86660388105E+01  0.27963717921E+02  0.00000000000E+00 0. -1.
</event>
<event>
 5    1  0.1324057E-009  0.9118800E+02  0.7818608E-02  0.1130116E+00
         25   -1    0    0    0    0  0.00000000000E+00  0.00000000000E+00  0.99999998245E-14  0.12500000000E+03  0.12500000000E+03 0.  0.
        -13    1    3    3    0    0 -0.37569964125E+02  0.10153386136E+02  0.22741168405E+02  0.45075107974E+02  0.10566000000E+00 0. -1.
         23    2    1    0    0    0  0.79844021304E+01 -0.12246931002E+02  0.25164467684E+02  0.95896934351E+02  0.91374140695E+02 0.  0.
         13    1    3    3    0    0  0.45554366256E+02 -0.22400317138E+02  0.24232992796E+01  0.50821826377E+02  0.10566000000E+00 0.  1.
         22    1    1    0    0    0 -0.79844021304E+01  0.12246931002E+02 -0.25164467684E+02  0.29103065649E+02  0.00000000000E+00 0.  1.
</event>
<event>
 5    1  0.1324057E-009  0.9118800E+02  0.7818608E-02  0.1130116E+00
         25   -1    0    0    0    0  0.00000000000E+00  0.00000000000E+00  0.99999998245E-14  0.12500000000E+03  0.12500000000E+03 0.  0.
        -13    1    3    3    0    0 -0.16436069468E+02  0.34043867057E+02 -0.46335788669E+02  0.59800884102E+02  0.10566000000E+00 0. -1.
         23    2    1    0    0    0 -0.17782499552E+02  0.19327326284E+02 -0.14265477676E+02  0.95112432602E+02  0.90294563239E+02 0.  0.
         13    1    3    3    0    0 -0.13464300839E+01 -0.14716540773E+02  0.32070310993E+02  0.35311548500E+02  0.10566000000E+00 0.  1.
         22    1    1    0    0    0  0.17782499552E+02 -0.19327326284E+02  0.14265477676E+02  0.29887567398E+02  0.00000000000E+00 0. -1.
</event>
<event>
 5    1  0.1324057E-009  0.9118800E+02  0.7818608E-02  0.1130116E+00
         25   -1    0    0    0    0  0.00000000000E+00  0.00000000000E+00  0.99999998245E-14  0.12500000000E+03  0.12500000000E+03 0.  0.
        -13    1    3    3    0    0  0.28113899265E+02  0.26234384777E+02  0.43938184536E+02  0.58388436363E+02  0.10566000000E+00 0.  1.
         23    2    1    0    0    0  0.20488731860E+02  0.28585040790E+02  0.18069164268E+02  0.85460306178E+02  0.75763292857E+02 0.  0.
         13    1    3    3    0    0 -0.76251674050E+01  0.23506560126E+01 -0.25869020268E+02  0.27071869816E+02  0.10566000000E+00 0. -1.
         22    1    1    0    0    0 -0.20488731860E+02 -0.28585040790E+02 -0.18069164268E+02  0.39539693822E+02  0.00000000000E+00 0.  1.
</event>
<event>
 5    1  0.1324057E-009  0.9118800E+02  0.7818608E-02  0.1130116E+00
         25   -1    0    0    0    0  0.00000000000E+00  0.00000000000E+00  0.99999998245E-14  0.12500000000E+03  0.12500000000E+03 0.  0.
        -13    1    3    3    0    0  0.14765278586E+02 -0.11855647508E+02  0.17941334564E+02  0.26085867429E+02  0.10566000000E+00 0.  1.
         23    2    1    0    0    0 -0.18608825432E+02  0.35043354593E+02  0.86044335248E+01  0.84399983234E+02  0.73993214612E+02 0.  0.
         13    1    3    3    0    0 -0.33374104018E+02  0.46899002101E+02 -0.93369010394E+01  0.58314115805E+02  0.10566000000E+00 0. -1.
         22    1    1    0    0    0  0.18608825432E+02 -0.35043354593E+02 -0.86044335248E+01  0.40600016766E+02  0.00000000000E+00 0. -1.
</event>
<event>
 5    1  0.1324057E-009  0.9118800E+02  0.7818608E-02  0.1130116E+00
         25   -1    0    0    0    0  0.00000000000E+00  0.00000000000E+00  0.99999998245E-14  0.12500000000E+03  0.12500000000E+03 0.  0.
        -13    1    3    3    0    0 -0.34368942905E+02 -0.41918780799E+02 -0.13045184190E+02  0.55754788267E+02  0.10566000000E+00 0.  1.
         23    2    1    0    0    0 -0.26145057532E+01 -0.28149200624E+02  0.71663215998E+01  0.95835478722E+02  0.91290030564E+02 0.  0.
         13    1    3    3    0    0  0.31754437152E+02  0.13769580175E+02  0.20211505790E+02  0.40080690455E+02  0.10566000000E+00 0. -1.
         22    1    1    0    0    0  0.26145057532E+01  0.28149200624E+02 -0.71663215998E+01  0.29164521278E+02  0.00000000000E+00 0.  1.
</event>
<event>
 5    1  0.1324057E-009  0.9118800E+02  0.7818608E-02  0.1130116E+00
         25   -1    0    0    0    0  0.00000000000E+00  0.00000000000E+00  0.99999998245E-14  0.12500000000E+03  0.12500000000E+03 0.  0.
        -13    1    3    3    0    0 -0.31721565742E+02 -0.29271438049E+02  0.41377882282E+02  0.59793102653E+02  0.10566000000E+00 0.  1.
         23    2    1    0    0    0 -0.88680156463E+01 -0.23722894838E+02  0.13383256985E+02  0.96355122473E+02  0.91998807700E+02 0.  0.
         13    1    3    3    0    0  0.22853550096E+02  0.55485432108E+01 -0.27994625297E+02  0.36562019820E+02  0.10566000000E+00 0. -1.
         22    1    1    0    0    0  0.88680156463E+01  0.23722894838E+02 -0.13383256985E+02  0.28644877527E+02  0.00000000000E+00 0.  1.
</event>
<event>
 5    1  0.1324057E-009  0.9118800E+02  0.7818608E-02  0.1130116E+00
         25   -1    0    0    0    0  0.00000000000E+00  0.00000000000E+00  0.99999998245E-14  0.12500000000E+03  0.12500000000E+03 0.  0.
        -13    1    3    3    0    0  0.47912463106E+02 -0.24909951767E+02  0.15454232940E+02  0.56168979853E+02  0.10566000000E+00 0. -1.
         23    2    1    0    0    0  0.21940828194E+02 -0.13500824790E+02 -0.12823403386E+02  0.96223066767E+02  0.91819206552E+02 0.  0.
         13    1    3    3    0    0 -0.25971634912E+02  0.11409126976E+02 -0.28277636325E+02  0.40054086914E+02  0.10566000000E+00 0.  1.
         22    1    1    0    0    0 -0.21940828194E+02  0.13500824790E+02  0.12823403386E+02  0.28776933233E+02  0.00000000000E+00 0. -1.
</event>
<event>
 5    1  0.1324057E-009  0.9118800E+02  0.7818608E-02  0.1130116E+00
         25   -1    0    0    0    0  0.00000000000E+00  0.00000000000E+00  0.99999998245E-14  0.12500000000E+03  0.12500000000E+03 0.  0.
        -13    1    3    3    0    0 -0.39772356096E+02  0.32345195388E+02 -0.49937675708E+01  0.51507289316E+02  0.10566000000E+00 0.  1.
         23    2    1    0    0    0  0.65265177956E+00  0.22576670194E+02 -0.19097349714E+02  0.95422292896E+02  0.90722506712E+02 0.  0.
         13    1    3    3    0    0  0.40425007875E+02 -0.97685251933E+01 -0.14103582143E+02  0.43915003580E+02  0.10566000000E+00 0. -1.
         22    1    1    0    0    0 -0.65265177956E+00 -0.22576670194E+02  0.19097349714E+02  0.29577707104E+02  0.00000000000E+00 0.  1.
</event>
<event>
 5    1  0.1324057E-009  0.9118800E+02  0.7818608E-02  0.1130116E+00
         25   -1    0    0    0    0  0.00000000000E+00  0.00000000000E+00  0.99999998245E-14  0.12500000000E+03  0.12500000000E+03 0.  0.
        -13    1    3    3    0    0  0.54388094366E+00  0.31016167342E+02 -0.24136953251E+02  0.39305242899E+02  0.10566000000E+00 0.  1.
         23    2    1    0    0    0  0.19426716798E+02  0.10547842428E+02  0.22394239659E+02  0.93533251274E+02  0.88081285291E+02 0.  0.
         13    1    3    3    0    0  0.18882835855E+02 -0.20468324914E+02  0.46531192910E+02  0.54228008375E+02  0.10566000000E+00 0. -1.
         22    1    1    0    0    0 -0.19426716798E+02 -0.10547842428E+02 -0.22394239659E+02  0.31466748726E+02  0.00000000000E+00 0. -1.
</event>
<event>
 5    1  0.1324057E-009  0.9118800E+02  0.7818608E-02  0.1130116E+00
         25   -1    0    0    0    0  0.00000000000E+00  0.00000000000E+00  0.99999998245E-14  0.12500000000E+03  0.12500000000E+03 0.  0.
        -13    1    3    3    0    0 -0.38084055354E+02 -0.10958700592E+02 -0.31661558903E+02  0.50724292672E+02  0.10566000000E+00 0.  1.
         23    2    1    0    0    0 -0.16885673905E+02  0.22120141998E+02 -0.11435434618E+02  0.94913527456E+02  0.90018786173E+02 0.  0.
         13    1    3    3    0    0  0.21198381450E+02  0.33078842590E+02  0.20226124285E+02  0.44189234784E+02  0.10566000000E+00 0. -1.
         22    1    1    0    0    0  0.16885673905E+02 -0.22120141998E+02  0.11435434618E+02  0.30086472544E+02  0.00000000000E+00 0.  1.
</event>
<event>
 5    1  0.1324057E-009  0.9118800E+02  0.7818608E-02  0.1130116E+00
         25   -1    0    0    0    0  0.00000000000E+00  0.00000000000E+00  0.99999998245E-14  0.12500000000E+03  0.12500000000E+03 0.  0.
        -13    1    3    3    0    0 -0.17873010297E+02 -0.51855553119E+02  0.11868980987E+02  0.56118862783E+02  0.10566000000E+00 0. -1.
         23    2    1    0    0    0  0.79783686470E+01 -0.24101951618E+02  0.17076565226E+02  0.94403145293E+02  0.89307257954E+02 0.  0.
         13    1    3    3    0    0  0.25851378944E+02  0.27753601501E+02  0.52075842389E+01  0.38284282509E+02  0.10566000000E+00 0.  1.
         22    1    1    0    0    0 -0.79783686470E+01  0.24101951618E+02 -0.17076565226E+02  0.30596854707E+02  0.00000000000E+00 0. -1.
</event>
<event>
 5    1  0.1324057E-009  0.9118800E+02  0.7818608E-02  0.1130116E+00
         25   -1    0    0    0    0  0.00000000000E+00  0.00000000000E+00  0.99999998245E-14  0.12500000000E+03  0.12500000000E+03 0.  0.
        -13    1    3    3    0    0 -0.14798142852E+02 -0.26920559036E+02 -0.46681771902E+02  0.55882917986E+02  0.10566000000E+00 0.  1.
         23    2    1    0    0    0  0.21622107889E+01 -0.28428832322E+02 -0.12914442507E+02  0.93700535341E+02  0.88318366353E+02 0.  0.
         13    1    3    3    0    0  0.16960353641E+02 -0.15082732853E+01  0.33767329394E+02  0.37817617355E+02  0.10566000000E+00 0. -1.
         22    1    1    0    0    0 -0.21622107889E+01  0.28428832322E+02  0.12914442507E+02  0.31299464659E+02  0.00000000000E+00 0.  1.
</event>
<event>
 5    1  0.1324057E-009  0.9118800E+02  0.7818608E-02  0.1130116E+00
         25   -1    0    0    0    0  0.00000000000E+00  0.00000000000E+00  0.99999998245E-14  0.12500000000E+03  0.12500000000E+03 0.  0.
        -13    1    3    3    0    0  0.53079673040E+01 -0.19154932535E+02 -0.59155305014E+02  0.62405506429E+02  0.10566000000E+00 0.  1.
         23    2    1    0    0    0  0.78127587161E+00 -0.10743627279E+02 -0.27705270991E+02  0.95274287901E+02  0.90518351594E+02 0.  0.
         13    1    3    3    0    0 -0.45266914324E+01  0.84113052561E+01  0.31450034022E+02  0.32868781472E+02  0.10566000000E+00 0. -1.
         22    1    1    0    0    0 -0.78127587161E+00  0.10743627279E+02  0.27705270991E+02  0.29725712099E+02  0.00000000000E+00 0.  1.
</event>
<event>
 5    1  0.1324057E-009  0.9118800E+02  0.7818608E-02  0.1130116E+00
         25   -1    0    0    0    0  0.00000000000E+00  0.00000000000E+00  0.99999998245E-14  0.12500000000E+03  0.12500000000E+03 0.  0.
        -13    1    3    3    0    0  0.13397799457E+02  0.12756409106E+02  0.57235303947E+02  0.60150795386E+02  0.10566000000E+00 0.  1.
         23    2    1    0    0    0 -0.47603045612E+01  0.10241294769E+02  0.29651531363E+02  0.93270551057E+02  0.87707683611E+02 0.  0.
         13    1    3    3    0    0 -0.18158104019E+02 -0.25151143370E+01 -0.27583772585E+02  0.33119755671E+02  0.10566000000E+00 0. -1.
         22    1    1    0    0    0  0.47603045612E+01 -0.10241294769E+02 -0.29651531363E+02  0.31729448943E+02  0.00000000000E+00 0.  1.
</event>
<event>
 5    1  0.1324057E-009  0.9118800E+02  0.7818608E-02  0.1130116E+00
         25   -1    0    0    0    0  0.00000000000E+00  0.00000000000E+00  0.99999998245E-14  0.12500000000E+03  0.12500000000E+03 0.  0.
        -13    1    3    3    0    0  0.72854141799E+01  0.44412398154E+01 -0.37535545150E+02  0.38493248559E+02  0.10566000000E+00 0.  1.
         23    2    1    0    0    0  0.17690142966E+02 -0.16874227894E+02  0.15126950381E+02  0.96250993878E+02  0.91857217841E+02 0.  0.
         13    1    3    3    0    0  0.10404728786E+02 -0.21315467709E+02  0.52662495531E+02  0.57757745319E+02  0.10566000000E+00 0. -1.
         22    1    1    0    0    0 -0.17690142966E+02  0.16874227894E+02 -0.15126950381E+02  0.28749006122E+02  0.00000000000E+00 0. -1.
</event>
<event>
 5    1  0.1324057E-009  0.9118800E+02  0.7818608E-02  0.1130116E+00
         25   -1    0    0    0    0  0.00000000000E+00  0.00000000000E+00  0.99999998245E-14  0.12500000000E+03  0.12500000000E+03 0.  0.
        -13    1    3    3    0    0  0.17508015820E+02  0.57065009490E+02 -0.17609647750E+02  0.62233887746E+02  0.10566000000E+00 0. -1.
         23    2    1    0    0    0  0.83524622313E+01  0.28030292482E+02 -0.43910897894E+01  0.95423952403E+02  0.90724793197E+02 0.  0.
         13    1    3    3    0    0 -0.91555535885E+01 -0.29034717009E+02  0.13218557961E+02  0.33190064656E+02  0.10566000000E+00 0.  1.
         22    1    1    0    0    0 -0.83524622313E+01 -0.28030292482E+02  0.43910897894E+01  0.29576047597E+02  0.00000000000E+00 0. -1.
</event>
<event>
 5    1  0.1324057E-009  0.9118800E+02  0.7818608E-02  0.1130116E+00
         25   -1    0    0    0    0  0.00000000000E+00  0.00000000000E+00  0.99999998245E-14  0.12500000000E+03  0.12500000000E+03 0.  0.
        -13    1    3    3    0    0 -0.43616657739E+02 -0.10497839608E+02  0.27237012664E+02  0.52483173414E+02  0.10566000000E+00 0.  1.
         23    2    1    0    0    0 -0.51631931568E+01 -0.25029464816E+02  0.14968428460E+02  0.95382665159E+02  0.90667890070E+02 0.  0.
         13    1    3    3    0    0  0.38453464582E+02 -0.14531625208E+02 -0.12268584204E+02  0.42899491745E+02  0.10566000000E+00 0. -1.
         22    1    1    0    0    0  0.51631931568E+01  0.25029464816E+02 -0.14968428460E+02  0.29617334841E+02  0.00000000000E+00 0.  1.
</event>
<event>
 5    1  0.1324057E-009  0.9118800E+02  0.7818608E-02  0.1130116E+00
         25   -1    0    0    0    0  0.00000000000E+00  0.00000000000E+00  0.99999998245E-14  0.12500000000E+03  0.12500000000E+03 0.  0.
        -13    1    3    3    0    0 -0.98130247692E+01 -0.42635148467E+01 -0.35082955094E+02  0.36678303070E+02  0.10566000000E+00 0.  1.
         23    2    1    0    0    0 -0.22938383028E+01 -0.21183653839E+02  0.20602217392E+02  0.95361169969E+02  0.90638250712E+02 0.  0.
         13    1    3    3    0    0  0.75191864664E+01 -0.16920138993E+02  0.55685172486E+02  0.58682866899E+02  0.10566000000E+00 0. -1.
         22    1    1    0    0    0  0.22938383028E+01  0.21183653839E+02 -0.20602217392E+02  0.29638830031E+02  0.00000000000E+00 0. -1.
</event>
<event>
 5    1  0.1324057E-009  0.9118800E+02  0.7818608E-02  0.1130116E+00
         25   -1    0    0    0    0  0.00000000000E+00  0.00000000000E+00  0.99999998245E-14  0.12500000000E+03  0.12500000000E+03 0.  0.
        -13    1    3    3    0    0  0.31194707426E+02  0.19711105309E+02 -0.26403499239E+02  0.45373928417E+02  0.10566000000E+00 0.  1.
         23    2    1    0    0    0 -0.18228419444E+02  0.14852027153E+02 -0.17166883929E+02  0.95887118146E+02  0.91360711121E+02 0.  0.
         13    1    3    3    0    0 -0.49423126870E+02 -0.48590781560E+01  0.92366153098E+01  0.50513189729E+02  0.10566000000E+00 0. -1.
         22    1    1    0    0    0  0.18228419444E+02 -0.14852027153E+02  0.17166883929E+02  0.29112881854E+02  0.00000000000E+00 0. -1.
</event>
<event>
 5    1  0.1324057E-009  0.9118800E+02  0.7818608E-02  0.1130116E+00
         25   -1    0    0    0    0  0.00000000000E+00  0.00000000000E+00  0.99999998245E-14  0.12500000000E+03  0.12500000000E+03 0.  0.
        -13    1    3    3    0    0 -0.81328549843E+01 -0.39374852873E+02 -0.13111647092E+02  0.42290055834E+02  0.10566000000E+00 0.  1.
         23    2    1    0    0    0  0.13588351933E+02 -0.77623610226E+01  0.24447360037E+02  0.95972926953E+02  0.91478039650E+02 0.  0.
         13    1    3    3    0    0  0.21721206917E+02  0.31612491851E+02  0.37559007129E+02  0.53682871118E+02  0.10566000000E+00 0. -1.
         22    1    1    0    0    0 -0.13588351933E+02  0.77623610226E+01 -0.24447360037E+02  0.29027073047E+02  0.00000000000E+00 0.  1.
</event>
<event>
 5    1  0.1324057E-009  0.9118800E+02  0.7818608E-02  0.1130116E+00
         25   -1    0    0    0    0  0.00000000000E+00  0.00000000000E+00  0.99999998245E-14  0.12500000000E+03  0.12500000000E+03 0.  0.
        -13    1    3    3    0    0  0.82493651030E+01 -0.23884513459E+02 -0.51873801123E+02  0.57701164761E+02  0.10566000000E+00 0. -1.
         23    2    1    0    0    0 -0.36654707620E+01  0.32548425384E+01 -0.30161522913E+02  0.94442723611E+02  0.89362637063E+02 0.  0.
         13    1    3    3    0    0 -0.11914835865E+02  0.27139355997E+02  0.21712278210E+02  0.36741558850E+02  0.10566000000E+00 0.  1.
         22    1    1    0    0    0  0.36654707620E+01 -0.32548425384E+01  0.30161522913E+02  0.30557276389E+02  0.00000000000E+00 0. -1.
</event>
<event>
 5    1  0.1324057E-009  0.9118800E+02  0.7818608E-02  0.1130116E+00
         25   -1    0    0    0    0  0.00000000000E+00  0.00000000000E+00  0.99999998245E-14  0.12500000000E+03  0.12500000000E+03 0.  0.
        -13    1    3    3    0    0 -0.43325716088E+02  0.21097016062E+02  0.37280415346E+02  0.60926531936E+02  0.10566000000E+00 0.  1.
         23    2    1    0    0    0 -0.31135568923E+02  0.14289897951E+02  0.14170719191E+02  0.87926638701E+02  0.79728662821E+02 0.  0.
         13    1    3    3    0    0  0.12190147165E+02 -0.68071181110E+01 -0.23109696155E+02  0.27000106765E+02  0.10566000000E+00 0. -1.
         22    1    1    0    0    0  0.31135568923E+02 -0.14289897951E+02 -0.14170719191E+02  0.37073361299E+02  0.00000000000E+00 0.  1.
</event>
<event>
 5    1  0.1324057E-009  0.9118800E+02  0.7818608E-02  0.1130116E+00
         25   -1    0    0    0    0  0.00000000000E+00  0.00000000000E+00  0.99999998245E-14  0.12500000000E+03  0.12500000000E+03 0.  0.
        -13    1    3    3    0    0  0.50360126590E+02 -0.24314167396E+02  0.89997552925E+01  0.56642103119E+02  0.10566000000E+00 0. -1.
         23    2    1    0    0    0  0.26199430210E+02 -0.82474178927E+00 -0.11813109509E+02  0.96248653969E+02  0.91854033619E+02 0.  0.
         13    1    3    3    0    0 -0.24160696380E+02  0.23489425607E+02 -0.20812864802E+02  0.39606550850E+02  0.10566000000E+00 0.  1.
         22    1    1    0    0    0 -0.26199430210E+02  0.82474178927E+00  0.11813109509E+02  0.28751346031E+02  0.00000000000E+00 0. -1.
</event>
<event>
 5    1  0.1324057E-009  0.9118800E+02  0.7818608E-02  0.1130116E+00
         25   -1    0    0    0    0  0.00000000000E+00  0.00000000000E+00  0.99999998245E-14  0.12500000000E+03  0.12500000000E+03 0.  0.
        -13    1    3    3    0    0  0.23632459779E+02  0.43037524782E+02 -0.24581011720E+02  0.54908642268E+02  0.10566000000E+00 0.  1.
         23    2    1    0    0    0 -0.98513829973E+01  0.26359841702E+02 -0.87253016680E+01  0.95537788768E+02  0.90881500823E+02 0.  0.
         13    1    3    3    0    0 -0.33483842776E+02 -0.16677683080E+02  0.15855710052E+02  0.40629146499E+02  0.10566000000E+00 0. -1.
         22    1    1    0    0    0  0.98513829973E+01 -0.26359841702E+02  0.87253016680E+01  0.29462211232E+02  0.00000000000E+00 0.  1.
</event>
<event>
 5    1  0.1324057E-009  0.9118800E+02  0.7818608E-02  0.1130116E+00
         25   -1    0    0    0    0  0.00000000000E+00  0.00000000000E+00  0.99999998245E-14  0.12500000000E+03  0.12500000000E+03 0.  0.
        -13    1    3    3    0    0  0.19010809289E+02 -0.13480123069E+02  0.47681724234E+02  0.53072427660E+02  0.10566000000E+00 0.  1.
         23    2    1    0    0    0  0.25724062463E+02 -0.11723768835E+02  0.50284642158E+01  0.96286595506E+02  0.91905652038E+02 0.  0.
         13    1    3    3    0    0  0.67132531735E+01  0.17563542344E+01 -0.42653260018E+02  0.43214167846E+02  0.10566000000E+00 0. -1.
         22    1    1    0    0    0 -0.25724062463E+02  0.11723768835E+02 -0.50284642158E+01  0.28713404494E+02  0.00000000000E+00 0. -1.
</event>
<event>
 5    1  0.1324057E-009  0.9118800E+02  0.7818608E-02  0.1130116E+00
         25   -1    0    0    0    0  0.00000000000E+00  0.00000000000E+00  0.99999998245E-14  0.12500000000E+03  0.12500000000E+03 0.  0.
        -13    1    3    3    0    0  0.19102319113E+02 -0.11595212332E+01  0.35428146181E+02  0.40266708219E+02  0.10566000000E+00 0.  1.
         23    2    1    0    0    0 -0.57223610965E+01  0.28812161229E+02 -0.36272082960E+01  0.95401981633E+02  0.90694516970E+02 0.  0.
         13    1    3    3    0    0 -0.24824680209E+02  0.29971682462E+02 -0.39055354477E+02  0.55135273414E+02  0.10566000000E+00 0. -1.
         22    1    1    0    0    0  0.57223610965E+01 -0.28812161229E+02  0.36272082960E+01  0.29598018367E+02  0.00000000000E+00 0. -1.
</event>
<event>
 5    1  0.1324057E-009  0.9118800E+02  0.7818608E-02  0.1130116E+00
         25   -1    0    0    0    0  0.00000000000E+00  0.00000000000E+00  0.99999998245E-14  0.12500000000E+03  0.12500000000E+03 0.  0.
        -13    1    3    3    0    0  0.49418489898E+02 -0.57107875597E+01 -0.22568564735E+02  0.54627387971E+02  0.10566000000E+00 0.  1.
         23    2    1    0    0    0  0.24759719499E+02  0.15969504862E+02  0.17473092287E+01  0.95485225992E+02  0.90809176287E+02 0.  0.
         13    1    3    3    0    0 -0.24658770399E+02  0.21680292421E+02  0.24315873963E+02  0.40857838020E+02  0.10566000000E+00 0. -1.
         22    1    1    0    0    0 -0.24759719499E+02 -0.15969504862E+02 -0.17473092287E+01  0.29514774008E+02  0.00000000000E+00 0.  1.
</event>
<event>
 5    1  0.1324057E-009  0.9118800E+02  0.7818608E-02  0.1130116E+00
         25   -1    0    0    0    0  0.00000000000E+00  0.00000000000E+00  0.99999998245E-14  0.12500000000E+03  0.12500000000E+03 0.  0.
        -13    1    3    3    0    0  0.31243323571E+02 -0.27296987533E+02 -0.10277465704E+02  0.42742347403E+02  0.10566000000E+00 0. -1.
         23    2    1    0    0    0  0.17066868971E+02  0.22798980565E+02  0.26829834578E+01  0.96394582130E+02  0.92052406447E+02 0.  0.
         13    1    3    3    0    0 -0.14176454600E+02  0.50095968098E+02  0.12960449162E+02  0.53652234727E+02  0.10566000000E+00 0.  1.
         22    1    1    0    0    0 -0.17066868971E+02 -0.22798980565E+02 -0.26829834578E+01  0.28605417870E+02  0.00000000000E+00 0. -1.
</event>
<event>
 5    1  0.1324057E-009  0.9118800E+02  0.7818608E-02  0.1130116E+00
         25   -1    0    0    0    0  0.00000000000E+00  0.00000000000E+00  0.99999998245E-14  0.12500000000E+03  0.12500000000E+03 0.  0.
        -13    1    3    3    0    0 -0.14986723577E+02 -0.13238312584E+02  0.18613315554E+02  0.27318885109E+02  0.10566000000E+00 0. -1.
         23    2    1    0    0    0  0.34980535249E+02  0.14546706388E+02  0.11557134608E+01  0.87097754860E+02  0.78418357003E+02 0.  0.
         13    1    3    3    0    0  0.49967258826E+02  0.27785018973E+02 -0.17457602093E+02  0.59778869751E+02  0.10566000000E+00 0.  1.
         22    1    1    0    0    0 -0.34980535249E+02 -0.14546706388E+02 -0.11557134608E+01  0.37902245140E+02  0.00000000000E+00 0.  1.
</event>
<event>
 5    1  0.1324057E-009  0.9118800E+02  0.7818608E-02  0.1130116E+00
         25   -1    0    0    0    0  0.00000000000E+00  0.00000000000E+00  0.99999998245E-14  0.12500000000E+03  0.12500000000E+03 0.  0.
        -13    1    3    3    0    0  0.76070774225E+01  0.30655561752E+02  0.23019260685E+02  0.39083610629E+02  0.10566000000E+00 0.  1.
         23    2    1    0    0    0  0.24261418417E+02  0.50183561340E+00 -0.19545286121E+02  0.93840948793E+02  0.88516875217E+02 0.  0.
         13    1    3    3    0    0  0.16654340994E+02 -0.30153726139E+02 -0.42564546806E+02  0.54757338164E+02  0.10566000000E+00 0. -1.
         22    1    1    0    0    0 -0.24261418417E+02 -0.50183561340E+00  0.19545286121E+02  0.31159051207E+02  0.00000000000E+00 0. -1.
</event>
<event>
 5    1  0.1324057E-009  0.9118800E+02  0.7818608E-02  0.1130116E+00
         25   -1    0    0    0    0  0.00000000000E+00  0.00000000000E+00  0.99999998245E-14  0.12500000000E+03  0.12500000000E+03 0.  0.
        -13    1    3    3    0    0  0.77535522537E+01 -0.31137020643E+02 -0.26248897443E+02  0.41456572556E+02  0.10566000000E+00 0.  1.
         23    2    1    0    0    0 -0.26954774582E+02  0.64577001787E+01 -0.51235189885E+01  0.96812907011E+02  0.92618717076E+02 0.  0.
         13    1    3    3    0    0 -0.34708326835E+02  0.37594720822E+02  0.21125378455E+02  0.55356334455E+02  0.10566000000E+00 0. -1.
         22    1    1    0    0    0  0.26954774582E+02 -0.64577001787E+01  0.51235189885E+01  0.28187092989E+02  0.00000000000E+00 0. -1.
</event>
<event>
 5    1  0.1324057E-009  0.9118800E+02  0.7818608E-02  0.1130116E+00
         25   -1    0    0    0    0  0.00000000000E+00  0.00000000000E+00  0.99999998245E-14  0.12500000000E+03  0.12500000000E+03 0.  0.
        -13    1    3    3    0    0 -0.39720945834E+02  0.48987735793E+01  0.14271785340E+02  0.42490546494E+02  0.10566000000E+00 0.  1.
         23    2    1    0    0    0  0.26983560015E+01  0.30768167859E+02  0.26454150262E+00  0.94112603530E+02  0.88899667505E+02 0.  0.
         13    1    3    3    0    0  0.42419301836E+02  0.25869394280E+02 -0.14007243838E+02  0.51622057036E+02  0.10566000000E+00 0. -1.
         22    1    1    0    0    0 -0.26983560015E+01 -0.30768167859E+02 -0.26454150262E+00  0.30887396470E+02  0.00000000000E+00 0.  1.
</event>
<event>
 5    1  0.1324057E-009  0.9118800E+02  0.7818608E-02  0.1130116E+00
         25   -1    0    0    0    0  0.00000000000E+00  0.00000000000E+00  0.99999998245E-14  0.12500000000E+03  0.12500000000E+03 0.  0.
        -13    1    3    3    0    0 -0.31538936016E+02  0.29622744276E+02  0.37210032169E+02  0.57068459954E+02  0.10566000000E+00 0. -1.
         23    2    1    0    0    0 -0.22990043663E+01  0.26654147796E+02  0.12479363688E+02  0.95479438795E+02  0.90801209787E+02 0.  0.
         13    1    3    3    0    0  0.29239931650E+02 -0.29685964804E+01 -0.24730668481E+02  0.38410978841E+02  0.10566000000E+00 0.  1.
         22    1    1    0    0    0  0.22990043663E+01 -0.26654147796E+02 -0.12479363688E+02  0.29520561205E+02  0.00000000000E+00 0. -1.
</event>
<event>
 5    1  0.1324057E-009  0.9118800E+02  0.7818608E-02  0.1130116E+00
         25   -1    0    0    0    0  0.00000000000E+00  0.00000000000E+00  0.99999998245E-14  0.12500000000E+03  0.12500000000E+03 0.  0.
        -13    1    3    3    0    0  0.43502376086E+02  0.35448812616E+02  0.24135808695E+02  0.61087015531E+02  0.10566000000E+00 0.  1.
         23    2    1    0    0    0  0.23914818599E+02  0.26690637821E+02  0.22671416953E+02  0.82593610829E+02  0.70875967064E+02 0.  0.
         13    1    3    3    0    0 -0.19587557488E+02 -0.87581747954E+01 -0.14643917429E+01  0.21506595298E+02  0.10566000000E+00 0. -1.
         22    1    1    0    0    0 -0.23914818599E+02 -0.26690637821E+02 -0.22671416953E+02  0.42406389171E+02  0.00000000000E+00 0.  1.
</event>
<event>
 5    1  0.1324057E-009  0.9118800E+02  0.7818608E-02  0.1130116E+00
         25   -1    0    0    0    0  0.00000000000E+00  0.00000000000E+00  0.99999998245E-14  0.12500000000E+03  0.12500000000E+03 0.  0.
        -13    1    3    3    0    0  0.28109572844E+02  0.17440675896E+02  0.36997010279E+02  0.49629781329E+02  0.10566000000E+00 0. -1.
         23    2    1    0    0    0 -0.14740721774E+02  0.89327741094E+01  0.24454848997E+02  0.95081394231E+02  0.90251584793E+02 0.  0.
         13    1    3    3    0    0 -0.42850294618E+02 -0.85079017862E+01 -0.12542161282E+02  0.45451612902E+02  0.10566000000E+00 0.  1.
         22    1    1    0    0    0  0.14740721774E+02 -0.89327741094E+01 -0.24454848997E+02  0.29918605769E+02  0.00000000000E+00 0. -1.
</event>
<event>
 5    1  0.1324057E-009  0.9118800E+02  0.7818608E-02  0.1130116E+00
         25   -1    0    0    0    0  0.00000000000E+00  0.00000000000E+00  0.99999998245E-14  0.12500000000E+03  0.12500000000E+03 0.  0.
        -13    1    3    3    0    0 -0.18367969611E+02 -0.35355124339E+02  0.54051933699E+01  0.40206894982E+02  0.10566000000E+00 0. -1.
         23    2    1    0    0    0 -0.94766388944E+01  0.89966961177E+01 -0.26426887334E+02  0.95519029868E+02  0.90855695843E+02 0.  0.
         13    1    3    3    0    0  0.88913307170E+01  0.44351820457E+02 -0.31832080704E+02  0.55312134886E+02  0.10566000000E+00 0.  1.
         22    1    1    0    0    0  0.94766388944E+01 -0.89966961177E+01  0.26426887334E+02  0.29480970132E+02  0.00000000000E+00 0.  1.
</event>
<event>
 5    1  0.1324057E-009  0.9118800E+02  0.7818608E-02  0.1130116E+00
         25   -1    0    0    0    0  0.00000000000E+00  0.00000000000E+00  0.99999998245E-14  0.12500000000E+03  0.12500000000E+03 0.  0.
        -13    1    3    3    0    0 -0.29551302767E+02 -0.14943480791E+02 -0.47391397323E+01  0.33452320141E+02  0.10566000000E+00 0. -1.
         23    2    1    0    0    0  0.23331566812E+02  0.15480432183E+02  0.82093005697E+01  0.95821267911E+02  0.91270570162E+02 0.  0.
         13    1    3    3    0    0  0.52882869579E+02  0.30423912975E+02  0.12948440302E+02  0.62368947770E+02  0.10566000000E+00 0.  1.
         22    1    1    0    0    0 -0.23331566812E+02 -0.15480432183E+02 -0.82093005697E+01  0.29178732089E+02  0.00000000000E+00 0.  1.
</event>
<event>
 5    1  0.1324057E-009  0.9118800E+02  0.7818608E-02  0.1130116E+00
         25   -1    0    0    0    0  0.00000000000E+00  0.00000000000E+00  0.99999998245E-14  0.12500000000E+03  0.12500000000E+03 0.  0.
        -13    1    3    3    0    0  0.94627524033E+01  0.50045241954E+02  0.13730356207E+02  0.52750391192E+02  0.10566000000E+00 0.  1.
         23    2    1    0    0    0  0.24868137995E+02  0.95650980097E+01 -0.53106447325E+00  0.98350470609E+02  0.94671102520E+02 0.  0.
         13    1    3    3    0    0  0.15405385591E+02 -0.40480143945E+02 -0.14261420681E+02  0.45600079417E+02  0.10566000000E+00 0. -1.
         22    1    1    0    0    0 -0.24868137995E+02 -0.95650980097E+01  0.53106447325E+00  0.26649529391E+02  0.00000000000E+00 0.  1.
</event>
<event>
 5    1  0.1324057E-009  0.9118800E+02  0.7818608E-02  0.1130116E+00
         25   -1    0    0    0    0  0.00000000000E+00  0.00000000000E+00  0.99999998245E-14  0.12500000000E+03  0.12500000000E+03 0.  0.
        -13    1    3    3    0    0  0.30663367061E+02  0.28727184429E+02 -0.35403721706E+02  0.54944771174E+02  0.10566000000E+00 0.  1.
         23    2    1    0    0    0  0.32129701689E+01  0.28541313963E+02 -0.51076668369E+01  0.95827786499E+02  0.91279497285E+02 0.  0.
         13    1    3    3    0    0 -0.27450396892E+02 -0.18587046616E+00  0.30296054869E+02  0.40883015324E+02  0.10566000000E+00 0. -1.
         22    1    1    0    0    0 -0.32129701689E+01 -0.28541313963E+02  0.51076668369E+01  0.29172213501E+02  0.00000000000E+00 0.  1.
</event>
<event>
 5    1  0.1324057E-009  0.9118800E+02  0.7818608E-02  0.1130116E+00
         25   -1    0    0    0    0  0.00000000000E+00  0.00000000000E+00  0.99999998245E-14  0.12500000000E+03  0.12500000000E+03 0.  0.
        -13    1    3    3    0    0  0.43223197485E+02 -0.18938415967E+02  0.38294395263E+02  0.60773187121E+02  0.10566000000E+00 0.  1.
         23    2    1    0    0    0  0.24238220080E+02 -0.11799335514E+02  0.86576029200E+01  0.96686227388E+02  0.92447589731E+02 0.  0.
         13    1    3    3    0    0 -0.18984977406E+02  0.71390804529E+01 -0.29636792343E+02  0.35913040267E+02  0.10566000000E+00 0. -1.
         22    1    1    0    0    0 -0.24238220080E+02  0.11799335514E+02 -0.86576029200E+01  0.28313772612E+02  0.00000000000E+00 0.  1.
</event>
<event>
 5    1  0.1324057E-009  0.9118800E+02  0.7818608E-02  0.1130116E+00
         25   -1    0    0    0    0  0.00000000000E+00  0.00000000000E+00  0.99999998245E-14  0.12500000000E+03  0.12500000000E+03 0.  0.
        -13    1    3    3    0    0 -0.11458788561E+02 -0.19198872106E+02  0.43744070480E+02  0.49126931429E+02  0.10566000000E+00 0. -1.
         23    2    1    0    0    0 -0.11484429933E+02  0.19681872572E+02  0.19970431134E+02  0.94700060090E+02  0.89721875942E+02 0.  0.
         13    1    3    3    0    0 -0.25641371884E-01  0.38880744678E+02 -0.23773639346E+02  0.45573128661E+02  0.10566000000E+00 0.  1.
         22    1    1    0    0    0  0.11484429933E+02 -0.19681872572E+02 -0.19970431134E+02  0.30299939910E+02  0.00000000000E+00 0.  1.
</event>
<event>
 5    1  0.1324057E-009  0.9118800E+02  0.7818608E-02  0.1130116E+00
         25   -1    0    0    0    0  0.00000000000E+00  0.00000000000E+00  0.99999998245E-14  0.12500000000E+03  0.12500000000E+03 0.  0.
        -13    1    3    3    0    0  0.12137812170E+02  0.48131998841E+02  0.74276134768E+01  0.50191596933E+02  0.10566000000E+00 0.  1.
         23    2    1    0    0    0  0.10857314725E+02  0.85429161058E+01  0.27222635450E+02  0.94472396434E+02  0.89404133621E+02 0.  0.
         13    1    3    3    0    0 -0.12804974448E+01 -0.39589082735E+02  0.19795021973E+02  0.44280799501E+02  0.10566000000E+00 0. -1.
         22    1    1    0    0    0 -0.10857314725E+02 -0.85429161058E+01 -0.27222635450E+02  0.30527603566E+02  0.00000000000E+00 0. -1.
</event>
<event>
 5    1  0.1324057E-009  0.9118800E+02  0.7818608E-02  0.1130116E+00
         25   -1    0    0    0    0  0.00000000000E+00  0.00000000000E+00  0.99999998245E-14  0.12500000000E+03  0.12500000000E+03 0.  0.
        -13    1    3    3    0    0 -0.17367092245E+02  0.10032415307E+02  0.34882846475E+02  0.40237909889E+02  0.10566000000E+00 0.  1.
         23    2    1    0    0    0 -0.20479121526E+02 -0.19501286414E+02 -0.10803216309E+02  0.94727833363E+02  0.89760561166E+02 0.  0.
         13    1    3    3    0    0 -0.31120292812E+01 -0.29533701720E+02 -0.45686062784E+02  0.54489923475E+02  0.10566000000E+00 0. -1.
         22    1    1    0    0    0  0.20479121526E+02  0.19501286414E+02  0.10803216309E+02  0.30272166637E+02  0.00000000000E+00 0. -1.
</event>
<event>
 5    1  0.1324057E-009  0.9118800E+02  0.7818608E-02  0.1130116E+00
         25   -1    0    0    0    0  0.00000000000E+00  0.00000000000E+00  0.99999998245E-14  0.12500000000E+03  0.12500000000E+03 0.  0.
        -13    1    3    3    0    0  0.29368318735E+02 -0.51762892247E+02  0.50428941902E+01  0.59727188993E+02  0.10566000000E+00 0.  1.
         23    2    1    0    0    0  0.24402558238E+02 -0.16577520853E+02  0.11112512000E+01  0.95478246572E+02  0.90799568518E+02 0.  0.
         13    1    3    3    0    0 -0.49657604967E+01  0.35185371394E+02 -0.39316429902E+01  0.35751057580E+02  0.10566000000E+00 0. -1.
         22    1    1    0    0    0 -0.24402558238E+02  0.16577520853E+02 -0.11112512000E+01  0.29521753428E+02  0.00000000000E+00 0.  1.
</event>
<event>
 5    1  0.1324057E-009  0.9118800E+02  0.7818608E-02  0.1130116E+00
         25   -1    0    0    0    0  0.00000000000E+00  0.00000000000E+00  0.99999998245E-14  0.12500000000E+03  0.12500000000E+03 0.  0.
        -13    1    3    3    0    0 -0.16969721382E+02 -0.20290834726E+02  0.31554533951E+02  0.41175104063E+02  0.10566000000E+00 0.  1.
         23    2    1    0    0    0 -0.28950424274E+02  0.66390788656E+01 -0.11328606928E+02  0.93210980375E+02  0.87622743016E+02 0.  0.
         13    1    3    3    0    0 -0.11980702891E+02  0.26929913592E+02 -0.42883140879E+02  0.52035876312E+02  0.10566000000E+00 0. -1.
         22    1    1    0    0    0  0.28950424274E+02 -0.66390788656E+01  0.11328606928E+02  0.31789019625E+02  0.00000000000E+00 0.  1.
</event>
<event>
 5    1  0.1324057E-009  0.9118800E+02  0.7818608E-02  0.1130116E+00
         25   -1    0    0    0    0  0.00000000000E+00  0.00000000000E+00  0.99999998245E-14  0.12500000000E+03  0.12500000000E+03 0.  0.
        -13    1    3    3    0    0 -0.24595931658E+02  0.45883120044E+01  0.29786983013E+02  0.38901002329E+02  0.10566000000E+00 0.  1.
         23    2    1    0    0    0  0.26707071303E+02  0.10871018091E+02  0.73771417972E+01  0.95236449926E+02  0.90466084703E+02 0.  0.
         13    1    3    3    0    0  0.51303002961E+02  0.62827060865E+01 -0.22409841215E+02  0.56335447597E+02  0.10566000000E+00 0. -1.
         22    1    1    0    0    0 -0.26707071303E+02 -0.10871018091E+02 -0.73771417972E+01  0.29763550074E+02  0.00000000000E+00 0.  1.
</event>
<event>
 5    1  0.1324057E-009  0.9118800E+02  0.7818608E-02  0.1130116E+00
         25   -1    0    0    0    0  0.00000000000E+00  0.00000000000E+00  0.99999998245E-14  0.12500000000E+03  0.12500000000E+03 0.  0.
        -13    1    3    3    0    0  0.22947665970E+02 -0.34486915080E+02  0.22031826545E+02  0.46918602176E+02  0.10566000000E+00 0.  1.
         23    2    1    0    0    0 -0.26857782312E+00 -0.22380730692E+02 -0.19032140257E+02  0.95619877415E+02  0.90994336932E+02 0.  0.
         13    1    3    3    0    0 -0.23216243793E+02  0.12106184388E+02 -0.41063966802E+02  0.48701275239E+02  0.10566000000E+00 0. -1.
         22    1    1    0    0    0  0.26857782312E+00  0.22380730692E+02  0.19032140257E+02  0.29380122585E+02  0.00000000000E+00 0.  1.
</event>
<event>
 5    1  0.1324057E-009  0.9118800E+02  0.7818608E-02  0.1130116E+00
         25   -1    0    0    0    0  0.00000000000E+00  0.00000000000E+00  0.99999998245E-14  0.12500000000E+03  0.12500000000E+03 0.  0.
        -13    1    3    3    0    0 -0.32885593724E+02  0.11164371207E+02  0.18817278494E+02  0.39499450541E+02  0.10566000000E+00 0.  1.
         23    2    1    0    0    0  0.18901708385E+02  0.22162280032E+02 -0.53275087717E+00  0.95867113779E+02  0.91333336985E+02 0.  0.
         13    1    3    3    0    0  0.51787302109E+02  0.10997908825E+02 -0.19350029372E+02  0.56367663238E+02  0.10566000000E+00 0. -1.
         22    1    1    0    0    0 -0.18901708385E+02 -0.22162280032E+02  0.53275087717E+00  0.29132886221E+02  0.00000000000E+00 0. -1.
</event>
<event>
 5    1  0.1324057E-009  0.9118800E+02  0.7818608E-02  0.1130116E+00
         25   -1    0    0    0    0  0.00000000000E+00  0.00000000000E+00  0.99999998245E-14  0.12500000000E+03  0.12500000000E+03 0.  0.
        -13    1    3    3    0    0  0.23170473969E+02  0.38600919219E+02  0.17711898428E+02  0.48379999364E+02  0.10566000000E+00 0.  1.
         23    2    1    0    0    0  0.19246949377E+01 -0.23543553604E+01  0.28969193626E+02  0.95871635489E+02  0.91339525246E+02 0.  0.
         13    1    3    3    0    0 -0.21245779032E+02 -0.40955274580E+02  0.11257295198E+02  0.47491636124E+02  0.10566000000E+00 0. -1.
         22    1    1    0    0    0 -0.19246949377E+01  0.23543553604E+01 -0.28969193626E+02  0.29128364511E+02  0.00000000000E+00 0. -1.
</event>
<event>
 5    1  0.1324057E-009  0.9118800E+02  0.7818608E-02  0.1130116E+00
         25   -1    0    0    0    0  0.00000000000E+00  0.00000000000E+00  0.99999998245E-14  0.12500000000E+03  0.12500000000E+03 0.  0.
        -13    1    3    3    0    0  0.19079748854E+02  0.13651095128E+02  0.62510411692E+01  0.24279124660E+02  0.10566000000E+00 0. -1.
         23    2    1    0    0    0 -0.17563842145E+02 -0.34908525277E+02  0.78810762860E+01  0.85135165229E+02  0.75224938067E+02 0.  0.
         13    1    3    3    0    0 -0.36643590998E+02 -0.48559620406E+02  0.16300351168E+01  0.60856040569E+02  0.10566000000E+00 0.  1.
         22    1    1    0    0    0  0.17563842145E+02  0.34908525277E+02 -0.78810762860E+01  0.39864834771E+02  0.00000000000E+00 0.  1.
</event>
<event>
 5    1  0.1324057E-009  0.9118800E+02  0.7818608E-02  0.1130116E+00
         25   -1    0    0    0    0  0.00000000000E+00  0.00000000000E+00  0.99999998245E-14  0.12500000000E+03  0.12500000000E+03 0.  0.
        -13    1    3    3    0    0  0.28931624770E+02  0.27928722770E+02 -0.13295185659E+02  0.42353578280E+02  0.10566000000E+00 0. -1.
         23    2    1    0    0    0 -0.20042367508E+02  0.11822933847E+02 -0.19967069106E+02  0.94337936978E+02  0.89215941650E+02 0.  0.
         13    1    3    3    0    0 -0.48973992278E+02 -0.16105788923E+02 -0.66718834471E+01  0.51984358698E+02  0.10566000000E+00 0.  1.
         22    1    1    0    0    0  0.20042367508E+02 -0.11822933847E+02  0.19967069106E+02  0.30662063022E+02  0.00000000000E+00 0.  1.
</event>
<event>
 5    1  0.1324057E-009  0.9118800E+02  0.7818608E-02  0.1130116E+00
         25   -1    0    0    0    0  0.00000000000E+00  0.00000000000E+00  0.99999998245E-14  0.12500000000E+03  0.12500000000E+03 0.  0.
        -13    1    3    3    0    0 -0.22529394542E+02  0.21570670589E+02 -0.20741078844E+02  0.37457588867E+02  0.10566000000E+00 0.  1.
         23    2    1    0    0    0  0.27644271663E+02  0.73044218300E+01  0.55532641086E+01  0.95872709080E+02  0.91340994466E+02 0.  0.
         13    1    3    3    0    0  0.50173666206E+02 -0.14266248759E+02  0.26294342952E+02  0.58415120213E+02  0.10566000000E+00 0. -1.
         22    1    1    0    0    0 -0.27644271663E+02 -0.73044218300E+01 -0.55532641086E+01  0.29127290920E+02  0.00000000000E+00 0. -1.
</event>
<event>
 5    1  0.1324057E-009  0.9118800E+02  0.7818608E-02  0.1130116E+00
         25   -1    0    0    0    0  0.00000000000E+00  0.00000000000E+00  0.99999998245E-14  0.12500000000E+03  0.12500000000E+03 0.  0.
        -13    1    3    3    0    0  0.30047566206E+01  0.57379741785E+02  0.10806646954E+02  0.58465871345E+02  0.10566000000E+00 0.  1.
         23    2    1    0    0    0  0.40988801453E+01  0.23115451442E+02  0.20219856827E+02  0.94016657316E+02  0.88764656981E+02 0.  0.
         13    1    3    3    0    0  0.10941235247E+01 -0.34264290343E+02  0.94132098724E+01  0.35550785971E+02  0.10566000000E+00 0. -1.
         22    1    1    0    0    0 -0.40988801453E+01 -0.23115451442E+02 -0.20219856827E+02  0.30983342684E+02  0.00000000000E+00 0.  1.
</event>
<event>
 5    1  0.1324057E-009  0.9118800E+02  0.7818608E-02  0.1130116E+00
         25   -1    0    0    0    0  0.00000000000E+00  0.00000000000E+00  0.99999998245E-14  0.12500000000E+03  0.12500000000E+03 0.  0.
        -13    1    3    3    0    0 -0.56429124951E+02 -0.14451197775E+02 -0.63872763244E+01  0.58599417427E+02  0.10566000000E+00 0.  1.
         23    2    1    0    0    0 -0.28858731257E+02  0.78144511872E+01  0.20606086240E+01  0.95031047315E+02  0.90181826488E+02 0.  0.
         13    1    3    3    0    0  0.27570393694E+02  0.22265648962E+02  0.84478849484E+01  0.36431629888E+02  0.10566000000E+00 0. -1.
         22    1    1    0    0    0  0.28858731257E+02 -0.78144511872E+01 -0.20606086240E+01  0.29968952685E+02  0.00000000000E+00 0.  1.
</event>
<event>
 5    1  0.1324057E-009  0.9118800E+02  0.7818608E-02  0.1130116E+00
         25   -1    0    0    0    0  0.00000000000E+00  0.00000000000E+00  0.99999998245E-14  0.12500000000E+03  0.12500000000E+03 0.  0.
        -13    1    3    3    0    0  0.38089015186E+02  0.13579895842E+02 -0.23530377038E+02  0.46785429960E+02  0.10566000000E+00 0.  1.
         23    2    1    0    0    0 -0.10278325253E+02  0.75523525944E+01 -0.26471793591E+02  0.95615686912E+02  0.90988580207E+02 0.  0.
         13    1    3    3    0    0 -0.48367340438E+02 -0.60275432477E+01 -0.29414165527E+01  0.48830256953E+02  0.10566000000E+00 0. -1.
         22    1    1    0    0    0  0.10278325253E+02 -0.75523525944E+01  0.26471793591E+02  0.29384313088E+02  0.00000000000E+00 0.  1.
</event>
<event>
 5    1  0.1324057E-009  0.9118800E+02  0.7818608E-02  0.1130116E+00
         25   -1    0    0    0    0  0.00000000000E+00  0.00000000000E+00  0.99999998245E-14  0.12500000000E+03  0.12500000000E+03 0.  0.
        -13    1    3    3    0    0  0.15083061905E+02  0.39166733385E+02  0.20299769553E+02  0.46622136034E+02  0.10566000000E+00 0.  1.
         23    2    1    0    0    0 -0.54799005170E+01 -0.43370128661E+01  0.28693618383E+02  0.95467598706E+02  0.90784908859E+02 0.  0.
         13    1    3    3    0    0 -0.20562962422E+02 -0.43503746251E+02  0.83938488297E+01  0.48845462672E+02  0.10566000000E+00 0. -1.
         22    1    1    0    0    0  0.54799005170E+01  0.43370128661E+01 -0.28693618383E+02  0.29532401294E+02  0.00000000000E+00 0. -1.
</event>
<event>
 5    1  0.1324057E-009  0.9118800E+02  0.7818608E-02  0.1130116E+00
         25   -1    0    0    0    0  0.00000000000E+00  0.00000000000E+00  0.99999998245E-14  0.12500000000E+03  0.12500000000E+03 0.  0.
        -13    1    3    3    0    0  0.58598028240E+02 -0.94503353459E+00 -0.12954365059E+02  0.60020402699E+02  0.10566000000E+00 0. -1.
         23    2    1    0    0    0  0.21587380939E+02  0.31716155968E+01 -0.16807032030E+02  0.97458204725E+02  0.93485566700E+02 0.  0.
         13    1    3    3    0    0 -0.37010647301E+02  0.41166491314E+01 -0.38526669715E+01  0.37437802026E+02  0.10566000000E+00 0.  1.
         22    1    1    0    0    0 -0.21587380939E+02 -0.31716155968E+01  0.16807032030E+02  0.27541795275E+02  0.00000000000E+00 0. -1.
</event>
<event>
 5    1  0.1324057E-009  0.9118800E+02  0.7818608E-02  0.1130116E+00
         25   -1    0    0    0    0  0.00000000000E+00  0.00000000000E+00  0.99999998245E-14  0.12500000000E+03  0.12500000000E+03 0.  0.
        -13    1    3    3    0    0  0.42450876611E+02 -0.41833430339E+02 -0.17598594810E+02  0.62143660355E+02  0.10566000000E+00 0.  1.
         23    2    1    0    0    0  0.20346795090E+02 -0.17114091806E+02 -0.12223630054E+02  0.95737372973E+02  0.91155599079E+02 0.  0.
         13    1    3    3    0    0 -0.22104081521E+02  0.24719338532E+02  0.53749647557E+01  0.33593712619E+02  0.10566000000E+00 0. -1.
         22    1    1    0    0    0 -0.20346795090E+02  0.17114091806E+02  0.12223630054E+02  0.29262627027E+02  0.00000000000E+00 0.  1.
</event>
<event>
 5    1  0.1324057E-009  0.9118800E+02  0.7818608E-02  0.1130116E+00
         25   -1    0    0    0    0  0.00000000000E+00  0.00000000000E+00  0.99999998245E-14  0.12500000000E+03  0.12500000000E+03 0.  0.
        -13    1    3    3    0    0 -0.42200616439E+02  0.83280786175E+01 -0.52710518029E+01  0.43336405855E+02  0.10566000000E+00 0. -1.
         23    2    1    0    0    0  0.64781510151E+01  0.12056523268E+02 -0.25402001389E+02  0.96145401260E+02  0.91713414040E+02 0.  0.
         13    1    3    3    0    0  0.48678767454E+02  0.37284446509E+01 -0.20130949586E+02  0.52808995405E+02  0.10566000000E+00 0.  1.
         22    1    1    0    0    0 -0.64781510151E+01 -0.12056523268E+02  0.25402001389E+02  0.28854598740E+02  0.00000000000E+00 0.  1.
</event>
<event>
 5    1  0.1324057E-009  0.9118800E+02  0.7818608E-02  0.1130116E+00
         25   -1    0    0    0    0  0.00000000000E+00  0.00000000000E+00  0.99999998245E-14  0.12500000000E+03  0.12500000000E+03 0.  0.
        -13    1    3    3    0    0 -0.39729950358E+02 -0.56997989809E+01  0.43030478893E+01  0.40366868209E+02  0.10566000000E+00 0.  1.
         23    2    1    0    0    0  0.10157608109E+02 -0.28045906897E+02  0.42030964431E+00  0.95168363163E+02  0.90371957989E+02 0.  0.
         13    1    3    3    0    0  0.49887558467E+02 -0.22346107916E+02 -0.38827382450E+01  0.54801494953E+02  0.10566000000E+00 0. -1.
         22    1    1    0    0    0 -0.10157608109E+02  0.28045906897E+02 -0.42030964431E+00  0.29831636837E+02  0.00000000000E+00 0. -1.
</event>
<event>
 5    1  0.1324057E-009  0.9118800E+02  0.7818608E-02  0.1130116E+00
         25   -1    0    0    0    0  0.00000000000E+00  0.00000000000E+00  0.99999998245E-14  0.12500000000E+03  0.12500000000E+03 0.  0.
        -13    1    3    3    0    0 -0.48337442909E+02 -0.19469160421E+02 -0.25797582157E+02  0.58147080784E+02  0.10566000000E+00 0.  1.
         23    2    1    0    0    0 -0.12477660680E+02 -0.99690841866E+01 -0.25098787260E+02  0.95250650806E+02  0.90485704404E+02 0.  0.
         13    1    3    3    0    0  0.35859782230E+02  0.95000762340E+01  0.69879489715E+00  0.37103570022E+02  0.10566000000E+00 0. -1.
         22    1    1    0    0    0  0.12477660680E+02  0.99690841866E+01  0.25098787260E+02  0.29749349194E+02  0.00000000000E+00 0.  1.
</event>
<event>
 5    1  0.1324057E-009  0.9118800E+02  0.7818608E-02  0.1130116E+00
         25   -1    0    0    0    0  0.00000000000E+00  0.00000000000E+00  0.99999998245E-14  0.12500000000E+03  0.12500000000E+03 0.  0.
        -13    1    3    3    0    0 -0.25654826464E+02  0.45371123399E+02  0.30829022889E+02  0.60556987836E+02  0.10566000000E+00 0. -1.
         23    2    1    0    0    0 -0.15257919884E+02  0.14284735257E+02  0.22318035580E+02  0.94423007134E+02  0.89335053498E+02 0.  0.
         13    1    3    3    0    0  0.10396906580E+02 -0.31086388142E+02 -0.85109873088E+01  0.33866019299E+02  0.10566000000E+00 0.  1.
         22    1    1    0    0    0  0.15257919884E+02 -0.14284735257E+02 -0.22318035580E+02  0.30576992866E+02  0.00000000000E+00 0. -1.
</event>
<event>
 5    1  0.1324057E-009  0.9118800E+02  0.7818608E-02  0.1130116E+00
         25   -1    0    0    0    0  0.00000000000E+00  0.00000000000E+00  0.99999998245E-14  0.12500000000E+03  0.12500000000E+03 0.  0.
        -13    1    3    3    0    0  0.19089165854E+02 -0.47181125335E+02 -0.10595801413E+02  0.51987854471E+02  0.10566000000E+00 0. -1.
         23    2    1    0    0    0 -0.36787344844E+01 -0.22120716786E+02  0.17951551995E+02  0.96275142862E+02  0.91890074086E+02 0.  0.
         13    1    3    3    0    0 -0.22767900338E+02  0.25060408548E+02  0.28547353408E+02  0.44287288392E+02  0.10566000000E+00 0.  1.
         22    1    1    0    0    0  0.36787344844E+01  0.22120716786E+02 -0.17951551995E+02  0.28724857138E+02  0.00000000000E+00 0.  1.
</event>
<event>
 5    1  0.1324057E-009  0.9118800E+02  0.7818608E-02  0.1130116E+00
         25   -1    0    0    0    0  0.00000000000E+00  0.00000000000E+00  0.99999998245E-14  0.12500000000E+03  0.12500000000E+03 0.  0.
        -13    1    3    3    0    0 -0.13522608717E+02  0.12397598934E+01  0.36670738530E+02  0.39104375452E+02  0.10566000000E+00 0. -1.
         23    2    1    0    0    0  0.26353039481E+02  0.14009133899E+02 -0.58339929676E+00  0.95149055673E+02  0.90345248454E+02 0.  0.
         13    1    3    3    0    0  0.39875648199E+02  0.12769374006E+02 -0.37254137827E+02  0.56044680220E+02  0.10566000000E+00 0.  1.
         22    1    1    0    0    0 -0.26353039481E+02 -0.14009133899E+02  0.58339929676E+00  0.29850944327E+02  0.00000000000E+00 0. -1.
</event>
<event>
 5    1  0.1324057E-009  0.9118800E+02  0.7818608E-02  0.1130116E+00
         25   -1    0    0    0    0  0.00000000000E+00  0.00000000000E+00  0.99999998245E-14  0.12500000000E+03  0.12500000000E+03 0.  0.
        -13    1    3    3    0    0  0.31954767662E+01 -0.17307859364E+02  0.51602586569E+02  0.54521657826E+02  0.10566000000E+00 0.  1.
         23    2    1    0    0    0 -0.19036219374E+02 -0.15316012895E+02  0.18924712176E+02  0.94095265249E+02  0.88875285160E+02 0.  0.
         13    1    3    3    0    0 -0.22231696140E+02  0.19918464688E+01 -0.32677874392E+02  0.39573607423E+02  0.10566000000E+00 0. -1.
         22    1    1    0    0    0  0.19036219374E+02  0.15316012895E+02 -0.18924712176E+02  0.30904734751E+02  0.00000000000E+00 0.  1.
</event>
<event>
 5    1  0.1324057E-009  0.9118800E+02  0.7818608E-02  0.1130116E+00
         25   -1    0    0    0    0  0.00000000000E+00  0.00000000000E+00  0.99999998245E-14  0.12500000000E+03  0.12500000000E+03 0.  0.
        -13    1    3    3    0    0  0.31492172080E+02 -0.50707353686E+02 -0.68041777307E+01  0.60077455162E+02  0.10566000000E+00 0.  1.
         23    2    1    0    0    0  0.19066568140E+02 -0.22892113352E+02  0.82891314045E+01  0.94076019438E+02  0.88848212472E+02 0.  0.
         13    1    3    3    0    0 -0.12425603940E+02  0.27815240334E+02  0.15093309135E+02  0.33998564276E+02  0.10566000000E+00 0. -1.
         22    1    1    0    0    0 -0.19066568140E+02  0.22892113352E+02 -0.82891314045E+01  0.30923980562E+02  0.00000000000E+00 0.  1.
</event>
<event>
 5    1  0.1324057E-009  0.9118800E+02  0.7818608E-02  0.1130116E+00
         25   -1    0    0    0    0  0.00000000000E+00  0.00000000000E+00  0.99999998245E-14  0.12500000000E+03  0.12500000000E+03 0.  0.
        -13    1    3    3    0    0 -0.85857656786E+01  0.87635862644E+01 -0.46424460620E+02  0.48018304056E+02  0.10566000000E+00 0. -1.
         23    2    1    0    0    0 -0.31608234205E+01  0.28942793783E+02 -0.36070447021E+01  0.95662534395E+02  0.91052916475E+02 0.  0.
         13    1    3    3    0    0  0.54249422580E+01  0.20179207519E+02  0.42817415918E+02  0.47644230338E+02  0.10566000000E+00 0.  1.
         22    1    1    0    0    0  0.31608234205E+01 -0.28942793783E+02  0.36070447021E+01  0.29337465605E+02  0.00000000000E+00 0.  1.
</event>
<event>
 5    1  0.1324057E-009  0.9118800E+02  0.7818608E-02  0.1130116E+00
         25   -1    0    0    0    0  0.00000000000E+00  0.00000000000E+00  0.99999998245E-14  0.12500000000E+03  0.12500000000E+03 0.  0.
        -13    1    3    3    0    0 -0.20789604341E+02  0.87235146071E+01  0.56934481473E+02  0.61236049026E+02  0.10566000000E+00 0.  1.
         23    2    1    0    0    0 -0.55922619421E+01 -0.36935299416E+01  0.28074488228E+02  0.96136659128E+02  0.91701498253E+02 0.  0.
         13    1    3    3    0    0  0.15197342399E+02 -0.12417044549E+02 -0.28859993245E+02  0.34900610101E+02  0.10566000000E+00 0. -1.
         22    1    1    0    0    0  0.55922619421E+01  0.36935299416E+01 -0.28074488228E+02  0.28863340872E+02  0.00000000000E+00 0.  1.
</event>
<event>
 5    1  0.1324057E-009  0.9118800E+02  0.7818608E-02  0.1130116E+00
         25   -1    0    0    0    0  0.00000000000E+00  0.00000000000E+00  0.99999998245E-14  0.12500000000E+03  0.12500000000E+03 0.  0.
        -13    1    3    3    0    0  0.92483773385E+01 -0.38363507969E+02  0.21743748513E+01  0.39522528982E+02  0.10566000000E+00 0.  1.
         23    2    1    0    0    0 -0.13331033522E+02  0.85388738519E+01  0.24229809980E+02  0.96056736309E+02  0.91592489196E+02 0.  0.
         13    1    3    3    0    0 -0.22579410861E+02  0.46902381821E+02  0.22055435129E+02  0.56534207327E+02  0.10566000000E+00 0. -1.
         22    1    1    0    0    0  0.13331033522E+02 -0.85388738519E+01 -0.24229809980E+02  0.28943263691E+02  0.00000000000E+00 0. -1.
</event>
<event>
 5    1  0.1324057E-009  0.9118800E+02  0.7818608E-02  0.1130116E+00
         25   -1    0    0    0    0  0.00000000000E+00  0.00000000000E+00  0.99999998245E-14  0.12500000000E+03  0.12500000000E+03 0.  0.
        -13    1    3    3    0    0 -0.63688279850E+01  0.23578103961E+02  0.27045781045E+02  0.36441382969E+02  0.10566000000E+00 0.  1.
         23    2    1    0    0    0  0.16353861729E+01 -0.28238452377E+02 -0.24647758136E+01  0.96607046642E+02  0.92340465996E+02 0.  0.
         13    1    3    3    0    0  0.80042141578E+01 -0.51816556338E+02 -0.29510556859E+02  0.60165663673E+02  0.10566000000E+00 0. -1.
         22    1    1    0    0    0 -0.16353861729E+01  0.28238452377E+02  0.24647758136E+01  0.28392953358E+02  0.00000000000E+00 0. -1.
</event>
<event>
 5    1  0.1324057E-009  0.9118800E+02  0.7818608E-02  0.1130116E+00
         25   -1    0    0    0    0  0.00000000000E+00  0.00000000000E+00  0.99999998245E-14  0.12500000000E+03  0.12500000000E+03 0.  0.
        -13    1    3    3    0    0 -0.46330466925E+01 -0.34777576616E+02  0.69372866768E+01  0.35764256841E+02  0.10566000000E+00 0. -1.
         23    2    1    0    0    0  0.42786643974E+01  0.12025802362E+02 -0.27587574679E+02  0.94602612478E+02  0.89586009619E+02 0.  0.
         13    1    3    3    0    0  0.89117110899E+01  0.46803378978E+02 -0.34524861356E+02  0.58838355637E+02  0.10566000000E+00 0.  1.
         22    1    1    0    0    0 -0.42786643974E+01 -0.12025802362E+02  0.27587574679E+02  0.30397387522E+02  0.00000000000E+00 0.  1.
</event>
<event>
 5    1  0.1324057E-009  0.9118800E+02  0.7818608E-02  0.1130116E+00
         25   -1    0    0    0    0  0.00000000000E+00  0.00000000000E+00  0.99999998245E-14  0.12500000000E+03  0.12500000000E+03 0.  0.
        -13    1    3    3    0    0  0.49781994255E+02 -0.32009880989E+02  0.29443932730E+01  0.59258417534E+02  0.10566000000E+00 0.  1.
         23    2    1    0    0    0  0.36505030970E+02 -0.67313667144E+01  0.14208802519E+01  0.87852355597E+02  0.79612115280E+02 0.  0.
         13    1    3    3    0    0 -0.13276963285E+02  0.25278514275E+02 -0.15235130211E+01  0.28593938063E+02  0.10566000000E+00 0. -1.
         22    1    1    0    0    0 -0.36505030970E+02  0.67313667144E+01 -0.14208802519E+01  0.37147644403E+02  0.00000000000E+00 0.  1.
</event>
<event>
 5    1  0.1324057E-009  0.9118800E+02  0.7818608E-02  0.1130116E+00
         25   -1    0    0    0    0  0.00000000000E+00  0.00000000000E+00  0.99999998245E-14  0.12500000000E+03  0.12500000000E+03 0.  0.
        -13    1    3    3    0    0 -0.73529934480E+01  0.39522104990E+02 -0.45492701003E+02  0.60709639301E+02  0.10566000000E+00 0. -1.
         23    2    1    0    0    0  0.86327622943E+00  0.25725885570E+02 -0.14906260834E+02  0.95255033262E+02  0.90491758273E+02 0.  0.
         13    1    3    3    0    0  0.82162696775E+01 -0.13796219420E+02  0.30586440168E+02  0.34545393961E+02  0.10566000000E+00 0.  1.
         22    1    1    0    0    0 -0.86327622943E+00 -0.25725885570E+02  0.14906260834E+02  0.29744966738E+02  0.00000000000E+00 0. -1.
</event>
<event>
 5    1  0.1324057E-009  0.9118800E+02  0.7818608E-02  0.1130116E+00
         25   -1    0    0    0    0  0.00000000000E+00  0.00000000000E+00  0.99999998245E-14  0.12500000000E+03  0.12500000000E+03 0.  0.
        -13    1    3    3    0    0 -0.41736765902E+02 -0.61004216976E+01  0.25335878340E+02  0.49204579748E+02  0.10566000000E+00 0. -1.
         23    2    1    0    0    0 -0.17517473590E+02  0.25907433346E+02  0.12056745390E+02  0.91482510641E+02  0.85121252694E+02 0.  0.
         13    1    3    3    0    0  0.24219292312E+02  0.32007855044E+02 -0.13279132951E+02  0.42277930893E+02  0.10566000000E+00 0.  1.
         22    1    1    0    0    0  0.17517473590E+02 -0.25907433346E+02 -0.12056745390E+02  0.33517489359E+02  0.00000000000E+00 0.  1.
</event>
<event>
 5    1  0.1324057E-009  0.9118800E+02  0.7818608E-02  0.1130116E+00
         25   -1    0    0    0    0  0.00000000000E+00  0.00000000000E+00  0.99999998245E-14  0.12500000000E+03  0.12500000000E+03 0.  0.
        -13    1    3    3    0    0  0.19701740855E+01  0.29133793649E+02  0.20992863697E+02  0.35963467693E+02  0.10566000000E+00 0. -1.
         23    2    1    0    0    0  0.20125061626E+02 -0.97948665883E+01 -0.19737595218E+02  0.95158247673E+02  0.90357965439E+02 0.  0.
         13    1    3    3    0    0  0.18154887541E+02 -0.38928660237E+02 -0.40730458914E+02  0.59194779980E+02  0.10566000000E+00 0.  1.
         22    1    1    0    0    0 -0.20125061626E+02  0.97948665883E+01  0.19737595218E+02  0.29841752327E+02  0.00000000000E+00 0.  1.
</event>
<event>
 5    1  0.1324057E-009  0.9118800E+02  0.7818608E-02  0.1130116E+00
         25   -1    0    0    0    0  0.00000000000E+00  0.00000000000E+00  0.99999998245E-14  0.12500000000E+03  0.12500000000E+03 0.  0.
        -13    1    3    3    0    0  0.30350323126E+02  0.23246627813E+02  0.43858578513E+02  0.58181903473E+02  0.10566000000E+00 0.  1.
         23    2    1    0    0    0  0.27399225265E+02  0.11438804207E+02  0.10807212001E+02  0.93403170759E+02  0.87896488496E+02 0.  0.
         13    1    3    3    0    0 -0.29510978603E+01 -0.11807823606E+02 -0.33051366512E+02  0.35221267286E+02  0.10566000000E+00 0. -1.
         22    1    1    0    0    0 -0.27399225265E+02 -0.11438804207E+02 -0.10807212001E+02  0.31596829241E+02  0.00000000000E+00 0.  1.
</event>
<event>
 5    1  0.1324057E-009  0.9118800E+02  0.7818608E-02  0.1130116E+00
         25   -1    0    0    0    0  0.00000000000E+00  0.00000000000E+00  0.99999998245E-14  0.12500000000E+03  0.12500000000E+03 0.  0.
        -13    1    3    3    0    0 -0.60812460447E+02  0.30208224324E+01 -0.34415237813E+01  0.60984719101E+02  0.10566000000E+00 0.  1.
         23    2    1    0    0    0 -0.26689960950E+02 -0.62449299063E+01  0.44956849743E+01  0.97222952849E+02  0.93170479296E+02 0.  0.
         13    1    3    3    0    0  0.34122499497E+02 -0.92657523386E+01  0.79372087556E+01  0.36238233748E+02  0.10566000000E+00 0. -1.
         22    1    1    0    0    0  0.26689960950E+02  0.62449299063E+01 -0.44956849743E+01  0.27777047151E+02  0.00000000000E+00 0.  1.
</event>
<event>
 5    1  0.1324057E-009  0.9118800E+02  0.7818608E-02  0.1130116E+00
         25   -1    0    0    0    0  0.00000000000E+00  0.00000000000E+00  0.99999998245E-14  0.12500000000E+03  0.12500000000E+03 0.  0.
        -13    1    3    3    0    0  0.20754346770E+02  0.27338289620E+02  0.56826405487E+01  0.34791213788E+02  0.10566000000E+00 0. -1.
         23    2    1    0    0    0 -0.25405117242E+02 -0.53637721290E+01  0.18900092676E+02  0.92884528079E+02  0.87155791660E+02 0.  0.
         13    1    3    3    0    0 -0.46159464012E+02 -0.32702061749E+02  0.13217452127E+02  0.58093314291E+02  0.10566000000E+00 0.  1.
         22    1    1    0    0    0  0.25405117242E+02  0.53637721290E+01 -0.18900092676E+02  0.32115471921E+02  0.00000000000E+00 0.  1.
</event>
<event>
 5    1  0.1324057E-009  0.9118800E+02  0.7818608E-02  0.1130116E+00
         25   -1    0    0    0    0  0.00000000000E+00  0.00000000000E+00  0.99999998245E-14  0.12500000000E+03  0.12500000000E+03 0.  0.
        -13    1    3    3    0    0 -0.87018741266E+01 -0.59177436572E+02  0.16768055801E+02  0.62119807404E+02  0.10566000000E+00 0.  1.
         23    2    1    0    0    0 -0.50880533876E-01 -0.28748732037E+02  0.53145383390E+01  0.95764123063E+02  0.91192273607E+02 0.  0.
         13    1    3    3    0    0  0.86509935927E+01  0.30428704535E+02 -0.11453517462E+02  0.33644315659E+02  0.10566000000E+00 0. -1.
         22    1    1    0    0    0  0.50880533876E-01  0.28748732037E+02 -0.53145383390E+01  0.29235876937E+02  0.00000000000E+00 0.  1.
</event>
<event>
 5    1  0.1324057E-009  0.9118800E+02  0.7818608E-02  0.1130116E+00
         25   -1    0    0    0    0  0.00000000000E+00  0.00000000000E+00  0.99999998245E-14  0.12500000000E+03  0.12500000000E+03 0.  0.
        -13    1    3    3    0    0 -0.28206433355E+01 -0.18589770282E+02  0.57437973056E+02  0.60437302230E+02  0.10566000000E+00 0.  1.
         23    2    1    0    0    0  0.22393596699E+01  0.21566139387E+01  0.28122995797E+02  0.96705678874E+02  0.92473886684E+02 0.  0.
         13    1    3    3    0    0  0.50600030053E+01  0.20746384221E+02 -0.29314977259E+02  0.36268376644E+02  0.10566000000E+00 0. -1.
         22    1    1    0    0    0 -0.22393596699E+01 -0.21566139387E+01 -0.28122995797E+02  0.28294321126E+02  0.00000000000E+00 0.  1.
</event>
<event>
 5    1  0.1324057E-009  0.9118800E+02  0.7818608E-02  0.1130116E+00
         25   -1    0    0    0    0  0.00000000000E+00  0.00000000000E+00  0.99999998245E-14  0.12500000000E+03  0.12500000000E+03 0.  0.
        -13    1    3    3    0    0 -0.37150539388E+02  0.89535939052E+01  0.22725609733E+02  0.44461150709E+02  0.10566000000E+00 0.  1.
         23    2    1    0    0    0  0.19833653478E+01 -0.23378690908E+02  0.17970478366E+02  0.95446065924E+02  0.90755255941E+02 0.  0.
         13    1    3    3    0    0  0.39133904735E+02 -0.32332284813E+02 -0.47551313671E+01  0.50984915215E+02  0.10566000000E+00 0. -1.
         22    1    1    0    0    0 -0.19833653478E+01  0.23378690908E+02 -0.17970478366E+02  0.29553934076E+02  0.00000000000E+00 0. -1.
</event>
<event>
 5    1  0.1324057E-009  0.9118800E+02  0.7818608E-02  0.1130116E+00
         25   -1    0    0    0    0  0.00000000000E+00  0.00000000000E+00  0.99999998245E-14  0.12500000000E+03  0.12500000000E+03 0.  0.
        -13    1    3    3    0    0 -0.32157031588E+02  0.41472618369E+02 -0.20514626060E+02  0.56346373453E+02  0.10566000000E+00 0.  1.
         23    2    1    0    0    0 -0.20308407426E+02  0.40291445361E+01 -0.20843234204E+02  0.95621337165E+02  0.90996342186E+02 0.  0.
         13    1    3    3    0    0  0.11848624162E+02 -0.37443473833E+02 -0.32860814442E+00  0.39274963712E+02  0.10566000000E+00 0. -1.
         22    1    1    0    0    0  0.20308407426E+02 -0.40291445361E+01  0.20843234204E+02  0.29378662835E+02  0.00000000000E+00 0.  1.
</event>
<event>
 5    1  0.1324057E-009  0.9118800E+02  0.7818608E-02  0.1130116E+00
         25   -1    0    0    0    0  0.00000000000E+00  0.00000000000E+00  0.99999998245E-14  0.12500000000E+03  0.12500000000E+03 0.  0.
        -13    1    3    3    0    0 -0.29415209185E+02 -0.16286955559E+01  0.33623945834E+02  0.44704452554E+02  0.10566000000E+00 0.  1.
         23    2    1    0    0    0 -0.22044601553E+02  0.12724678857E+02 -0.14669278259E+02  0.95621953192E+02  0.90997188407E+02 0.  0.
         13    1    3    3    0    0  0.73706076325E+01  0.14353374413E+02 -0.48293224093E+02  0.50917500638E+02  0.10566000000E+00 0. -1.
         22    1    1    0    0    0  0.22044601553E+02 -0.12724678857E+02  0.14669278259E+02  0.29378046808E+02  0.00000000000E+00 0. -1.
</event>
<event>
 5    1  0.1324057E-009  0.9118800E+02  0.7818608E-02  0.1130116E+00
         25   -1    0    0    0    0  0.00000000000E+00  0.00000000000E+00  0.99999998245E-14  0.12500000000E+03  0.12500000000E+03 0.  0.
        -13    1    3    3    0    0 -0.31973693841E+02 -0.24757099682E+02  0.13596800479E+02  0.42662808508E+02  0.10566000000E+00 0. -1.
         23    2    1    0    0    0 -0.15025431992E+02  0.10329628616E+02 -0.22678655864E+02  0.95900407809E+02  0.91378892269E+02 0.  0.
         13    1    3    3    0    0  0.16948261849E+02  0.35086728298E+02 -0.36275456343E+02  0.53237599301E+02  0.10566000000E+00 0.  1.
         22    1    1    0    0    0  0.15025431992E+02 -0.10329628616E+02  0.22678655864E+02  0.29099592191E+02  0.00000000000E+00 0. -1.
</event>
<event>
 5    1  0.1324057E-009  0.9118800E+02  0.7818608E-02  0.1130116E+00
         25   -1    0    0    0    0  0.00000000000E+00  0.00000000000E+00  0.99999998245E-14  0.12500000000E+03  0.12500000000E+03 0.  0.
        -13    1    3    3    0    0 -0.42754061080E+02  0.67275259592E+00  0.33726198624E+02  0.54459434192E+02  0.10566000000E+00 0.  1.
         23    2    1    0    0    0 -0.33440661298E+02 -0.29350127649E+00 -0.21029300180E+01  0.91491996692E+02  0.85135181758E+02 0.  0.
         13    1    3    3    0    0  0.93133997822E+01 -0.96625387242E+00 -0.35829128642E+02  0.37032562500E+02  0.10566000000E+00 0. -1.
         22    1    1    0    0    0  0.33440661298E+02  0.29350127649E+00  0.21029300180E+01  0.33508003308E+02  0.00000000000E+00 0.  1.
</event>
<event>
 5    1  0.1324057E-009  0.9118800E+02  0.7818608E-02  0.1130116E+00
         25   -1    0    0    0    0  0.00000000000E+00  0.00000000000E+00  0.99999998245E-14  0.12500000000E+03  0.12500000000E+03 0.  0.
        -13    1    3    3    0    0  0.10894208456E+02 -0.18008571835E+02  0.43727656794E+02  0.48529491757E+02  0.10566000000E+00 0.  1.
         23    2    1    0    0    0  0.28070472729E+02  0.28793299916E+01  0.41286061255E+01  0.96481806352E+02  0.92170774044E+02 0.  0.
         13    1    3    3    0    0  0.17176264272E+02  0.20887901827E+02 -0.39599050669E+02  0.47952314595E+02  0.10566000000E+00 0. -1.
         22    1    1    0    0    0 -0.28070472729E+02 -0.28793299916E+01 -0.41286061255E+01  0.28518193648E+02  0.00000000000E+00 0. -1.
</event>
<event>
 5    1  0.1324057E-009  0.9118800E+02  0.7818608E-02  0.1130116E+00
         25   -1    0    0    0    0  0.00000000000E+00  0.00000000000E+00  0.99999998245E-14  0.12500000000E+03  0.12500000000E+03 0.  0.
        -13    1    3    3    0    0  0.25509602756E+02 -0.42618637707E+01 -0.23989005216E+02  0.35275867826E+02  0.10566000000E+00 0.  1.
         23    2    1    0    0    0 -0.21864290115E+02  0.20084407002E+02  0.33085773648E+01  0.95127315637E+02  0.90315164338E+02 0.  0.
         13    1    3    3    0    0 -0.47373892871E+02  0.24346270773E+02  0.27297582581E+02  0.59851447811E+02  0.10566000000E+00 0. -1.
         22    1    1    0    0    0  0.21864290115E+02 -0.20084407002E+02 -0.33085773648E+01  0.29872684363E+02  0.00000000000E+00 0. -1.
</event>
<event>
 5    1  0.1324057E-009  0.9118800E+02  0.7818608E-02  0.1130116E+00
         25   -1    0    0    0    0  0.00000000000E+00  0.00000000000E+00  0.99999998245E-14  0.12500000000E+03  0.12500000000E+03 0.  0.
        -13    1    3    3    0    0 -0.26051834616E+02 -0.16388295710E+00 -0.20018836884E+02  0.32855592198E+02  0.10566000000E+00 0.  1.
         23    2    1    0    0    0  0.27522086947E+02  0.47355285950E+01  0.11034687159E+02  0.94972432304E+02  0.90100544261E+02 0.  0.
         13    1    3    3    0    0  0.53573921564E+02  0.48994115521E+01  0.31053524043E+02  0.62116840106E+02  0.10566000000E+00 0. -1.
         22    1    1    0    0    0 -0.27522086947E+02 -0.47355285950E+01 -0.11034687159E+02  0.30027567696E+02  0.00000000000E+00 0. -1.
</event>
<event>
 5    1  0.1324057E-009  0.9118800E+02  0.7818608E-02  0.1130116E+00
         25   -1    0    0    0    0  0.00000000000E+00  0.00000000000E+00  0.99999998245E-14  0.12500000000E+03  0.12500000000E+03 0.  0.
        -13    1    3    3    0    0 -0.25279619441E+02 -0.20852674445E+02 -0.94471257264E+01  0.34105022198E+02  0.10566000000E+00 0.  1.
         23    2    1    0    0    0  0.15443805312E+02  0.13511926395E+02  0.21134372263E+02  0.95542488762E+02  0.90887965047E+02 0.  0.
         13    1    3    3    0    0  0.40723424753E+02  0.34364600840E+02  0.30581497989E+02  0.61437466564E+02  0.10566000000E+00 0. -1.
         22    1    1    0    0    0 -0.15443805312E+02 -0.13511926395E+02 -0.21134372263E+02  0.29457511238E+02  0.00000000000E+00 0. -1.
</event>
<event>
 5    1  0.1324057E-009  0.9118800E+02  0.7818608E-02  0.1130116E+00
         25   -1    0    0    0    0  0.00000000000E+00  0.00000000000E+00  0.99999998245E-14  0.12500000000E+03  0.12500000000E+03 0.  0.
        -13    1    3    3    0    0 -0.25473665298E+02  0.30985243145E+02 -0.10685637105E+02  0.41511286668E+02  0.10566000000E+00 0.  1.
         23    2    1    0    0    0  0.12735288630E+02 -0.26650911848E+01 -0.27043806530E+02  0.94989039350E+02  0.90123580917E+02 0.  0.
         13    1    3    3    0    0  0.38208953929E+02 -0.33650334330E+02 -0.16358169426E+02  0.53477752681E+02  0.10566000000E+00 0. -1.
         22    1    1    0    0    0 -0.12735288630E+02  0.26650911848E+01  0.27043806530E+02  0.30010960650E+02  0.00000000000E+00 0.  1.
</event>
<event>
 5    1  0.1324057E-009  0.9118800E+02  0.7818608E-02  0.1130116E+00
         25   -1    0    0    0    0  0.00000000000E+00  0.00000000000E+00  0.99999998245E-14  0.12500000000E+03  0.12500000000E+03 0.  0.
        -13    1    3    3    0    0  0.21925926781E+01  0.10621100266E+02 -0.29563265471E+02  0.31489888264E+02  0.10566000000E+00 0. -1.
         23    2    1    0    0    0  0.93442073412E+00 -0.51242195129E+01  0.30737033947E+02  0.93824753031E+02  0.88494001253E+02 0.  0.
         13    1    3    3    0    0 -0.12581719440E+01 -0.15745319779E+02  0.60300299418E+02  0.62334864767E+02  0.10566000000E+00 0.  1.
         22    1    1    0    0    0 -0.93442073412E+00  0.51242195129E+01 -0.30737033947E+02  0.31175246969E+02  0.00000000000E+00 0.  1.
</event>
<event>
 5    1  0.1324057E-009  0.9118800E+02  0.7818608E-02  0.1130116E+00
         25   -1    0    0    0    0  0.00000000000E+00  0.00000000000E+00  0.99999998245E-14  0.12500000000E+03  0.12500000000E+03 0.  0.
        -13    1    3    3    0    0  0.23431527149E+02 -0.17196579273E+02  0.30859173473E+02  0.42391727432E+02  0.10566000000E+00 0.  1.
         23    2    1    0    0    0  0.21227512518E+02 -0.18881268971E+02 -0.18024982657E+02  0.91354649571E+02  0.84933282009E+02 0.  0.
         13    1    3    3    0    0 -0.22040146303E+01 -0.16846896984E+01 -0.48884156130E+02  0.48962922140E+02  0.10566000000E+00 0. -1.
         22    1    1    0    0    0 -0.21227512518E+02  0.18881268971E+02  0.18024982657E+02  0.33645350429E+02  0.00000000000E+00 0. -1.
</event>
<event>
 5    1  0.1324057E-009  0.9118800E+02  0.7818608E-02  0.1130116E+00
         25   -1    0    0    0    0  0.00000000000E+00  0.00000000000E+00  0.99999998245E-14  0.12500000000E+03  0.12500000000E+03 0.  0.
        -13    1    3    3    0    0  0.99708489941E+00  0.52818251094E+02 -0.23413782293E+02  0.57783892152E+02  0.10566000000E+00 0.  1.
         23    2    1    0    0    0  0.91644644728E+01  0.13672246714E+02 -0.21639115242E+02  0.97812336479E+02  0.93957884819E+02 0.  0.
         13    1    3    3    0    0  0.81673795734E+01 -0.39146004380E+02  0.17746670505E+01  0.40028444327E+02  0.10566000000E+00 0. -1.
         22    1    1    0    0    0 -0.91644644728E+01 -0.13672246714E+02  0.21639115242E+02  0.27187663521E+02  0.00000000000E+00 0.  1.
</event>
<event>
 5    1  0.1324057E-009  0.9118800E+02  0.7818608E-02  0.1130116E+00
         25   -1    0    0    0    0  0.00000000000E+00  0.00000000000E+00  0.99999998245E-14  0.12500000000E+03  0.12500000000E+03 0.  0.
        -13    1    3    3    0    0 -0.22639341317E+02 -0.38599035398E+02  0.33720639428E+02  0.56031401878E+02  0.10566000000E+00 0.  1.
         23    2    1    0    0    0 -0.19946506998E+02  0.27417584231E+00  0.18270506976E+02  0.97949126835E+02  0.94139692525E+02 0.  0.
         13    1    3    3    0    0  0.26928343191E+01  0.38873211240E+02 -0.15450132451E+02  0.41917724957E+02  0.10566000000E+00 0. -1.
         22    1    1    0    0    0  0.19946506998E+02 -0.27417584231E+00 -0.18270506976E+02  0.27050873165E+02  0.00000000000E+00 0.  1.
</event>
<event>
 5    1  0.1324057E-009  0.9118800E+02  0.7818608E-02  0.1130116E+00
         25   -1    0    0    0    0  0.00000000000E+00  0.00000000000E+00  0.99999998245E-14  0.12500000000E+03  0.12500000000E+03 0.  0.
        -13    1    3    3    0    0  0.24937984610E+02  0.29831555298E+02  0.37359403124E+01  0.39061402714E+02  0.10566000000E+00 0. -1.
         23    2    1    0    0    0  0.10941157889E+02 -0.23417824533E+02  0.14792293576E+02  0.95218875256E+02  0.90441797936E+02 0.  0.
         13    1    3    3    0    0 -0.13996826721E+02 -0.53249379831E+02  0.11056353264E+02  0.56157472541E+02  0.10566000000E+00 0.  1.
         22    1    1    0    0    0 -0.10941157889E+02  0.23417824533E+02 -0.14792293576E+02  0.29781124744E+02  0.00000000000E+00 0.  1.
</event>
<event>
 5    1  0.1324057E-009  0.9118800E+02  0.7818608E-02  0.1130116E+00
         25   -1    0    0    0    0  0.00000000000E+00  0.00000000000E+00  0.99999998245E-14  0.12500000000E+03  0.12500000000E+03 0.  0.
        -13    1    3    3    0    0  0.27778385868E+02 -0.14909522262E+02 -0.21376918563E+02  0.38090896377E+02  0.10566000000E+00 0.  1.
         23    2    1    0    0    0  0.20510440234E+01  0.17457837790E+02  0.21213620671E+02  0.97450034775E+02  0.93474641983E+02 0.  0.
         13    1    3    3    0    0 -0.25727341844E+02  0.32367360052E+02  0.42590539234E+02  0.59359138399E+02  0.10566000000E+00 0. -1.
         22    1    1    0    0    0 -0.20510440234E+01 -0.17457837790E+02 -0.21213620671E+02  0.27549965225E+02  0.00000000000E+00 0. -1.
</event>
<event>
 5    1  0.1324057E-009  0.9118800E+02  0.7818608E-02  0.1130116E+00
         25   -1    0    0    0    0  0.00000000000E+00  0.00000000000E+00  0.99999998245E-14  0.12500000000E+03  0.12500000000E+03 0.  0.
        -13    1    3    3    0    0 -0.17542518079E+01 -0.10063972748E+02 -0.37073598116E+02  0.38455478000E+02  0.10566000000E+00 0. -1.
         23    2    1    0    0    0  0.98110277618E+01 -0.19710362893E+02  0.18629619844E+02  0.96158755113E+02  0.91731612752E+02 0.  0.
         13    1    3    3    0    0  0.11565279570E+02 -0.96463901449E+01  0.55703217960E+02  0.57703277113E+02  0.10566000000E+00 0.  1.
         22    1    1    0    0    0 -0.98110277618E+01  0.19710362893E+02 -0.18629619844E+02  0.28841244887E+02  0.00000000000E+00 0.  1.
</event>
<event>
 5    1  0.1324057E-009  0.9118800E+02  0.7818608E-02  0.1130116E+00
         25   -1    0    0    0    0  0.00000000000E+00  0.00000000000E+00  0.99999998245E-14  0.12500000000E+03  0.12500000000E+03 0.  0.
        -13    1    3    3    0    0  0.23110648653E+02  0.24895371993E+02 -0.58780631407E+01  0.34473822216E+02  0.10566000000E+00 0. -1.
         23    2    1    0    0    0 -0.55670511892E+01 -0.24956534027E+02  0.14639183056E+02  0.95536016391E+02  0.90879063033E+02 0.  0.
         13    1    3    3    0    0 -0.28677699842E+02 -0.49851906019E+02  0.20517246197E+02  0.61062194176E+02  0.10566000000E+00 0.  1.
         22    1    1    0    0    0  0.55670511892E+01  0.24956534027E+02 -0.14639183056E+02  0.29463983609E+02  0.00000000000E+00 0.  1.
</event>
<event>
 5    1  0.1324057E-009  0.9118800E+02  0.7818608E-02  0.1130116E+00
         25   -1    0    0    0    0  0.00000000000E+00  0.00000000000E+00  0.99999998245E-14  0.12500000000E+03  0.12500000000E+03 0.  0.
        -13    1    3    3    0    0  0.15604308706E+00  0.11552081333E+02  0.28490005999E+02  0.30743560926E+02  0.10566000000E+00 0. -1.
         23    2    1    0    0    0 -0.12087285691E+02 -0.18624917762E+01 -0.30326475328E+02  0.92300359990E+02  0.86313903848E+02 0.  0.
         13    1    3    3    0    0 -0.12243328778E+02 -0.13414573109E+02 -0.58816481327E+02  0.61556799064E+02  0.10566000000E+00 0.  1.
         22    1    1    0    0    0  0.12087285691E+02  0.18624917762E+01  0.30326475328E+02  0.32699640010E+02  0.00000000000E+00 0.  1.
</event>
<event>
 5    1  0.1324057E-009  0.9118800E+02  0.7818608E-02  0.1130116E+00
         25   -1    0    0    0    0  0.00000000000E+00  0.00000000000E+00  0.99999998245E-14  0.12500000000E+03  0.12500000000E+03 0.  0.
        -13    1    3    3    0    0 -0.26766181570E+02  0.27570065932E+02 -0.36262648352E+02  0.52834911194E+02  0.10566000000E+00 0.  1.
         23    2    1    0    0    0 -0.16083344128E+02  0.22646204578E+02  0.58967120891E+01  0.96604652606E+02  0.92337225167E+02 0.  0.
         13    1    3    3    0    0  0.10682837442E+02 -0.49238613540E+01  0.42159360441E+02  0.43769741412E+02  0.10566000000E+00 0. -1.
         22    1    1    0    0    0  0.16083344128E+02 -0.22646204578E+02 -0.58967120891E+01  0.28395347394E+02  0.00000000000E+00 0. -1.
</event>
<event>
 5    1  0.1324057E-009  0.9118800E+02  0.7818608E-02  0.1130116E+00
         25   -1    0    0    0    0  0.00000000000E+00  0.00000000000E+00  0.99999998245E-14  0.12500000000E+03  0.12500000000E+03 0.  0.
        -13    1    3    3    0    0  0.55376590725E+02 -0.14757197912E+02  0.16082471516E+02  0.59523094212E+02  0.10566000000E+00 0.  1.
         23    2    1    0    0    0  0.28460842935E+02  0.47706325616E+01  0.77269581135E+00  0.96131754912E+02  0.91694812984E+02 0.  0.
         13    1    3    3    0    0 -0.26915747790E+02  0.19527830474E+02 -0.15309775704E+02  0.36608660700E+02  0.10566000000E+00 0. -1.
         22    1    1    0    0    0 -0.28460842935E+02 -0.47706325616E+01 -0.77269581135E+00  0.28868245088E+02  0.00000000000E+00 0.  1.
</event>
<event>
 5    1  0.1324057E-009  0.9118800E+02  0.7818608E-02  0.1130116E+00
         25   -1    0    0    0    0  0.00000000000E+00  0.00000000000E+00  0.99999998245E-14  0.12500000000E+03  0.12500000000E+03 0.  0.
        -13    1    3    3    0    0 -0.28640734422E+02  0.69212619205E+01 -0.18060409943E+02  0.34559877114E+02  0.10566000000E+00 0. -1.
         23    2    1    0    0    0  0.22814590731E+02 -0.18477142411E+02  0.25493645518E+01  0.95531209704E+02  0.90872451414E+02 0.  0.
         13    1    3    3    0    0  0.51455325152E+02 -0.25398404331E+02  0.20609774495E+02  0.60971332590E+02  0.10566000000E+00 0.  1.
         22    1    1    0    0    0 -0.22814590731E+02  0.18477142411E+02 -0.25493645518E+01  0.29468790296E+02  0.00000000000E+00 0.  1.
</event>
<event>
 5    1  0.1324057E-009  0.9118800E+02  0.7818608E-02  0.1130116E+00
         25   -1    0    0    0    0  0.00000000000E+00  0.00000000000E+00  0.99999998245E-14  0.12500000000E+03  0.12500000000E+03 0.  0.
        -13    1    3    3    0    0 -0.43900943602E+01  0.35599165336E+02 -0.95776996418E+01  0.37125691853E+02  0.10566000000E+00 0.  1.
         23    2    1    0    0    0 -0.15282721443E+02 -0.22971394067E+02 -0.37822083664E+00  0.97406711485E+02  0.93416689468E+02 0.  0.
         13    1    3    3    0    0 -0.10892627083E+02 -0.58570559403E+02  0.91994788052E+01  0.60281019632E+02  0.10566000000E+00 0. -1.
         22    1    1    0    0    0  0.15282721443E+02  0.22971394067E+02  0.37822083664E+00  0.27593288515E+02  0.00000000000E+00 0. -1.
</event>
<event>
 5    1  0.1324057E-009  0.9118800E+02  0.7818608E-02  0.1130116E+00
         25   -1    0    0    0    0  0.00000000000E+00  0.00000000000E+00  0.99999998245E-14  0.12500000000E+03  0.12500000000E+03 0.  0.
        -13    1    3    3    0    0 -0.15557815418E+02 -0.14809423557E+02  0.38587018172E+02  0.44162583509E+02  0.10566000000E+00 0. -1.
         23    2    1    0    0    0 -0.48115275824E+01  0.27187901258E+02  0.13243713944E+02  0.94377643273E+02  0.89271556603E+02 0.  0.
         13    1    3    3    0    0  0.10746287836E+02  0.41997324815E+02 -0.25343304229E+02  0.50215059765E+02  0.10566000000E+00 0.  1.
         22    1    1    0    0    0  0.48115275824E+01 -0.27187901258E+02 -0.13243713944E+02  0.30622356727E+02  0.00000000000E+00 0.  1.
</event>
<event>
 5    1  0.1324057E-009  0.9118800E+02  0.7818608E-02  0.1130116E+00
         25   -1    0    0    0    0  0.00000000000E+00  0.00000000000E+00  0.99999998245E-14  0.12500000000E+03  0.12500000000E+03 0.  0.
        -13    1    3    3    0    0  0.19570902342E+02  0.24237039823E+02 -0.24279863897E+02  0.39496547606E+02  0.10566000000E+00 0.  1.
         23    2    1    0    0    0 -0.16744534931E+02 -0.18908247429E+02 -0.11106142950E+02  0.97409282682E+02  0.93420129900E+02 0.  0.
         13    1    3    3    0    0 -0.36315437273E+02 -0.43145287252E+02  0.13173720947E+02  0.57912735077E+02  0.10566000000E+00 0. -1.
         22    1    1    0    0    0  0.16744534931E+02  0.18908247429E+02  0.11106142950E+02  0.27590717318E+02  0.00000000000E+00 0. -1.
</event>
<event>
 5    1  0.1324057E-009  0.9118800E+02  0.7818608E-02  0.1130116E+00
         25   -1    0    0    0    0  0.00000000000E+00  0.00000000000E+00  0.99999998245E-14  0.12500000000E+03  0.12500000000E+03 0.  0.
        -13    1    3    3    0    0  0.20552781611E+02 -0.25147586286E+02 -0.38523069168E+02  0.50387061336E+02  0.10566000000E+00 0.  1.
         23    2    1    0    0    0  0.28782300819E+02 -0.37631884278E+01  0.87027476177E+00  0.95959686542E+02  0.91459945526E+02 0.  0.
         13    1    3    3    0    0  0.82295192076E+01  0.21384397858E+02  0.39393343930E+02  0.45572625206E+02  0.10566000000E+00 0. -1.
         22    1    1    0    0    0 -0.28782300819E+02  0.37631884278E+01 -0.87027476177E+00  0.29040313458E+02  0.00000000000E+00 0.  1.
</event>
<event>
 5    1  0.1324057E-009  0.9118800E+02  0.7818608E-02  0.1130116E+00
         25   -1    0    0    0    0  0.00000000000E+00  0.00000000000E+00  0.99999998245E-14  0.12500000000E+03  0.12500000000E+03 0.  0.
        -13    1    3    3    0    0  0.17792234251E+02 -0.19676281195E+01 -0.28969660877E+02  0.34054185872E+02  0.10566000000E+00 0.  1.
         23    2    1    0    0    0 -0.15768115465E+02  0.54636294846E+01  0.23134264449E+02  0.96474942524E+02  0.92161465000E+02 0.  0.
         13    1    3    3    0    0 -0.33560349716E+02  0.74312576041E+01  0.52103925325E+02  0.62420756652E+02  0.10566000000E+00 0. -1.
         22    1    1    0    0    0  0.15768115465E+02 -0.54636294846E+01 -0.23134264449E+02  0.28525057476E+02  0.00000000000E+00 0. -1.
</event>
<event>
 5    1  0.1324057E-009  0.9118800E+02  0.7818608E-02  0.1130116E+00
         25   -1    0    0    0    0  0.00000000000E+00  0.00000000000E+00  0.99999998245E-14  0.12500000000E+03  0.12500000000E+03 0.  0.
        -13    1    3    3    0    0 -0.24214124946E+02  0.23121645640E+02 -0.22787007189E+02  0.40499298817E+02  0.10566000000E+00 0. -1.
         23    2    1    0    0    0  0.25615641811E+02  0.11222539866E+02  0.10714991958E+01  0.97013313576E+02  0.92888795848E+02 0.  0.
         13    1    3    3    0    0  0.49829766757E+02 -0.11899105774E+02  0.23858506385E+02  0.56514014760E+02  0.10566000000E+00 0.  1.
         22    1    1    0    0    0 -0.25615641811E+02 -0.11222539866E+02 -0.10714991958E+01  0.27986686424E+02  0.00000000000E+00 0.  1.
</event>
<event>
 5    1  0.1324057E-009  0.9118800E+02  0.7818608E-02  0.1130116E+00
         25   -1    0    0    0    0  0.00000000000E+00  0.00000000000E+00  0.99999998245E-14  0.12500000000E+03  0.12500000000E+03 0.  0.
        -13    1    3    3    0    0  0.11101727366E+02  0.31428050040E+02 -0.22038093509E+02  0.39958220798E+02  0.10566000000E+00 0.  1.
         23    2    1    0    0    0 -0.97686747548E+01  0.93272016633E+01  0.25360667854E+02  0.96266967244E+02  0.91878951948E+02 0.  0.
         13    1    3    3    0    0 -0.20870402120E+02 -0.22100848376E+02  0.47398761363E+02  0.56308746447E+02  0.10566000000E+00 0. -1.
         22    1    1    0    0    0  0.97686747548E+01 -0.93272016633E+01 -0.25360667854E+02  0.28733032756E+02  0.00000000000E+00 0. -1.
</event>
<event>
 5    1  0.1324057E-009  0.9118800E+02  0.7818608E-02  0.1130116E+00
         25   -1    0    0    0    0  0.00000000000E+00  0.00000000000E+00  0.99999998245E-14  0.12500000000E+03  0.12500000000E+03 0.  0.
        -13    1    3    3    0    0  0.76969437822E+01  0.32473483781E+02 -0.18713622530E+02  0.38262003668E+02  0.10566000000E+00 0. -1.
         23    2    1    0    0    0  0.67977881448E+01 -0.23018971900E+02  0.77904089922E+01  0.99765629327E+02  0.96521538176E+02 0.  0.
         13    1    3    3    0    0 -0.89915563741E+00 -0.55492455681E+02  0.26504031522E+02  0.61503625660E+02  0.10566000000E+00 0.  1.
         22    1    1    0    0    0 -0.67977881448E+01  0.23018971900E+02 -0.77904089922E+01  0.25234370673E+02  0.00000000000E+00 0.  1.
</event>
<event>
 5    1  0.1324057E-009  0.9118800E+02  0.7818608E-02  0.1130116E+00
         25   -1    0    0    0    0  0.00000000000E+00  0.00000000000E+00  0.99999998245E-14  0.12500000000E+03  0.12500000000E+03 0.  0.
        -13    1    3    3    0    0 -0.19245999675E+02 -0.11818885374E+02 -0.37570424537E+02  0.43836543191E+02  0.10566000000E+00 0. -1.
         23    2    1    0    0    0  0.16798034971E+02  0.18257280808E+02 -0.15830361201E+02  0.95570378577E+02  0.90926314366E+02 0.  0.
         13    1    3    3    0    0  0.36044034646E+02  0.30076166182E+02  0.21740063337E+02  0.51733835386E+02  0.10566000000E+00 0.  1.
         22    1    1    0    0    0 -0.16798034971E+02 -0.18257280808E+02  0.15830361201E+02  0.29429621423E+02  0.00000000000E+00 0.  1.
</event>
<event>
 5    1  0.1324057E-009  0.9118800E+02  0.7818608E-02  0.1130116E+00
         25   -1    0    0    0    0  0.00000000000E+00  0.00000000000E+00  0.99999998245E-14  0.12500000000E+03  0.12500000000E+03 0.  0.
        -13    1    3    3    0    0  0.16256566827E+01 -0.15302375075E+02  0.26591244223E+02  0.30723132587E+02  0.10566000000E+00 0. -1.
         23    2    1    0    0    0 -0.26410658492E+02 -0.23754201064E+02 -0.18853432151E+02  0.84785116511E+02  0.74641001653E+02 0.  0.
         13    1    3    3    0    0 -0.28036315175E+02 -0.84518259885E+01 -0.45444676373E+02  0.54061983924E+02  0.10566000000E+00 0.  1.
         22    1    1    0    0    0  0.26410658492E+02  0.23754201064E+02  0.18853432151E+02  0.40214883489E+02  0.00000000000E+00 0. -1.
</event>
<event>
 5    1  0.1324057E-009  0.9118800E+02  0.7818608E-02  0.1130116E+00
         25   -1    0    0    0    0  0.00000000000E+00  0.00000000000E+00  0.99999998245E-14  0.12500000000E+03  0.12500000000E+03 0.  0.
        -13    1    3    3    0    0 -0.20839153545E+02  0.75654895569E+00 -0.35436614877E+02  0.41116998003E+02  0.10566000000E+00 0.  1.
         23    2    1    0    0    0  0.26595562065E+01  0.15773900635E+02  0.17709431594E+02  0.10113552540E+03  0.98279608009E+02 0.  0.
         13    1    3    3    0    0  0.23498709752E+02  0.15017351680E+02  0.53146046472E+02  0.60018527398E+02  0.10566000000E+00 0. -1.
         22    1    1    0    0    0 -0.26595562065E+01 -0.15773900635E+02 -0.17709431594E+02  0.23864474598E+02  0.00000000000E+00 0. -1.
</event>
<event>
 5    1  0.1324057E-009  0.9118800E+02  0.7818608E-02  0.1130116E+00
         25   -1    0    0    0    0  0.00000000000E+00  0.00000000000E+00  0.99999998245E-14  0.12500000000E+03  0.12500000000E+03 0.  0.
        -13    1    3    3    0    0  0.52407895764E+02 -0.26330295932E+02 -0.67145624693E+01  0.59033622077E+02  0.10566000000E+00 0. -1.
         23    2    1    0    0    0  0.29024435468E+02  0.17486226294E+01 -0.34183135829E+01  0.95722698159E+02  0.91135473554E+02 0.  0.
         13    1    3    3    0    0 -0.23383460297E+02  0.28078918562E+02  0.32962488864E+01  0.36689076083E+02  0.10566000000E+00 0.  1.
         22    1    1    0    0    0 -0.29024435468E+02 -0.17486226294E+01  0.34183135829E+01  0.29277301841E+02  0.00000000000E+00 0. -1.
</event>
<event>
 5    1  0.1324057E-009  0.9118800E+02  0.7818608E-02  0.1130116E+00
         25   -1    0    0    0    0  0.00000000000E+00  0.00000000000E+00  0.99999998245E-14  0.12500000000E+03  0.12500000000E+03 0.  0.
        -13    1    3    3    0    0 -0.47155199369E+02 -0.23477712569E+02 -0.81229995224E+01  0.53299250466E+02  0.10566000000E+00 0.  1.
         23    2    1    0    0    0 -0.14193503469E+02 -0.20063196108E+02  0.17197914955E+02  0.95004072649E+02  0.90144429458E+02 0.  0.
         13    1    3    3    0    0  0.32961695900E+02  0.34145164607E+01  0.25320914478E+02  0.41704822183E+02  0.10566000000E+00 0. -1.
         22    1    1    0    0    0  0.14193503469E+02  0.20063196108E+02 -0.17197914955E+02  0.29995927351E+02  0.00000000000E+00 0. -1.
</event>
<event>
 5    1  0.1324057E-009  0.9118800E+02  0.7818608E-02  0.1130116E+00
         25   -1    0    0    0    0  0.00000000000E+00  0.00000000000E+00  0.99999998245E-14  0.12500000000E+03  0.12500000000E+03 0.  0.
        -13    1    3    3    0    0 -0.40408249808E+02  0.94027397485E+01 -0.75020848513E+01  0.42160770966E+02  0.10566000000E+00 0.  1.
         23    2    1    0    0    0 -0.52196613740E+01 -0.28917190607E+02  0.37141050991E+01  0.95381705752E+02  0.90666567366E+02 0.  0.
         13    1    3    3    0    0  0.35188588434E+02 -0.38319930356E+02  0.11216189950E+02  0.53220934786E+02  0.10566000000E+00 0. -1.
         22    1    1    0    0    0  0.52196613740E+01  0.28917190607E+02 -0.37141050991E+01  0.29618294248E+02  0.00000000000E+00 0. -1.
</event>
<event>
 5    1  0.1324057E-009  0.9118800E+02  0.7818608E-02  0.1130116E+00
         25   -1    0    0    0    0  0.00000000000E+00  0.00000000000E+00  0.99999998245E-14  0.12500000000E+03  0.12500000000E+03 0.  0.
        -13    1    3    3    0    0  0.14614097097E+02  0.15439612556E+02  0.26911787425E+02  0.34295902617E+02  0.10566000000E+00 0. -1.
         23    2    1    0    0    0  0.49977470219E+01 -0.18303752702E+02 -0.22922812206E+02  0.95243317428E+02  0.90475573261E+02 0.  0.
         13    1    3    3    0    0 -0.96163500756E+01 -0.33743365258E+02 -0.49834599631E+02  0.60947414811E+02  0.10566000000E+00 0.  1.
         22    1    1    0    0    0 -0.49977470219E+01  0.18303752702E+02  0.22922812206E+02  0.29756682572E+02  0.00000000000E+00 0. -1.
</event>
<event>
 5    1  0.1324057E-009  0.9118800E+02  0.7818608E-02  0.1130116E+00
         25   -1    0    0    0    0  0.00000000000E+00  0.00000000000E+00  0.99999998245E-14  0.12500000000E+03  0.12500000000E+03 0.  0.
        -13    1    3    3    0    0  0.49837155228E+02  0.21609153613E+01  0.24982177147E+02  0.55790070223E+02  0.10566000000E+00 0. -1.
         23    2    1    0    0    0  0.26825100188E+02 -0.10264165996E+02 -0.52907102058E+01  0.95795022374E+02  0.91234618394E+02 0.  0.
         13    1    3    3    0    0 -0.23012055040E+02 -0.12425081357E+02 -0.30272887352E+02  0.40004952151E+02  0.10566000000E+00 0.  1.
         22    1    1    0    0    0 -0.26825100188E+02  0.10264165996E+02  0.52907102058E+01  0.29204977626E+02  0.00000000000E+00 0. -1.
</event>
<event>
 5    1  0.1324057E-009  0.9118800E+02  0.7818608E-02  0.1130116E+00
         25   -1    0    0    0    0  0.00000000000E+00  0.00000000000E+00  0.99999998245E-14  0.12500000000E+03  0.12500000000E+03 0.  0.
        -13    1    3    3    0    0 -0.34473937094E+02 -0.82153194517E+00 -0.25270079042E+02  0.42751787241E+02  0.10566000000E+00 0. -1.
         23    2    1    0    0    0  0.17446552287E+02  0.46656257218E+01 -0.23983482222E+02  0.94977380701E+02  0.90107409103E+02 0.  0.
         13    1    3    3    0    0  0.51920489381E+02  0.54871576670E+01  0.12865968200E+01  0.52225593460E+02  0.10566000000E+00 0.  1.
         22    1    1    0    0    0 -0.17446552287E+02 -0.46656257218E+01  0.23983482222E+02  0.30022619299E+02  0.00000000000E+00 0. -1.
</event>
<event>
 5    1  0.1324057E-009  0.9118800E+02  0.7818608E-02  0.1130116E+00
         25   -1    0    0    0    0  0.00000000000E+00  0.00000000000E+00  0.99999998245E-14  0.12500000000E+03  0.12500000000E+03 0.  0.
        -13    1    3    3    0    0  0.32311349543E+02  0.22918335649E+02 -0.32113784410E+02  0.50995879553E+02  0.10566000000E+00 0.  1.
         23    2    1    0    0    0  0.24696176404E+02  0.13858889768E+02  0.10174108629E+02  0.94908764715E+02  0.90012172392E+02 0.  0.
         13    1    3    3    0    0 -0.76151731387E+01 -0.90594458805E+01  0.42287893039E+02  0.43912885162E+02  0.10566000000E+00 0. -1.
         22    1    1    0    0    0 -0.24696176404E+02 -0.13858889768E+02 -0.10174108629E+02  0.30091235285E+02  0.00000000000E+00 0.  1.
</event>
<event>
 5    1  0.1324057E-009  0.9118800E+02  0.7818608E-02  0.1130116E+00
         25   -1    0    0    0    0  0.00000000000E+00  0.00000000000E+00  0.99999998245E-14  0.12500000000E+03  0.12500000000E+03 0.  0.
        -13    1    3    3    0    0 -0.36471779423E+02 -0.79454426547E+01 -0.73861886269E+01  0.38051119559E+02  0.10566000000E+00 0. -1.
         23    2    1    0    0    0  0.18351045898E+02  0.59112449002E+01 -0.21285295102E+02  0.96281234543E+02  0.91898360354E+02 0.  0.
         13    1    3    3    0    0  0.54822825321E+02  0.13856687555E+02 -0.13899106475E+02  0.58230114983E+02  0.10566000000E+00 0.  1.
         22    1    1    0    0    0 -0.18351045898E+02 -0.59112449002E+01  0.21285295102E+02  0.28718765457E+02  0.00000000000E+00 0.  1.
</event>
<event>
 5    1  0.1324057E-009  0.9118800E+02  0.7818608E-02  0.1130116E+00
         25   -1    0    0    0    0  0.00000000000E+00  0.00000000000E+00  0.99999998245E-14  0.12500000000E+03  0.12500000000E+03 0.  0.
        -13    1    3    3    0    0 -0.21465025431E+02  0.25889308726E+02 -0.33529127523E+02  0.47489126961E+02  0.10566000000E+00 0.  1.
         23    2    1    0    0    0 -0.29508076334E+01 -0.14906692711E+02 -0.28669031143E+02  0.92552656504E+02  0.86678510174E+02 0.  0.
         13    1    3    3    0    0  0.18514217798E+02 -0.40796001438E+02  0.48600963795E+01  0.45063529542E+02  0.10566000000E+00 0. -1.
         22    1    1    0    0    0  0.29508076334E+01  0.14906692711E+02  0.28669031143E+02  0.32447343496E+02  0.00000000000E+00 0.  1.
</event>
<event>
 5    1  0.1324057E-009  0.9118800E+02  0.7818608E-02  0.1130116E+00
         25   -1    0    0    0    0  0.00000000000E+00  0.00000000000E+00  0.99999998245E-14  0.12500000000E+03  0.12500000000E+03 0.  0.
        -13    1    3    3    0    0 -0.39095427965E+02  0.32031303089E+02 -0.32859857029E+02  0.60284643429E+02  0.10566000000E+00 0. -1.
         23    2    1    0    0    0 -0.18932857428E+02  0.21972178228E+02 -0.59333586063E+01  0.95395364369E+02  0.90685396246E+02 0.  0.
         13    1    3    3    0    0  0.20162570537E+02 -0.10059124861E+02  0.26926498423E+02  0.35110720940E+02  0.10566000000E+00 0.  1.
         22    1    1    0    0    0  0.18932857428E+02 -0.21972178228E+02  0.59333586063E+01  0.29604635631E+02  0.00000000000E+00 0. -1.
</event>
<event>
 5    1  0.1324057E-009  0.9118800E+02  0.7818608E-02  0.1130116E+00
         25   -1    0    0    0    0  0.00000000000E+00  0.00000000000E+00  0.99999998245E-14  0.12500000000E+03  0.12500000000E+03 0.  0.
        -13    1    3    3    0    0  0.91245914680E+01  0.25092810432E+02  0.28600340838E+02  0.39126691208E+02  0.10566000000E+00 0.  1.
         23    2    1    0    0    0  0.11509908553E+02  0.12484672260E+02 -0.25297938618E+02  0.94531479612E+02  0.89486702381E+02 0.  0.
         13    1    3    3    0    0  0.23853170854E+01 -0.12608138172E+02 -0.53898279456E+02  0.55404788404E+02  0.10566000000E+00 0. -1.
         22    1    1    0    0    0 -0.11509908553E+02 -0.12484672260E+02  0.25297938618E+02  0.30468520388E+02  0.00000000000E+00 0. -1.
</event>
<event>
 5    1  0.1324057E-009  0.9118800E+02  0.7818608E-02  0.1130116E+00
         25   -1    0    0    0    0  0.00000000000E+00  0.00000000000E+00  0.99999998245E-14  0.12500000000E+03  0.12500000000E+03 0.  0.
        -13    1    3    3    0    0  0.15490175711E+02  0.33278212332E+02 -0.81734675725E+01  0.37605873155E+02  0.10566000000E+00 0. -1.
         23    2    1    0    0    0 -0.22771737863E+02 -0.98792576330E+01 -0.15484793179E+02  0.95743708429E+02  0.91164286359E+02 0.  0.
         13    1    3    3    0    0 -0.38261913574E+02 -0.43157469965E+02 -0.73113256068E+01  0.58137835274E+02  0.10566000000E+00 0.  1.
         22    1    1    0    0    0  0.22771737863E+02  0.98792576330E+01  0.15484793179E+02  0.29256291571E+02  0.00000000000E+00 0.  1.
</event>
<event>
 5    1  0.1324057E-009  0.9118800E+02  0.7818608E-02  0.1130116E+00
         25   -1    0    0    0    0  0.00000000000E+00  0.00000000000E+00  0.99999998245E-14  0.12500000000E+03  0.12500000000E+03 0.  0.
        -13    1    3    3    0    0  0.11563975594E+01  0.18851077965E+02 -0.43316296521E+02  0.47254768057E+02  0.10566000000E+00 0.  1.
         23    2    1    0    0    0  0.22159381946E+02  0.20257298813E+02 -0.49239023734E+00  0.94972698896E+02  0.90100914113E+02 0.  0.
         13    1    3    3    0    0  0.21002984387E+02  0.14062208476E+01  0.42823906283E+02  0.47717930840E+02  0.10566000000E+00 0. -1.
         22    1    1    0    0    0 -0.22159381946E+02 -0.20257298813E+02  0.49239023734E+00  0.30027301104E+02  0.00000000000E+00 0.  1.
</event>
<event>
 5    1  0.1324057E-009  0.9118800E+02  0.7818608E-02  0.1130116E+00
         25   -1    0    0    0    0  0.00000000000E+00  0.00000000000E+00  0.99999998245E-14  0.12500000000E+03  0.12500000000E+03 0.  0.
        -13    1    3    3    0    0  0.47039559713E+02 -0.14520610808E+02  0.18268244240E+02  0.52510077394E+02  0.10566000000E+00 0.  1.
         23    2    1    0    0    0  0.15326483055E+02 -0.18944088836E+02 -0.13099513764E+02  0.97334555028E+02  0.93320087639E+02 0.  0.
         13    1    3    3    0    0 -0.31713076657E+02 -0.44234780273E+01 -0.31367758004E+02  0.44824477634E+02  0.10566000000E+00 0. -1.
         22    1    1    0    0    0 -0.15326483055E+02  0.18944088836E+02  0.13099513764E+02  0.27665444972E+02  0.00000000000E+00 0.  1.
</event>
<event>
 5    1  0.1324057E-009  0.9118800E+02  0.7818608E-02  0.1130116E+00
         25   -1    0    0    0    0  0.00000000000E+00  0.00000000000E+00  0.99999998245E-14  0.12500000000E+03  0.12500000000E+03 0.  0.
        -13    1    3    3    0    0  0.54281572432E+00 -0.31577440054E+02 -0.29645498718E+02  0.43316233996E+02  0.10566000000E+00 0.  1.
         23    2    1    0    0    0  0.31227052172E+01  0.20285812606E+02 -0.20402513818E+02  0.96059923099E+02  0.91596838235E+02 0.  0.
         13    1    3    3    0    0  0.25798894929E+01  0.51863252660E+02  0.92429849002E+01  0.52743689103E+02  0.10566000000E+00 0. -1.
         22    1    1    0    0    0 -0.31227052172E+01 -0.20285812606E+02  0.20402513818E+02  0.28940076901E+02  0.00000000000E+00 0. -1.
</event>
<event>
 5    1  0.1324057E-009  0.9118800E+02  0.7818608E-02  0.1130116E+00
         25   -1    0    0    0    0  0.00000000000E+00  0.00000000000E+00  0.99999998245E-14  0.12500000000E+03  0.12500000000E+03 0.  0.
        -13    1    3    3    0    0  0.25870911335E+02 -0.21212519729E+02  0.47414484955E+02  0.58029471772E+02  0.10566000000E+00 0. -1.
         23    2    1    0    0    0 -0.35823899095E+01 -0.16806649909E+02  0.21247001571E+02  0.97673601144E+02  0.93773132005E+02 0.  0.
         13    1    3    3    0    0 -0.29453301244E+02  0.44058698195E+01 -0.26167483384E+02  0.39644129373E+02  0.10566000000E+00 0.  1.
         22    1    1    0    0    0  0.35823899095E+01  0.16806649909E+02 -0.21247001571E+02  0.27326398856E+02  0.00000000000E+00 0. -1.
</event>
<event>
 5    1  0.1324057E-009  0.9118800E+02  0.7818608E-02  0.1130116E+00
         25   -1    0    0    0    0  0.00000000000E+00  0.00000000000E+00  0.99999998245E-14  0.12500000000E+03  0.12500000000E+03 0.  0.
        -13    1    3    3    0    0 -0.36292847422E+02 -0.13157848335E+02 -0.20735540215E+02  0.43820925810E+02  0.10566000000E+00 0. -1.
         23    2    1    0    0    0 -0.12752970353E+02 -0.19053768728E+02  0.22165378652E+02  0.93109744962E+02  0.87478204375E+02 0.  0.
         13    1    3    3    0    0  0.23539877069E+02 -0.58959203927E+01  0.42900918868E+02  0.49288819152E+02  0.10566000000E+00 0.  1.
         22    1    1    0    0    0  0.12752970353E+02  0.19053768728E+02 -0.22165378652E+02  0.31890255038E+02  0.00000000000E+00 0. -1.
</event>
<event>
 5    1  0.1324057E-009  0.9118800E+02  0.7818608E-02  0.1130116E+00
         25   -1    0    0    0    0  0.00000000000E+00  0.00000000000E+00  0.99999998245E-14  0.12500000000E+03  0.12500000000E+03 0.  0.
        -13    1    3    3    0    0  0.18169802875E+02 -0.65513735863E+01  0.29702602585E+02  0.35430467069E+02  0.10566000000E+00 0.  1.
         23    2    1    0    0    0 -0.18917420450E+02  0.17058787965E+02 -0.12722057048E+02  0.96526823520E+02  0.92231805143E+02 0.  0.
         13    1    3    3    0    0 -0.37087223325E+02  0.23610161552E+02 -0.42424659633E+02  0.61096356450E+02  0.10566000000E+00 0. -1.
         22    1    1    0    0    0  0.18917420450E+02 -0.17058787965E+02  0.12722057048E+02  0.28473176480E+02  0.00000000000E+00 0. -1.
</event>
<event>
 5    1  0.1324057E-009  0.9118800E+02  0.7818608E-02  0.1130116E+00
         25   -1    0    0    0    0  0.00000000000E+00  0.00000000000E+00  0.99999998245E-14  0.12500000000E+03  0.12500000000E+03 0.  0.
        -13    1    3    3    0    0  0.37754559881E+02 -0.19117507832E+02  0.20036049076E+02  0.46822433984E+02  0.10566000000E+00 0. -1.
         23    2    1    0    0    0 -0.85346943408E+01 -0.23061257464E+02  0.20038144666E+02  0.93279504339E+02  0.87720442799E+02 0.  0.
         13    1    3    3    0    0 -0.46289254222E+02 -0.39437496323E+01  0.20955900692E-02  0.46457070356E+02  0.10566000000E+00 0.  1.
         22    1    1    0    0    0  0.85346943408E+01  0.23061257464E+02 -0.20038144666E+02  0.31720495661E+02  0.00000000000E+00 0.  1.
</event>
<event>
 5    1  0.1324057E-009  0.9118800E+02  0.7818608E-02  0.1130116E+00
         25   -1    0    0    0    0  0.00000000000E+00  0.00000000000E+00  0.99999998245E-14  0.12500000000E+03  0.12500000000E+03 0.  0.
        -13    1    3    3    0    0 -0.16399533711E+02 -0.45081198436E+02 -0.78008311394E+01  0.48601679898E+02  0.10566000000E+00 0.  1.
         23    2    1    0    0    0 -0.26797276186E+02 -0.40407905230E+01  0.12025773909E+02  0.95351370400E+02  0.90624735034E+02 0.  0.
         13    1    3    3    0    0 -0.10397742475E+02  0.41040407913E+02  0.19826605048E+02  0.46749690502E+02  0.10566000000E+00 0. -1.
         22    1    1    0    0    0  0.26797276186E+02  0.40407905230E+01 -0.12025773909E+02  0.29648629600E+02  0.00000000000E+00 0. -1.
</event>
<event>
 5    1  0.1324057E-009  0.9118800E+02  0.7818608E-02  0.1130116E+00
         25   -1    0    0    0    0  0.00000000000E+00  0.00000000000E+00  0.99999998245E-14  0.12500000000E+03  0.12500000000E+03 0.  0.
        -13    1    3    3    0    0  0.33233952732E+02  0.27866090737E+02  0.18912349571E+02  0.47314931654E+02  0.10566000000E+00 0. -1.
         23    2    1    0    0    0  0.41323680154E+00 -0.34253976790E+01  0.30649867066E+02  0.94156549073E+02  0.88961436973E+02 0.  0.
         13    1    3    3    0    0 -0.32820715930E+02 -0.31291488416E+02  0.11737517495E+02  0.46841617419E+02  0.10566000000E+00 0.  1.
         22    1    1    0    0    0 -0.41323680154E+00  0.34253976790E+01 -0.30649867066E+02  0.30843450927E+02  0.00000000000E+00 0.  1.
</event>
<event>
 5    1  0.1324057E-009  0.9118800E+02  0.7818608E-02  0.1130116E+00
         25   -1    0    0    0    0  0.00000000000E+00  0.00000000000E+00  0.99999998245E-14  0.12500000000E+03  0.12500000000E+03 0.  0.
        -13    1    3    3    0    0  0.13049037647E+01 -0.76456849459E+01 -0.36986726264E+02  0.37791379386E+02  0.10566000000E+00 0. -1.
         23    2    1    0    0    0 -0.15704588987E+01  0.14848174250E+02  0.20528565634E+02  0.99615819361E+02  0.96327331741E+02 0.  0.
         13    1    3    3    0    0 -0.28753626634E+01  0.22493859196E+02  0.57515291899E+02  0.61824439975E+02  0.10566000000E+00 0.  1.
         22    1    1    0    0    0  0.15704588987E+01 -0.14848174250E+02 -0.20528565634E+02  0.25384180639E+02  0.00000000000E+00 0.  1.
</event>
<event>
 5    1  0.1324057E-009  0.9118800E+02  0.7818608E-02  0.1130116E+00
         25   -1    0    0    0    0  0.00000000000E+00  0.00000000000E+00  0.99999998245E-14  0.12500000000E+03  0.12500000000E+03 0.  0.
        -13    1    3    3    0    0 -0.38768882149E+01 -0.61535894138E+02  0.29915398395E+01  0.61730519229E+02  0.10566000000E+00 0. -1.
         23    2    1    0    0    0 -0.83524340224E+01 -0.26844948601E+02  0.31524332421E+01  0.96709502393E+02  0.92479054917E+02 0.  0.
         13    1    3    3    0    0 -0.44755458075E+01  0.34690945537E+02  0.16089340260E+00  0.34978983165E+02  0.10566000000E+00 0.  1.
         22    1    1    0    0    0  0.83524340224E+01  0.26844948601E+02 -0.31524332421E+01  0.28290497607E+02  0.00000000000E+00 0. -1.
</event>
<event>
 5    1  0.1324057E-009  0.9118800E+02  0.7818608E-02  0.1130116E+00
         25   -1    0    0    0    0  0.00000000000E+00  0.00000000000E+00  0.99999998245E-14  0.12500000000E+03  0.12500000000E+03 0.  0.
        -13    1    3    3    0    0 -0.64105701514E+01  0.12954798222E+02 -0.37432526966E+02  0.40126393380E+02  0.10566000000E+00 0.  1.
         23    2    1    0    0    0 -0.13806847493E+02  0.20247473233E+02  0.16763037816E+02  0.95308441488E+02  0.90565503212E+02 0.  0.
         13    1    3    3    0    0 -0.73962773415E+01  0.72926750111E+01  0.54195564782E+02  0.55182048108E+02  0.10566000000E+00 0. -1.
         22    1    1    0    0    0  0.13806847493E+02 -0.20247473233E+02 -0.16763037816E+02  0.29691558512E+02  0.00000000000E+00 0. -1.
</event>
<event>
 5    1  0.1324057E-009  0.9118800E+02  0.7818608E-02  0.1130116E+00
         25   -1    0    0    0    0  0.00000000000E+00  0.00000000000E+00  0.99999998245E-14  0.12500000000E+03  0.12500000000E+03 0.  0.
        -13    1    3    3    0    0  0.46295198814E+02 -0.38610123638E+02 -0.93059046943E+01  0.60996705704E+02  0.10566000000E+00 0.  1.
         23    2    1    0    0    0  0.24932112816E+02 -0.10435852675E+02 -0.94875577843E+01  0.96355087306E+02  0.91998759919E+02 0.  0.
         13    1    3    3    0    0 -0.21363085997E+02  0.28174270963E+02 -0.18165308997E+00  0.35358381602E+02  0.10566000000E+00 0. -1.
         22    1    1    0    0    0 -0.24932112816E+02  0.10435852675E+02  0.94875577843E+01  0.28644912694E+02  0.00000000000E+00 0.  1.
</event>
<event>
 5    1  0.1324057E-009  0.9118800E+02  0.7818608E-02  0.1130116E+00
         25   -1    0    0    0    0  0.00000000000E+00  0.00000000000E+00  0.99999998245E-14  0.12500000000E+03  0.12500000000E+03 0.  0.
        -13    1    3    3    0    0 -0.43002456854E+02 -0.11516890711E+02  0.24119339018E+02  0.50632042679E+02  0.10566000000E+00 0. -1.
         23    2    1    0    0    0 -0.83429396016E+01 -0.29491925439E+02  0.56067961466E+01  0.93842104206E+02  0.88518506831E+02 0.  0.
         13    1    3    3    0    0  0.34659517252E+02 -0.17975034727E+02 -0.18512542871E+02  0.43210061527E+02  0.10566000000E+00 0.  1.
         22    1    1    0    0    0  0.83429396016E+01  0.29491925439E+02 -0.56067961466E+01  0.31157895794E+02  0.00000000000E+00 0. -1.
</event>
<event>
 5    1  0.1324057E-009  0.9118800E+02  0.7818608E-02  0.1130116E+00
         25   -1    0    0    0    0  0.00000000000E+00  0.00000000000E+00  0.99999998245E-14  0.12500000000E+03  0.12500000000E+03 0.  0.
        -13    1    3    3    0    0  0.55406717805E+01 -0.32411525630E+02 -0.51211685130E+02  0.60859295882E+02  0.10566000000E+00 0. -1.
         23    2    1    0    0    0  0.11662194021E+02 -0.10564758217E+02 -0.24178446772E+02  0.96151808135E+02  0.91722145820E+02 0.  0.
         13    1    3    3    0    0  0.61215222410E+01  0.21846767413E+02  0.27033238358E+02  0.35292512253E+02  0.10566000000E+00 0.  1.
         22    1    1    0    0    0 -0.11662194021E+02  0.10564758217E+02  0.24178446772E+02  0.28848191865E+02  0.00000000000E+00 0. -1.
</event>
<event>
 5    1  0.1324057E-009  0.9118800E+02  0.7818608E-02  0.1130116E+00
         25   -1    0    0    0    0  0.00000000000E+00  0.00000000000E+00  0.99999998245E-14  0.12500000000E+03  0.12500000000E+03 0.  0.
        -13    1    3    3    0    0 -0.28782130315E+02  0.27508880088E+02  0.33048676414E+02  0.51743363689E+02  0.10566000000E+00 0. -1.
         23    2    1    0    0    0 -0.17587519976E+02 -0.13452225991E+02  0.16784919223E+02  0.97214810486E+02  0.93159554644E+02 0.  0.
         13    1    3    3    0    0  0.11194610339E+02 -0.40961106078E+02 -0.16263757191E+02  0.45471446797E+02  0.10566000000E+00 0.  1.
         22    1    1    0    0    0  0.17587519976E+02  0.13452225991E+02 -0.16784919223E+02  0.27785189514E+02  0.00000000000E+00 0. -1.
</event>
<event>
 5    1  0.1324057E-009  0.9118800E+02  0.7818608E-02  0.1130116E+00
         25   -1    0    0    0    0  0.00000000000E+00  0.00000000000E+00  0.99999998245E-14  0.12500000000E+03  0.12500000000E+03 0.  0.
        -13    1    3    3    0    0  0.43677842728E+02 -0.41298531702E+02  0.15241341820E+02  0.62013162559E+02  0.10566000000E+00 0.  1.
         23    2    1    0    0    0  0.19138146276E+02 -0.21510158696E+02  0.22135259295E+01  0.96123447799E+02  0.91683487879E+02 0.  0.
         13    1    3    3    0    0 -0.24539696452E+02  0.19788373006E+02 -0.13027815891E+02  0.34110285239E+02  0.10566000000E+00 0. -1.
         22    1    1    0    0    0 -0.19138146276E+02  0.21510158696E+02 -0.22135259295E+01  0.28876552201E+02  0.00000000000E+00 0.  1.
</event>
<event>
 5    1  0.1324057E-009  0.9118800E+02  0.7818608E-02  0.1130116E+00
         25   -1    0    0    0    0  0.00000000000E+00  0.00000000000E+00  0.99999998245E-14  0.12500000000E+03  0.12500000000E+03 0.  0.
        -13    1    3    3    0    0  0.24320152345E+02 -0.43415258786E+02 -0.75983236939E+01  0.50339846965E+02  0.10566000000E+00 0. -1.
         23    2    1    0    0    0  0.27812222927E+02  0.27260970694E+01 -0.14887405649E+01  0.97014866485E+02  0.92890885566E+02 0.  0.
         13    1    3    3    0    0  0.34920705821E+01  0.46141355855E+02  0.61095831290E+01  0.46675019519E+02  0.10566000000E+00 0.  1.
         22    1    1    0    0    0 -0.27812222927E+02 -0.27260970694E+01  0.14887405649E+01  0.27985133515E+02  0.00000000000E+00 0. -1.
</event>
<event>
 5    1  0.1324057E-009  0.9118800E+02  0.7818608E-02  0.1130116E+00
         25   -1    0    0    0    0  0.00000000000E+00  0.00000000000E+00  0.99999998245E-14  0.12500000000E+03  0.12500000000E+03 0.  0.
        -13    1    3    3    0    0  0.21586680926E+02 -0.51642485447E+02  0.25261791835E+02  0.61409285840E+02  0.10566000000E+00 0.  1.
         23    2    1    0    0    0  0.89211058580E+01 -0.25935742371E+02  0.35898425531E+01  0.97338911236E+02  0.93325922492E+02 0.  0.
         13    1    3    3    0    0 -0.12665575068E+02  0.25706743077E+02 -0.21671949282E+02  0.35929625397E+02  0.10566000000E+00 0. -1.
         22    1    1    0    0    0 -0.89211058580E+01  0.25935742371E+02 -0.35898425531E+01  0.27661088764E+02  0.00000000000E+00 0.  1.
</event>
<event>
 5    1  0.1324057E-009  0.9118800E+02  0.7818608E-02  0.1130116E+00
         25   -1    0    0    0    0  0.00000000000E+00  0.00000000000E+00  0.99999998245E-14  0.12500000000E+03  0.12500000000E+03 0.  0.
        -13    1    3    3    0    0 -0.16141236210E+02  0.33741892294E+02  0.20088098924E+02  0.42457009838E+02  0.10566000000E+00 0. -1.
         23    2    1    0    0    0  0.25967391224E+02  0.36983857500E+01  0.15839545762E+02  0.94358938105E+02  0.89245361371E+02 0.  0.
         13    1    3    3    0    0  0.42108627434E+02 -0.30043506544E+02 -0.42485531620E+01  0.51901928267E+02  0.10566000000E+00 0.  1.
         22    1    1    0    0    0 -0.25967391224E+02 -0.36983857500E+01 -0.15839545762E+02  0.30641061895E+02  0.00000000000E+00 0.  1.
</event>
<event>
 5    1  0.1324057E-009  0.9118800E+02  0.7818608E-02  0.1130116E+00
         25   -1    0    0    0    0  0.00000000000E+00  0.00000000000E+00  0.99999998245E-14  0.12500000000E+03  0.12500000000E+03 0.  0.
        -13    1    3    3    0    0  0.24278517986E+02  0.27796276063E+02  0.92239562337E+01  0.38041713043E+02  0.10566000000E+00 0. -1.
         23    2    1    0    0    0  0.14664318100E+02 -0.23831362197E+02 -0.11830147033E+02  0.94620262866E+02  0.89610633948E+02 0.  0.
         13    1    3    3    0    0 -0.96141998862E+01 -0.51627638260E+02 -0.21054103267E+02  0.56578549824E+02  0.10566000000E+00 0.  1.
         22    1    1    0    0    0 -0.14664318100E+02  0.23831362197E+02  0.11830147033E+02  0.30379737134E+02  0.00000000000E+00 0.  1.
</event>
<event>
 5    1  0.1324057E-009  0.9118800E+02  0.7818608E-02  0.1130116E+00
         25   -1    0    0    0    0  0.00000000000E+00  0.00000000000E+00  0.99999998245E-14  0.12500000000E+03  0.12500000000E+03 0.  0.
        -13    1    3    3    0    0 -0.28377096460E+02 -0.34283369312E+02  0.15473824215E+02  0.47117506457E+02  0.10566000000E+00 0.  1.
         23    2    1    0    0    0 -0.22806288817E+02  0.14632859341E+02  0.55976608850E+01  0.97330862147E+02  0.93315140984E+02 0.  0.
         13    1    3    3    0    0  0.55708076422E+01  0.48916228654E+02 -0.98761633304E+01  0.50213355690E+02  0.10566000000E+00 0. -1.
         22    1    1    0    0    0  0.22806288817E+02 -0.14632859341E+02 -0.55976608850E+01  0.27669137853E+02  0.00000000000E+00 0. -1.
</event>
<event>
 5    1  0.1324057E-009  0.9118800E+02  0.7818608E-02  0.1130116E+00
         25   -1    0    0    0    0  0.00000000000E+00  0.00000000000E+00  0.99999998245E-14  0.12500000000E+03  0.12500000000E+03 0.  0.
        -13    1    3    3    0    0  0.33496374091E+02 -0.15049000827E+02 -0.63082270868E+01  0.37259688621E+02  0.10566000000E+00 0.  1.
         23    2    1    0    0    0 -0.35543874291E+01  0.19657593411E+02  0.21916583720E+02  0.95345467620E+02  0.90616592879E+02 0.  0.
         13    1    3    3    0    0 -0.37050761520E+02  0.34706594238E+02  0.28224810806E+02  0.58085778999E+02  0.10566000000E+00 0. -1.
         22    1    1    0    0    0  0.35543874291E+01 -0.19657593411E+02 -0.21916583720E+02  0.29654532380E+02  0.00000000000E+00 0. -1.
</event>
<event>
 5    1  0.1324057E-009  0.9118800E+02  0.7818608E-02  0.1130116E+00
         25   -1    0    0    0    0  0.00000000000E+00  0.00000000000E+00  0.99999998245E-14  0.12500000000E+03  0.12500000000E+03 0.  0.
        -13    1    3    3    0    0 -0.33188994689E+02 -0.47109379960E+02 -0.15466448403E+02  0.59665947062E+02  0.10566000000E+00 0.  1.
         23    2    1    0    0    0 -0.23802497934E+02 -0.18573471126E+02  0.25604926766E+01  0.94700018806E+02  0.89721818426E+02 0.  0.
         13    1    3    3    0    0  0.93864967545E+01  0.28535908833E+02  0.18026941079E+02  0.35034071744E+02  0.10566000000E+00 0. -1.
         22    1    1    0    0    0  0.23802497934E+02  0.18573471126E+02 -0.25604926766E+01  0.30299981194E+02  0.00000000000E+00 0.  1.
</event>
<event>
 5    1  0.1324057E-009  0.9118800E+02  0.7818608E-02  0.1130116E+00
         25   -1    0    0    0    0  0.00000000000E+00  0.00000000000E+00  0.99999998245E-14  0.12500000000E+03  0.12500000000E+03 0.  0.
        -13    1    3    3    0    0 -0.32402483604E+02  0.33052970533E+01  0.42172706808E+02  0.53285967157E+02  0.10566000000E+00 0. -1.
         23    2    1    0    0    0  0.69008325339E+01 -0.40975365639E+01  0.28246066549E+02  0.95635879529E+02  0.91016316572E+02 0.  0.
         13    1    3    3    0    0  0.39303316138E+02 -0.74028336172E+01 -0.13926640259E+02  0.42349912372E+02  0.10566000000E+00 0.  1.
         22    1    1    0    0    0 -0.69008325339E+01  0.40975365639E+01 -0.28246066549E+02  0.29364120471E+02  0.00000000000E+00 0. -1.
</event>
<event>
 5    1  0.1324057E-009  0.9118800E+02  0.7818608E-02  0.1130116E+00
         25   -1    0    0    0    0  0.00000000000E+00  0.00000000000E+00  0.99999998245E-14  0.12500000000E+03  0.12500000000E+03 0.  0.
        -13    1    3    3    0    0 -0.38564298573E+02  0.43168054549E+02 -0.13613473305E+02  0.59464475760E+02  0.10566000000E+00 0.  1.
         23    2    1    0    0    0 -0.10863206532E+02  0.26942759811E+02  0.33210083453E+01  0.95760460694E+02  0.91187253350E+02 0.  0.
         13    1    3    3    0    0  0.27701092041E+02 -0.16225294737E+02  0.16934481650E+02  0.36295984934E+02  0.10566000000E+00 0. -1.
         22    1    1    0    0    0  0.10863206532E+02 -0.26942759811E+02 -0.33210083453E+01  0.29239539306E+02  0.00000000000E+00 0.  1.
</event>
<event>
 5    1  0.1324057E-009  0.9118800E+02  0.7818608E-02  0.1130116E+00
         25   -1    0    0    0    0  0.00000000000E+00  0.00000000000E+00  0.99999998245E-14  0.12500000000E+03  0.12500000000E+03 0.  0.
        -13    1    3    3    0    0 -0.16495653419E+02  0.96129550234E+01 -0.51276241716E+02  0.54715442195E+02  0.10566000000E+00 0.  1.
         23    2    1    0    0    0 -0.42346543344E+01 -0.17526386122E+02 -0.22930856802E+02  0.95829283494E+02  0.91281547278E+02 0.  0.
         13    1    3    3    0    0  0.12260999085E+02 -0.27139341146E+02  0.28345384914E+02  0.41113841299E+02  0.10566000000E+00 0. -1.
         22    1    1    0    0    0  0.42346543344E+01  0.17526386122E+02  0.22930856802E+02  0.29170716506E+02  0.00000000000E+00 0.  1.
</event>
<event>
 5    1  0.1324057E-009  0.9118800E+02  0.7818608E-02  0.1130116E+00
         25   -1    0    0    0    0  0.00000000000E+00  0.00000000000E+00  0.99999998245E-14  0.12500000000E+03  0.12500000000E+03 0.  0.
        -13    1    3    3    0    0  0.21743357530E+02  0.29038146575E+02  0.59415587425E+01  0.36760044036E+02  0.10566000000E+00 0. -1.
         23    2    1    0    0    0  0.53667824571E+01 -0.28010694182E+02 -0.60838180551E+00  0.96473320015E+02  0.92159264341E+02 0.  0.
         13    1    3    3    0    0 -0.16376575073E+02 -0.57048840758E+02 -0.65499405480E+01  0.59713275979E+02  0.10566000000E+00 0.  1.
         22    1    1    0    0    0 -0.53667824571E+01  0.28010694182E+02  0.60838180551E+00  0.28526679985E+02  0.00000000000E+00 0.  1.
</event>
<event>
 5    1  0.1324057E-009  0.9118800E+02  0.7818608E-02  0.1130116E+00
         25   -1    0    0    0    0  0.00000000000E+00  0.00000000000E+00  0.99999998245E-14  0.12500000000E+03  0.12500000000E+03 0.  0.
        -13    1    3    3    0    0 -0.13197742191E+02  0.15605105958E+02  0.27231415952E+02  0.34047920783E+02  0.10566000000E+00 0.  1.
         23    2    1    0    0    0  0.86335565110E+01 -0.19014492875E+02 -0.19680860851E+02  0.96304608015E+02  0.91930147416E+02 0.  0.
         13    1    3    3    0    0  0.21831298702E+02 -0.34619598832E+02 -0.46912276803E+02  0.62256687232E+02  0.10566000000E+00 0. -1.
         22    1    1    0    0    0 -0.86335565110E+01  0.19014492875E+02  0.19680860851E+02  0.28695391985E+02  0.00000000000E+00 0. -1.
</event>
<event>
 5    1  0.1324057E-009  0.9118800E+02  0.7818608E-02  0.1130116E+00
         25   -1    0    0    0    0  0.00000000000E+00  0.00000000000E+00  0.99999998245E-14  0.12500000000E+03  0.12500000000E+03 0.  0.
        -13    1    3    3    0    0  0.25015496073E+00 -0.23551301793E+02  0.51463555064E+02  0.56597129410E+02  0.10566000000E+00 0.  1.
         23    2    1    0    0    0 -0.32201696506E+00 -0.26093430722E+02  0.11775516397E+02  0.96370756067E+02  0.92020046820E+02 0.  0.
         13    1    3    3    0    0 -0.57217192579E+00 -0.25421289290E+01 -0.39688038667E+02  0.39773626657E+02  0.10566000000E+00 0. -1.
         22    1    1    0    0    0  0.32201696506E+00  0.26093430722E+02 -0.11775516397E+02  0.28629243933E+02  0.00000000000E+00 0.  1.
</event>
<event>
 5    1  0.1324057E-009  0.9118800E+02  0.7818608E-02  0.1130116E+00
         25   -1    0    0    0    0  0.00000000000E+00  0.00000000000E+00  0.99999998245E-14  0.12500000000E+03  0.12500000000E+03 0.  0.
        -13    1    3    3    0    0  0.17150697722E+02 -0.43035942976E+02  0.32589758951E+02  0.56642231354E+02  0.10566000000E+00 0. -1.
         23    2    1    0    0    0 -0.48595003192E+01 -0.11908578921E+02  0.26894213351E+02  0.95188463524E+02  0.90399755979E+02 0.  0.
         13    1    3    3    0    0 -0.22010198041E+02  0.31127364056E+02 -0.56955455997E+01  0.38546232171E+02  0.10566000000E+00 0.  1.
         22    1    1    0    0    0  0.48595003192E+01  0.11908578921E+02 -0.26894213351E+02  0.29811536476E+02  0.00000000000E+00 0. -1.
</event>
<event>
 5    1  0.1324057E-009  0.9118800E+02  0.7818608E-02  0.1130116E+00
         25   -1    0    0    0    0  0.00000000000E+00  0.00000000000E+00  0.99999998245E-14  0.12500000000E+03  0.12500000000E+03 0.  0.
        -13    1    3    3    0    0 -0.71183561547E+01  0.21576753450E+02  0.53311679567E+02  0.57951476478E+02  0.10566000000E+00 0. -1.
         23    2    1    0    0    0 -0.17466040121E+02  0.86426782694E+00  0.21887716979E+02  0.96984260300E+02  0.92849690764E+02 0.  0.
         13    1    3    3    0    0 -0.10347683966E+02 -0.20712485623E+02 -0.31423962588E+02  0.39032783822E+02  0.10566000000E+00 0.  1.
         22    1    1    0    0    0  0.17466040121E+02 -0.86426782694E+00 -0.21887716979E+02  0.28015739700E+02  0.00000000000E+00 0. -1.
</event>
<event>
 5    1  0.1324057E-009  0.9118800E+02  0.7818608E-02  0.1130116E+00
         25   -1    0    0    0    0  0.00000000000E+00  0.00000000000E+00  0.99999998245E-14  0.12500000000E+03  0.12500000000E+03 0.  0.
        -13    1    3    3    0    0  0.38587175357E+02 -0.69494067108E+01 -0.81464624973E+01  0.40045478783E+02  0.10566000000E+00 0.  1.
         23    2    1    0    0    0 -0.24295090737E+01  0.10977827030E+02  0.26214322339E+02  0.96476222264E+02  0.92163200715E+02 0.  0.
         13    1    3    3    0    0 -0.41016684431E+02  0.17927233741E+02  0.34360784836E+02  0.56430743482E+02  0.10566000000E+00 0. -1.
         22    1    1    0    0    0  0.24295090737E+01 -0.10977827030E+02 -0.26214322339E+02  0.28523777736E+02  0.00000000000E+00 0. -1.
</event>
<event>
 4    1  0.1324057E-009  0.9118800E+02  0.7818608E-02  0.1130116E+00
         25   -1    0    0    0    0  0.00000000000E+00  0.00000000000E+00  0.99999998245E-14  0.12500000000E+03  0.12500000000E+03 0.  0.
        -13    1    1    0    0    0 -0.16643017651E+02 -0.10020753423E+02 -0.25658768657E+02  0.32183677675E+02  0.10566000000E+00 0.  1.
         13    1    1    0    0    0  0.37126745931E+02 -0.45330558624E+01 -0.18713800125E+02  0.41822976198E+02  0.10566000000E+00 0. -1.
         22    1    1    0    0    0 -0.20483728280E+02  0.14553809286E+02  0.44372568781E+02  0.50993346127E+02  0.00000000000E+00 0.  1.
</event>
<event>
 5    1  0.1324057E-009  0.9118800E+02  0.7818608E-02  0.1130116E+00
         25   -1    0    0    0    0  0.00000000000E+00  0.00000000000E+00  0.99999998245E-14  0.12500000000E+03  0.12500000000E+03 0.  0.
        -13    1    3    3    0    0  0.26206409923E+02 -0.28422589115E+02  0.12362888404E+02  0.40589058462E+02  0.10566000000E+00 0. -1.
         23    2    1    0    0    0  0.16164740120E+02  0.24245928494E+02 -0.98520879553E+00  0.95842933823E+02  0.91300237983E+02 0.  0.
         13    1    3    3    0    0 -0.10041669803E+02  0.52668517609E+02 -0.13348097199E+02  0.55253875361E+02  0.10566000000E+00 0.  1.
         22    1    1    0    0    0 -0.16164740120E+02 -0.24245928494E+02  0.98520879553E+00  0.29157066177E+02  0.00000000000E+00 0.  1.
</event>
<event>
 5    1  0.1324057E-009  0.9118800E+02  0.7818608E-02  0.1130116E+00
         25   -1    0    0    0    0  0.00000000000E+00  0.00000000000E+00  0.99999998245E-14  0.12500000000E+03  0.12500000000E+03 0.  0.
        -13    1    3    3    0    0  0.38447967899E+02  0.26377051104E+02  0.83985815756E+01  0.47376601789E+02  0.10566000000E+00 0.  1.
         23    2    1    0    0    0  0.10131009770E+02  0.30640459106E+01 -0.25543286526E+02  0.97350674097E+02  0.93341676246E+02 0.  0.
         13    1    3    3    0    0 -0.28316958129E+02 -0.23313005194E+02 -0.33941868102E+02  0.49974072309E+02  0.10566000000E+00 0. -1.
         22    1    1    0    0    0 -0.10131009770E+02 -0.30640459106E+01  0.25543286526E+02  0.27649325903E+02  0.00000000000E+00 0. -1.
</event>
<event>
 5    1  0.1324057E-009  0.9118800E+02  0.7818608E-02  0.1130116E+00
         25   -1    0    0    0    0  0.00000000000E+00  0.00000000000E+00  0.99999998245E-14  0.12500000000E+03  0.12500000000E+03 0.  0.
        -13    1    3    3    0    0 -0.14240652204E+02  0.93261523484E+01 -0.37396714926E+02  0.41088912666E+02  0.10566000000E+00 0.  1.
         23    2    1    0    0    0  0.28612548035E+02  0.83671507177E+01 -0.26004218774E+02  0.85441100746E+02  0.75731599656E+02 0.  0.
         13    1    3    3    0    0  0.42853200239E+02 -0.95900163064E+00  0.11392496152E+02  0.44352188080E+02  0.10566000000E+00 0. -1.
         22    1    1    0    0    0 -0.28612548035E+02 -0.83671507177E+01  0.26004218774E+02  0.39558899254E+02  0.00000000000E+00 0. -1.
</event>
<event>
 5    1  0.1324057E-009  0.9118800E+02  0.7818608E-02  0.1130116E+00
         25   -1    0    0    0    0  0.00000000000E+00  0.00000000000E+00  0.99999998245E-14  0.12500000000E+03  0.12500000000E+03 0.  0.
        -13    1    3    3    0    0 -0.40933562920E+02 -0.67173210646E+01 -0.23482158240E+00  0.41481866892E+02  0.10566000000E+00 0. -1.
         23    2    1    0    0    0 -0.33778562571E+01  0.12992621002E+02  0.29032898397E+02  0.93013638801E+02  0.87340767688E+02 0.  0.
         13    1    3    3    0    0  0.37555706663E+02  0.19709942067E+02  0.29267719980E+02  0.51531771909E+02  0.10566000000E+00 0.  1.
         22    1    1    0    0    0  0.33778562571E+01 -0.12992621002E+02 -0.29032898397E+02  0.31986361199E+02  0.00000000000E+00 0.  1.
</event>
<event>
 5    1  0.1324057E-009  0.9118800E+02  0.7818608E-02  0.1130116E+00
         25   -1    0    0    0    0  0.00000000000E+00  0.00000000000E+00  0.99999998245E-14  0.12500000000E+03  0.12500000000E+03 0.  0.
        -13    1    3    3    0    0 -0.30110029546E+02  0.14135603901E+01  0.30348159718E+02  0.42774221145E+02  0.10566000000E+00 0. -1.
         23    2    1    0    0    0  0.22599649701E+02 -0.11890239540E+01  0.15406634176E+02  0.97622594696E+02  0.93705115517E+02 0.  0.
         13    1    3    3    0    0  0.52709679247E+02 -0.26025843441E+01 -0.14941525542E+02  0.54848373551E+02  0.10566000000E+00 0.  1.
         22    1    1    0    0    0 -0.22599649701E+02  0.11890239540E+01 -0.15406634176E+02  0.27377405304E+02  0.00000000000E+00 0.  1.
</event>
<event>
 5    1  0.1324057E-009  0.9118800E+02  0.7818608E-02  0.1130116E+00
         25   -1    0    0    0    0  0.00000000000E+00  0.00000000000E+00  0.99999998245E-14  0.12500000000E+03  0.12500000000E+03 0.  0.
        -13    1    3    3    0    0  0.14778703297E+02  0.71270541015E+01 -0.39174748910E+02  0.42472074208E+02  0.10566000000E+00 0. -1.
         23    2    1    0    0    0  0.50806170438E+01 -0.29214492336E+02 -0.21209719535E+01  0.95271263834E+02  0.90514175457E+02 0.  0.
         13    1    3    3    0    0 -0.96980862536E+01 -0.36341546437E+02  0.37053776957E+02  0.52799189626E+02  0.10566000000E+00 0.  1.
         22    1    1    0    0    0 -0.50806170438E+01  0.29214492336E+02  0.21209719535E+01  0.29728736166E+02  0.00000000000E+00 0. -1.
</event>
<event>
 5    1  0.1324057E-009  0.9118800E+02  0.7818608E-02  0.1130116E+00
         25   -1    0    0    0    0  0.00000000000E+00  0.00000000000E+00  0.99999998245E-14  0.12500000000E+03  0.12500000000E+03 0.  0.
        -13    1    3    3    0    0  0.19163017304E+02  0.32371767038E+02 -0.13206257819E+02  0.39869398577E+02  0.10566000000E+00 0.  1.
         23    2    1    0    0    0 -0.27168911754E+02  0.43839506628E+01  0.51013534515E+01  0.97010848595E+02  0.92885478675E+02 0.  0.
         13    1    3    3    0    0 -0.46331929058E+02 -0.27987816375E+02  0.18307611271E+02  0.57141450018E+02  0.10566000000E+00 0. -1.
         22    1    1    0    0    0  0.27168911754E+02 -0.43839506628E+01 -0.51013534515E+01  0.27989151405E+02  0.00000000000E+00 0. -1.
</event>
<event>
 5    1  0.1324057E-009  0.9118800E+02  0.7818608E-02  0.1130116E+00
         25   -1    0    0    0    0  0.00000000000E+00  0.00000000000E+00  0.99999998245E-14  0.12500000000E+03  0.12500000000E+03 0.  0.
        -13    1    3    3    0    0  0.28524670927E+02  0.25922493322E+02  0.64584864490E+01  0.39081398680E+02  0.10566000000E+00 0.  1.
         23    2    1    0    0    0 -0.15546708943E+02 -0.46922341077E+01  0.24423621392E+02  0.95670313643E+02  0.91063595420E+02 0.  0.
         13    1    3    3    0    0 -0.44071379870E+02 -0.30614727430E+02  0.17965134943E+02  0.56588914964E+02  0.10566000000E+00 0. -1.
         22    1    1    0    0    0  0.15546708943E+02  0.46922341077E+01 -0.24423621392E+02  0.29329686357E+02  0.00000000000E+00 0. -1.
</event>
<event>
 5    1  0.1324057E-009  0.9118800E+02  0.7818608E-02  0.1130116E+00
         25   -1    0    0    0    0  0.00000000000E+00  0.00000000000E+00  0.99999998245E-14  0.12500000000E+03  0.12500000000E+03 0.  0.
        -13    1    3    3    0    0  0.26552012273E+02  0.15333814752E+02 -0.42935976446E+02  0.52760254624E+02  0.10566000000E+00 0. -1.
         23    2    1    0    0    0  0.22913210458E+01  0.27405183238E+02 -0.92665059911E+01  0.95979966338E+02  0.91487658099E+02 0.  0.
         13    1    3    3    0    0 -0.24260691227E+02  0.12071368486E+02  0.33669470455E+02  0.43219711714E+02  0.10566000000E+00 0.  1.
         22    1    1    0    0    0 -0.22913210458E+01 -0.27405183238E+02  0.92665059911E+01  0.29020033662E+02  0.00000000000E+00 0.  1.
</event>
<event>
 5    1  0.1324057E-009  0.9118800E+02  0.7818608E-02  0.1130116E+00
         25   -1    0    0    0    0  0.00000000000E+00  0.00000000000E+00  0.99999998245E-14  0.12500000000E+03  0.12500000000E+03 0.  0.
        -13    1    3    3    0    0  0.32109952821E+01  0.21884000680E+02 -0.50485490246E+02  0.55118199045E+02  0.10566000000E+00 0.  1.
         23    2    1    0    0    0 -0.56462819667E+01  0.26212713503E+02 -0.10661779673E+02  0.96144144528E+02  0.91711701173E+02 0.  0.
         13    1    3    3    0    0 -0.88572772488E+01  0.43287128221E+01  0.39823710573E+02  0.41025945483E+02  0.10566000000E+00 0. -1.
         22    1    1    0    0    0  0.56462819667E+01 -0.26212713503E+02  0.10661779673E+02  0.28855855472E+02  0.00000000000E+00 0.  1.
</event>
<event>
 5    1  0.1324057E-009  0.9118800E+02  0.7818608E-02  0.1130116E+00
         25   -1    0    0    0    0  0.00000000000E+00  0.00000000000E+00  0.99999998245E-14  0.12500000000E+03  0.12500000000E+03 0.  0.
        -13    1    3    3    0    0  0.21975381106E+02  0.33321844670E+00 -0.43084570663E+02  0.48366515303E+02  0.10566000000E+00 0.  1.
         23    2    1    0    0    0  0.16493223744E+02  0.24738467830E+02 -0.36788653159E+01  0.95040823275E+02  0.90195375817E+02 0.  0.
         13    1    3    3    0    0 -0.54821573620E+01  0.24405249383E+02  0.39405705347E+02  0.46674307973E+02  0.10566000000E+00 0. -1.
         22    1    1    0    0    0 -0.16493223744E+02 -0.24738467830E+02  0.36788653159E+01  0.29959176725E+02  0.00000000000E+00 0. -1.
</event>
<event>
 5    1  0.1324057E-009  0.9118800E+02  0.7818608E-02  0.1130116E+00
         25   -1    0    0    0    0  0.00000000000E+00  0.00000000000E+00  0.99999998245E-14  0.12500000000E+03  0.12500000000E+03 0.  0.
        -13    1    3    3    0    0  0.27487682042E+02 -0.19080550136E+02  0.13282062273E+02  0.36000894431E+02  0.10566000000E+00 0.  1.
         23    2    1    0    0    0 -0.95015502368E+01  0.26446710513E+02 -0.26162608423E+01  0.96776733452E+02  0.92569883671E+02 0.  0.
         13    1    3    3    0    0 -0.36989232279E+02  0.45527260649E+02 -0.15898323116E+02  0.60775839021E+02  0.10566000000E+00 0. -1.
         22    1    1    0    0    0  0.95015502368E+01 -0.26446710513E+02  0.26162608423E+01  0.28223266548E+02  0.00000000000E+00 0. -1.
</event>
<event>
 5    1  0.1324057E-009  0.9118800E+02  0.7818608E-02  0.1130116E+00
         25   -1    0    0    0    0  0.00000000000E+00  0.00000000000E+00  0.99999998245E-14  0.12500000000E+03  0.12500000000E+03 0.  0.
        -13    1    3    3    0    0 -0.44996899972E+01 -0.30253559920E+02 -0.17793881716E+02  0.35385851530E+02  0.10566000000E+00 0. -1.
         23    2    1    0    0    0 -0.74799330564E+01  0.28208231696E+02 -0.38248447671E+01  0.95567311175E+02  0.90922097390E+02 0.  0.
         13    1    3    3    0    0 -0.29802430592E+01  0.58461791617E+02  0.13969036949E+02  0.60181459645E+02  0.10566000000E+00 0.  1.
         22    1    1    0    0    0  0.74799330564E+01 -0.28208231696E+02  0.38248447671E+01  0.29432688825E+02  0.00000000000E+00 0.  1.
</event>
<event>
 5    1  0.1324057E-009  0.9118800E+02  0.7818608E-02  0.1130116E+00
         25   -1    0    0    0    0  0.00000000000E+00  0.00000000000E+00  0.99999998245E-14  0.12500000000E+03  0.12500000000E+03 0.  0.
        -13    1    3    3    0    0  0.90728719403E+01  0.20787087946E+02  0.37088829309E+02  0.43474273474E+02  0.10566000000E+00 0. -1.
         23    2    1    0    0    0 -0.25447454556E+02 -0.86734100854E+01  0.17612792001E+02  0.92859504858E+02  0.87119895630E+02 0.  0.
         13    1    3    3    0    0 -0.34520326496E+02 -0.29460498032E+02 -0.19476037308E+02  0.49385231385E+02  0.10566000000E+00 0.  1.
         22    1    1    0    0    0  0.25447454556E+02  0.86734100854E+01 -0.17612792001E+02  0.32140495142E+02  0.00000000000E+00 0.  1.
</event>
<event>
 5    1  0.1324057E-009  0.9118800E+02  0.7818608E-02  0.1130116E+00
         25   -1    0    0    0    0  0.00000000000E+00  0.00000000000E+00  0.99999998245E-14  0.12500000000E+03  0.12500000000E+03 0.  0.
        -13    1    3    3    0    0 -0.46972923245E+01  0.40921428528E+02  0.91556701774E+00  0.41200452606E+02  0.10566000000E+00 0.  1.
         23    2    1    0    0    0  0.25886592331E+02 -0.30372454602E+01 -0.12028741155E+02  0.96294057475E+02  0.91915800430E+02 0.  0.
         13    1    3    3    0    0  0.30583884655E+02 -0.43958673988E+02 -0.12944308173E+02  0.55093604869E+02  0.10566000000E+00 0. -1.
         22    1    1    0    0    0 -0.25886592331E+02  0.30372454602E+01  0.12028741155E+02  0.28705942525E+02  0.00000000000E+00 0. -1.
</event>
<event>
 5    1  0.1324057E-009  0.9118800E+02  0.7818608E-02  0.1130116E+00
         25   -1    0    0    0    0  0.00000000000E+00  0.00000000000E+00  0.99999998245E-14  0.12500000000E+03  0.12500000000E+03 0.  0.
        -13    1    3    3    0    0 -0.10487515444E+02 -0.11394562303E+02 -0.41238730297E+02  0.44050744271E+02  0.10566000000E+00 0. -1.
         23    2    1    0    0    0  0.24185356325E+02 -0.16668743430E+02 -0.37479991207E+01  0.95388752719E+02  0.90676282345E+02 0.  0.
         13    1    3    3    0    0  0.34672871769E+02 -0.52741811261E+01  0.37490731177E+02  0.51338008448E+02  0.10566000000E+00 0.  1.
         22    1    1    0    0    0 -0.24185356325E+02  0.16668743430E+02  0.37479991207E+01  0.29611247281E+02  0.00000000000E+00 0.  1.
</event>
<event>
 5    1  0.1324057E-009  0.9118800E+02  0.7818608E-02  0.1130116E+00
         25   -1    0    0    0    0  0.00000000000E+00  0.00000000000E+00  0.99999998245E-14  0.12500000000E+03  0.12500000000E+03 0.  0.
        -13    1    3    3    0    0 -0.17174397052E+02 -0.14592599116E+02 -0.37531763108E+02  0.43778399572E+02  0.10566000000E+00 0. -1.
         23    2    1    0    0    0  0.19729034408E+01 -0.27236039317E+02  0.94824566082E+01  0.96093060193E+02  0.91642048473E+02 0.  0.
         13    1    3    3    0    0  0.19147300493E+02 -0.12643440201E+02  0.47014219716E+02  0.52314660621E+02  0.10566000000E+00 0.  1.
         22    1    1    0    0    0 -0.19729034408E+01  0.27236039317E+02 -0.94824566082E+01  0.28906939807E+02  0.00000000000E+00 0.  1.
</event>
<event>
 5    1  0.1324057E-009  0.9118800E+02  0.7818608E-02  0.1130116E+00
         25   -1    0    0    0    0  0.00000000000E+00  0.00000000000E+00  0.99999998245E-14  0.12500000000E+03  0.12500000000E+03 0.  0.
        -13    1    3    3    0    0  0.38548427711E+01 -0.25233810430E+02 -0.36360247131E+02  0.44426160503E+02  0.10566000000E+00 0. -1.
         23    2    1    0    0    0  0.24329228986E+02  0.13270881933E+02 -0.92127455655E+01  0.95795507688E+02  0.91235283317E+02 0.  0.
         13    1    3    3    0    0  0.20474386215E+02  0.38504692363E+02  0.27147501565E+02  0.51369347184E+02  0.10566000000E+00 0.  1.
         22    1    1    0    0    0 -0.24329228986E+02 -0.13270881933E+02  0.92127455655E+01  0.29204492312E+02  0.00000000000E+00 0. -1.
</event>
<event>
 5    1  0.1324057E-009  0.9118800E+02  0.7818608E-02  0.1130116E+00
         25   -1    0    0    0    0  0.00000000000E+00  0.00000000000E+00  0.99999998245E-14  0.12500000000E+03  0.12500000000E+03 0.  0.
        -13    1    3    3    0    0  0.81134823437E+00  0.50396013591E+02  0.25909190861E+02  0.56671984322E+02  0.10566000000E+00 0.  1.
         23    2    1    0    0    0  0.29000036679E+00  0.84154100871E+01  0.24950527991E+02  0.98666901547E+02  0.95087987604E+02 0.  0.
         13    1    3    3    0    0 -0.52134786757E+00 -0.41980603504E+02 -0.95866287093E+00  0.41994917225E+02  0.10566000000E+00 0. -1.
         22    1    1    0    0    0 -0.29000036679E+00 -0.84154100871E+01 -0.24950527991E+02  0.26333098453E+02  0.00000000000E+00 0.  1.
</event>
<event>
 5    1  0.1324057E-009  0.9118800E+02  0.7818608E-02  0.1130116E+00
         25   -1    0    0    0    0  0.00000000000E+00  0.00000000000E+00  0.99999998245E-14  0.12500000000E+03  0.12500000000E+03 0.  0.
        -13    1    3    3    0    0 -0.36800106742E+02 -0.43356587257E+02  0.15232183043E+02  0.58873356274E+02  0.10566000000E+00 0.  1.
         23    2    1    0    0    0 -0.54040417929E+01 -0.25430131019E+02  0.14913233442E+02  0.95028350679E+02  0.90178088635E+02 0.  0.
         13    1    3    3    0    0  0.31396064949E+02  0.17926456238E+02 -0.31894960105E+00  0.36154994405E+02  0.10566000000E+00 0. -1.
         22    1    1    0    0    0  0.54040417929E+01  0.25430131019E+02 -0.14913233442E+02  0.29971649321E+02  0.00000000000E+00 0.  1.
</event>
<event>
 5    1  0.1324057E-009  0.9118800E+02  0.7818608E-02  0.1130116E+00
         25   -1    0    0    0    0  0.00000000000E+00  0.00000000000E+00  0.99999998245E-14  0.12500000000E+03  0.12500000000E+03 0.  0.
        -13    1    3    3    0    0  0.33335783912E+01 -0.38363045062E+02 -0.25468100025E+02  0.46167859537E+02  0.10566000000E+00 0.  1.
         23    2    1    0    0    0 -0.29257127130E+02 -0.87408506079E+01 -0.11502283221E+02  0.92370496839E+02  0.86415416506E+02 0.  0.
         13    1    3    3    0    0 -0.32590705521E+02  0.29622194454E+02  0.13965816805E+02  0.46202637302E+02  0.10566000000E+00 0. -1.
         22    1    1    0    0    0  0.29257127130E+02  0.87408506079E+01  0.11502283221E+02  0.32629503161E+02  0.00000000000E+00 0.  1.
</event>
<event>
 5    1  0.1324057E-009  0.9118800E+02  0.7818608E-02  0.1130116E+00
         25   -1    0    0    0    0  0.00000000000E+00  0.00000000000E+00  0.99999998245E-14  0.12500000000E+03  0.12500000000E+03 0.  0.
        -13    1    3    3    0    0  0.36074753263E+02  0.42595229230E+02  0.13778626542E+02  0.57494374416E+02  0.10566000000E+00 0. -1.
         23    2    1    0    0    0  0.42008076659E+01  0.19265188711E+02  0.19336024615E+02  0.97383408447E+02  0.93385502685E+02 0.  0.
         13    1    3    3    0    0 -0.31873945597E+02 -0.23330040519E+02  0.55573980732E+01  0.39889034030E+02  0.10566000000E+00 0.  1.
         22    1    1    0    0    0 -0.42008076659E+01 -0.19265188711E+02 -0.19336024615E+02  0.27616591553E+02  0.00000000000E+00 0. -1.
</event>
<event>
 5    1  0.1324057E-009  0.9118800E+02  0.7818608E-02  0.1130116E+00
         25   -1    0    0    0    0  0.00000000000E+00  0.00000000000E+00  0.99999998245E-14  0.12500000000E+03  0.12500000000E+03 0.  0.
        -13    1    3    3    0    0 -0.32032473674E+02 -0.99020207725E+01 -0.84532034907E+01  0.34577408785E+02  0.10566000000E+00 0.  1.
         23    2    1    0    0    0 -0.51133957246E+01 -0.59572919393E+01  0.36795840119E+02  0.87375938641E+02  0.78860539309E+02 0.  0.
         13    1    3    3    0    0  0.26919077949E+02  0.39447288332E+01  0.45249043610E+02  0.52798529855E+02  0.10566000000E+00 0. -1.
         22    1    1    0    0    0  0.51133957246E+01  0.59572919393E+01 -0.36795840119E+02  0.37624061359E+02  0.00000000000E+00 0. -1.
</event>
<event>
 5    1  0.1324057E-009  0.9118800E+02  0.7818608E-02  0.1130116E+00
         25   -1    0    0    0    0  0.00000000000E+00  0.00000000000E+00  0.99999998245E-14  0.12500000000E+03  0.12500000000E+03 0.  0.
        -13    1    3    3    0    0 -0.33752023973E+02  0.27354745824E+02  0.32336150368E+01  0.43565452730E+02  0.10566000000E+00 0. -1.
         23    2    1    0    0    0 -0.58745414418E+01 -0.59052747317E+01 -0.27188275858E+02  0.96564373562E+02  0.92282681963E+02 0.  0.
         13    1    3    3    0    0  0.27877482531E+02 -0.33260020556E+02 -0.30421890895E+02  0.52998920831E+02  0.10566000000E+00 0.  1.
         22    1    1    0    0    0  0.58745414418E+01  0.59052747317E+01  0.27188275858E+02  0.28435626438E+02  0.00000000000E+00 0. -1.
</event>
<event>
 5    1  0.1324057E-009  0.9118800E+02  0.7818608E-02  0.1130116E+00
         25   -1    0    0    0    0  0.00000000000E+00  0.00000000000E+00  0.99999998245E-14  0.12500000000E+03  0.12500000000E+03 0.  0.
        -13    1    3    3    0    0 -0.63965035017E+00  0.20194541375E+02  0.92625608538E+01  0.22226894779E+02  0.10566000000E+00 0.  1.
         23    2    1    0    0    0  0.48002506385E+02 -0.35463392348E+01  0.21527330538E+01  0.76818557506E+02  0.59830087553E+02 0.  0.
         13    1    3    3    0    0  0.48642156735E+02 -0.23740880610E+02 -0.71098278000E+01  0.54591662727E+02  0.10566000000E+00 0. -1.
         22    1    1    0    0    0 -0.48002506385E+02  0.35463392348E+01 -0.21527330538E+01  0.48181442494E+02  0.00000000000E+00 0. -1.
</event>
<event>
 5    1  0.1324057E-009  0.9118800E+02  0.7818608E-02  0.1130116E+00
         25   -1    0    0    0    0  0.00000000000E+00  0.00000000000E+00  0.99999998245E-14  0.12500000000E+03  0.12500000000E+03 0.  0.
        -13    1    3    3    0    0  0.37566669205E+02 -0.15042121728E+02  0.10475029582E+02  0.41800208971E+02  0.10566000000E+00 0. -1.
         23    2    1    0    0    0 -0.74637288611E+01 -0.21969958077E+02 -0.18093107320E+02  0.95576423757E+02  0.90934624534E+02 0.  0.
         13    1    3    3    0    0 -0.45030398066E+02 -0.69278363496E+01 -0.28568136903E+02  0.53776214785E+02  0.10566000000E+00 0.  1.
         22    1    1    0    0    0  0.74637288611E+01  0.21969958077E+02  0.18093107320E+02  0.29423576243E+02  0.00000000000E+00 0.  1.
</event>
<event>
 5    1  0.1324057E-009  0.9118800E+02  0.7818608E-02  0.1130116E+00
         25   -1    0    0    0    0  0.00000000000E+00  0.00000000000E+00  0.99999998245E-14  0.12500000000E+03  0.12500000000E+03 0.  0.
        -13    1    3    3    0    0 -0.12716994231E+02 -0.12772365374E+02 -0.30550708208E+02  0.35471286917E+02  0.10566000000E+00 0. -1.
         23    2    1    0    0    0  0.87086107584E+01 -0.17673747554E+02  0.23802790761E+02  0.94100580880E+02  0.88882761096E+02 0.  0.
         13    1    3    3    0    0  0.21425604989E+02 -0.49013821799E+01  0.54353498969E+02  0.58629293963E+02  0.10566000000E+00 0.  1.
         22    1    1    0    0    0 -0.87086107584E+01  0.17673747554E+02 -0.23802790761E+02  0.30899419120E+02  0.00000000000E+00 0.  1.
</event>
<event>
 5    1  0.1324057E-009  0.9118800E+02  0.7818608E-02  0.1130116E+00
         25   -1    0    0    0    0  0.00000000000E+00  0.00000000000E+00  0.99999998245E-14  0.12500000000E+03  0.12500000000E+03 0.  0.
        -13    1    3    3    0    0  0.52963179901E+01  0.38135092933E+02 -0.16354076545E+02  0.41830650018E+02  0.10566000000E+00 0.  1.
         23    2    1    0    0    0  0.25770988950E+02 -0.11043716956E+02 -0.86679645744E+01  0.95653089336E+02  0.91039949111E+02 0.  0.
         13    1    3    3    0    0  0.20474670959E+02 -0.49178809889E+02  0.76861119701E+01  0.53822439319E+02  0.10566000000E+00 0. -1.
         22    1    1    0    0    0 -0.25770988950E+02  0.11043716956E+02  0.86679645744E+01  0.29346910664E+02  0.00000000000E+00 0. -1.
</event>
<event>
 5    1  0.1324057E-009  0.9118800E+02  0.7818608E-02  0.1130116E+00
         25   -1    0    0    0    0  0.00000000000E+00  0.00000000000E+00  0.99999998245E-14  0.12500000000E+03  0.12500000000E+03 0.  0.
        -13    1    3    3    0    0 -0.31263569181E+02 -0.49424861741E+01 -0.13166694748E+02  0.34281364356E+02  0.10566000000E+00 0. -1.
         23    2    1    0    0    0  0.14751907551E+02  0.14744705156E+02  0.21407134053E+02  0.95112034280E+02  0.90294011817E+02 0.  0.
         13    1    3    3    0    0  0.46015476732E+02  0.19687191330E+02  0.34573828801E+02  0.60830669923E+02  0.10566000000E+00 0.  1.
         22    1    1    0    0    0 -0.14751907551E+02 -0.14744705156E+02 -0.21407134053E+02  0.29887965720E+02  0.00000000000E+00 0.  1.
</event>
<event>
 5    1  0.1324057E-009  0.9118800E+02  0.7818608E-02  0.1130116E+00
         25   -1    0    0    0    0  0.00000000000E+00  0.00000000000E+00  0.99999998245E-14  0.12500000000E+03  0.12500000000E+03 0.  0.
        -13    1    3    3    0    0  0.11028424695E+02 -0.43868894923E+02  0.15237657425E+01  0.45259685363E+02  0.10566000000E+00 0.  1.
         23    2    1    0    0    0  0.17143868080E+00 -0.14661501964E+01  0.28359562321E+02  0.96602046506E+02  0.92333697134E+02 0.  0.
         13    1    3    3    0    0 -0.10856986014E+02  0.42402744727E+02  0.26835796579E+02  0.51342361143E+02  0.10566000000E+00 0. -1.
         22    1    1    0    0    0 -0.17143868080E+00  0.14661501964E+01 -0.28359562321E+02  0.28397953494E+02  0.00000000000E+00 0. -1.
</event>
<event>
 5    1  0.1324057E-009  0.9118800E+02  0.7818608E-02  0.1130116E+00
         25   -1    0    0    0    0  0.00000000000E+00  0.00000000000E+00  0.99999998245E-14  0.12500000000E+03  0.12500000000E+03 0.  0.
        -13    1    3    3    0    0  0.12673667817E+02 -0.16903439346E+01  0.44341036378E+02  0.46147782067E+02  0.10566000000E+00 0.  1.
         23    2    1    0    0    0 -0.21271460940E+02  0.16288123602E+02  0.18301418937E+02  0.92554353819E+02  0.86680957856E+02 0.  0.
         13    1    3    3    0    0 -0.33945128756E+02  0.17978467537E+02 -0.26039617442E+02  0.46406571752E+02  0.10566000000E+00 0. -1.
         22    1    1    0    0    0  0.21271460940E+02 -0.16288123602E+02 -0.18301418937E+02  0.32445646181E+02  0.00000000000E+00 0. -1.
</event>
<event>
 5    1  0.1324057E-009  0.9118800E+02  0.7818608E-02  0.1130116E+00
         25   -1    0    0    0    0  0.00000000000E+00  0.00000000000E+00  0.99999998245E-14  0.12500000000E+03  0.12500000000E+03 0.  0.
        -13    1    3    3    0    0 -0.50454736058E+02 -0.21445809905E+02 -0.26789149437E+02  0.61018627031E+02  0.10566000000E+00 0. -1.
         23    2    1    0    0    0 -0.16300328699E+02 -0.12632546776E+02 -0.18596980561E+02  0.97230778914E+02  0.93180978362E+02 0.  0.
         13    1    3    3    0    0  0.34154407359E+02  0.88132631289E+01  0.81921688765E+01  0.36212151883E+02  0.10566000000E+00 0.  1.
         22    1    1    0    0    0  0.16300328699E+02  0.12632546776E+02  0.18596980561E+02  0.27769221086E+02  0.00000000000E+00 0. -1.
</event>
<event>
 5    1  0.1324057E-009  0.9118800E+02  0.7818608E-02  0.1130116E+00
         25   -1    0    0    0    0  0.00000000000E+00  0.00000000000E+00  0.99999998245E-14  0.12500000000E+03  0.12500000000E+03 0.  0.
        -13    1    3    3    0    0 -0.11843288725E+02 -0.20380047485E+01  0.58757387164E+02  0.59973816466E+02  0.10566000000E+00 0. -1.
         23    2    1    0    0    0 -0.13105603026E+02  0.94657108452E+01  0.31272491663E+02  0.89795948425E+02  0.82607427669E+02 0.  0.
         13    1    3    3    0    0 -0.12623143011E+01  0.11503715594E+02 -0.27484895500E+02  0.29822131958E+02  0.10566000000E+00 0.  1.
         22    1    1    0    0    0  0.13105603026E+02 -0.94657108452E+01 -0.31272491663E+02  0.35204051575E+02  0.00000000000E+00 0. -1.
</event>
<event>
 5    1  0.1324057E-009  0.9118800E+02  0.7818608E-02  0.1130116E+00
         25   -1    0    0    0    0  0.00000000000E+00  0.00000000000E+00  0.99999998245E-14  0.12500000000E+03  0.12500000000E+03 0.  0.
        -13    1    3    3    0    0  0.24348660428E+02  0.35439837428E+01 -0.48894474850E+02  0.54736623209E+02  0.10566000000E+00 0. -1.
         23    2    1    0    0    0  0.22334160232E+02 -0.14955280019E+02 -0.13056914111E+02  0.95117595146E+02  0.90301709766E+02 0.  0.
         13    1    3    3    0    0 -0.20145001957E+01 -0.18499263762E+02  0.35837560740E+02  0.40380971937E+02  0.10566000000E+00 0.  1.
         22    1    1    0    0    0 -0.22334160232E+02  0.14955280019E+02  0.13056914111E+02  0.29882404854E+02  0.00000000000E+00 0. -1.
</event>
<event>
 5    1  0.1324057E-009  0.9118800E+02  0.7818608E-02  0.1130116E+00
         25   -1    0    0    0    0  0.00000000000E+00  0.00000000000E+00  0.99999998245E-14  0.12500000000E+03  0.12500000000E+03 0.  0.
        -13    1    3    3    0    0  0.26958950727E+02 -0.27273114552E+02 -0.31518703220E+02  0.49639174231E+02  0.10566000000E+00 0. -1.
         23    2    1    0    0    0 -0.16698588285E+02 -0.15604643793E+02 -0.14531312536E+02  0.97916669285E+02  0.94096585067E+02 0.  0.
         13    1    3    3    0    0 -0.43657539011E+02  0.11668470759E+02  0.16987390684E+02  0.48277495054E+02  0.10566000000E+00 0.  1.
         22    1    1    0    0    0  0.16698588285E+02  0.15604643793E+02  0.14531312536E+02  0.27083330715E+02  0.00000000000E+00 0. -1.
</event>
<event>
 5    1  0.1324057E-009  0.9118800E+02  0.7818608E-02  0.1130116E+00
         25   -1    0    0    0    0  0.00000000000E+00  0.00000000000E+00  0.99999998245E-14  0.12500000000E+03  0.12500000000E+03 0.  0.
        -13    1    3    3    0    0  0.25835942695E+02  0.10158868500E+02  0.23852853024E+02  0.36601479554E+02  0.10566000000E+00 0.  1.
         23    2    1    0    0    0 -0.23360122610E+02 -0.68974402294E+01 -0.99590470547E+01  0.98685505357E+02  0.95112440507E+02 0.  0.
         13    1    3    3    0    0 -0.49196065305E+02 -0.17056308729E+02 -0.33811900078E+02  0.62084025803E+02  0.10566000000E+00 0. -1.
         22    1    1    0    0    0  0.23360122610E+02  0.68974402294E+01  0.99590470547E+01  0.26314494643E+02  0.00000000000E+00 0. -1.
</event>
<event>
 5    1  0.1324057E-009  0.9118800E+02  0.7818608E-02  0.1130116E+00
         25   -1    0    0    0    0  0.00000000000E+00  0.00000000000E+00  0.99999998245E-14  0.12500000000E+03  0.12500000000E+03 0.  0.
        -13    1    3    3    0    0 -0.57410563408E+02  0.14815936091E+01  0.62080499291E+01  0.57764339851E+02  0.10566000000E+00 0.  1.
         23    2    1    0    0    0 -0.25885785135E+02  0.69905000136E+01 -0.13118280176E+02  0.95149870397E+02  0.90346375685E+02 0.  0.
         13    1    3    3    0    0  0.31524778272E+02  0.55089064045E+01 -0.19326330105E+02  0.37385530547E+02  0.10566000000E+00 0. -1.
         22    1    1    0    0    0  0.25885785135E+02 -0.69905000136E+01  0.13118280176E+02  0.29850129603E+02  0.00000000000E+00 0.  1.
</event>
<event>
 5    1  0.1324057E-009  0.9118800E+02  0.7818608E-02  0.1130116E+00
         25   -1    0    0    0    0  0.00000000000E+00  0.00000000000E+00  0.99999998245E-14  0.12500000000E+03  0.12500000000E+03 0.  0.
        -13    1    3    3    0    0 -0.42730515634E+02 -0.14095433410E+02 -0.57701446196E+01  0.45363905722E+02  0.10566000000E+00 0. -1.
         23    2    1    0    0    0 -0.80157441743E+01  0.12989646404E+01  0.27792863913E+02  0.96045160192E+02  0.91576689436E+02 0.  0.
         13    1    3    3    0    0  0.34714771460E+02  0.15394398050E+02  0.33563008533E+02  0.50681254470E+02  0.10566000000E+00 0.  1.
         22    1    1    0    0    0  0.80157441743E+01 -0.12989646404E+01 -0.27792863913E+02  0.28954839808E+02  0.00000000000E+00 0.  1.
</event>
<event>
 5    1  0.1324057E-009  0.9118800E+02  0.7818608E-02  0.1130116E+00
         25   -1    0    0    0    0  0.00000000000E+00  0.00000000000E+00  0.99999998245E-14  0.12500000000E+03  0.12500000000E+03 0.  0.
        -13    1    3    3    0    0 -0.38513103015E+02  0.21102695419E+02  0.30063761018E+02  0.53220519994E+02  0.10566000000E+00 0.  1.
         23    2    1    0    0    0 -0.88210818953E+00  0.23013704463E+02 -0.84249036685E+00  0.10195399171E+03  0.99315144506E+02 0.  0.
         13    1    3    3    0    0  0.37630994825E+02  0.19110090437E+01 -0.30906251385E+02  0.48733471719E+02  0.10566000000E+00 0. -1.
         22    1    1    0    0    0  0.88210818953E+00 -0.23013704463E+02  0.84249036685E+00  0.23046008287E+02  0.00000000000E+00 0.  1.
</event>
<event>
 5    1  0.1324057E-009  0.9118800E+02  0.7818608E-02  0.1130116E+00
         25   -1    0    0    0    0  0.00000000000E+00  0.00000000000E+00  0.99999998245E-14  0.12500000000E+03  0.12500000000E+03 0.  0.
        -13    1    3    3    0    0 -0.52822812129E+02 -0.10005206645E+02  0.37237592136E+01  0.53890919345E+02  0.10566000000E+00 0. -1.
         23    2    1    0    0    0 -0.11739413555E+02 -0.22975477251E+02  0.98020361108E+01  0.97399885916E+02  0.93407555792E+02 0.  0.
         13    1    3    3    0    0  0.41083398573E+02 -0.12970270606E+02  0.60782768972E+01  0.43508966570E+02  0.10566000000E+00 0.  1.
         22    1    1    0    0    0  0.11739413555E+02  0.22975477251E+02 -0.98020361108E+01  0.27600114084E+02  0.00000000000E+00 0. -1.
</event>
<event>
 5    1  0.1324057E-009  0.9118800E+02  0.7818608E-02  0.1130116E+00
         25   -1    0    0    0    0  0.00000000000E+00  0.00000000000E+00  0.99999998245E-14  0.12500000000E+03  0.12500000000E+03 0.  0.
        -13    1    3    3    0    0 -0.54399409480E+01  0.59705110888E+02 -0.15425596949E+01  0.59972359284E+02  0.10566000000E+00 0.  1.
         23    2    1    0    0    0  0.81020338480E+01  0.24749667528E+02 -0.74296207578E+01  0.97918857856E+02  0.94099492368E+02 0.  0.
         13    1    3    3    0    0  0.13541974796E+02 -0.34955443360E+02 -0.58870610630E+01  0.37946498571E+02  0.10566000000E+00 0. -1.
         22    1    1    0    0    0 -0.81020338480E+01 -0.24749667528E+02  0.74296207578E+01  0.27081142144E+02  0.00000000000E+00 0.  1.
</event>
<event>
 5    1  0.1324057E-009  0.9118800E+02  0.7818608E-02  0.1130116E+00
         25   -1    0    0    0    0  0.00000000000E+00  0.00000000000E+00  0.99999998245E-14  0.12500000000E+03  0.12500000000E+03 0.  0.
        -13    1    3    3    0    0 -0.33286977134E+02 -0.19604889593E+02  0.21046872613E+01  0.38688698805E+02  0.10566000000E+00 0.  1.
         23    2    1    0    0    0  0.49759860614E+01  0.25241447060E+02 -0.69963619431E+01  0.98338414012E+02  0.94655182124E+02 0.  0.
         13    1    3    3    0    0  0.38262963196E+02  0.44846336652E+02 -0.91010492044E+01  0.59649715207E+02  0.10566000000E+00 0. -1.
         22    1    1    0    0    0 -0.49759860614E+01 -0.25241447060E+02  0.69963619431E+01  0.26661585988E+02  0.00000000000E+00 0. -1.
</event>
<event>
 5    1  0.1324057E-009  0.9118800E+02  0.7818608E-02  0.1130116E+00
         25   -1    0    0    0    0  0.00000000000E+00  0.00000000000E+00  0.99999998245E-14  0.12500000000E+03  0.12500000000E+03 0.  0.
        -13    1    3    3    0    0  0.21947170270E+02  0.22247683078E+02 -0.32031826884E+02  0.44751388612E+02  0.10566000000E+00 0. -1.
         23    2    1    0    0    0  0.26797727160E+02 -0.94355424630E+01  0.74725157487E+01  0.95623374358E+02  0.90999140597E+02 0.  0.
         13    1    3    3    0    0  0.48505568904E+01 -0.31683225541E+02  0.39504342632E+02  0.50871985745E+02  0.10566000000E+00 0.  1.
         22    1    1    0    0    0 -0.26797727160E+02  0.94355424630E+01 -0.74725157487E+01  0.29376625642E+02  0.00000000000E+00 0.  1.
</event>
<event>
 5    1  0.1324057E-009  0.9118800E+02  0.7818608E-02  0.1130116E+00
         25   -1    0    0    0    0  0.00000000000E+00  0.00000000000E+00  0.99999998245E-14  0.12500000000E+03  0.12500000000E+03 0.  0.
        -13    1    3    3    0    0  0.47505955827E+01  0.28231589036E+02  0.60122485895E+01  0.29253189143E+02  0.10566000000E+00 0. -1.
         23    2    1    0    0    0 -0.15761841576E+02 -0.29794137755E+02 -0.15327319447E+01  0.91258696503E+02  0.84791946114E+02 0.  0.
         13    1    3    3    0    0 -0.20512437159E+02 -0.58025726791E+02 -0.75449805342E+01  0.62005507361E+02  0.10566000000E+00 0.  1.
         22    1    1    0    0    0  0.15761841576E+02  0.29794137755E+02  0.15327319447E+01  0.33741303497E+02  0.00000000000E+00 0.  1.
</event>
<event>
 5    1  0.1324057E-009  0.9118800E+02  0.7818608E-02  0.1130116E+00
         25   -1    0    0    0    0  0.00000000000E+00  0.00000000000E+00  0.99999998245E-14  0.12500000000E+03  0.12500000000E+03 0.  0.
        -13    1    3    3    0    0 -0.49581717204E+02  0.78038602594E+01 -0.24861795236E+02  0.56012203512E+02  0.10566000000E+00 0.  1.
         23    2    1    0    0    0 -0.28234007566E+02 -0.22545174493E+01  0.71550296220E+01  0.95786364809E+02  0.91222755946E+02 0.  0.
         13    1    3    3    0    0  0.21347709638E+02 -0.10058377709E+02  0.32016824858E+02  0.39774161298E+02  0.10566000000E+00 0. -1.
         22    1    1    0    0    0  0.28234007566E+02  0.22545174493E+01 -0.71550296220E+01  0.29213635191E+02  0.00000000000E+00 0.  1.
</event>
<event>
 5    1  0.1324057E-009  0.9118800E+02  0.7818608E-02  0.1130116E+00
         25   -1    0    0    0    0  0.00000000000E+00  0.00000000000E+00  0.99999998245E-14  0.12500000000E+03  0.12500000000E+03 0.  0.
        -13    1    3    3    0    0  0.30098714547E+01  0.35345447033E+02 -0.45898821960E+02  0.58009249034E+02  0.10566000000E+00 0.  1.
         23    2    1    0    0    0  0.93825918718E+01  0.31963823953E+01 -0.27879513276E+02  0.95410860926E+02  0.90706754057E+02 0.  0.
         13    1    3    3    0    0  0.63727204171E+01 -0.32149064638E+02  0.18019308685E+02  0.37401611892E+02  0.10566000000E+00 0. -1.
         22    1    1    0    0    0 -0.93825918718E+01 -0.31963823953E+01  0.27879513276E+02  0.29589139074E+02  0.00000000000E+00 0.  1.
</event>
<event>
 5    1  0.1324057E-009  0.9118800E+02  0.7818608E-02  0.1130116E+00
         25   -1    0    0    0    0  0.00000000000E+00  0.00000000000E+00  0.99999998245E-14  0.12500000000E+03  0.12500000000E+03 0.  0.
        -13    1    3    3    0    0 -0.72282539675E+01  0.28112000583E+02  0.23683610626E+02  0.37462738935E+02  0.10566000000E+00 0.  1.
         23    2    1    0    0    0 -0.31833781686E+01 -0.27906758733E+02  0.87984054200E+01  0.95566464407E+02  0.90920933243E+02 0.  0.
         13    1    3    3    0    0  0.40448757989E+01 -0.56018759317E+02 -0.14885205206E+02  0.58103725472E+02  0.10566000000E+00 0. -1.
         22    1    1    0    0    0  0.31833781686E+01  0.27906758733E+02 -0.87984054200E+01  0.29433535593E+02  0.00000000000E+00 0. -1.
</event>
<event>
 5    1  0.1324057E-009  0.9118800E+02  0.7818608E-02  0.1130116E+00
         25   -1    0    0    0    0  0.00000000000E+00  0.00000000000E+00  0.99999998245E-14  0.12500000000E+03  0.12500000000E+03 0.  0.
        -13    1    3    3    0    0  0.61680500328E+01  0.32184648882E+02 -0.29312852625E+02  0.43967612602E+02  0.10566000000E+00 0.  1.
         23    2    1    0    0    0 -0.27387370062E+02 -0.11733897217E+01 -0.51044182421E+01  0.97116313588E+02  0.93027299203E+02 0.  0.
         13    1    3    3    0    0 -0.33555420094E+02 -0.33358038603E+02  0.24208434383E+02  0.53148700986E+02  0.10566000000E+00 0. -1.
         22    1    1    0    0    0  0.27387370062E+02  0.11733897217E+01  0.51044182421E+01  0.27883686412E+02  0.00000000000E+00 0. -1.
</event>
<event>
 5    1  0.1324057E-009  0.9118800E+02  0.7818608E-02  0.1130116E+00
         25   -1    0    0    0    0  0.00000000000E+00  0.00000000000E+00  0.99999998245E-14  0.12500000000E+03  0.12500000000E+03 0.  0.
        -13    1    3    3    0    0 -0.33262093133E+02  0.41195844976E+02 -0.15438038594E+02  0.55152594522E+02  0.10566000000E+00 0. -1.
         23    2    1    0    0    0 -0.34303953059E+02  0.13007210010E+02 -0.19169721644E+02  0.83606438476E+02  0.72640275461E+02 0.  0.
         13    1    3    3    0    0 -0.10418599257E+01 -0.28188634966E+02 -0.37316830505E+01  0.28453843954E+02  0.10566000000E+00 0.  1.
         22    1    1    0    0    0  0.34303953059E+02 -0.13007210010E+02  0.19169721644E+02  0.41393561524E+02  0.00000000000E+00 0. -1.
</event>
<event>
 5    1  0.1324057E-009  0.9118800E+02  0.7818608E-02  0.1130116E+00
         25   -1    0    0    0    0  0.00000000000E+00  0.00000000000E+00  0.99999998245E-14  0.12500000000E+03  0.12500000000E+03 0.  0.
        -13    1    3    3    0    0 -0.57498856760E+02 -0.37135129255E+01  0.68263400913E+01  0.58021709644E+02  0.10566000000E+00 0. -1.
         23    2    1    0    0    0 -0.24516842670E+02  0.34149648782E+01 -0.12877648036E+02  0.97097108061E+02  0.93001489317E+02 0.  0.
         13    1    3    3    0    0  0.32982014090E+02  0.71284778037E+01 -0.19703988128E+02  0.39075398417E+02  0.10566000000E+00 0.  1.
         22    1    1    0    0    0  0.24516842670E+02 -0.34149648782E+01  0.12877648036E+02  0.27902891939E+02  0.00000000000E+00 0. -1.
</event>
<event>
 5    1  0.1324057E-009  0.9118800E+02  0.7818608E-02  0.1130116E+00
         25   -1    0    0    0    0  0.00000000000E+00  0.00000000000E+00  0.99999998245E-14  0.12500000000E+03  0.12500000000E+03 0.  0.
        -13    1    3    3    0    0 -0.40855809284E+02 -0.84926813130E+01  0.21271336863E+02  0.46838058501E+02  0.10566000000E+00 0.  1.
         23    2    1    0    0    0 -0.10411741405E+02 -0.32323197021E+02 -0.15641722155E+00  0.91040938012E+02  0.84470317290E+02 0.  0.
         13    1    3    3    0    0  0.30444067879E+02 -0.23830515708E+02 -0.21427754084E+02  0.44202879511E+02  0.10566000000E+00 0. -1.
         22    1    1    0    0    0  0.10411741405E+02  0.32323197021E+02  0.15641722155E+00  0.33959061988E+02  0.00000000000E+00 0. -1.
</event>
<event>
 5    1  0.1324057E-009  0.9118800E+02  0.7818608E-02  0.1130116E+00
         25   -1    0    0    0    0  0.00000000000E+00  0.00000000000E+00  0.99999998245E-14  0.12500000000E+03  0.12500000000E+03 0.  0.
        -13    1    3    3    0    0 -0.29489478116E+01  0.78363626296E+01  0.34702201882E+02  0.35698163146E+02  0.10566000000E+00 0.  1.
         23    2    1    0    0    0  0.75822768000E+01 -0.25261322609E+02 -0.13705097047E+02  0.95277028640E+02  0.90522136298E+02 0.  0.
         13    1    3    3    0    0  0.10531224612E+02 -0.33097685238E+02 -0.48407298929E+02  0.59578865494E+02  0.10566000000E+00 0. -1.
         22    1    1    0    0    0 -0.75822768000E+01  0.25261322609E+02  0.13705097047E+02  0.29722971360E+02  0.00000000000E+00 0. -1.
</event>
<event>
 5    1  0.1324057E-009  0.9118800E+02  0.7818608E-02  0.1130116E+00
         25   -1    0    0    0    0  0.00000000000E+00  0.00000000000E+00  0.99999998245E-14  0.12500000000E+03  0.12500000000E+03 0.  0.
        -13    1    3    3    0    0  0.67399526941E+01  0.21824508450E+02  0.25479310205E+02  0.34219037741E+02  0.10566000000E+00 0. -1.
         23    2    1    0    0    0 -0.16870556167E+02 -0.18928578760E+02 -0.14318708370E+02  0.95880725135E+02  0.91351963765E+02 0.  0.
         13    1    3    3    0    0 -0.23610508861E+02 -0.40753087210E+02 -0.39798018574E+02  0.61661687394E+02  0.10566000000E+00 0.  1.
         22    1    1    0    0    0  0.16870556167E+02  0.18928578760E+02  0.14318708370E+02  0.29119274865E+02  0.00000000000E+00 0.  1.
</event>
<event>
 5    1  0.1324057E-009  0.9118800E+02  0.7818608E-02  0.1130116E+00
         25   -1    0    0    0    0  0.00000000000E+00  0.00000000000E+00  0.99999998245E-14  0.12500000000E+03  0.12500000000E+03 0.  0.
        -13    1    3    3    0    0  0.18664763023E+02 -0.27641606590E+02  0.95875368301E+00  0.33367082076E+02  0.10566000000E+00 0.  1.
         23    2    1    0    0    0 -0.10082231147E+02  0.24713709475E+02  0.14519043661E+02  0.94615440603E+02  0.89603907007E+02 0.  0.
         13    1    3    3    0    0 -0.28746994170E+02  0.52355316065E+02  0.13560289978E+02  0.61248358528E+02  0.10566000000E+00 0. -1.
         22    1    1    0    0    0  0.10082231147E+02 -0.24713709475E+02 -0.14519043661E+02  0.30384559397E+02  0.00000000000E+00 0. -1.
</event>
<event>
 5    1  0.1324057E-009  0.9118800E+02  0.7818608E-02  0.1130116E+00
         25   -1    0    0    0    0  0.00000000000E+00  0.00000000000E+00  0.99999998245E-14  0.12500000000E+03  0.12500000000E+03 0.  0.
        -13    1    3    3    0    0  0.36518171145E+02 -0.30938143839E+02  0.89126706598E+01  0.48684622113E+02  0.10566000000E+00 0.  1.
         23    2    1    0    0    0  0.82504063798E+01  0.13812645202E+01  0.28075951204E+02  0.95704332520E+02  0.91110280045E+02 0.  0.
         13    1    3    3    0    0 -0.28267764765E+02  0.32319408359E+02  0.19163280544E+02  0.47019710407E+02  0.10566000000E+00 0. -1.
         22    1    1    0    0    0 -0.82504063798E+01 -0.13812645202E+01 -0.28075951204E+02  0.29295667480E+02  0.00000000000E+00 0. -1.
</event>
<event>
 5    1  0.1324057E-009  0.9118800E+02  0.7818608E-02  0.1130116E+00
         25   -1    0    0    0    0  0.00000000000E+00  0.00000000000E+00  0.99999998245E-14  0.12500000000E+03  0.12500000000E+03 0.  0.
        -13    1    3    3    0    0  0.70129046845E+01 -0.71562628900E+01 -0.45761839958E+02  0.46846025350E+02  0.10566000000E+00 0. -1.
         23    2    1    0    0    0 -0.26911229960E+02 -0.47745110936E+01 -0.10821558650E+02  0.95604143391E+02  0.90972720350E+02 0.  0.
         13    1    3    3    0    0 -0.33924134645E+02  0.23817517964E+01  0.34940281309E+02  0.48758118042E+02  0.10566000000E+00 0.  1.
         22    1    1    0    0    0  0.26911229960E+02  0.47745110936E+01  0.10821558650E+02  0.29395856609E+02  0.00000000000E+00 0. -1.
</event>
<event>
 5    1  0.1324057E-009  0.9118800E+02  0.7818608E-02  0.1130116E+00
         25   -1    0    0    0    0  0.00000000000E+00  0.00000000000E+00  0.99999998245E-14  0.12500000000E+03  0.12500000000E+03 0.  0.
        -13    1    3    3    0    0  0.19482521887E+02 -0.14927131716E+02 -0.25775384437E+02  0.35591705878E+02  0.10566000000E+00 0.  1.
         23    2    1    0    0    0 -0.26778541419E+02 -0.44453214790E+01  0.11100222603E+02  0.95673116336E+02  0.91067442503E+02 0.  0.
         13    1    3    3    0    0 -0.46261063306E+02  0.10481810237E+02  0.36875607041E+02  0.60081410459E+02  0.10566000000E+00 0. -1.
         22    1    1    0    0    0  0.26778541419E+02  0.44453214790E+01 -0.11100222603E+02  0.29326883664E+02  0.00000000000E+00 0. -1.
</event>
<event>
 5    1  0.1324057E-009  0.9118800E+02  0.7818608E-02  0.1130116E+00
         25   -1    0    0    0    0  0.00000000000E+00  0.00000000000E+00  0.99999998245E-14  0.12500000000E+03  0.12500000000E+03 0.  0.
        -13    1    3    3    0    0  0.47506752459E+02 -0.30850542347E+02  0.13553231618E+02  0.58243873013E+02  0.10566000000E+00 0. -1.
         23    2    1    0    0    0  0.21190478181E+02 -0.44056327458E+01  0.19311210863E+02  0.95993641552E+02  0.91506340698E+02 0.  0.
         13    1    3    3    0    0 -0.26316274278E+02  0.26444909601E+02  0.57579792450E+01  0.37749768538E+02  0.10566000000E+00 0.  1.
         22    1    1    0    0    0 -0.21190478181E+02  0.44056327458E+01 -0.19311210863E+02  0.29006358448E+02  0.00000000000E+00 0. -1.
</event>
<event>
 5    1  0.1324057E-009  0.9118800E+02  0.7818608E-02  0.1130116E+00
         25   -1    0    0    0    0  0.00000000000E+00  0.00000000000E+00  0.99999998245E-14  0.12500000000E+03  0.12500000000E+03 0.  0.
        -13    1    3    3    0    0  0.24650777499E+02  0.53837507457E+02  0.26162856501E+01  0.59270516744E+02  0.10566000000E+00 0. -1.
         23    2    1    0    0    0  0.72477646646E+01  0.25473747790E+02 -0.12372666876E+02  0.95767743762E+02  0.91197236474E+02 0.  0.
         13    1    3    3    0    0 -0.17403012834E+02 -0.28363759667E+02 -0.14988952526E+02  0.36497227018E+02  0.10566000000E+00 0.  1.
         22    1    1    0    0    0 -0.72477646646E+01 -0.25473747790E+02  0.12372666876E+02  0.29232256238E+02  0.00000000000E+00 0. -1.
</event>
<event>
 5    1  0.1324057E-009  0.9118800E+02  0.7818608E-02  0.1130116E+00
         25   -1    0    0    0    0  0.00000000000E+00  0.00000000000E+00  0.99999998245E-14  0.12500000000E+03  0.12500000000E+03 0.  0.
        -13    1    3    3    0    0 -0.44389117227E+02 -0.30497421219E+02 -0.13772465671E+02  0.55589373121E+02  0.10566000000E+00 0.  1.
         23    2    1    0    0    0 -0.91880177035E+01 -0.14273859094E+02 -0.23932162692E+02  0.95658712812E+02  0.91047669948E+02 0.  0.
         13    1    3    3    0    0  0.35201099524E+02  0.16223562125E+02 -0.10159697020E+02  0.40069339691E+02  0.10566000000E+00 0. -1.
         22    1    1    0    0    0  0.91880177035E+01  0.14273859094E+02  0.23932162692E+02  0.29341287188E+02  0.00000000000E+00 0.  1.
</event>
<event>
 5    1  0.1324057E-009  0.9118800E+02  0.7818608E-02  0.1130116E+00
         25   -1    0    0    0    0  0.00000000000E+00  0.00000000000E+00  0.99999998245E-14  0.12500000000E+03  0.12500000000E+03 0.  0.
        -13    1    3    3    0    0 -0.15764440955E+02  0.23347029590E+02  0.22485057731E+02  0.36044283520E+02  0.10566000000E+00 0. -1.
         23    2    1    0    0    0 -0.23366396920E+01 -0.23326490308E+02 -0.14802875072E+02  0.97274377454E+02  0.93239446392E+02 0.  0.
         13    1    3    3    0    0  0.13427801263E+02 -0.46673519898E+02 -0.37287932803E+02  0.61230093934E+02  0.10566000000E+00 0.  1.
         22    1    1    0    0    0  0.23366396920E+01  0.23326490308E+02  0.14802875072E+02  0.27725622546E+02  0.00000000000E+00 0.  1.
</event>
<event>
 5    1  0.1324057E-009  0.9118800E+02  0.7818608E-02  0.1130116E+00
         25   -1    0    0    0    0  0.00000000000E+00  0.00000000000E+00  0.99999998245E-14  0.12500000000E+03  0.12500000000E+03 0.  0.
        -13    1    3    3    0    0 -0.94086492110E+01 -0.39156016182E+02 -0.46887909291E+02  0.61807794694E+02  0.10566000000E+00 0.  1.
         23    2    1    0    0    0  0.18868362504E+01 -0.19526727902E+02 -0.23931867886E+02  0.94055088397E+02  0.88818759839E+02 0.  0.
         13    1    3    3    0    0  0.11295485461E+02  0.19629288280E+02  0.22956041405E+02  0.32247293703E+02  0.10566000000E+00 0. -1.
         22    1    1    0    0    0 -0.18868362504E+01  0.19526727902E+02  0.23931867886E+02  0.30944911603E+02  0.00000000000E+00 0.  1.
</event>
<event>
 5    1  0.1324057E-009  0.9118800E+02  0.7818608E-02  0.1130116E+00
         25   -1    0    0    0    0  0.00000000000E+00  0.00000000000E+00  0.99999998245E-14  0.12500000000E+03  0.12500000000E+03 0.  0.
        -13    1    3    3    0    0  0.36311272904E+02 -0.22145097657E+02 -0.35027297615E+02  0.55098426769E+02  0.10566000000E+00 0.  1.
         23    2    1    0    0    0  0.19678973620E+02 -0.20960918338E+02  0.24769205353E+01  0.96142466570E+02  0.91709414144E+02 0.  0.
         13    1    3    3    0    0 -0.16632299283E+02  0.11841793199E+01  0.37504218150E+02  0.41044039801E+02  0.10566000000E+00 0. -1.
         22    1    1    0    0    0 -0.19678973620E+02  0.20960918338E+02 -0.24769205353E+01  0.28857533430E+02  0.00000000000E+00 0.  1.
</event>
<event>
 5    1  0.1324057E-009  0.9118800E+02  0.7818608E-02  0.1130116E+00
         25   -1    0    0    0    0  0.00000000000E+00  0.00000000000E+00  0.99999998245E-14  0.12500000000E+03  0.12500000000E+03 0.  0.
        -13    1    3    3    0    0 -0.23698056135E+02 -0.16078891390E+02  0.33359076381E+02  0.43965529156E+02  0.10566000000E+00 0. -1.
         23    2    1    0    0    0  0.15355319870E+02  0.16687585835E+02  0.13012351689E+02  0.98854586142E+02  0.95334393246E+02 0.  0.
         13    1    3    3    0    0  0.39053376005E+02  0.32766477225E+02 -0.20346724692E+02  0.54889056987E+02  0.10566000000E+00 0.  1.
         22    1    1    0    0    0 -0.15355319870E+02 -0.16687585835E+02 -0.13012351689E+02  0.26145413858E+02  0.00000000000E+00 0. -1.
</event>
<event>
 5    1  0.1324057E-009  0.9118800E+02  0.7818608E-02  0.1130116E+00
         25   -1    0    0    0    0  0.00000000000E+00  0.00000000000E+00  0.99999998245E-14  0.12500000000E+03  0.12500000000E+03 0.  0.
        -13    1    3    3    0    0  0.16050100448E+02 -0.90610448735E+01  0.32475162855E+02  0.37341071558E+02  0.10566000000E+00 0. -1.
         23    2    1    0    0    0 -0.30033842197E+01  0.84394020728E+01 -0.23958168582E+02  0.99421929980E+02  0.96075400052E+02 0.  0.
         13    1    3    3    0    0 -0.19053484667E+02  0.17500446946E+02 -0.56433331438E+02  0.62080858422E+02  0.10566000000E+00 0.  1.
         22    1    1    0    0    0  0.30033842197E+01 -0.84394020728E+01  0.23958168582E+02  0.25578070020E+02  0.00000000000E+00 0.  1.
</event>
<event>
 5    1  0.1324057E-009  0.9118800E+02  0.7818608E-02  0.1130116E+00
         25   -1    0    0    0    0  0.00000000000E+00  0.00000000000E+00  0.99999998245E-14  0.12500000000E+03  0.12500000000E+03 0.  0.
        -13    1    3    3    0    0  0.34635660897E+02  0.15540857466E+02 -0.86043681856E+01  0.38925487440E+02  0.10566000000E+00 0. -1.
         23    2    1    0    0    0  0.20534769603E-01 -0.26802440539E+02  0.95431111894E+01  0.96549302087E+02  0.92262264886E+02 0.  0.
         13    1    3    3    0    0 -0.34615126128E+02 -0.42343298005E+02  0.18147479375E+02  0.57623814647E+02  0.10566000000E+00 0.  1.
         22    1    1    0    0    0 -0.20534769603E-01  0.26802440539E+02 -0.95431111894E+01  0.28450697913E+02  0.00000000000E+00 0.  1.
</event>
<event>
 5    1  0.1324057E-009  0.9118800E+02  0.7818608E-02  0.1130116E+00
         25   -1    0    0    0    0  0.00000000000E+00  0.00000000000E+00  0.99999998245E-14  0.12500000000E+03  0.12500000000E+03 0.  0.
        -13    1    3    3    0    0  0.13479262186E+02 -0.23169430677E+01  0.31050422694E+02  0.33929318410E+02  0.10566000000E+00 0.  1.
         23    2    1    0    0    0 -0.94067811596E+01 -0.35266685516E+02 -0.53626660269E+01  0.88108472165E+02  0.80013236663E+02 0.  0.
         13    1    3    3    0    0 -0.22886043346E+02 -0.32949742448E+02 -0.36413088721E+02  0.54179153755E+02  0.10566000000E+00 0. -1.
         22    1    1    0    0    0  0.94067811596E+01  0.35266685516E+02  0.53626660269E+01  0.36891527835E+02  0.00000000000E+00 0. -1.
</event>
<event>
 5    1  0.1324057E-009  0.9118800E+02  0.7818608E-02  0.1130116E+00
         25   -1    0    0    0    0  0.00000000000E+00  0.00000000000E+00  0.99999998245E-14  0.12500000000E+03  0.12500000000E+03 0.  0.
        -13    1    3    3    0    0  0.15161054471E+02 -0.46646149208E+02 -0.21885010054E+02  0.53709269569E+02  0.10566000000E+00 0. -1.
         23    2    1    0    0    0 -0.10506297648E+02 -0.13385034538E+02 -0.23772683868E+02  0.95765056214E+02  0.91193552697E+02 0.  0.
         13    1    3    3    0    0 -0.25667352119E+02  0.33261114669E+02 -0.18876738142E+01  0.42055786645E+02  0.10566000000E+00 0.  1.
         22    1    1    0    0    0  0.10506297648E+02  0.13385034538E+02  0.23772683868E+02  0.29234943786E+02  0.00000000000E+00 0. -1.
</event>
<event>
 5    1  0.1324057E-009  0.9118800E+02  0.7818608E-02  0.1130116E+00
         25   -1    0    0    0    0  0.00000000000E+00  0.00000000000E+00  0.99999998245E-14  0.12500000000E+03  0.12500000000E+03 0.  0.
        -13    1    3    3    0    0 -0.21228487726E+02  0.47652609957E+02  0.75291271063E+01  0.52707863226E+02  0.10566000000E+00 0.  1.
         23    2    1    0    0    0 -0.27540314820E+02  0.72306515603E+01  0.12466834337E+02  0.93916672946E+02  0.88623745331E+02 0.  0.
         13    1    3    3    0    0 -0.63118270941E+01 -0.40421958396E+02  0.49377072305E+01  0.41208809721E+02  0.10566000000E+00 0. -1.
         22    1    1    0    0    0  0.27540314820E+02 -0.72306515603E+01 -0.12466834337E+02  0.31083327054E+02  0.00000000000E+00 0. -1.
</event>
<event>
 5    1  0.1324057E-009  0.9118800E+02  0.7818608E-02  0.1130116E+00
         25   -1    0    0    0    0  0.00000000000E+00  0.00000000000E+00  0.99999998245E-14  0.12500000000E+03  0.12500000000E+03 0.  0.
        -13    1    3    3    0    0  0.27523282074E+02 -0.46342132497E+02 -0.26358368848E+02  0.59999158935E+02  0.10566000000E+00 0.  1.
         23    2    1    0    0    0  0.22909348419E+02 -0.14440663210E+02 -0.10138925338E+02  0.96083416420E+02  0.91628893396E+02 0.  0.
         13    1    3    3    0    0 -0.46139336549E+01  0.31901469287E+02  0.16219443510E+02  0.36084257485E+02  0.10566000000E+00 0. -1.
         22    1    1    0    0    0 -0.22909348419E+02  0.14440663210E+02  0.10138925338E+02  0.28916583580E+02  0.00000000000E+00 0.  1.
</event>
<event>
 5    1  0.1324057E-009  0.9118800E+02  0.7818608E-02  0.1130116E+00
         25   -1    0    0    0    0  0.00000000000E+00  0.00000000000E+00  0.99999998245E-14  0.12500000000E+03  0.12500000000E+03 0.  0.
        -13    1    3    3    0    0 -0.10430172119E+02 -0.33632119777E+02 -0.10068602747E+02  0.36623706754E+02  0.10566000000E+00 0.  1.
         23    2    1    0    0    0 -0.11204181172E+02  0.25183988898E+02 -0.10656328120E+02  0.95447939132E+02  0.90757835932E+02 0.  0.
         13    1    3    3    0    0 -0.77400905289E+00  0.58816108675E+02 -0.58772537250E+00  0.58824232378E+02  0.10566000000E+00 0. -1.
         22    1    1    0    0    0  0.11204181172E+02 -0.25183988898E+02  0.10656328120E+02  0.29552060868E+02  0.00000000000E+00 0. -1.
</event>
<event>
 5    1  0.1324057E-009  0.9118800E+02  0.7818608E-02  0.1130116E+00
         25   -1    0    0    0    0  0.00000000000E+00  0.00000000000E+00  0.99999998245E-14  0.12500000000E+03  0.12500000000E+03 0.  0.
        -13    1    3    3    0    0 -0.94742540542E+01  0.44103127387E+02 -0.52874309700E+01  0.45418227899E+02  0.10566000000E+00 0.  1.
         23    2    1    0    0    0 -0.17467892397E+02  0.14782741452E+01 -0.26129649902E+02  0.93534603717E+02  0.88083204581E+02 0.  0.
         13    1    3    3    0    0 -0.79936383427E+01 -0.42624853242E+02 -0.20842218932E+02  0.48116375818E+02  0.10566000000E+00 0. -1.
         22    1    1    0    0    0  0.17467892397E+02 -0.14782741452E+01  0.26129649902E+02  0.31465396283E+02  0.00000000000E+00 0.  1.
</event>
<event>
 5    1  0.1324057E-009  0.9118800E+02  0.7818608E-02  0.1130116E+00
         25   -1    0    0    0    0  0.00000000000E+00  0.00000000000E+00  0.99999998245E-14  0.12500000000E+03  0.12500000000E+03 0.  0.
        -13    1    3    3    0    0  0.32776297342E+02 -0.30768441868E+02 -0.27830166839E+02  0.52872601911E+02  0.10566000000E+00 0.  1.
         23    2    1    0    0    0  0.26916883574E+02  0.71208889452E+01 -0.80360410503E+01  0.96020634299E+02  0.91543206054E+02 0.  0.
         13    1    3    3    0    0 -0.58594137687E+01  0.37889330813E+02  0.19794125789E+02  0.43148032388E+02  0.10566000000E+00 0. -1.
         22    1    1    0    0    0 -0.26916883574E+02 -0.71208889452E+01  0.80360410503E+01  0.28979365701E+02  0.00000000000E+00 0.  1.
</event>
<event>
 5    1  0.1324057E-009  0.9118800E+02  0.7818608E-02  0.1130116E+00
         25   -1    0    0    0    0  0.00000000000E+00  0.00000000000E+00  0.99999998245E-14  0.12500000000E+03  0.12500000000E+03 0.  0.
        -13    1    3    3    0    0 -0.43175503076E+01  0.74780954812E+01  0.60529665041E+02  0.61142576546E+02  0.10566000000E+00 0.  1.
         23    2    1    0    0    0 -0.16092642120E+01 -0.57989104999E+01  0.27602297016E+02  0.96749267357E+02  0.92532787915E+02 0.  0.
         13    1    3    3    0    0  0.27082860956E+01 -0.13277005981E+02 -0.32927368025E+02  0.35606690811E+02  0.10566000000E+00 0. -1.
         22    1    1    0    0    0  0.16092642120E+01  0.57989104999E+01 -0.27602297016E+02  0.28250732643E+02  0.00000000000E+00 0.  1.
</event>
<event>
 5    1  0.1324057E-009  0.9118800E+02  0.7818608E-02  0.1130116E+00
         25   -1    0    0    0    0  0.00000000000E+00  0.00000000000E+00  0.99999998245E-14  0.12500000000E+03  0.12500000000E+03 0.  0.
        -13    1    3    3    0    0 -0.18885853116E+02 -0.21220711417E+02 -0.36083743134E+02  0.45924304280E+02  0.10566000000E+00 0.  1.
         23    2    1    0    0    0  0.69492001697E+01  0.17748022845E+02 -0.24254699289E+02  0.94152404705E+02  0.88955613517E+02 0.  0.
         13    1    3    3    0    0  0.25835053286E+02  0.38968734262E+02  0.11829043845E+02  0.48228100425E+02  0.10566000000E+00 0. -1.
         22    1    1    0    0    0 -0.69492001697E+01 -0.17748022845E+02  0.24254699289E+02  0.30847595295E+02  0.00000000000E+00 0.  1.
</event>
<event>
 5    1  0.1324057E-009  0.9118800E+02  0.7818608E-02  0.1130116E+00
         25   -1    0    0    0    0  0.00000000000E+00  0.00000000000E+00  0.99999998245E-14  0.12500000000E+03  0.12500000000E+03 0.  0.
        -13    1    3    3    0    0  0.36564012919E+02 -0.27903954007E+02  0.89812873386E+01  0.46863977384E+02  0.10566000000E+00 0.  1.
         23    2    1    0    0    0  0.25313188288E+02  0.15965130922E+02  0.13082365802E+02  0.92338230274E+02  0.86368730271E+02 0.  0.
         13    1    3    3    0    0 -0.11250824631E+02  0.43869084929E+02  0.41010784634E+01  0.45474252890E+02  0.10566000000E+00 0. -1.
         22    1    1    0    0    0 -0.25313188288E+02 -0.15965130922E+02 -0.13082365802E+02  0.32661769726E+02  0.00000000000E+00 0.  1.
</event>
<event>
 5    1  0.1324057E-009  0.9118800E+02  0.7818608E-02  0.1130116E+00
         25   -1    0    0    0    0  0.00000000000E+00  0.00000000000E+00  0.99999998245E-14  0.12500000000E+03  0.12500000000E+03 0.  0.
        -13    1    3    3    0    0  0.60212590857E+02  0.71384513414E+01 -0.43679851889E+01  0.60791480028E+02  0.10566000000E+00 0.  1.
         23    2    1    0    0    0  0.27054834078E+02  0.21431193507E+01 -0.12228667228E+02  0.95232613321E+02  0.90460783383E+02 0.  0.
         13    1    3    3    0    0 -0.33157756780E+02 -0.49953319907E+01 -0.78606820392E+01  0.34441133293E+02  0.10566000000E+00 0. -1.
         22    1    1    0    0    0 -0.27054834078E+02 -0.21431193507E+01  0.12228667228E+02  0.29767386679E+02  0.00000000000E+00 0.  1.
</event>
<event>
 5    1  0.1324057E-009  0.9118800E+02  0.7818608E-02  0.1130116E+00
         25   -1    0    0    0    0  0.00000000000E+00  0.00000000000E+00  0.99999998245E-14  0.12500000000E+03  0.12500000000E+03 0.  0.
        -13    1    3    3    0    0 -0.28908466142E+01 -0.50589263916E+02 -0.23771395762E+02  0.55970715899E+02  0.10566000000E+00 0. -1.
         23    2    1    0    0    0  0.15232388783E+02 -0.26967592661E+02 -0.67166544956E-01  0.94027734450E+02  0.88780254631E+02 0.  0.
         13    1    3    3    0    0  0.18123235397E+02  0.23621671255E+02  0.23704229217E+02  0.38057018551E+02  0.10566000000E+00 0.  1.
         22    1    1    0    0    0 -0.15232388783E+02  0.26967592661E+02  0.67166544956E-01  0.30972265550E+02  0.00000000000E+00 0. -1.
</event>
<event>
 5    1  0.1324057E-009  0.9118800E+02  0.7818608E-02  0.1130116E+00
         25   -1    0    0    0    0  0.00000000000E+00  0.00000000000E+00  0.99999998245E-14  0.12500000000E+03  0.12500000000E+03 0.  0.
        -13    1    3    3    0    0 -0.15445668466E+02  0.26298736784E+02  0.32541600475E+02  0.44599990542E+02  0.10566000000E+00 0.  1.
         23    2    1    0    0    0  0.44935655975E+01  0.24734586494E+02 -0.14683931337E+02  0.95886262001E+02  0.91359539733E+02 0.  0.
         13    1    3    3    0    0  0.19939234063E+02 -0.15641502904E+01 -0.47225531812E+02  0.51286271459E+02  0.10566000000E+00 0. -1.
         22    1    1    0    0    0 -0.44935655975E+01 -0.24734586494E+02  0.14683931337E+02  0.29113737999E+02  0.00000000000E+00 0. -1.
</event>
<event>
 5    1  0.1324057E-009  0.9118800E+02  0.7818608E-02  0.1130116E+00
         25   -1    0    0    0    0  0.00000000000E+00  0.00000000000E+00  0.99999998245E-14  0.12500000000E+03  0.12500000000E+03 0.  0.
        -13    1    3    3    0    0  0.34310175972E+02 -0.49709589218E+01  0.39382872575E+01  0.34891544512E+02  0.10566000000E+00 0.  1.
         23    2    1    0    0    0 -0.24721444020E+02  0.11529600813E+02  0.86938480359E+01  0.96370216853E+02  0.92019314349E+02 0.  0.
         13    1    3    3    0    0 -0.59031619993E+02  0.16500559735E+02  0.47555607783E+01  0.61478672342E+02  0.10566000000E+00 0. -1.
         22    1    1    0    0    0  0.24721444020E+02 -0.11529600813E+02 -0.86938480359E+01  0.28629783147E+02  0.00000000000E+00 0. -1.
</event>
<event>
 5    1  0.1324057E-009  0.9118800E+02  0.7818608E-02  0.1130116E+00
         25   -1    0    0    0    0  0.00000000000E+00  0.00000000000E+00  0.99999998245E-14  0.12500000000E+03  0.12500000000E+03 0.  0.
        -13    1    3    3    0    0 -0.21304338708E+02 -0.44507817455E+02  0.34941400529E+02  0.60462660357E+02  0.10566000000E+00 0. -1.
         23    2    1    0    0    0 -0.19344272022E+02 -0.19437258715E+02  0.10196461587E+02  0.95742937343E+02  0.91163229077E+02 0.  0.
         13    1    3    3    0    0  0.19600666864E+01  0.25070558740E+02 -0.24744938942E+02  0.35280276987E+02  0.10566000000E+00 0.  1.
         22    1    1    0    0    0  0.19344272022E+02  0.19437258715E+02 -0.10196461587E+02  0.29257062657E+02  0.00000000000E+00 0. -1.
</event>
<event>
 5    1  0.1324057E-009  0.9118800E+02  0.7818608E-02  0.1130116E+00
         25   -1    0    0    0    0  0.00000000000E+00  0.00000000000E+00  0.99999998245E-14  0.12500000000E+03  0.12500000000E+03 0.  0.
        -13    1    3    3    0    0 -0.16680847393E+02  0.25214732731E+02 -0.40647450055E+02  0.50658264641E+02  0.10566000000E+00 0. -1.
         23    2    1    0    0    0 -0.28164700638E+02  0.71169132645E+01 -0.75982115897E+00  0.95940093864E+02  0.91433163928E+02 0.  0.
         13    1    3    3    0    0 -0.11483853245E+02 -0.18097819467E+02  0.39887628896E+02  0.45281829223E+02  0.10566000000E+00 0.  1.
         22    1    1    0    0    0  0.28164700638E+02 -0.71169132645E+01  0.75982115897E+00  0.29059906136E+02  0.00000000000E+00 0. -1.
</event>
<event>
 5    1  0.1324057E-009  0.9118800E+02  0.7818608E-02  0.1130116E+00
         25   -1    0    0    0    0  0.00000000000E+00  0.00000000000E+00  0.99999998245E-14  0.12500000000E+03  0.12500000000E+03 0.  0.
        -13    1    3    3    0    0  0.29599713845E+02 -0.13048253715E+02  0.11853504555E+02  0.34451657710E+02  0.10566000000E+00 0.  1.
         23    2    1    0    0    0 -0.29198926741E+02  0.91617462182E+00  0.16596222892E+01  0.95739599373E+02  0.91158652048E+02 0.  0.
         13    1    3    3    0    0 -0.58798640586E+02  0.13964428337E+02 -0.10193882266E+02  0.61287941662E+02  0.10566000000E+00 0. -1.
         22    1    1    0    0    0  0.29198926741E+02 -0.91617462182E+00 -0.16596222892E+01  0.29260400627E+02  0.00000000000E+00 0. -1.
</event>
<event>
 5    1  0.1324057E-009  0.9118800E+02  0.7818608E-02  0.1130116E+00
         25   -1    0    0    0    0  0.00000000000E+00  0.00000000000E+00  0.99999998245E-14  0.12500000000E+03  0.12500000000E+03 0.  0.
        -13    1    3    3    0    0  0.23562003903E+02  0.40986664303E+01 -0.25119178904E+02  0.34683589884E+02  0.10566000000E+00 0.  1.
         23    2    1    0    0    0 -0.27017381340E+02 -0.63643115348E+01  0.80891946143E+01  0.96088437862E+02  0.91635743384E+02 0.  0.
         13    1    3    3    0    0 -0.50579385243E+02 -0.10462977965E+02  0.33208373518E+02  0.61404847978E+02  0.10566000000E+00 0. -1.
         22    1    1    0    0    0  0.27017381340E+02  0.63643115348E+01 -0.80891946143E+01  0.28911562138E+02  0.00000000000E+00 0. -1.
</event>
<event>
 5    1  0.1324057E-009  0.9118800E+02  0.7818608E-02  0.1130116E+00
         25   -1    0    0    0    0  0.00000000000E+00  0.00000000000E+00  0.99999998245E-14  0.12500000000E+03  0.12500000000E+03 0.  0.
        -13    1    3    3    0    0  0.28315476228E+02  0.32870718242E+02 -0.24558639711E+02  0.49853668474E+02  0.10566000000E+00 0. -1.
         23    2    1    0    0    0 -0.13836604990E+00  0.28770500168E+01 -0.32853325896E+02  0.92020649121E+02  0.85907870887E+02 0.  0.
         13    1    3    3    0    0 -0.28453842278E+02 -0.29993668225E+02 -0.82946861847E+01  0.42166980648E+02  0.10566000000E+00 0.  1.
         22    1    1    0    0    0  0.13836604990E+00 -0.28770500168E+01  0.32853325896E+02  0.32979350879E+02  0.00000000000E+00 0. -1.
</event>
<event>
 5    1  0.1324057E-009  0.9118800E+02  0.7818608E-02  0.1130116E+00
         25   -1    0    0    0    0  0.00000000000E+00  0.00000000000E+00  0.99999998245E-14  0.12500000000E+03  0.12500000000E+03 0.  0.
        -13    1    3    3    0    0  0.48973127708E+01  0.16753668842E+01  0.43336272198E+02  0.43644406041E+02  0.10566000000E+00 0. -1.
         23    2    1    0    0    0  0.27591420134E+02  0.12167470214E+02 -0.13117614999E+01  0.94816320392E+02  0.89883703184E+02 0.  0.
         13    1    3    3    0    0  0.22694107363E+02  0.10492103330E+02 -0.44648033698E+02  0.51171914352E+02  0.10566000000E+00 0.  1.
         22    1    1    0    0    0 -0.27591420134E+02 -0.12167470214E+02  0.13117614999E+01  0.30183679608E+02  0.00000000000E+00 0.  1.
</event>
<event>
 5    1  0.1324057E-009  0.9118800E+02  0.7818608E-02  0.1130116E+00
         25   -1    0    0    0    0  0.00000000000E+00  0.00000000000E+00  0.99999998245E-14  0.12500000000E+03  0.12500000000E+03 0.  0.
        -13    1    3    3    0    0  0.20308755107E+02  0.23120046269E+02 -0.30402253667E+02  0.43258412656E+02  0.10566000000E+00 0. -1.
         23    2    1    0    0    0 -0.19114581343E+02 -0.12422795056E+02 -0.89951784447E+01  0.10049272981E+03  0.97458619179E+02 0.  0.
         13    1    3    3    0    0 -0.39423336451E+02 -0.35542841325E+02  0.21407075222E+02  0.57234317153E+02  0.10566000000E+00 0.  1.
         22    1    1    0    0    0  0.19114581343E+02  0.12422795056E+02  0.89951784447E+01  0.24507270191E+02  0.00000000000E+00 0.  1.
</event>
<event>
 5    1  0.1324057E-009  0.9118800E+02  0.7818608E-02  0.1130116E+00
         25   -1    0    0    0    0  0.00000000000E+00  0.00000000000E+00  0.99999998245E-14  0.12500000000E+03  0.12500000000E+03 0.  0.
        -13    1    3    3    0    0  0.16003439695E+02 -0.25124692410E+02 -0.12790609919E+02  0.32418684688E+02  0.10566000000E+00 0. -1.
         23    2    1    0    0    0 -0.25004343214E+02  0.74913648457E+01  0.18092882462E+02  0.93240117718E+02  0.87664299629E+02 0.  0.
         13    1    3    3    0    0 -0.41007782909E+02  0.32616057256E+02  0.30883492381E+02  0.60821433029E+02  0.10566000000E+00 0.  1.
         22    1    1    0    0    0  0.25004343214E+02 -0.74913648457E+01 -0.18092882462E+02  0.31759882282E+02  0.00000000000E+00 0.  1.
</event>
<event>
 5    1  0.1324057E-009  0.9118800E+02  0.7818608E-02  0.1130116E+00
         25   -1    0    0    0    0  0.00000000000E+00  0.00000000000E+00  0.99999998245E-14  0.12500000000E+03  0.12500000000E+03 0.  0.
        -13    1    3    3    0    0 -0.27726190251E+01 -0.13892987781E+02  0.51824525968E+02  0.53726112661E+02  0.10566000000E+00 0. -1.
         23    2    1    0    0    0  0.15729435104E+02  0.99496985673E+01  0.22408525803E+02  0.95870055631E+02  0.91337363154E+02 0.  0.
         13    1    3    3    0    0  0.18502054129E+02  0.23842686349E+02 -0.29416000166E+02  0.42143942971E+02  0.10566000000E+00 0.  1.
         22    1    1    0    0    0 -0.15729435104E+02 -0.99496985673E+01 -0.22408525803E+02  0.29129944369E+02  0.00000000000E+00 0. -1.
</event>
<event>
 5    1  0.1324057E-009  0.9118800E+02  0.7818608E-02  0.1130116E+00
         25   -1    0    0    0    0  0.00000000000E+00  0.00000000000E+00  0.99999998245E-14  0.12500000000E+03  0.12500000000E+03 0.  0.
        -13    1    3    3    0    0  0.25917451207E+02 -0.28859817060E+02 -0.78969276944E+01  0.39585047036E+02  0.10566000000E+00 0.  1.
         23    2    1    0    0    0  0.13095580394E+02  0.19106556320E+02  0.18075376993E+02  0.95618475640E+02  0.90992411277E+02 0.  0.
         13    1    3    3    0    0 -0.12821870812E+02  0.47966373380E+02  0.25972304687E+02  0.56033428604E+02  0.10566000000E+00 0. -1.
         22    1    1    0    0    0 -0.13095580394E+02 -0.19106556320E+02 -0.18075376993E+02  0.29381524360E+02  0.00000000000E+00 0. -1.
</event>
<event>
 5    1  0.1324057E-009  0.9118800E+02  0.7818608E-02  0.1130116E+00
         25   -1    0    0    0    0  0.00000000000E+00  0.00000000000E+00  0.99999998245E-14  0.12500000000E+03  0.12500000000E+03 0.  0.
        -13    1    3    3    0    0 -0.24999912775E+02  0.38212384998E+02 -0.38348841917E+02  0.59630754199E+02  0.10566000000E+00 0. -1.
         23    2    1    0    0    0 -0.86859930409E+01  0.35314662792E+02 -0.26088224672E+02  0.80243242412E+02  0.66601881378E+02 0.  0.
         13    1    3    3    0    0  0.16313919734E+02 -0.28977222062E+01  0.12260617245E+02  0.20612488213E+02  0.10566000000E+00 0.  1.
         22    1    1    0    0    0  0.86859930409E+01 -0.35314662792E+02  0.26088224672E+02  0.44756757588E+02  0.00000000000E+00 0. -1.
</event>
<event>
 5    1  0.1324057E-009  0.9118800E+02  0.7818608E-02  0.1130116E+00
         25   -1    0    0    0    0  0.00000000000E+00  0.00000000000E+00  0.99999998245E-14  0.12500000000E+03  0.12500000000E+03 0.  0.
        -13    1    3    3    0    0 -0.29208241116E+02 -0.13872513743E+02 -0.10762128077E+02  0.34079356676E+02  0.10566000000E+00 0. -1.
         23    2    1    0    0    0  0.22610783105E+02  0.18372990260E+02 -0.13429469537E+01  0.95834647435E+02  0.91288892307E+02 0.  0.
         13    1    3    3    0    0  0.51819024221E+02  0.32245504003E+02  0.94191811238E+01  0.61755290759E+02  0.10566000000E+00 0.  1.
         22    1    1    0    0    0 -0.22610783105E+02 -0.18372990260E+02  0.13429469537E+01  0.29165352565E+02  0.00000000000E+00 0.  1.
</event>
<event>
 5    1  0.1324057E-009  0.9118800E+02  0.7818608E-02  0.1130116E+00
         25   -1    0    0    0    0  0.00000000000E+00  0.00000000000E+00  0.99999998245E-14  0.12500000000E+03  0.12500000000E+03 0.  0.
        -13    1    3    3    0    0  0.73644199241E+01 -0.19821413333E+02 -0.32671114529E+02  0.38917039917E+02  0.10566000000E+00 0.  1.
         23    2    1    0    0    0  0.21672879644E+02 -0.26502376271E+01  0.19532212477E+02  0.95704184670E+02  0.91110077201E+02 0.  0.
         13    1    3    3    0    0  0.14308459720E+02  0.17171175706E+02  0.52203327006E+02  0.56787144753E+02  0.10566000000E+00 0. -1.
         22    1    1    0    0    0 -0.21672879644E+02  0.26502376271E+01 -0.19532212477E+02  0.29295815330E+02  0.00000000000E+00 0. -1.
</event>
<event>
 5    1  0.1324057E-009  0.9118800E+02  0.7818608E-02  0.1130116E+00
         25   -1    0    0    0    0  0.00000000000E+00  0.00000000000E+00  0.99999998245E-14  0.12500000000E+03  0.12500000000E+03 0.  0.
        -13    1    3    3    0    0  0.46625463815E+02 -0.29302380202E+02  0.41787833164E+01  0.55227137854E+02  0.10566000000E+00 0.  1.
         23    2    1    0    0    0  0.15035771074E+02 -0.14463173621E+02  0.22224054363E+02  0.94517769187E+02  0.89467548848E+02 0.  0.
         13    1    3    3    0    0 -0.31589692741E+02  0.14839206581E+02  0.18045271047E+02  0.39290631334E+02  0.10566000000E+00 0. -1.
         22    1    1    0    0    0 -0.15035771074E+02  0.14463173621E+02 -0.22224054363E+02  0.30482230813E+02  0.00000000000E+00 0.  1.
</event>
<event>
 5    1  0.1324057E-009  0.9118800E+02  0.7818608E-02  0.1130116E+00
         25   -1    0    0    0    0  0.00000000000E+00  0.00000000000E+00  0.99999998245E-14  0.12500000000E+03  0.12500000000E+03 0.  0.
        -13    1    3    3    0    0 -0.11698805055E+02 -0.27867086769E+02  0.16530762247E+02  0.34448713027E+02  0.10566000000E+00 0.  1.
         23    2    1    0    0    0  0.85932549776E+01  0.24383813660E+02 -0.11006920992E+02  0.96900770305E+02  0.92737223251E+02 0.  0.
         13    1    3    3    0    0  0.20292060033E+02  0.52250900429E+02 -0.27537683239E+02  0.62452057278E+02  0.10566000000E+00 0. -1.
         22    1    1    0    0    0 -0.85932549776E+01 -0.24383813660E+02  0.11006920992E+02  0.28099229695E+02  0.00000000000E+00 0. -1.
</event>
<event>
 5    1  0.1324057E-009  0.9118800E+02  0.7818608E-02  0.1130116E+00
         25   -1    0    0    0    0  0.00000000000E+00  0.00000000000E+00  0.99999998245E-14  0.12500000000E+03  0.12500000000E+03 0.  0.
        -13    1    3    3    0    0 -0.29042539413E+02  0.32408580546E+01 -0.12637061397E+02  0.31838321898E+02  0.10566000000E+00 0.  1.
         23    2    1    0    0    0  0.29688018666E+02 -0.93931897971E+01  0.24100094997E+01  0.93768307560E+02  0.88414234657E+02 0.  0.
         13    1    3    3    0    0  0.58730558079E+02 -0.12634047852E+02  0.15047070897E+02  0.61929985662E+02  0.10566000000E+00 0. -1.
         22    1    1    0    0    0 -0.29688018666E+02  0.93931897971E+01 -0.24100094997E+01  0.31231692440E+02  0.00000000000E+00 0. -1.
</event>
<event>
 5    1  0.1324057E-009  0.9118800E+02  0.7818608E-02  0.1130116E+00
         25   -1    0    0    0    0  0.00000000000E+00  0.00000000000E+00  0.99999998245E-14  0.12500000000E+03  0.12500000000E+03 0.  0.
        -13    1    3    3    0    0  0.43404245081E+01 -0.65419091671E+01 -0.61363318443E+02  0.61863590866E+02  0.10566000000E+00 0. -1.
         23    2    1    0    0    0 -0.31523896122E+00  0.27982604143E+01 -0.28895460674E+02  0.95967651068E+02  0.91470830143E+02 0.  0.
         13    1    3    3    0    0 -0.46556634694E+01  0.93401695814E+01  0.32467857769E+02  0.34104060202E+02  0.10566000000E+00 0.  1.
         22    1    1    0    0    0  0.31523896122E+00 -0.27982604143E+01  0.28895460674E+02  0.29032348932E+02  0.00000000000E+00 0. -1.
</event>
<event>
 5    1  0.1324057E-009  0.9118800E+02  0.7818608E-02  0.1130116E+00
         25   -1    0    0    0    0  0.00000000000E+00  0.00000000000E+00  0.99999998245E-14  0.12500000000E+03  0.12500000000E+03 0.  0.
        -13    1    3    3    0    0  0.47896478560E+02 -0.31414517530E+00  0.38859502357E+01  0.48055000978E+02  0.10566000000E+00 0.  1.
         23    2    1    0    0    0  0.11960881315E+02 -0.57101794205E+01 -0.26465172816E+02  0.95401449308E+02  0.90693783288E+02 0.  0.
         13    1    3    3    0    0 -0.35935597246E+02 -0.53960342452E+01 -0.30351123052E+02  0.47346448331E+02  0.10566000000E+00 0. -1.
         22    1    1    0    0    0 -0.11960881315E+02  0.57101794205E+01  0.26465172816E+02  0.29598550692E+02  0.00000000000E+00 0. -1.
</event>
<event>
 5    1  0.1324057E-009  0.9118800E+02  0.7818608E-02  0.1130116E+00
         25   -1    0    0    0    0  0.00000000000E+00  0.00000000000E+00  0.99999998245E-14  0.12500000000E+03  0.12500000000E+03 0.  0.
        -13    1    3    3    0    0 -0.43639329732E+01 -0.36560467463E+02  0.45686013790E+02  0.58676526075E+02  0.10566000000E+00 0.  1.
         23    2    1    0    0    0  0.11224129502E+02 -0.97494815542E+01  0.24859970639E+02  0.96033612344E+02  0.91560925542E+02 0.  0.
         13    1    3    3    0    0  0.15588062475E+02  0.26810985909E+02 -0.20826043151E+02  0.37357086269E+02  0.10566000000E+00 0. -1.
         22    1    1    0    0    0 -0.11224129502E+02  0.97494815542E+01 -0.24859970639E+02  0.28966387656E+02  0.00000000000E+00 0.  1.
</event>
<event>
 5    1  0.1324057E-009  0.9118800E+02  0.7818608E-02  0.1130116E+00
         25   -1    0    0    0    0  0.00000000000E+00  0.00000000000E+00  0.99999998245E-14  0.12500000000E+03  0.12500000000E+03 0.  0.
        -13    1    3    3    0    0  0.31244562599E+02 -0.47653003077E+02 -0.20303852425E+02  0.60492057178E+02  0.10566000000E+00 0.  1.
         23    2    1    0    0    0  0.12375782427E+02 -0.26168336340E+02  0.81748906103E+00  0.96041234386E+02  0.91571330648E+02 0.  0.
         13    1    3    3    0    0 -0.18868780172E+02  0.21484666737E+02  0.21121341486E+02  0.35549177208E+02  0.10566000000E+00 0. -1.
         22    1    1    0    0    0 -0.12375782427E+02  0.26168336340E+02 -0.81748906103E+00  0.28958765614E+02  0.00000000000E+00 0.  1.
</event>
<event>
 5    1  0.1324057E-009  0.9118800E+02  0.7818608E-02  0.1130116E+00
         25   -1    0    0    0    0  0.00000000000E+00  0.00000000000E+00  0.99999998245E-14  0.12500000000E+03  0.12500000000E+03 0.  0.
        -13    1    3    3    0    0  0.35982279765E+02  0.17239293201E+01  0.20525660055E+02  0.41460948785E+02  0.10566000000E+00 0. -1.
         23    2    1    0    0    0  0.11445650960E+02  0.73301884820E+01 -0.26736443916E+02  0.95007133809E+02  0.90148674157E+02 0.  0.
         13    1    3    3    0    0 -0.24536628805E+02  0.56062591619E+01 -0.47262103971E+02  0.53546185024E+02  0.10566000000E+00 0.  1.
         22    1    1    0    0    0 -0.11445650960E+02 -0.73301884820E+01  0.26736443916E+02  0.29992866191E+02  0.00000000000E+00 0.  1.
</event>
<event>
 5    1  0.1324057E-009  0.9118800E+02  0.7818608E-02  0.1130116E+00
         25   -1    0    0    0    0  0.00000000000E+00  0.00000000000E+00  0.99999998245E-14  0.12500000000E+03  0.12500000000E+03 0.  0.
        -13    1    3    3    0    0  0.61577806976E+01  0.34890974379E+02 -0.41836820881E+02  0.54823618101E+02  0.10566000000E+00 0.  1.
         23    2    1    0    0    0  0.82157242935E+01 -0.15992135068E+01 -0.30919492111E+02  0.92967663184E+02  0.87274943690E+02 0.  0.
         13    1    3    3    0    0  0.20579435959E+01 -0.36490187885E+02  0.10917328771E+02  0.38144045083E+02  0.10566000000E+00 0. -1.
         22    1    1    0    0    0 -0.82157242935E+01  0.15992135068E+01  0.30919492111E+02  0.32032336816E+02  0.00000000000E+00 0.  1.
</event>
<event>
 5    1  0.1324057E-009  0.9118800E+02  0.7818608E-02  0.1130116E+00
         25   -1    0    0    0    0  0.00000000000E+00  0.00000000000E+00  0.99999998245E-14  0.12500000000E+03  0.12500000000E+03 0.  0.
        -13    1    3    3    0    0  0.48602655523E+02  0.22900179843E+01 -0.88691912157E+01  0.49458427220E+02  0.10566000000E+00 0. -1.
         23    2    1    0    0    0  0.89646422770E+01 -0.24900710670E+02 -0.72763882774E+01  0.97552668082E+02  0.93611788897E+02 0.  0.
         13    1    3    3    0    0 -0.39638013246E+02 -0.27190728655E+02  0.15928029382E+01  0.48094240862E+02  0.10566000000E+00 0.  1.
         22    1    1    0    0    0 -0.89646422770E+01  0.24900710670E+02  0.72763882774E+01  0.27447331918E+02  0.00000000000E+00 0. -1.
</event>
<event>
 5    1  0.1324057E-009  0.9118800E+02  0.7818608E-02  0.1130116E+00
         25   -1    0    0    0    0  0.00000000000E+00  0.00000000000E+00  0.99999998245E-14  0.12500000000E+03  0.12500000000E+03 0.  0.
        -13    1    3    3    0    0  0.85526812135E+01  0.50077498573E+02  0.96270906807E+01  0.51706829900E+02  0.10566000000E+00 0.  1.
         23    2    1    0    0    0 -0.14368201007E+02  0.23141494069E+02 -0.14130517465E+02  0.94313757614E+02  0.89182057632E+02 0.  0.
         13    1    3    3    0    0 -0.22920882221E+02 -0.26936004504E+02 -0.23757608146E+02  0.42606927715E+02  0.10566000000E+00 0. -1.
         22    1    1    0    0    0  0.14368201007E+02 -0.23141494069E+02  0.14130517465E+02  0.30686242386E+02  0.00000000000E+00 0.  1.
</event>
<event>
 5    1  0.1324057E-009  0.9118800E+02  0.7818608E-02  0.1130116E+00
         25   -1    0    0    0    0  0.00000000000E+00  0.00000000000E+00  0.99999998245E-14  0.12500000000E+03  0.12500000000E+03 0.  0.
        -13    1    3    3    0    0 -0.36114340517E+02 -0.25188521498E+02 -0.13304120408E+01  0.44050974637E+02  0.10566000000E+00 0. -1.
         23    2    1    0    0    0  0.14919812481E+02 -0.19603768694E+02 -0.13633680180E+02  0.96843548045E+02  0.92660061576E+02 0.  0.
         13    1    3    3    0    0  0.51034152998E+02  0.55847528039E+01 -0.12303268139E+02  0.52792573408E+02  0.10566000000E+00 0.  1.
         22    1    1    0    0    0 -0.14919812481E+02  0.19603768694E+02  0.13633680180E+02  0.28156451955E+02  0.00000000000E+00 0. -1.
</event>
<event>
 5    1  0.1324057E-009  0.9118800E+02  0.7818608E-02  0.1130116E+00
         25   -1    0    0    0    0  0.00000000000E+00  0.00000000000E+00  0.99999998245E-14  0.12500000000E+03  0.12500000000E+03 0.  0.
        -13    1    3    3    0    0  0.14483489686E+02  0.18097968154E+02 -0.30185986517E+02  0.38059333558E+02  0.10566000000E+00 0. -1.
         23    2    1    0    0    0 -0.28193384190E+02 -0.30684080518E+01  0.35300909263E+01  0.96421273961E+02  0.92088644742E+02 0.  0.
         13    1    3    3    0    0 -0.42676873876E+02 -0.21166376206E+02  0.33716077444E+02  0.58361940404E+02  0.10566000000E+00 0.  1.
         22    1    1    0    0    0  0.28193384190E+02  0.30684080518E+01 -0.35300909263E+01  0.28578726039E+02  0.00000000000E+00 0. -1.
</event>
<event>
 5    1  0.1324057E-009  0.9118800E+02  0.7818608E-02  0.1130116E+00
         25   -1    0    0    0    0  0.00000000000E+00  0.00000000000E+00  0.99999998245E-14  0.12500000000E+03  0.12500000000E+03 0.  0.
        -13    1    3    3    0    0 -0.20666736314E+02  0.52377140254E+02  0.22626350149E+02  0.60683125300E+02  0.10566000000E+00 0.  1.
         23    2    1    0    0    0 -0.15903145022E+02  0.25991772870E+02  0.20880958113E+01  0.94457530836E+02  0.89383346933E+02 0.  0.
         13    1    3    3    0    0  0.47635912925E+01 -0.26385367384E+02 -0.20538254338E+02  0.33774405535E+02  0.10566000000E+00 0. -1.
         22    1    1    0    0    0  0.15903145022E+02 -0.25991772870E+02 -0.20880958113E+01  0.30542469164E+02  0.00000000000E+00 0.  1.
</event>
<event>
 5    1  0.1324057E-009  0.9118800E+02  0.7818608E-02  0.1130116E+00
         25   -1    0    0    0    0  0.00000000000E+00  0.00000000000E+00  0.99999998245E-14  0.12500000000E+03  0.12500000000E+03 0.  0.
        -13    1    3    3    0    0  0.88543397498E+01 -0.22984941033E+02  0.23790973140E+02  0.34245122480E+02  0.10566000000E+00 0. -1.
         23    2    1    0    0    0 -0.89525004456E+01  0.30154458051E+02  0.66742771676E+01  0.92844369385E+02  0.87098176480E+02 0.  0.
         13    1    3    3    0    0 -0.17806840195E+02  0.53139399084E+02 -0.17116695972E+02  0.58599246905E+02  0.10566000000E+00 0.  1.
         22    1    1    0    0    0  0.89525004456E+01 -0.30154458051E+02 -0.66742771676E+01  0.32155630615E+02  0.00000000000E+00 0.  1.
</event>
<event>
 5    1  0.1324057E-009  0.9118800E+02  0.7818608E-02  0.1130116E+00
         25   -1    0    0    0    0  0.00000000000E+00  0.00000000000E+00  0.99999998245E-14  0.12500000000E+03  0.12500000000E+03 0.  0.
        -13    1    3    3    0    0 -0.38062001948E+02 -0.21632424737E+02  0.12445517943E+02  0.45514611645E+02  0.10566000000E+00 0. -1.
         23    2    1    0    0    0 -0.13553310179E+02  0.21173538721E+02  0.16376214781E+02  0.94996810681E+02  0.90134358988E+02 0.  0.
         13    1    3    3    0    0  0.24508691770E+02  0.42805963457E+02  0.39306968387E+01  0.49482199036E+02  0.10566000000E+00 0.  1.
         22    1    1    0    0    0  0.13553310179E+02 -0.21173538721E+02 -0.16376214781E+02  0.30003189319E+02  0.00000000000E+00 0.  1.
</event>
<event>
 5    1  0.1324057E-009  0.9118800E+02  0.7818608E-02  0.1130116E+00
         25   -1    0    0    0    0  0.00000000000E+00  0.00000000000E+00  0.99999998245E-14  0.12500000000E+03  0.12500000000E+03 0.  0.
        -13    1    3    3    0    0 -0.26550522415E+01  0.83970118820E+01  0.36450388830E+02  0.37499348272E+02  0.10566000000E+00 0.  1.
         23    2    1    0    0    0  0.15775478004E+02  0.22833600753E+02 -0.14584517599E+02  0.93648011495E+02  0.88243996248E+02 0.  0.
         13    1    3    3    0    0  0.18430530246E+02  0.14436588871E+02 -0.51034906430E+02  0.56148663223E+02  0.10566000000E+00 0. -1.
         22    1    1    0    0    0 -0.15775478004E+02 -0.22833600753E+02  0.14584517599E+02  0.31351988505E+02  0.00000000000E+00 0. -1.
</event>
<event>
 5    1  0.1324057E-009  0.9118800E+02  0.7818608E-02  0.1130116E+00
         25   -1    0    0    0    0  0.00000000000E+00  0.00000000000E+00  0.99999998245E-14  0.12500000000E+03  0.12500000000E+03 0.  0.
        -13    1    3    3    0    0 -0.68032557875E+01  0.17901101236E+02 -0.40423486617E+02  0.44730338129E+02  0.10566000000E+00 0. -1.
         23    2    1    0    0    0 -0.73904188553E+01 -0.25068673523E+02 -0.12092468562E+02  0.96202700144E+02  0.91791475835E+02 0.  0.
         13    1    3    3    0    0 -0.58716306784E+00 -0.42969774760E+02  0.28331018055E+02  0.51472362016E+02  0.10566000000E+00 0.  1.
         22    1    1    0    0    0  0.73904188553E+01  0.25068673523E+02  0.12092468562E+02  0.28797299856E+02  0.00000000000E+00 0.  1.
</event>
<event>
 5    1  0.1324057E-009  0.9118800E+02  0.7818608E-02  0.1130116E+00
         25   -1    0    0    0    0  0.00000000000E+00  0.00000000000E+00  0.99999998245E-14  0.12500000000E+03  0.12500000000E+03 0.  0.
        -13    1    3    3    0    0 -0.46288165700E+02 -0.32734802299E+02 -0.77930235746E+01  0.57226776476E+02  0.10566000000E+00 0.  1.
         23    2    1    0    0    0 -0.18796015032E+02 -0.14547076851E+02  0.14626484047E+02  0.97092265202E+02  0.92994979975E+02 0.  0.
         13    1    3    3    0    0  0.27492150668E+02  0.18187725448E+02  0.22419507621E+02  0.39865488726E+02  0.10566000000E+00 0. -1.
         22    1    1    0    0    0  0.18796015032E+02  0.14547076851E+02 -0.14626484047E+02  0.27907734798E+02  0.00000000000E+00 0.  1.
</event>
<event>
 5    1  0.1324057E-009  0.9118800E+02  0.7818608E-02  0.1130116E+00
         25   -1    0    0    0    0  0.00000000000E+00  0.00000000000E+00  0.99999998245E-14  0.12500000000E+03  0.12500000000E+03 0.  0.
        -13    1    3    3    0    0  0.61426321555E+01 -0.43579360833E+02 -0.41438023002E+01  0.44204919205E+02  0.10566000000E+00 0.  1.
         23    2    1    0    0    0  0.70081180715E+01  0.76668430647E+00 -0.29072519873E+02  0.95084904555E+02  0.90256446522E+02 0.  0.
         13    1    3    3    0    0  0.86548591600E+00  0.44346045139E+02 -0.24928717573E+02  0.50879985350E+02  0.10566000000E+00 0. -1.
         22    1    1    0    0    0 -0.70081180715E+01 -0.76668430647E+00  0.29072519873E+02  0.29915095445E+02  0.00000000000E+00 0. -1.
</event>
<event>
 5    1  0.1324057E-009  0.9118800E+02  0.7818608E-02  0.1130116E+00
         25   -1    0    0    0    0  0.00000000000E+00  0.00000000000E+00  0.99999998245E-14  0.12500000000E+03  0.12500000000E+03 0.  0.
        -13    1    3    3    0    0  0.51240061559E+02  0.26648219205E+01 -0.16467848071E+02  0.53887348873E+02  0.10566000000E+00 0.  1.
         23    2    1    0    0    0  0.18503608908E+02  0.23737201951E+02 -0.48630494990E+01  0.94512501750E+02  0.89460189121E+02 0.  0.
         13    1    3    3    0    0 -0.32736452651E+02  0.21072380031E+02  0.11604798572E+02  0.40625152877E+02  0.10566000000E+00 0. -1.
         22    1    1    0    0    0 -0.18503608908E+02 -0.23737201951E+02  0.48630494990E+01  0.30487498250E+02  0.00000000000E+00 0.  1.
</event>
<event>
 5    1  0.1324057E-009  0.9118800E+02  0.7818608E-02  0.1130116E+00
         25   -1    0    0    0    0  0.00000000000E+00  0.00000000000E+00  0.99999998245E-14  0.12500000000E+03  0.12500000000E+03 0.  0.
        -13    1    3    3    0    0 -0.29779447345E+00 -0.20777040098E+02 -0.26496676978E+02  0.33672824825E+02  0.10566000000E+00 0. -1.
         23    2    1    0    0    0  0.42553983364E+01  0.27843224150E+02  0.10502054208E+02  0.94939283298E+02  0.90054543608E+02 0.  0.
         13    1    3    3    0    0  0.45531928099E+01  0.48620264248E+02  0.36998731186E+02  0.61266458472E+02  0.10566000000E+00 0.  1.
         22    1    1    0    0    0 -0.42553983364E+01 -0.27843224150E+02 -0.10502054208E+02  0.30060716702E+02  0.00000000000E+00 0.  1.
</event>
<event>
 5    1  0.1324057E-009  0.9118800E+02  0.7818608E-02  0.1130116E+00
         25   -1    0    0    0    0  0.00000000000E+00  0.00000000000E+00  0.99999998245E-14  0.12500000000E+03  0.12500000000E+03 0.  0.
        -13    1    3    3    0    0 -0.17363639844E+02 -0.40095373387E+02  0.20436706849E+02  0.48236968256E+02  0.10566000000E+00 0. -1.
         23    2    1    0    0    0  0.12768165373E+02 -0.40786931814E+01  0.26221910834E+02  0.95550884685E+02  0.90899511391E+02 0.  0.
         13    1    3    3    0    0  0.30131805217E+02  0.36016680206E+02  0.57852039848E+01  0.47313916429E+02  0.10566000000E+00 0.  1.
         22    1    1    0    0    0 -0.12768165373E+02  0.40786931814E+01 -0.26221910834E+02  0.29449115315E+02  0.00000000000E+00 0. -1.
</event>
<event>
 5    1  0.1324057E-009  0.9118800E+02  0.7818608E-02  0.1130116E+00
         25   -1    0    0    0    0  0.00000000000E+00  0.00000000000E+00  0.99999998245E-14  0.12500000000E+03  0.12500000000E+03 0.  0.
        -13    1    3    3    0    0 -0.41933635705E+02 -0.27545517388E+02  0.35873108048E+02  0.61677194948E+02  0.10566000000E+00 0. -1.
         23    2    1    0    0    0 -0.13750604170E+02 -0.17039099506E+02  0.17924862050E+02  0.96703167906E+02  0.92470492464E+02 0.  0.
         13    1    3    3    0    0  0.28183031535E+02  0.10506417881E+02 -0.17948245998E+02  0.35025972957E+02  0.10566000000E+00 0.  1.
         22    1    1    0    0    0  0.13750604170E+02  0.17039099506E+02 -0.17924862050E+02  0.28296832094E+02  0.00000000000E+00 0. -1.
</event>
<event>
 5    1  0.1324057E-009  0.9118800E+02  0.7818608E-02  0.1130116E+00
         25   -1    0    0    0    0  0.00000000000E+00  0.00000000000E+00  0.99999998245E-14  0.12500000000E+03  0.12500000000E+03 0.  0.
        -13    1    3    3    0    0  0.24486065024E+02  0.22031990955E+02 -0.86023740856E+01  0.34043912962E+02  0.10566000000E+00 0.  1.
         23    2    1    0    0    0 -0.22100158384E+02 -0.15554001765E+02  0.91320422932E+01  0.96473903739E+02  0.92160056069E+02 0.  0.
         13    1    3    3    0    0 -0.46586223408E+02 -0.37585992719E+02  0.17734416379E+02  0.62429990777E+02  0.10566000000E+00 0. -1.
         22    1    1    0    0    0  0.22100158384E+02  0.15554001765E+02 -0.91320422932E+01  0.28526096261E+02  0.00000000000E+00 0. -1.
</event>
<event>
 5    1  0.1324057E-009  0.9118800E+02  0.7818608E-02  0.1130116E+00
         25   -1    0    0    0    0  0.00000000000E+00  0.00000000000E+00  0.99999998245E-14  0.12500000000E+03  0.12500000000E+03 0.  0.
        -13    1    3    3    0    0 -0.29323068440E+02  0.27757531548E+01 -0.20752666060E+02  0.36030979183E+02  0.10566000000E+00 0. -1.
         23    2    1    0    0    0  0.14194352564E+02 -0.26257866334E+02  0.56362270501E+01  0.94623656499E+02  0.89615367682E+02 0.  0.
         13    1    3    3    0    0  0.43517421003E+02 -0.29033619489E+02  0.26388893110E+02  0.58592677316E+02  0.10566000000E+00 0.  1.
         22    1    1    0    0    0 -0.14194352564E+02  0.26257866334E+02 -0.56362270501E+01  0.30376343501E+02  0.00000000000E+00 0.  1.
</event>
<event>
 5    1  0.1324057E-009  0.9118800E+02  0.7818608E-02  0.1130116E+00
         25   -1    0    0    0    0  0.00000000000E+00  0.00000000000E+00  0.99999998245E-14  0.12500000000E+03  0.12500000000E+03 0.  0.
        -13    1    3    3    0    0 -0.28176388786E+02 -0.15789564157E+02 -0.27952462347E+02  0.42714991942E+02  0.10566000000E+00 0.  1.
         23    2    1    0    0    0  0.38858321168E+01  0.25106313712E+02 -0.10069187236E+02  0.97672080008E+02  0.93771104302E+02 0.  0.
         13    1    3    3    0    0  0.32062220903E+02  0.40895877870E+02  0.17883275111E+02  0.54957088066E+02  0.10566000000E+00 0. -1.
         22    1    1    0    0    0 -0.38858321168E+01 -0.25106313712E+02  0.10069187236E+02  0.27327919992E+02  0.00000000000E+00 0. -1.
</event>
<event>
 5    1  0.1324057E-009  0.9118800E+02  0.7818608E-02  0.1130116E+00
         25   -1    0    0    0    0  0.00000000000E+00  0.00000000000E+00  0.99999998245E-14  0.12500000000E+03  0.12500000000E+03 0.  0.
        -13    1    3    3    0    0 -0.25601212149E+01  0.42611884813E+01  0.36028803558E+02  0.36370287292E+02  0.10566000000E+00 0.  1.
         23    2    1    0    0    0 -0.65977716730E+01  0.24107393648E+02 -0.18084588774E+02  0.94149564498E+02  0.88951622382E+02 0.  0.
         13    1    3    3    0    0 -0.40376504582E+01  0.19846205167E+02 -0.54113392331E+02  0.57779277205E+02  0.10566000000E+00 0. -1.
         22    1    1    0    0    0  0.65977716730E+01 -0.24107393648E+02  0.18084588774E+02  0.30850435502E+02  0.00000000000E+00 0. -1.
</event>
<event>
 5    1  0.1324057E-009  0.9118800E+02  0.7818608E-02  0.1130116E+00
         25   -1    0    0    0    0  0.00000000000E+00  0.00000000000E+00  0.99999998245E-14  0.12500000000E+03  0.12500000000E+03 0.  0.
        -13    1    3    3    0    0  0.39568277167E+02  0.32630595814E+02  0.29156223607E+02  0.58995770020E+02  0.10566000000E+00 0. -1.
         23    2    1    0    0    0  0.23368661501E+02  0.43567741256E+01  0.22529178169E+02  0.92248821546E+02  0.86239233453E+02 0.  0.
         13    1    3    3    0    0 -0.16199615666E+02 -0.28273821688E+02 -0.66270454386E+01  0.33253051527E+02  0.10566000000E+00 0.  1.
         22    1    1    0    0    0 -0.23368661501E+02 -0.43567741256E+01 -0.22529178169E+02  0.32751178454E+02  0.00000000000E+00 0. -1.
</event>
<event>
 5    1  0.1324057E-009  0.9118800E+02  0.7818608E-02  0.1130116E+00
         25   -1    0    0    0    0  0.00000000000E+00  0.00000000000E+00  0.99999998245E-14  0.12500000000E+03  0.12500000000E+03 0.  0.
        -13    1    3    3    0    0 -0.24501294028E+02 -0.12257804293E+01  0.25920787716E+02  0.35689134853E+02  0.10566000000E+00 0.  1.
         23    2    1    0    0    0  0.23913716297E+02 -0.19553707996E+02 -0.11104723369E+01  0.94089702810E+02  0.88867461439E+02 0.  0.
         13    1    3    3    0    0  0.48415010325E+02 -0.18327927567E+02 -0.27031260053E+02  0.58400567957E+02  0.10566000000E+00 0. -1.
         22    1    1    0    0    0 -0.23913716297E+02  0.19553707996E+02  0.11104723369E+01  0.30910297190E+02  0.00000000000E+00 0. -1.
</event>
<event>
 5    1  0.1324057E-009  0.9118800E+02  0.7818608E-02  0.1130116E+00
         25   -1    0    0    0    0  0.00000000000E+00  0.00000000000E+00  0.99999998245E-14  0.12500000000E+03  0.12500000000E+03 0.  0.
        -13    1    3    3    0    0 -0.56143160198E+01 -0.32430942774E+02 -0.37372137861E+02  0.49799341822E+02  0.10566000000E+00 0. -1.
         23    2    1    0    0    0 -0.21953999246E+02  0.45350120267E+01 -0.23480780987E+02  0.92536305005E+02  0.86654926296E+02 0.  0.
         13    1    3    3    0    0 -0.16339683226E+02  0.36965954800E+02  0.13891356875E+02  0.42736963183E+02  0.10566000000E+00 0.  1.
         22    1    1    0    0    0  0.21953999246E+02 -0.45350120267E+01  0.23480780987E+02  0.32463694995E+02  0.00000000000E+00 0. -1.
</event>
<event>
 5    1  0.1324057E-009  0.9118800E+02  0.7818608E-02  0.1130116E+00
         25   -1    0    0    0    0  0.00000000000E+00  0.00000000000E+00  0.99999998245E-14  0.12500000000E+03  0.12500000000E+03 0.  0.
        -13    1    3    3    0    0 -0.13030913625E+02 -0.78652779255E+01  0.54934029602E+02  0.57003737413E+02  0.10566000000E+00 0.  1.
         23    2    1    0    0    0  0.12479564294E+02 -0.68660262432E+01  0.23757963847E+02  0.97299409979E+02  0.93272999817E+02 0.  0.
         13    1    3    3    0    0  0.25510477919E+02  0.99925168230E+00 -0.31176065755E+02  0.40295672566E+02  0.10566000000E+00 0. -1.
         22    1    1    0    0    0 -0.12479564294E+02  0.68660262432E+01 -0.23757963847E+02  0.27700590021E+02  0.00000000000E+00 0.  1.
</event>
<event>
 5    1  0.1324057E-009  0.9118800E+02  0.7818608E-02  0.1130116E+00
         25   -1    0    0    0    0  0.00000000000E+00  0.00000000000E+00  0.99999998245E-14  0.12500000000E+03  0.12500000000E+03 0.  0.
        -13    1    3    3    0    0 -0.35324994866E+02  0.30917061911E+02 -0.42399518550E+01  0.47135001169E+02  0.10566000000E+00 0. -1.
         23    2    1    0    0    0  0.99063978725E+01  0.29298283484E+02  0.58928181217E+01  0.93515854159E+02  0.88056592824E+02 0.  0.
         13    1    3    3    0    0  0.45231392738E+02 -0.16187784267E+01  0.10132769977E+02  0.46380852990E+02  0.10566000000E+00 0.  1.
         22    1    1    0    0    0 -0.99063978725E+01 -0.29298283484E+02 -0.58928181217E+01  0.31484145841E+02  0.00000000000E+00 0.  1.
</event>
<event>
 5    1  0.1324057E-009  0.9118800E+02  0.7818608E-02  0.1130116E+00
         25   -1    0    0    0    0  0.00000000000E+00  0.00000000000E+00  0.99999998245E-14  0.12500000000E+03  0.12500000000E+03 0.  0.
        -13    1    3    3    0    0  0.20073115545E+02  0.57631350328E+01 -0.38568396017E+02  0.43859731286E+02  0.10566000000E+00 0.  1.
         23    2    1    0    0    0  0.81664671964E+01  0.21165712158E+02  0.12910628572E+02  0.98897071280E+02  0.95390082399E+02 0.  0.
         13    1    3    3    0    0 -0.11906648349E+02  0.15402577125E+02  0.51479024589E+02  0.55037339994E+02  0.10566000000E+00 0. -1.
         22    1    1    0    0    0 -0.81664671964E+01 -0.21165712158E+02 -0.12910628572E+02  0.26102928720E+02  0.00000000000E+00 0. -1.
</event>
<event>
 5    1  0.1324057E-009  0.9118800E+02  0.7818608E-02  0.1130116E+00
         25   -1    0    0    0    0  0.00000000000E+00  0.00000000000E+00  0.99999998245E-14  0.12500000000E+03  0.12500000000E+03 0.  0.
        -13    1    3    3    0    0  0.19183003016E+02  0.21759442321E+02  0.18288802613E+02  0.34292162368E+02  0.10566000000E+00 0.  1.
         23    2    1    0    0    0 -0.12038405303E+02 -0.12906010779E+02 -0.22598404058E+02  0.96326385257E+02  0.91959753774E+02 0.  0.
         13    1    3    3    0    0 -0.31221408319E+02 -0.34665453100E+02 -0.40887206671E+02  0.62034222889E+02  0.10566000000E+00 0. -1.
         22    1    1    0    0    0  0.12038405303E+02  0.12906010779E+02  0.22598404058E+02  0.28673614743E+02  0.00000000000E+00 0. -1.
</event>
<event>
 5    1  0.1324057E-009  0.9118800E+02  0.7818608E-02  0.1130116E+00
         25   -1    0    0    0    0  0.00000000000E+00  0.00000000000E+00  0.99999998245E-14  0.12500000000E+03  0.12500000000E+03 0.  0.
        -13    1    3    3    0    0  0.21316501169E+02  0.38945149481E+02 -0.70581068453E+01  0.44954932171E+02  0.10566000000E+00 0. -1.
         23    2    1    0    0    0  0.55964556268E+01  0.18465096652E+01  0.26785043686E+02  0.97574309875E+02  0.93640682766E+02 0.  0.
         13    1    3    3    0    0 -0.15720045543E+02 -0.37098639816E+02  0.33843150532E+02  0.52619377704E+02  0.10566000000E+00 0.  1.
         22    1    1    0    0    0 -0.55964556268E+01 -0.18465096652E+01 -0.26785043686E+02  0.27425690125E+02  0.00000000000E+00 0. -1.
</event>
<event>
 5    1  0.1324057E-009  0.9118800E+02  0.7818608E-02  0.1130116E+00
         25   -1    0    0    0    0  0.00000000000E+00  0.00000000000E+00  0.99999998245E-14  0.12500000000E+03  0.12500000000E+03 0.  0.
        -13    1    3    3    0    0  0.17157163204E+02  0.59503268350E+02  0.35616585423E+00  0.61928549246E+02  0.10566000000E+00 0. -1.
         23    2    1    0    0    0  0.53760649179E+01  0.27062384575E+02  0.56217108811E+01  0.96841904075E+02  0.92657843805E+02 0.  0.
         13    1    3    3    0    0 -0.11781098286E+02 -0.32440883775E+02  0.52655450269E+01  0.34913354829E+02  0.10566000000E+00 0.  1.
         22    1    1    0    0    0 -0.53760649179E+01 -0.27062384575E+02 -0.56217108811E+01  0.28158095925E+02  0.00000000000E+00 0. -1.
</event>
<event>
 5    1  0.1324057E-009  0.9118800E+02  0.7818608E-02  0.1130116E+00
         25   -1    0    0    0    0  0.00000000000E+00  0.00000000000E+00  0.99999998245E-14  0.12500000000E+03  0.12500000000E+03 0.  0.
        -13    1    3    3    0    0 -0.47918994654E+02 -0.30519675430E+02 -0.15854325158E+02  0.58983484361E+02  0.10566000000E+00 0. -1.
         23    2    1    0    0    0 -0.25658765495E+02 -0.16498885842E+01  0.12624563253E+01  0.99257269472E+02  0.95860927222E+02 0.  0.
         13    1    3    3    0    0  0.22260229159E+02  0.28869786846E+02  0.17116781484E+02  0.40273785111E+02  0.10566000000E+00 0.  1.
         22    1    1    0    0    0  0.25658765495E+02  0.16498885842E+01 -0.12624563253E+01  0.25742730528E+02  0.00000000000E+00 0. -1.
</event>
