<event>
 5    1  0.1717510E-003  0.9118800E+02  0.7818608E-02  0.1130116E+00
         25   -1    0    0    0    0  0.00000000000E+00  0.00000000000E+00  0.99999998245E-14  0.12500000000E+03  0.12500000000E+03 0.  0.
        -11    1    3    3    0    0 -0.48177996075E+01 -0.30719709190E+02 -0.44134620507E+02  0.53988669676E+02  0.51100000000E-03 0.  1.
         23    2    1    0    0    0 -0.21573517617E+02 -0.17106653445E+01 -0.21992653473E+02  0.94145181169E+02  0.88945462460E+02 0.  0.
         11    1    3    3    0    0 -0.16755718010E+02  0.29009043846E+02  0.22141967035E+02  0.40156511493E+02  0.51100000000E-03 0. -1.
         22    1    1    0    0    0  0.21573517617E+02  0.17106653445E+01  0.21992653473E+02  0.30854818831E+02  0.00000000000E+00 0.  1.
</event>
<event>
 5    1  0.1717510E-003  0.9118800E+02  0.7818608E-02  0.1130116E+00
         25   -1    0    0    0    0  0.00000000000E+00  0.00000000000E+00  0.99999998245E-14  0.12500000000E+03  0.12500000000E+03 0.  0.
        -11    1    3    3    0    0 -0.33977146020E+02  0.27118737706E+02  0.11341915493E+02  0.44927846975E+02  0.51100000000E-03 0.  1.
         23    2    1    0    0    0  0.15109511428E+02  0.26109847710E+02  0.41003144867E+01  0.94556050487E+02  0.89521017766E+02 0.  0.
         11    1    3    3    0    0  0.49086657449E+02 -0.10088899962E+01 -0.72416010066E+01  0.49628203513E+02  0.51100000000E-03 0. -1.
         22    1    1    0    0    0 -0.15109511428E+02 -0.26109847710E+02 -0.41003144867E+01  0.30443949513E+02  0.00000000000E+00 0. -1.
</event>
<event>
 5    1  0.1717510E-003  0.9118800E+02  0.7818608E-02  0.1130116E+00
         25   -1    0    0    0    0  0.00000000000E+00  0.00000000000E+00  0.99999998245E-14  0.12500000000E+03  0.12500000000E+03 0.  0.
        -11    1    3    3    0    0  0.46429572616E+02 -0.22514016467E+02  0.15721025055E+02  0.53941976046E+02  0.51100000000E-03 0. -1.
         23    2    1    0    0    0  0.12689441302E+02 -0.23933960450E+02 -0.97162824579E+01  0.96220449479E+02  0.91815643383E+02 0.  0.
         11    1    3    3    0    0 -0.33740131314E+02 -0.14199439837E+01 -0.25437307513E+02  0.42278473433E+02  0.51100000000E-03 0.  1.
         22    1    1    0    0    0 -0.12689441302E+02  0.23933960450E+02  0.97162824579E+01  0.28779550521E+02  0.00000000000E+00 0. -1.
</event>
<event>
 5    1  0.1717510E-003  0.9118800E+02  0.7818608E-02  0.1130116E+00
         25   -1    0    0    0    0  0.00000000000E+00  0.00000000000E+00  0.99999998245E-14  0.12500000000E+03  0.12500000000E+03 0.  0.
        -11    1    3    3    0    0  0.56643263881E+01 -0.97030028607E+01  0.57444699033E+02  0.58533121438E+02  0.51100000000E-03 0.  1.
         23    2    1    0    0    0 -0.68089329818E+01  0.72516575287E+01  0.31637395600E+02  0.91835668171E+02  0.85638291919E+02 0.  0.
         11    1    3    3    0    0 -0.12473259370E+02  0.16954660389E+02 -0.25807303433E+02  0.33302546734E+02  0.51100000000E-03 0. -1.
         22    1    1    0    0    0  0.68089329818E+01 -0.72516575287E+01 -0.31637395600E+02  0.33164331829E+02  0.00000000000E+00 0.  1.
</event>
<event>
 5    1  0.1717510E-003  0.9118800E+02  0.7818608E-02  0.1130116E+00
         25   -1    0    0    0    0  0.00000000000E+00  0.00000000000E+00  0.99999998245E-14  0.12500000000E+03  0.12500000000E+03 0.  0.
        -11    1    3    3    0    0 -0.60087277194E+01 -0.56027337425E+02 -0.60878698983E+01  0.56676534014E+02  0.51100000000E-03 0.  1.
         23    2    1    0    0    0  0.52981422866E+00 -0.26478977574E+02 -0.21728957585E+02  0.90742671526E+02  0.84027780415E+02 0.  0.
         11    1    3    3    0    0  0.65385419481E+01  0.29548359851E+02 -0.15641087687E+02  0.34066137512E+02  0.51100000000E-03 0. -1.
         22    1    1    0    0    0 -0.52981422866E+00  0.26478977574E+02  0.21728957585E+02  0.34257328474E+02  0.00000000000E+00 0.  1.
</event>
<event>
 5    1  0.1717510E-003  0.9118800E+02  0.7818608E-02  0.1130116E+00
         25   -1    0    0    0    0  0.00000000000E+00  0.00000000000E+00  0.99999998245E-14  0.12500000000E+03  0.12500000000E+03 0.  0.
        -11    1    3    3    0    0  0.33653225058E+02  0.11919437464E+02 -0.50829493735E+02  0.62114812886E+02  0.51100000000E-03 0.  1.
         23    2    1    0    0    0  0.17856720445E+02  0.99487864331E+01 -0.22571977117E+02  0.94547824913E+02  0.89509531494E+02 0.  0.
         11    1    3    3    0    0 -0.15796504613E+02 -0.19706510305E+01  0.28257516618E+02  0.32433012027E+02  0.51100000000E-03 0. -1.
         22    1    1    0    0    0 -0.17856720445E+02 -0.99487864331E+01  0.22571977117E+02  0.30452175087E+02  0.00000000000E+00 0.  1.
</event>
<event>
 5    1  0.1717510E-003  0.9118800E+02  0.7818608E-02  0.1130116E+00
         25   -1    0    0    0    0  0.00000000000E+00  0.00000000000E+00  0.99999998245E-14  0.12500000000E+03  0.12500000000E+03 0.  0.
        -11    1    3    3    0    0  0.30421179989E+02  0.39082325478E+02 -0.19633136713E+02  0.53276039776E+02  0.51100000000E-03 0. -1.
         23    2    1    0    0    0 -0.38720702049E+01  0.23382428936E+02  0.79489364743E+01  0.10000167002E+03  0.96826739620E+02 0.  0.
         11    1    3    3    0    0 -0.34293250194E+02 -0.15699896541E+02  0.27582073188E+02  0.46725630246E+02  0.51100000000E-03 0.  1.
         22    1    1    0    0    0  0.38720702049E+01 -0.23382428936E+02 -0.79489364743E+01  0.24998329978E+02  0.00000000000E+00 0. -1.
</event>
<event>
 5    1  0.1717510E-003  0.9118800E+02  0.7818608E-02  0.1130116E+00
         25   -1    0    0    0    0  0.00000000000E+00  0.00000000000E+00  0.99999998245E-14  0.12500000000E+03  0.12500000000E+03 0.  0.
        -11    1    3    3    0    0 -0.32848023836E+02  0.29840312402E+01 -0.27426867458E+02  0.42896738468E+02  0.51100000000E-03 0.  1.
         23    2    1    0    0    0 -0.10555996988E+02  0.22538289714E+02  0.15949414734E+02  0.95440104771E+02  0.90747045090E+02 0.  0.
         11    1    3    3    0    0  0.22292026848E+02  0.19554258473E+02  0.43376282191E+02  0.52543366303E+02  0.51100000000E-03 0. -1.
         22    1    1    0    0    0  0.10555996988E+02 -0.22538289714E+02 -0.15949414734E+02  0.29559895229E+02  0.00000000000E+00 0. -1.
</event>
<event>
 5    1  0.1717510E-003  0.9118800E+02  0.7818608E-02  0.1130116E+00
         25   -1    0    0    0    0  0.00000000000E+00  0.00000000000E+00  0.99999998245E-14  0.12500000000E+03  0.12500000000E+03 0.  0.
        -11    1    3    3    0    0 -0.13736377990E+02  0.45518159768E+02 -0.13816820244E+02  0.49512578915E+02  0.51100000000E-03 0.  1.
         23    2    1    0    0    0 -0.25565456753E+02 -0.99228358064E+00 -0.95424113574E+01  0.97693685341E+02  0.93799900508E+02 0.  0.
         11    1    3    3    0    0 -0.11829078764E+02 -0.46510443348E+02  0.42744088866E+01  0.48181106426E+02  0.51100000000E-03 0. -1.
         22    1    1    0    0    0  0.25565456753E+02  0.99228358064E+00  0.95424113574E+01  0.27306314659E+02  0.00000000000E+00 0.  1.
</event>
<event>
 5    1  0.1717510E-003  0.9118800E+02  0.7818608E-02  0.1130116E+00
         25   -1    0    0    0    0  0.00000000000E+00  0.00000000000E+00  0.99999998245E-14  0.12500000000E+03  0.12500000000E+03 0.  0.
        -11    1    3    3    0    0 -0.22948186507E+02 -0.12302652260E+02  0.22969215329E+02  0.34721166019E+02  0.51100000000E-03 0.  1.
         23    2    1    0    0    0  0.69705838251E+01  0.27462086260E+02 -0.10600886611E+02  0.94748817915E+02  0.89789779367E+02 0.  0.
         11    1    3    3    0    0  0.29918770332E+02  0.39764738520E+02 -0.33570101940E+02  0.60027651897E+02  0.51100000000E-03 0. -1.
         22    1    1    0    0    0 -0.69705838251E+01 -0.27462086260E+02  0.10600886611E+02  0.30251182085E+02  0.00000000000E+00 0. -1.
</event>
<event>
 5    1  0.1717510E-003  0.9118800E+02  0.7818608E-02  0.1130116E+00
         25   -1    0    0    0    0  0.00000000000E+00  0.00000000000E+00  0.99999998245E-14  0.12500000000E+03  0.12500000000E+03 0.  0.
        -11    1    3    3    0    0 -0.16139209208E+02  0.55007275415E+02 -0.19957834690E+02  0.60700820326E+02  0.51100000000E-03 0.  1.
         23    2    1    0    0    0 -0.11242184946E+00  0.37053927068E+02 -0.12416860414E+02  0.85920791047E+02  0.76519263992E+02 0.  0.
         11    1    3    3    0    0  0.16026787358E+02 -0.17953348347E+02  0.75409742767E+01  0.25219970722E+02  0.51100000000E-03 0. -1.
         22    1    1    0    0    0  0.11242184946E+00 -0.37053927068E+02  0.12416860414E+02  0.39079208953E+02  0.00000000000E+00 0.  1.
</event>
<event>
 5    1  0.1717510E-003  0.9118800E+02  0.7818608E-02  0.1130116E+00
         25   -1    0    0    0    0  0.00000000000E+00  0.00000000000E+00  0.99999998245E-14  0.12500000000E+03  0.12500000000E+03 0.  0.
        -11    1    3    3    0    0  0.85149926341E+01  0.36537082571E+02  0.33732338527E+02  0.50451304890E+02  0.51100000000E-03 0. -1.
         23    2    1    0    0    0 -0.21489882198E+02  0.95758084540E+01  0.22783622084E+02  0.92249357568E+02  0.86240010390E+02 0.  0.
         11    1    3    3    0    0 -0.30004874832E+02 -0.26961274117E+02 -0.10948716443E+02  0.41798052678E+02  0.51100000000E-03 0.  1.
         22    1    1    0    0    0  0.21489882198E+02 -0.95758084540E+01 -0.22783622084E+02  0.32750642432E+02  0.00000000000E+00 0. -1.
</event>
<event>
 5    1  0.1717510E-003  0.9118800E+02  0.7818608E-02  0.1130116E+00
         25   -1    0    0    0    0  0.00000000000E+00  0.00000000000E+00  0.99999998245E-14  0.12500000000E+03  0.12500000000E+03 0.  0.
        -11    1    3    3    0    0 -0.18697064465E+02  0.28043647512E+02 -0.22641515793E+02  0.40603751342E+02  0.51100000000E-03 0. -1.
         23    2    1    0    0    0 -0.13931636281E+02 -0.95387694100E+01  0.20778083705E+02  0.98226741443E+02  0.94507594196E+02 0.  0.
         11    1    3    3    0    0  0.47654281841E+01 -0.37582416922E+02  0.43419599497E+02  0.57622990101E+02  0.51100000000E-03 0.  1.
         22    1    1    0    0    0  0.13931636281E+02  0.95387694100E+01 -0.20778083705E+02  0.26773258557E+02  0.00000000000E+00 0.  1.
</event>
<event>
 5    1  0.1717510E-003  0.9118800E+02  0.7818608E-02  0.1130116E+00
         25   -1    0    0    0    0  0.00000000000E+00  0.00000000000E+00  0.99999998245E-14  0.12500000000E+03  0.12500000000E+03 0.  0.
        -11    1    3    3    0    0  0.32345099521E+02 -0.48341566050E+02 -0.20447279133E+02  0.61653902515E+02  0.51100000000E-03 0.  1.
         23    2    1    0    0    0  0.11284867294E+02 -0.27673208407E+02 -0.59620719554E+01  0.94525404098E+02  0.89478215363E+02 0.  0.
         11    1    3    3    0    0 -0.21060232226E+02  0.20668357642E+02  0.14485207178E+02  0.32871501583E+02  0.51100000000E-03 0. -1.
         22    1    1    0    0    0 -0.11284867294E+02  0.27673208407E+02  0.59620719554E+01  0.30474595902E+02  0.00000000000E+00 0.  1.
</event>
<event>
 5    1  0.1717510E-003  0.9118800E+02  0.7818608E-02  0.1130116E+00
         25   -1    0    0    0    0  0.00000000000E+00  0.00000000000E+00  0.99999998245E-14  0.12500000000E+03  0.12500000000E+03 0.  0.
        -11    1    3    3    0    0 -0.33846811189E+02  0.36248817934E+02  0.24420842441E+02  0.55280746875E+02  0.51100000000E-03 0.  1.
         23    2    1    0    0    0 -0.23542049401E+02  0.13161324406E+02  0.33363158859E+02  0.82098380926E+02  0.69997108737E+02 0.  0.
         11    1    3    3    0    0  0.10304761788E+02 -0.23087493528E+02  0.89423164181E+01  0.26817634051E+02  0.51100000000E-03 0. -1.
         22    1    1    0    0    0  0.23542049401E+02 -0.13161324406E+02 -0.33363158859E+02  0.42901619074E+02  0.00000000000E+00 0.  1.
</event>
<event>
 5    1  0.1717510E-003  0.9118800E+02  0.7818608E-02  0.1130116E+00
         25   -1    0    0    0    0  0.00000000000E+00  0.00000000000E+00  0.99999998245E-14  0.12500000000E+03  0.12500000000E+03 0.  0.
        -11    1    3    3    0    0 -0.31255502998E+02  0.22981820499E+02  0.21978598595E+01  0.38857446254E+02  0.51100000000E-03 0. -1.
         23    2    1    0    0    0  0.95410393829E+01 -0.18509028368E+02  0.16094364982E+02  0.98681866559E+02  0.95107658155E+02 0.  0.
         11    1    3    3    0    0  0.40796542381E+02 -0.41490848868E+02  0.13896505122E+02  0.59824420305E+02  0.51100000000E-03 0.  1.
         22    1    1    0    0    0 -0.95410393829E+01  0.18509028368E+02 -0.16094364982E+02  0.26318133441E+02  0.00000000000E+00 0.  1.
</event>
<event>
 5    1  0.1717510E-003  0.9118800E+02  0.7818608E-02  0.1130116E+00
         25   -1    0    0    0    0  0.00000000000E+00  0.00000000000E+00  0.99999998245E-14  0.12500000000E+03  0.12500000000E+03 0.  0.
        -11    1    3    3    0    0 -0.35567663046E+02  0.23571873379E+02  0.11443277899E+02  0.44177375188E+02  0.51100000000E-03 0. -1.
         23    2    1    0    0    0  0.13967967223E+02  0.25119812575E+02 -0.37512531178E+01  0.96014124265E+02  0.91534316332E+02 0.  0.
         11    1    3    3    0    0  0.49535630269E+02  0.15479391956E+01 -0.15194531016E+02  0.51836749078E+02  0.51100000000E-03 0.  1.
         22    1    1    0    0    0 -0.13967967223E+02 -0.25119812575E+02  0.37512531178E+01  0.28985875735E+02  0.00000000000E+00 0.  1.
</event>
<event>
 5    1  0.1717510E-003  0.9118800E+02  0.7818608E-02  0.1130116E+00
         25   -1    0    0    0    0  0.00000000000E+00  0.00000000000E+00  0.99999998245E-14  0.12500000000E+03  0.12500000000E+03 0.  0.
        -11    1    3    3    0    0 -0.79876728360E+01  0.20462153437E+02  0.29825192868E+02  0.37041122695E+02  0.51100000000E-03 0.  1.
         23    2    1    0    0    0 -0.16752092701E+02 -0.15040598527E+02 -0.17240571846E+02  0.96643527521E+02  0.92389836455E+02 0.  0.
         11    1    3    3    0    0 -0.87644198645E+01 -0.35502751964E+02 -0.47065764714E+02  0.59602404826E+02  0.51100000000E-03 0. -1.
         22    1    1    0    0    0  0.16752092701E+02  0.15040598527E+02  0.17240571846E+02  0.28356472479E+02  0.00000000000E+00 0. -1.
</event>
<event>
 5    1  0.1717510E-003  0.9118800E+02  0.7818608E-02  0.1130116E+00
         25   -1    0    0    0    0  0.00000000000E+00  0.00000000000E+00  0.99999998245E-14  0.12500000000E+03  0.12500000000E+03 0.  0.
        -11    1    3    3    0    0 -0.28400067836E+02 -0.22572908181E+02  0.36016830817E+02  0.51120564738E+02  0.51100000000E-03 0.  1.
         23    2    1    0    0    0  0.14151539631E+02 -0.24426925332E+01  0.19018425353E+02  0.10116864830E+03  0.98321727385E+02 0.  0.
         11    1    3    3    0    0  0.42551607467E+02  0.20130215647E+02 -0.16998405464E+02  0.50048083566E+02  0.51100000000E-03 0. -1.
         22    1    1    0    0    0 -0.14151539631E+02  0.24426925332E+01 -0.19018425353E+02  0.23831351696E+02  0.00000000000E+00 0.  1.
</event>
<event>
 4    1  0.1717510E-003  0.9118800E+02  0.7818608E-02  0.1130116E+00
         25   -1    0    0    0    0  0.00000000000E+00  0.00000000000E+00  0.99999998245E-14  0.12500000000E+03  0.12500000000E+03 0.  0.
        -11    1    1    0    0    0  0.34780806237E+02 -0.10729312583E+02  0.11527797466E+02  0.38180004527E+02  0.51100000000E-03 0. -1.
         11    1    1    0    0    0  0.19444693234E+02  0.36236205261E+01 -0.23622087608E+02  0.30809572277E+02  0.51100000000E-03 0.  1.
         22    1    1    0    0    0 -0.54225499471E+02  0.71056920565E+01  0.12094290142E+02  0.56010423195E+02  0.00000000000E+00 0. -1.
</event>
<event>
 5    1  0.1717510E-003  0.9118800E+02  0.7818608E-02  0.1130116E+00
         25   -1    0    0    0    0  0.00000000000E+00  0.00000000000E+00  0.99999998245E-14  0.12500000000E+03  0.12500000000E+03 0.  0.
        -11    1    3    3    0    0  0.49660833497E+02 -0.48617071175E+01 -0.35997262344E+02  0.61527534293E+02  0.51100000000E-03 0.  1.
         23    2    1    0    0    0  0.20925080208E+02 -0.89295672586E+01 -0.11493025044E+02  0.99511065581E+02  0.96191301038E+02 0.  0.
         11    1    3    3    0    0 -0.28735753289E+02 -0.40678601412E+01  0.24504237299E+02  0.37983531288E+02  0.51100000000E-03 0. -1.
         22    1    1    0    0    0 -0.20925080208E+02  0.89295672586E+01  0.11493025044E+02  0.25488934419E+02  0.00000000000E+00 0.  1.
</event>
<event>
 5    1  0.1717510E-003  0.9118800E+02  0.7818608E-02  0.1130116E+00
         25   -1    0    0    0    0  0.00000000000E+00  0.00000000000E+00  0.99999998245E-14  0.12500000000E+03  0.12500000000E+03 0.  0.
        -11    1    3    3    0    0 -0.57068744475E+02 -0.23185914483E+02  0.90484812789E+01  0.62259964986E+02  0.51100000000E-03 0. -1.
         23    2    1    0    0    0 -0.23000330660E+02 -0.12711553456E+02  0.60868665320E+01  0.98025034830E+02  0.94240430323E+02 0.  0.
         11    1    3    3    0    0  0.34068413815E+02  0.10474361026E+02 -0.29616147469E+01  0.35765069844E+02  0.51100000000E-03 0.  1.
         22    1    1    0    0    0  0.23000330660E+02  0.12711553456E+02 -0.60868665320E+01  0.26974965170E+02  0.00000000000E+00 0. -1.
</event>
<event>
 5    1  0.1717510E-003  0.9118800E+02  0.7818608E-02  0.1130116E+00
         25   -1    0    0    0    0  0.00000000000E+00  0.00000000000E+00  0.99999998245E-14  0.12500000000E+03  0.12500000000E+03 0.  0.
        -11    1    3    3    0    0 -0.17934327767E+02 -0.22298565986E+02  0.16897135414E+02  0.33232203402E+02  0.51100000000E-03 0. -1.
         23    2    1    0    0    0  0.21916418208E+02  0.17718995590E+02 -0.90724633091E+01  0.95392538402E+02  0.90681500872E+02 0.  0.
         11    1    3    3    0    0  0.39850745975E+02  0.40017561575E+02 -0.25969598723E+02  0.62160335000E+02  0.51100000000E-03 0.  1.
         22    1    1    0    0    0 -0.21916418208E+02 -0.17718995590E+02  0.90724633091E+01  0.29607461598E+02  0.00000000000E+00 0.  1.
</event>
<event>
 5    1  0.1717510E-003  0.9118800E+02  0.7818608E-02  0.1130116E+00
         25   -1    0    0    0    0  0.00000000000E+00  0.00000000000E+00  0.99999998245E-14  0.12500000000E+03  0.12500000000E+03 0.  0.
        -11    1    3    3    0    0  0.58117911859E+02  0.16632216736E+02 -0.42147871449E+01  0.60597745365E+02  0.51100000000E-03 0. -1.
         23    2    1    0    0    0  0.25073093263E+02  0.10939490082E+02  0.83378615268E+01  0.96401881463E+02  0.92062317838E+02 0.  0.
         11    1    3    3    0    0 -0.33044818596E+02 -0.56927266545E+01  0.12552648672E+02  0.35804136098E+02  0.51100000000E-03 0.  1.
         22    1    1    0    0    0 -0.25073093263E+02 -0.10939490082E+02 -0.83378615268E+01  0.28598118537E+02  0.00000000000E+00 0. -1.
</event>
<event>
 5    1  0.1717510E-003  0.9118800E+02  0.7818608E-02  0.1130116E+00
         25   -1    0    0    0    0  0.00000000000E+00  0.00000000000E+00  0.99999998245E-14  0.12500000000E+03  0.12500000000E+03 0.  0.
        -11    1    3    3    0    0  0.47083806250E+02  0.31542341437E+02  0.17309597901E+02  0.59257288953E+02  0.51100000000E-03 0. -1.
         23    2    1    0    0    0  0.12019413719E+02  0.20667806531E+02  0.16449176848E+02  0.95979318548E+02  0.91486773017E+02 0.  0.
         11    1    3    3    0    0 -0.35064392530E+02 -0.10874534906E+02 -0.86042105221E+00  0.36722029595E+02  0.51100000000E-03 0.  1.
         22    1    1    0    0    0 -0.12019413719E+02 -0.20667806531E+02 -0.16449176848E+02  0.29020681452E+02  0.00000000000E+00 0. -1.
</event>
<event>
 5    1  0.1717510E-003  0.9118800E+02  0.7818608E-02  0.1130116E+00
         25   -1    0    0    0    0  0.00000000000E+00  0.00000000000E+00  0.99999998245E-14  0.12500000000E+03  0.12500000000E+03 0.  0.
        -11    1    3    3    0    0 -0.23301415173E+02 -0.14243883373E+02  0.32977965914E+02  0.42818108303E+02  0.51100000000E-03 0. -1.
         23    2    1    0    0    0 -0.20731635167E+02  0.20738157419E+02 -0.58019397608E+01  0.95107954657E+02  0.90288363947E+02 0.  0.
         11    1    3    3    0    0  0.25697800063E+01  0.34982040792E+02 -0.38779905675E+02  0.52289846353E+02  0.51100000000E-03 0.  1.
         22    1    1    0    0    0  0.20731635167E+02 -0.20738157419E+02  0.58019397608E+01  0.29892045343E+02  0.00000000000E+00 0.  1.
</event>
<event>
 5    1  0.1717510E-003  0.9118800E+02  0.7818608E-02  0.1130116E+00
         25   -1    0    0    0    0  0.00000000000E+00  0.00000000000E+00  0.99999998245E-14  0.12500000000E+03  0.12500000000E+03 0.  0.
        -11    1    3    3    0    0  0.43943687322E+02 -0.57299662349E+01 -0.24651595209E+02  0.50710761334E+02  0.51100000000E-03 0. -1.
         23    2    1    0    0    0  0.23953546625E+02  0.38271072951E+01  0.15246930327E+02  0.96348856383E+02  0.91990293487E+02 0.  0.
         11    1    3    3    0    0 -0.19990140696E+02  0.95570735300E+01  0.39898525536E+02  0.45638095049E+02  0.51100000000E-03 0.  1.
         22    1    1    0    0    0 -0.23953546625E+02 -0.38271072951E+01 -0.15246930327E+02  0.28651143617E+02  0.00000000000E+00 0. -1.
</event>
<event>
 5    1  0.1717510E-003  0.9118800E+02  0.7818608E-02  0.1130116E+00
         25   -1    0    0    0    0  0.00000000000E+00  0.00000000000E+00  0.99999998245E-14  0.12500000000E+03  0.12500000000E+03 0.  0.
        -11    1    3    3    0    0  0.60943275879E+01  0.25491571293E+02 -0.27373325520E+02  0.37898020872E+02  0.51100000000E-03 0.  1.
         23    2    1    0    0    0 -0.25373216604E+02 -0.77902323450E+01  0.96139683121E+01  0.96770295299E+02  0.92561189624E+02 0.  0.
         11    1    3    3    0    0 -0.31467544192E+02 -0.33281803638E+02  0.36987293832E+02  0.58872274427E+02  0.51100000000E-03 0. -1.
         22    1    1    0    0    0  0.25373216604E+02  0.77902323450E+01 -0.96139683121E+01  0.28229704701E+02  0.00000000000E+00 0. -1.
</event>
<event>
 5    1  0.1717510E-003  0.9118800E+02  0.7818608E-02  0.1130116E+00
         25   -1    0    0    0    0  0.00000000000E+00  0.00000000000E+00  0.99999998245E-14  0.12500000000E+03  0.12500000000E+03 0.  0.
        -11    1    3    3    0    0  0.70216651140E+01 -0.43896796895E+02 -0.44696412508E+01  0.44678968786E+02  0.51100000000E-03 0. -1.
         23    2    1    0    0    0 -0.21478663818E+02 -0.56101497824E+01 -0.20252452941E+02  0.94950563564E+02  0.90070199794E+02 0.  0.
         11    1    3    3    0    0 -0.28500328932E+02  0.38286647113E+02 -0.15782811691E+02  0.50271594778E+02  0.51100000000E-03 0.  1.
         22    1    1    0    0    0  0.21478663818E+02  0.56101497824E+01  0.20252452941E+02  0.30049436436E+02  0.00000000000E+00 0.  1.
</event>
<event>
 5    1  0.1717510E-003  0.9118800E+02  0.7818608E-02  0.1130116E+00
         25   -1    0    0    0    0  0.00000000000E+00  0.00000000000E+00  0.99999998245E-14  0.12500000000E+03  0.12500000000E+03 0.  0.
        -11    1    3    3    0    0 -0.39494017098E+02 -0.64078331858E+01  0.23829853314E+02  0.46569299135E+02  0.51100000000E-03 0.  1.
         23    2    1    0    0    0 -0.29325043249E+01 -0.30494722198E+02  0.63436666203E+01  0.93714703618E+02  0.88338416923E+02 0.  0.
         11    1    3    3    0    0  0.36561512773E+02 -0.24086889012E+02 -0.17486186693E+02  0.47145404483E+02  0.51100000000E-03 0. -1.
         22    1    1    0    0    0  0.29325043249E+01  0.30494722198E+02 -0.63436666203E+01  0.31285296382E+02  0.00000000000E+00 0.  1.
</event>
<event>
 5    1  0.1717510E-003  0.9118800E+02  0.7818608E-02  0.1130116E+00
         25   -1    0    0    0    0  0.00000000000E+00  0.00000000000E+00  0.99999998245E-14  0.12500000000E+03  0.12500000000E+03 0.  0.
        -11    1    3    3    0    0 -0.41667647475E+01 -0.28805692641E+02 -0.55143785744E+02  0.62353564160E+02  0.51100000000E-03 0.  1.
         23    2    1    0    0    0 -0.40332020805E+01 -0.17722562896E+02 -0.28668834873E+02  0.91055073316E+02  0.84491232261E+02 0.  0.
         11    1    3    3    0    0  0.13356266705E+00  0.11083129745E+02  0.26474950871E+02  0.28701509156E+02  0.51100000000E-03 0. -1.
         22    1    1    0    0    0  0.40332020805E+01  0.17722562896E+02  0.28668834873E+02  0.33944926684E+02  0.00000000000E+00 0.  1.
</event>
<event>
 5    1  0.1717510E-003  0.9118800E+02  0.7818608E-02  0.1130116E+00
         25   -1    0    0    0    0  0.00000000000E+00  0.00000000000E+00  0.99999998245E-14  0.12500000000E+03  0.12500000000E+03 0.  0.
        -11    1    3    3    0    0  0.33267929348E+02 -0.65485200766E+01  0.12229100251E+02  0.36044266277E+02  0.51100000000E-03 0. -1.
         23    2    1    0    0    0 -0.20536073761E+02  0.18020531108E+02  0.11915107477E+02  0.95193295165E+02  0.90406436670E+02 0.  0.
         11    1    3    3    0    0 -0.53804003109E+02  0.24569051185E+02 -0.31399277415E+00  0.59149028888E+02  0.51100000000E-03 0.  1.
         22    1    1    0    0    0  0.20536073761E+02 -0.18020531108E+02 -0.11915107477E+02  0.29806704835E+02  0.00000000000E+00 0.  1.
</event>
<event>
 5    1  0.1717510E-003  0.9118800E+02  0.7818608E-02  0.1130116E+00
         25   -1    0    0    0    0  0.00000000000E+00  0.00000000000E+00  0.99999998245E-14  0.12500000000E+03  0.12500000000E+03 0.  0.
        -11    1    3    3    0    0 -0.27273103676E+02 -0.13004879740E+02 -0.20130497074E+02  0.36306831229E+02  0.51100000000E-03 0.  1.
         23    2    1    0    0    0  0.10413905278E+02 -0.44137866090E+01  0.26092202299E+02  0.96561751879E+02  0.92279130738E+02 0.  0.
         11    1    3    3    0    0  0.37687008954E+02  0.85910931308E+01  0.46222699372E+02  0.60254920651E+02  0.51100000000E-03 0. -1.
         22    1    1    0    0    0 -0.10413905278E+02  0.44137866090E+01 -0.26092202299E+02  0.28438248121E+02  0.00000000000E+00 0. -1.
</event>
<event>
 5    1  0.1717510E-003  0.9118800E+02  0.7818608E-02  0.1130116E+00
         25   -1    0    0    0    0  0.00000000000E+00  0.00000000000E+00  0.99999998245E-14  0.12500000000E+03  0.12500000000E+03 0.  0.
        -11    1    3    3    0    0 -0.20762790770E+02 -0.51421692594E+02  0.26377187887E+02  0.61408794084E+02  0.51100000000E-03 0.  1.
         23    2    1    0    0    0 -0.47232191421E+01 -0.29150019530E+02  0.81164021173E+01  0.94374709455E+02  0.89267448511E+02 0.  0.
         11    1    3    3    0    0  0.16039571628E+02  0.22271673064E+02 -0.18260785769E+02  0.32965915371E+02  0.51100000000E-03 0. -1.
         22    1    1    0    0    0  0.47232191421E+01  0.29150019530E+02 -0.81164021173E+01  0.30625290545E+02  0.00000000000E+00 0.  1.
</event>
<event>
 5    1  0.1717510E-003  0.9118800E+02  0.7818608E-02  0.1130116E+00
         25   -1    0    0    0    0  0.00000000000E+00  0.00000000000E+00  0.99999998245E-14  0.12500000000E+03  0.12500000000E+03 0.  0.
        -11    1    3    3    0    0 -0.21616528050E+02  0.21245862701E+02  0.20439011312E+02  0.36556998653E+02  0.51100000000E-03 0. -1.
         23    2    1    0    0    0  0.22674198634E+01 -0.95366209160E+01 -0.26022421709E+02  0.97192541236E+02  0.93129669327E+02 0.  0.
         11    1    3    3    0    0  0.23883947914E+02 -0.30782483617E+02 -0.46461433021E+02  0.60635542582E+02  0.51100000000E-03 0.  1.
         22    1    1    0    0    0 -0.22674198634E+01  0.95366209160E+01  0.26022421709E+02  0.27807458764E+02  0.00000000000E+00 0.  1.
</event>
<event>
 5    1  0.1717510E-003  0.9118800E+02  0.7818608E-02  0.1130116E+00
         25   -1    0    0    0    0  0.00000000000E+00  0.00000000000E+00  0.99999998245E-14  0.12500000000E+03  0.12500000000E+03 0.  0.
        -11    1    3    3    0    0  0.35701614912E+02  0.58946358314E+01 -0.20918467575E+01  0.36245384010E+02  0.51100000000E-03 0.  1.
         23    2    1    0    0    0 -0.22754168090E+02  0.17840086656E+02 -0.31204682319E+01  0.95918078136E+02  0.91403060856E+02 0.  0.
         11    1    3    3    0    0 -0.58455783002E+02  0.11945450825E+02 -0.10286214744E+01  0.59672694125E+02  0.51100000000E-03 0. -1.
         22    1    1    0    0    0  0.22754168090E+02 -0.17840086656E+02  0.31204682319E+01  0.29081921864E+02  0.00000000000E+00 0. -1.
</event>
<event>
 5    1  0.1717510E-003  0.9118800E+02  0.7818608E-02  0.1130116E+00
         25   -1    0    0    0    0  0.00000000000E+00  0.00000000000E+00  0.99999998245E-14  0.12500000000E+03  0.12500000000E+03 0.  0.
        -11    1    3    3    0    0 -0.12732423432E+02 -0.57260036631E+02 -0.21783238798E+01  0.58698990593E+02  0.51100000000E-03 0. -1.
         23    2    1    0    0    0 -0.16000413333E+02 -0.21984010715E+02 -0.11724416380E+02  0.95389665767E+02  0.90677541000E+02 0.  0.
         11    1    3    3    0    0 -0.32679899006E+01  0.35276025916E+02 -0.95460925003E+01  0.36690675174E+02  0.51100000000E-03 0.  1.
         22    1    1    0    0    0  0.16000413333E+02  0.21984010715E+02  0.11724416380E+02  0.29610334233E+02  0.00000000000E+00 0. -1.
</event>
<event>
 5    1  0.1717510E-003  0.9118800E+02  0.7818608E-02  0.1130116E+00
         25   -1    0    0    0    0  0.00000000000E+00  0.00000000000E+00  0.99999998245E-14  0.12500000000E+03  0.12500000000E+03 0.  0.
        -11    1    3    3    0    0 -0.29633319000E+02  0.26748040453E+02 -0.23324879853E+02  0.46234632944E+02  0.51100000000E-03 0.  1.
         23    2    1    0    0    0 -0.55585900741E+01  0.84893269092E+01 -0.42024079882E+02  0.81768184344E+02  0.69404942807E+02 0.  0.
         11    1    3    3    0    0  0.24074728926E+02 -0.18258713544E+02 -0.18699200029E+02  0.35533551400E+02  0.51100000000E-03 0. -1.
         22    1    1    0    0    0  0.55585900741E+01 -0.84893269092E+01  0.42024079882E+02  0.43231815656E+02  0.00000000000E+00 0. -1.
</event>
<event>
 5    1  0.1717510E-003  0.9118800E+02  0.7818608E-02  0.1130116E+00
         25   -1    0    0    0    0  0.00000000000E+00  0.00000000000E+00  0.99999998245E-14  0.12500000000E+03  0.12500000000E+03 0.  0.
        -11    1    3    3    0    0  0.13604754600E+02  0.37977264141E+02 -0.45733198538E+02  0.60982681050E+02  0.51100000000E-03 0. -1.
         23    2    1    0    0    0  0.10092939093E+02  0.22178244537E+02 -0.13276126408E+02  0.97251171509E+02  0.93208330514E+02 0.  0.
         11    1    3    3    0    0 -0.35118155076E+01 -0.15799019604E+02  0.32457072130E+02  0.36268490458E+02  0.51100000000E-03 0.  1.
         22    1    1    0    0    0 -0.10092939093E+02 -0.22178244537E+02  0.13276126408E+02  0.27748828491E+02  0.00000000000E+00 0. -1.
</event>
<event>
 5    1  0.1717510E-003  0.9118800E+02  0.7818608E-02  0.1130116E+00
         25   -1    0    0    0    0  0.00000000000E+00  0.00000000000E+00  0.99999998245E-14  0.12500000000E+03  0.12500000000E+03 0.  0.
        -11    1    3    3    0    0 -0.25348575639E+02 -0.32515151054E+02 -0.36822639503E+02  0.55278315054E+02  0.51100000000E-03 0.  1.
         23    2    1    0    0    0 -0.86067632588E+01  0.42280662970E+01 -0.26302665916E+02  0.97003872541E+02  0.92876090224E+02 0.  0.
         11    1    3    3    0    0  0.16741812380E+02  0.36743217351E+02  0.10519973587E+02  0.41725557487E+02  0.51100000000E-03 0. -1.
         22    1    1    0    0    0  0.86067632588E+01 -0.42280662970E+01  0.26302665916E+02  0.27996127459E+02  0.00000000000E+00 0.  1.
</event>
<event>
 5    1  0.1717510E-003  0.9118800E+02  0.7818608E-02  0.1130116E+00
         25   -1    0    0    0    0  0.00000000000E+00  0.00000000000E+00  0.99999998245E-14  0.12500000000E+03  0.12500000000E+03 0.  0.
        -11    1    3    3    0    0  0.23267845108E+02 -0.10050537590E+01 -0.44207117192E+02  0.49966708514E+02  0.51100000000E-03 0. -1.
         23    2    1    0    0    0 -0.16904691678E+02  0.41578870283E+01 -0.24327725567E+02  0.95085206727E+02  0.90256865012E+02 0.  0.
         11    1    3    3    0    0 -0.40172536786E+02  0.51629407873E+01  0.19879391625E+02  0.45118498214E+02  0.51100000000E-03 0.  1.
         22    1    1    0    0    0  0.16904691678E+02 -0.41578870283E+01  0.24327725567E+02  0.29914793273E+02  0.00000000000E+00 0.  1.
</event>
<event>
 5    1  0.1717510E-003  0.9118800E+02  0.7818608E-02  0.1130116E+00
         25   -1    0    0    0    0  0.00000000000E+00  0.00000000000E+00  0.99999998245E-14  0.12500000000E+03  0.12500000000E+03 0.  0.
        -11    1    3    3    0    0  0.20245186987E+02 -0.20308288961E+02  0.19094489129E+02  0.34451323807E+02  0.51100000000E-03 0.  1.
         23    2    1    0    0    0 -0.24530710565E+01  0.28423027957E+02 -0.89701166018E+01  0.95094330509E+02  0.90269499983E+02 0.  0.
         11    1    3    3    0    0 -0.22698258043E+02  0.48731316918E+02 -0.28064605731E+02  0.60643006702E+02  0.51100000000E-03 0. -1.
         22    1    1    0    0    0  0.24530710565E+01 -0.28423027957E+02  0.89701166018E+01  0.29905669491E+02  0.00000000000E+00 0. -1.
</event>
<event>
 5    1  0.1717510E-003  0.9118800E+02  0.7818608E-02  0.1130116E+00
         25   -1    0    0    0    0  0.00000000000E+00  0.00000000000E+00  0.99999998245E-14  0.12500000000E+03  0.12500000000E+03 0.  0.
        -11    1    3    3    0    0 -0.22262107088E+02 -0.23987819167E+01 -0.46880363282E+02  0.51953094503E+02  0.51100000000E-03 0.  1.
         23    2    1    0    0    0 -0.27139732273E+02 -0.80395969923E+01 -0.29167950686E+01  0.96544633527E+02  0.92255939547E+02 0.  0.
         11    1    3    3    0    0 -0.48776251848E+01 -0.56408150756E+01  0.43963568214E+02  0.44591539024E+02  0.51100000000E-03 0. -1.
         22    1    1    0    0    0  0.27139732273E+02  0.80395969923E+01  0.29167950686E+01  0.28455366473E+02  0.00000000000E+00 0.  1.
</event>
<event>
 5    1  0.1717510E-003  0.9118800E+02  0.7818608E-02  0.1130116E+00
         25   -1    0    0    0    0  0.00000000000E+00  0.00000000000E+00  0.99999998245E-14  0.12500000000E+03  0.12500000000E+03 0.  0.
        -11    1    3    3    0    0 -0.15635626519E+02 -0.36591139377E+02 -0.90393989845E+01  0.40805575990E+02  0.51100000000E-03 0. -1.
         23    2    1    0    0    0  0.16854962476E+02  0.52729153468E+01 -0.23375316681E+02  0.95703262532E+02  0.91108812049E+02 0.  0.
         11    1    3    3    0    0  0.32490588995E+02  0.41864054724E+02 -0.14335917697E+02  0.54897686542E+02  0.51100000000E-03 0.  1.
         22    1    1    0    0    0 -0.16854962476E+02 -0.52729153468E+01  0.23375316681E+02  0.29296737468E+02  0.00000000000E+00 0.  1.
</event>
<event>
 5    1  0.1717510E-003  0.9118800E+02  0.7818608E-02  0.1130116E+00
         25   -1    0    0    0    0  0.00000000000E+00  0.00000000000E+00  0.99999998245E-14  0.12500000000E+03  0.12500000000E+03 0.  0.
        -11    1    3    3    0    0 -0.53177722416E+01 -0.35525469321E+02 -0.39426503432E+01  0.36136991630E+02  0.51100000000E-03 0.  1.
         23    2    1    0    0    0  0.87412852642E+01  0.21341647757E+02 -0.17239410357E+02  0.96206367604E+02  0.91796469982E+02 0.  0.
         11    1    3    3    0    0  0.14059057506E+02  0.56867117078E+02 -0.13296760014E+02  0.60069375974E+02  0.51100000000E-03 0. -1.
         22    1    1    0    0    0 -0.87412852642E+01 -0.21341647757E+02  0.17239410357E+02  0.28793632396E+02  0.00000000000E+00 0. -1.
</event>
<event>
 5    1  0.1717510E-003  0.9118800E+02  0.7818608E-02  0.1130116E+00
         25   -1    0    0    0    0  0.00000000000E+00  0.00000000000E+00  0.99999998245E-14  0.12500000000E+03  0.12500000000E+03 0.  0.
        -11    1    3    3    0    0 -0.19741460763E+02 -0.46633011471E+02  0.23755144344E+02  0.55934514524E+02  0.51100000000E-03 0.  1.
         23    2    1    0    0    0 -0.84252690134E+01 -0.30777073035E+02 -0.69924010867E+01  0.92333395409E+02  0.86361732568E+02 0.  0.
         11    1    3    3    0    0  0.11316191749E+02  0.15855938436E+02 -0.30747545431E+02  0.36398880885E+02  0.51100000000E-03 0. -1.
         22    1    1    0    0    0  0.84252690134E+01  0.30777073035E+02  0.69924010867E+01  0.32666604591E+02  0.00000000000E+00 0.  1.
</event>
<event>
 5    1  0.1717510E-003  0.9118800E+02  0.7818608E-02  0.1130116E+00
         25   -1    0    0    0    0  0.00000000000E+00  0.00000000000E+00  0.99999998245E-14  0.12500000000E+03  0.12500000000E+03 0.  0.
        -11    1    3    3    0    0 -0.17301649585E+02 -0.33624570206E+02 -0.44922374864E+01  0.38080690616E+02  0.51100000000E-03 0. -1.
         23    2    1    0    0    0 -0.38901113582E+01  0.78378829106E+01  0.30058835220E+02  0.93693467939E+02  0.88308363050E+02 0.  0.
         11    1    3    3    0    0  0.13411538227E+02  0.41462453117E+02  0.34551072707E+02  0.55612777322E+02  0.51100000000E-03 0.  1.
         22    1    1    0    0    0  0.38901113582E+01 -0.78378829106E+01 -0.30058835220E+02  0.31306532061E+02  0.00000000000E+00 0.  1.
</event>
<event>
 5    1  0.1717510E-003  0.9118800E+02  0.7818608E-02  0.1130116E+00
         25   -1    0    0    0    0  0.00000000000E+00  0.00000000000E+00  0.99999998245E-14  0.12500000000E+03  0.12500000000E+03 0.  0.
        -11    1    3    3    0    0 -0.19307067063E+02  0.35257014071E+02 -0.31939558841E+01  0.40323953604E+02  0.51100000000E-03 0. -1.
         23    2    1    0    0    0  0.14416609638E+02  0.38023950147E+01  0.26088744396E+02  0.94951382303E+02  0.90071336039E+02 0.  0.
         11    1    3    3    0    0  0.33723676702E+02 -0.31454619057E+02  0.29282700280E+02  0.54627428699E+02  0.51100000000E-03 0.  1.
         22    1    1    0    0    0 -0.14416609638E+02 -0.38023950147E+01 -0.26088744396E+02  0.30048617697E+02  0.00000000000E+00 0. -1.
</event>
<event>
 5    1  0.1717510E-003  0.9118800E+02  0.7818608E-02  0.1130116E+00
         25   -1    0    0    0    0  0.00000000000E+00  0.00000000000E+00  0.99999998245E-14  0.12500000000E+03  0.12500000000E+03 0.  0.
        -11    1    3    3    0    0  0.12699360472E+02 -0.51032836401E+02 -0.11962047610E+02  0.53932501618E+02  0.51100000000E-03 0. -1.
         23    2    1    0    0    0  0.12164986891E+02 -0.21780995113E+02  0.16770876343E+02  0.94939046132E+02  0.90054214410E+02 0.  0.
         11    1    3    3    0    0 -0.53437358144E+00  0.29251841288E+02  0.28732923952E+02  0.41006544514E+02  0.51100000000E-03 0.  1.
         22    1    1    0    0    0 -0.12164986891E+02  0.21780995113E+02 -0.16770876343E+02  0.30060953868E+02  0.00000000000E+00 0.  1.
</event>
<event>
 5    1  0.1717510E-003  0.9118800E+02  0.7818608E-02  0.1130116E+00
         25   -1    0    0    0    0  0.00000000000E+00  0.00000000000E+00  0.99999998245E-14  0.12500000000E+03  0.12500000000E+03 0.  0.
        -11    1    3    3    0    0  0.79805480546E+01 -0.40727100940E+02 -0.17303778795E+01  0.41537695002E+02  0.51100000000E-03 0.  1.
         23    2    1    0    0    0 -0.23322245997E+01 -0.10858325404E+02  0.33997530176E+02  0.89234450092E+02  0.81753363986E+02 0.  0.
         11    1    3    3    0    0 -0.10312772654E+02  0.29868775536E+02  0.35727908055E+02  0.47696755090E+02  0.51100000000E-03 0. -1.
         22    1    1    0    0    0  0.23322245997E+01  0.10858325404E+02 -0.33997530176E+02  0.35765549908E+02  0.00000000000E+00 0. -1.
</event>
<event>
 5    1  0.1717510E-003  0.9118800E+02  0.7818608E-02  0.1130116E+00
         25   -1    0    0    0    0  0.00000000000E+00  0.00000000000E+00  0.99999998245E-14  0.12500000000E+03  0.12500000000E+03 0.  0.
        -11    1    3    3    0    0  0.36151698600E+02 -0.24088449671E+02  0.24397264322E+02  0.49823942295E+02  0.51100000000E-03 0. -1.
         23    2    1    0    0    0 -0.10262666488E+02 -0.20288179463E+02  0.16133869686E+02  0.97121077847E+02  0.93033700677E+02 0.  0.
         11    1    3    3    0    0 -0.46414365088E+02  0.38002702082E+01 -0.82633946359E+01  0.47297135551E+02  0.51100000000E-03 0.  1.
         22    1    1    0    0    0  0.10262666488E+02  0.20288179463E+02 -0.16133869686E+02  0.27878922153E+02  0.00000000000E+00 0.  1.
</event>
<event>
 5    1  0.1717510E-003  0.9118800E+02  0.7818608E-02  0.1130116E+00
         25   -1    0    0    0    0  0.00000000000E+00  0.00000000000E+00  0.99999998245E-14  0.12500000000E+03  0.12500000000E+03 0.  0.
        -11    1    3    3    0    0 -0.23009745153E+02 -0.48140629404E+02 -0.30807038633E+01  0.53445853983E+02  0.51100000000E-03 0. -1.
         23    2    1    0    0    0 -0.12685120206E+01 -0.21332884333E+02  0.20610504061E+02  0.95310036134E+02  0.90567704142E+02 0.  0.
         11    1    3    3    0    0  0.21741233132E+02  0.26807745072E+02  0.23691207925E+02  0.41864182151E+02  0.51100000000E-03 0.  1.
         22    1    1    0    0    0  0.12685120206E+01  0.21332884333E+02 -0.20610504061E+02  0.29689963866E+02  0.00000000000E+00 0. -1.
</event>
<event>
 5    1  0.1717510E-003  0.9118800E+02  0.7818608E-02  0.1130116E+00
         25   -1    0    0    0    0  0.00000000000E+00  0.00000000000E+00  0.99999998245E-14  0.12500000000E+03  0.12500000000E+03 0.  0.
        -11    1    3    3    0    0 -0.34121897741E+02  0.61539883188E+01 -0.11288046970E+02  0.36463618613E+02  0.51100000000E-03 0.  1.
         23    2    1    0    0    0  0.96110032912E+01  0.73781988601E+01  0.27510662488E+02  0.94939298857E+02  0.90054565204E+02 0.  0.
         11    1    3    3    0    0  0.43732901032E+02  0.12242105413E+01  0.38798709458E+02  0.58475680244E+02  0.51100000000E-03 0. -1.
         22    1    1    0    0    0 -0.96110032912E+01 -0.73781988601E+01 -0.27510662488E+02  0.30060701143E+02  0.00000000000E+00 0. -1.
</event>
<event>
 5    1  0.1717510E-003  0.9118800E+02  0.7818608E-02  0.1130116E+00
         25   -1    0    0    0    0  0.00000000000E+00  0.00000000000E+00  0.99999998245E-14  0.12500000000E+03  0.12500000000E+03 0.  0.
        -11    1    3    3    0    0  0.24443422614E+02 -0.39834437327E+02  0.15879341246E+02  0.49360072780E+02  0.51100000000E-03 0. -1.
         23    2    1    0    0    0  0.26230779245E+02 -0.47901430569E+00 -0.10467029705E+02  0.96753903892E+02  0.92539051070E+02 0.  0.
         11    1    3    3    0    0  0.17873566307E+01  0.39355423021E+02 -0.26346370951E+02  0.47393831111E+02  0.51100000000E-03 0.  1.
         22    1    1    0    0    0 -0.26230779245E+02  0.47901430569E+00  0.10467029705E+02  0.28246096108E+02  0.00000000000E+00 0. -1.
</event>
<event>
 5    1  0.1717510E-003  0.9118800E+02  0.7818608E-02  0.1130116E+00
         25   -1    0    0    0    0  0.00000000000E+00  0.00000000000E+00  0.99999998245E-14  0.12500000000E+03  0.12500000000E+03 0.  0.
        -11    1    3    3    0    0 -0.12569042060E+02  0.46345581537E+02 -0.37421983764E+02  0.60879377587E+02  0.51100000000E-03 0. -1.
         23    2    1    0    0    0 -0.11923134189E+02  0.14600989298E+02 -0.21523877834E+02  0.96388335694E+02  0.92043923881E+02 0.  0.
         11    1    3    3    0    0  0.64590787180E+00 -0.31744592239E+02  0.15898105930E+02  0.35508958106E+02  0.51100000000E-03 0.  1.
         22    1    1    0    0    0  0.11923134189E+02 -0.14600989298E+02  0.21523877834E+02  0.28611664306E+02  0.00000000000E+00 0. -1.
</event>
<event>
 5    1  0.1717510E-003  0.9118800E+02  0.7818608E-02  0.1130116E+00
         25   -1    0    0    0    0  0.00000000000E+00  0.00000000000E+00  0.99999998245E-14  0.12500000000E+03  0.12500000000E+03 0.  0.
        -11    1    3    3    0    0 -0.34990249282E+01 -0.27903352090E+02  0.38611890145E+02  0.47767335012E+02  0.51100000000E-03 0.  1.
         23    2    1    0    0    0 -0.21657468361E+02  0.10133356836E+02  0.19936062009E+02  0.93868385442E+02  0.88555611682E+02 0.  0.
         11    1    3    3    0    0 -0.18158443433E+02  0.38036708927E+02 -0.18675828136E+02  0.46101050429E+02  0.51100000000E-03 0. -1.
         22    1    1    0    0    0  0.21657468361E+02 -0.10133356836E+02 -0.19936062009E+02  0.31131614558E+02  0.00000000000E+00 0. -1.
</event>
<event>
 5    1  0.1717510E-003  0.9118800E+02  0.7818608E-02  0.1130116E+00
         25   -1    0    0    0    0  0.00000000000E+00  0.00000000000E+00  0.99999998245E-14  0.12500000000E+03  0.12500000000E+03 0.  0.
        -11    1    3    3    0    0  0.33658826232E+02 -0.15618878719E+02 -0.23066112442E+02  0.43691091761E+02  0.51100000000E-03 0. -1.
         23    2    1    0    0    0  0.16231670946E+01 -0.99571862647E+01 -0.42320157429E+02  0.81493954965E+02  0.68909279065E+02 0.  0.
         11    1    3    3    0    0 -0.32035659138E+02  0.56616924545E+01 -0.19254044987E+02  0.37802863205E+02  0.51100000000E-03 0.  1.
         22    1    1    0    0    0 -0.16231670946E+01  0.99571862647E+01  0.42320157429E+02  0.43506045035E+02  0.00000000000E+00 0.  1.
</event>
<event>
 5    1  0.1717510E-003  0.9118800E+02  0.7818608E-02  0.1130116E+00
         25   -1    0    0    0    0  0.00000000000E+00  0.00000000000E+00  0.99999998245E-14  0.12500000000E+03  0.12500000000E+03 0.  0.
        -11    1    3    3    0    0  0.37649037041E+02  0.38621989944E+02  0.21016307246E+02  0.57886036899E+02  0.51100000000E-03 0. -1.
         23    2    1    0    0    0  0.25141717094E+02  0.19871412399E+02 -0.52815287150E+01  0.92521183600E+02  0.86633110876E+02 0.  0.
         11    1    3    3    0    0 -0.12507319947E+02 -0.18750577545E+02 -0.26297835961E+02  0.34635146701E+02  0.51100000000E-03 0.  1.
         22    1    1    0    0    0 -0.25141717094E+02 -0.19871412399E+02  0.52815287150E+01  0.32478816400E+02  0.00000000000E+00 0. -1.
</event>
<event>
 5    1  0.1717510E-003  0.9118800E+02  0.7818608E-02  0.1130116E+00
         25   -1    0    0    0    0  0.00000000000E+00  0.00000000000E+00  0.99999998245E-14  0.12500000000E+03  0.12500000000E+03 0.  0.
        -11    1    3    3    0    0  0.25067399782E+02 -0.97362230456E+01  0.39962870992E+02  0.48168450559E+02  0.51100000000E-03 0.  1.
         23    2    1    0    0    0 -0.72531675927E+01  0.20213817644E+02  0.11320798755E+02  0.10072311082E+03  0.97753658267E+02 0.  0.
         11    1    3    3    0    0 -0.32320567375E+02  0.29950040690E+02 -0.28642072237E+02  0.52554660260E+02  0.51100000000E-03 0. -1.
         22    1    1    0    0    0  0.72531675927E+01 -0.20213817644E+02 -0.11320798755E+02  0.24276889182E+02  0.00000000000E+00 0. -1.
</event>
<event>
 5    1  0.1717510E-003  0.9118800E+02  0.7818608E-02  0.1130116E+00
         25   -1    0    0    0    0  0.00000000000E+00  0.00000000000E+00  0.99999998245E-14  0.12500000000E+03  0.12500000000E+03 0.  0.
        -11    1    3    3    0    0  0.34061359283E+02 -0.27688624536E+02  0.13809431973E+02  0.46016698454E+02  0.51100000000E-03 0. -1.
         23    2    1    0    0    0  0.19527349285E+02  0.15909960513E+02 -0.10148911428E+02  0.97844068478E+02  0.94000091062E+02 0.  0.
         11    1    3    3    0    0 -0.14534009998E+02  0.43598585049E+02 -0.23958343401E+02  0.51827370025E+02  0.51100000000E-03 0.  1.
         22    1    1    0    0    0 -0.19527349285E+02 -0.15909960513E+02  0.10148911428E+02  0.27155931522E+02  0.00000000000E+00 0.  1.
</event>
<event>
 5    1  0.1717510E-003  0.9118800E+02  0.7818608E-02  0.1130116E+00
         25   -1    0    0    0    0  0.00000000000E+00  0.00000000000E+00  0.99999998245E-14  0.12500000000E+03  0.12500000000E+03 0.  0.
        -11    1    3    3    0    0  0.12080098192E+02 -0.12740994727E+01 -0.47024705074E+02  0.48568250837E+02  0.51100000000E-03 0. -1.
         23    2    1    0    0    0 -0.11283402988E+01  0.27126371835E+02 -0.12729243542E+02  0.95014222673E+02  0.90158503028E+02 0.  0.
         11    1    3    3    0    0 -0.13208438491E+02  0.28400471307E+02  0.34295461532E+02  0.46445971836E+02  0.51100000000E-03 0.  1.
         22    1    1    0    0    0  0.11283402988E+01 -0.27126371835E+02  0.12729243542E+02  0.29985777327E+02  0.00000000000E+00 0. -1.
</event>
<event>
 5    1  0.1717510E-003  0.9118800E+02  0.7818608E-02  0.1130116E+00
         25   -1    0    0    0    0  0.00000000000E+00  0.00000000000E+00  0.99999998245E-14  0.12500000000E+03  0.12500000000E+03 0.  0.
        -11    1    3    3    0    0  0.28699621253E+02  0.14064939715E+02 -0.21310200984E+02  0.38413740451E+02  0.51100000000E-03 0.  1.
         23    2    1    0    0    0 -0.25426740466E+02 -0.52187546493E+01 -0.11084881691E+02  0.96775380731E+02  0.92568057032E+02 0.  0.
         11    1    3    3    0    0 -0.54126361718E+02 -0.19283694364E+02  0.10225319294E+02  0.58361640279E+02  0.51100000000E-03 0. -1.
         22    1    1    0    0    0  0.25426740466E+02  0.52187546493E+01  0.11084881691E+02  0.28224619269E+02  0.00000000000E+00 0. -1.
</event>
<event>
 5    1  0.1717510E-003  0.9118800E+02  0.7818608E-02  0.1130116E+00
         25   -1    0    0    0    0  0.00000000000E+00  0.00000000000E+00  0.99999998245E-14  0.12500000000E+03  0.12500000000E+03 0.  0.
        -11    1    3    3    0    0  0.35075419127E+02 -0.72219010741E+01  0.45156232529E+02  0.57632683597E+02  0.51100000000E-03 0. -1.
         23    2    1    0    0    0  0.12712516012E+02  0.13729330516E+02  0.22465448361E+02  0.95763055053E+02  0.91190809642E+02 0.  0.
         11    1    3    3    0    0 -0.22362903115E+02  0.20951231590E+02 -0.22690784168E+02  0.38130371455E+02  0.51100000000E-03 0.  1.
         22    1    1    0    0    0 -0.12712516012E+02 -0.13729330516E+02 -0.22465448361E+02  0.29236944947E+02  0.00000000000E+00 0. -1.
</event>
<event>
 5    1  0.1717510E-003  0.9118800E+02  0.7818608E-02  0.1130116E+00
         25   -1    0    0    0    0  0.00000000000E+00  0.00000000000E+00  0.99999998245E-14  0.12500000000E+03  0.12500000000E+03 0.  0.
        -11    1    3    3    0    0 -0.61547720859E+01  0.22799566813E+02 -0.24707902235E+02  0.34178676091E+02  0.51100000000E-03 0.  1.
         23    2    1    0    0    0  0.38770621224E+01 -0.14895971794E+02  0.23942788064E+02  0.96536362027E+02  0.92244731593E+02 0.  0.
         11    1    3    3    0    0  0.10031834208E+02 -0.37695538606E+02  0.48650690299E+02  0.62357685935E+02  0.51100000000E-03 0. -1.
         22    1    1    0    0    0 -0.38770621224E+01  0.14895971794E+02 -0.23942788064E+02  0.28463637973E+02  0.00000000000E+00 0. -1.
</event>
<event>
 5    1  0.1717510E-003  0.9118800E+02  0.7818608E-02  0.1130116E+00
         25   -1    0    0    0    0  0.00000000000E+00  0.00000000000E+00  0.99999998245E-14  0.12500000000E+03  0.12500000000E+03 0.  0.
        -11    1    3    3    0    0 -0.32180764555E+02 -0.38277548892E+02  0.35879291477E+02  0.61547509403E+02  0.51100000000E-03 0.  1.
         23    2    1    0    0    0 -0.82645734131E+01 -0.21726213311E+02  0.15523172958E+02  0.97048248405E+02  0.92935795587E+02 0.  0.
         11    1    3    3    0    0  0.23916191142E+02  0.16551335581E+02 -0.20356118520E+02  0.35500739002E+02  0.51100000000E-03 0. -1.
         22    1    1    0    0    0  0.82645734131E+01  0.21726213311E+02 -0.15523172958E+02  0.27951751595E+02  0.00000000000E+00 0.  1.
</event>
<event>
 5    1  0.1717510E-003  0.9118800E+02  0.7818608E-02  0.1130116E+00
         25   -1    0    0    0    0  0.00000000000E+00  0.00000000000E+00  0.99999998245E-14  0.12500000000E+03  0.12500000000E+03 0.  0.
        -11    1    3    3    0    0 -0.81637338454E+01  0.43633812575E+02 -0.17496585742E+02  0.47714637828E+02  0.51100000000E-03 0.  1.
         23    2    1    0    0    0 -0.44558996110E+01 -0.30109731447E+00 -0.30885103774E+02  0.93793665129E+02  0.88450077910E+02 0.  0.
         11    1    3    3    0    0  0.37078342344E+01 -0.43934909889E+02 -0.13388518032E+02  0.46079027301E+02  0.51100000000E-03 0. -1.
         22    1    1    0    0    0  0.44558996110E+01  0.30109731447E+00  0.30885103774E+02  0.31206334871E+02  0.00000000000E+00 0.  1.
</event>
<event>
 5    1  0.1717510E-003  0.9118800E+02  0.7818608E-02  0.1130116E+00
         25   -1    0    0    0    0  0.00000000000E+00  0.00000000000E+00  0.99999998245E-14  0.12500000000E+03  0.12500000000E+03 0.  0.
        -11    1    3    3    0    0 -0.20340472631E+02 -0.21590424966E+02  0.19881071802E+02  0.35709078584E+02  0.51100000000E-03 0.  1.
         23    2    1    0    0    0  0.23573531287E+02  0.84141760367E-01 -0.16078393523E+02  0.96465228309E+02  0.92148288521E+02 0.  0.
         11    1    3    3    0    0  0.43914003917E+02  0.21674566726E+02 -0.35959465325E+02  0.60756149726E+02  0.51100000000E-03 0. -1.
         22    1    1    0    0    0 -0.23573531287E+02 -0.84141760367E-01  0.16078393523E+02  0.28534771691E+02  0.00000000000E+00 0. -1.
</event>
<event>
 5    1  0.1717510E-003  0.9118800E+02  0.7818608E-02  0.1130116E+00
         25   -1    0    0    0    0  0.00000000000E+00  0.00000000000E+00  0.99999998245E-14  0.12500000000E+03  0.12500000000E+03 0.  0.
        -11    1    3    3    0    0  0.15658238128E+02  0.19406118819E+02  0.22352773141E+02  0.33487674393E+02  0.51100000000E-03 0.  1.
         23    2    1    0    0    0 -0.22609903488E+01 -0.30212421106E+02 -0.70646200895E+01  0.93890333922E+02  0.88586587476E+02 0.  0.
         11    1    3    3    0    0 -0.17919228477E+02 -0.49618539925E+02 -0.29417393230E+02  0.60402659530E+02  0.51100000000E-03 0. -1.
         22    1    1    0    0    0  0.22609903488E+01  0.30212421106E+02  0.70646200895E+01  0.31109666078E+02  0.00000000000E+00 0. -1.
</event>
<event>
 5    1  0.1717510E-003  0.9118800E+02  0.7818608E-02  0.1130116E+00
         25   -1    0    0    0    0  0.00000000000E+00  0.00000000000E+00  0.99999998245E-14  0.12500000000E+03  0.12500000000E+03 0.  0.
        -11    1    3    3    0    0 -0.29219872236E+01 -0.25812576215E+02  0.31444367554E+02  0.40786950748E+02  0.51100000000E-03 0.  1.
         23    2    1    0    0    0 -0.14920072064E+01  0.26032737793E+02  0.13253933358E+02  0.95749422707E+02  0.91172121160E+02 0.  0.
         11    1    3    3    0    0  0.14299800172E+01  0.51845314008E+02 -0.18190434196E+02  0.54962471959E+02  0.51100000000E-03 0. -1.
         22    1    1    0    0    0  0.14920072064E+01 -0.26032737793E+02 -0.13253933358E+02  0.29250577293E+02  0.00000000000E+00 0. -1.
</event>
<event>
 5    1  0.1717510E-003  0.9118800E+02  0.7818608E-02  0.1130116E+00
         25   -1    0    0    0    0  0.00000000000E+00  0.00000000000E+00  0.99999998245E-14  0.12500000000E+03  0.12500000000E+03 0.  0.
        -11    1    3    3    0    0  0.86395775646E+01 -0.30103595172E+02 -0.54590108126E+01  0.31791029271E+02  0.51100000000E-03 0.  1.
         23    2    1    0    0    0 -0.20539926073E+02  0.23976717905E+02 -0.78792900319E+00  0.93418480140E+02  0.87918257688E+02 0.  0.
         11    1    3    3    0    0 -0.29179503637E+02  0.54080313077E+02  0.46710818094E+01  0.61627450869E+02  0.51100000000E-03 0. -1.
         22    1    1    0    0    0  0.20539926073E+02 -0.23976717905E+02  0.78792900319E+00  0.31581519860E+02  0.00000000000E+00 0. -1.
</event>
<event>
 5    1  0.1717510E-003  0.9118800E+02  0.7818608E-02  0.1130116E+00
         25   -1    0    0    0    0  0.00000000000E+00  0.00000000000E+00  0.99999998245E-14  0.12500000000E+03  0.12500000000E+03 0.  0.
        -11    1    3    3    0    0  0.20133310976E+02 -0.48758424383E+02  0.99012009151E+01  0.53672785832E+02  0.51100000000E-03 0. -1.
         23    2    1    0    0    0  0.23762013653E+01 -0.23403461387E+02 -0.18026207257E+02  0.95363662744E+02  0.90641688456E+02 0.  0.
         11    1    3    3    0    0 -0.17757109610E+02  0.25354962996E+02 -0.27927408173E+02  0.41690876912E+02  0.51100000000E-03 0.  1.
         22    1    1    0    0    0 -0.23762013653E+01  0.23403461387E+02  0.18026207257E+02  0.29636337256E+02  0.00000000000E+00 0. -1.
</event>
<event>
 5    1  0.1717510E-003  0.9118800E+02  0.7818608E-02  0.1130116E+00
         25   -1    0    0    0    0  0.00000000000E+00  0.00000000000E+00  0.99999998245E-14  0.12500000000E+03  0.12500000000E+03 0.  0.
        -11    1    3    3    0    0  0.50767387456E+02  0.22181102546E+02  0.27706961051E+02  0.61943560038E+02  0.51100000000E-03 0.  1.
         23    2    1    0    0    0  0.22790410778E+02  0.13584645240E+02  0.77807897999E+01  0.97350658242E+02  0.93341655013E+02 0.  0.
         11    1    3    3    0    0 -0.27976976678E+02 -0.85964573064E+01 -0.19926171251E+02  0.35407098204E+02  0.51100000000E-03 0. -1.
         22    1    1    0    0    0 -0.22790410778E+02 -0.13584645240E+02 -0.77807897999E+01  0.27649341758E+02  0.00000000000E+00 0.  1.
</event>
<event>
 5    1  0.1717510E-003  0.9118800E+02  0.7818608E-02  0.1130116E+00
         25   -1    0    0    0    0  0.00000000000E+00  0.00000000000E+00  0.99999998245E-14  0.12500000000E+03  0.12500000000E+03 0.  0.
        -11    1    3    3    0    0 -0.38772631495E+01  0.41672661259E+01  0.35210377156E+02  0.35667491308E+02  0.51100000000E-03 0.  1.
         23    2    1    0    0    0 -0.12689561625E+02  0.11044190133E+02 -0.23870918751E+02  0.95796920164E+02  0.91237218507E+02 0.  0.
         11    1    3    3    0    0 -0.88122984759E+01  0.68769240067E+01 -0.59081295907E+02  0.60129428855E+02  0.51100000000E-03 0. -1.
         22    1    1    0    0    0  0.12689561625E+02 -0.11044190133E+02  0.23870918751E+02  0.29203079836E+02  0.00000000000E+00 0. -1.
</event>
<event>
 5    1  0.1717510E-003  0.9118800E+02  0.7818608E-02  0.1130116E+00
         25   -1    0    0    0    0  0.00000000000E+00  0.00000000000E+00  0.99999998245E-14  0.12500000000E+03  0.12500000000E+03 0.  0.
        -11    1    3    3    0    0  0.34906269056E+02 -0.44359432470E+02  0.37009400104E+01  0.56567692419E+02  0.51100000000E-03 0. -1.
         23    2    1    0    0    0  0.27276665367E+02 -0.79580946452E+01 -0.78664557802E+01  0.95517312360E+02  0.90853332850E+02 0.  0.
         11    1    3    3    0    0 -0.76296036882E+01  0.36401337825E+02 -0.11567395791E+02  0.38949619940E+02  0.51100000000E-03 0.  1.
         22    1    1    0    0    0 -0.27276665367E+02  0.79580946452E+01  0.78664557802E+01  0.29482687640E+02  0.00000000000E+00 0. -1.
</event>
<event>
 5    1  0.1717510E-003  0.9118800E+02  0.7818608E-02  0.1130116E+00
         25   -1    0    0    0    0  0.00000000000E+00  0.00000000000E+00  0.99999998245E-14  0.12500000000E+03  0.12500000000E+03 0.  0.
        -11    1    3    3    0    0 -0.14119726816E+02 -0.36879425626E+02  0.35405894594E+02  0.53038062674E+02  0.51100000000E-03 0. -1.
         23    2    1    0    0    0  0.16192850446E+02 -0.95762183476E+01  0.22161937193E+02  0.95930018515E+02  0.91419388691E+02 0.  0.
         11    1    3    3    0    0  0.30312577262E+02  0.27303207279E+02 -0.13243957401E+02  0.42891955841E+02  0.51100000000E-03 0.  1.
         22    1    1    0    0    0 -0.16192850446E+02  0.95762183476E+01 -0.22161937193E+02  0.29069981485E+02  0.00000000000E+00 0. -1.
</event>
<event>
 5    1  0.1717510E-003  0.9118800E+02  0.7818608E-02  0.1130116E+00
         25   -1    0    0    0    0  0.00000000000E+00  0.00000000000E+00  0.99999998245E-14  0.12500000000E+03  0.12500000000E+03 0.  0.
        -11    1    3    3    0    0  0.27089591299E+02  0.25486964050E+02 -0.96503613730E+01  0.38426042837E+02  0.51100000000E-03 0. -1.
         23    2    1    0    0    0 -0.18317497941E+02 -0.79229162816E+01 -0.21106181361E+02  0.95952207917E+02  0.91449723779E+02 0.  0.
         11    1    3    3    0    0 -0.45407089240E+02 -0.33409880331E+02 -0.11455819988E+02  0.57526165080E+02  0.51100000000E-03 0.  1.
         22    1    1    0    0    0  0.18317497941E+02  0.79229162816E+01  0.21106181361E+02  0.29047792083E+02  0.00000000000E+00 0.  1.
</event>
<event>
 5    1  0.1717510E-003  0.9118800E+02  0.7818608E-02  0.1130116E+00
         25   -1    0    0    0    0  0.00000000000E+00  0.00000000000E+00  0.99999998245E-14  0.12500000000E+03  0.12500000000E+03 0.  0.
        -11    1    3    3    0    0  0.35665504801E+02 -0.22436813631E+02  0.20223902351E+02  0.46738047297E+02  0.51100000000E-03 0.  1.
         23    2    1    0    0    0  0.22587489395E+02 -0.39348566352E+01 -0.21084015480E+02  0.93851749926E+02  0.88532126833E+02 0.  0.
         11    1    3    3    0    0 -0.13078015406E+02  0.18501956996E+02 -0.41307917831E+02  0.47113702629E+02  0.51100000000E-03 0. -1.
         22    1    1    0    0    0 -0.22587489395E+02  0.39348566352E+01  0.21084015480E+02  0.31148250074E+02  0.00000000000E+00 0.  1.
</event>
<event>
 5    1  0.1717510E-003  0.9118800E+02  0.7818608E-02  0.1130116E+00
         25   -1    0    0    0    0  0.00000000000E+00  0.00000000000E+00  0.99999998245E-14  0.12500000000E+03  0.12500000000E+03 0.  0.
        -11    1    3    3    0    0 -0.39891838712E+02  0.24038952183E+02  0.26826669508E+02  0.53748490351E+02  0.51100000000E-03 0. -1.
         23    2    1    0    0    0 -0.11410357488E+02 -0.66416690823E+01  0.26251768253E+02  0.95615252892E+02  0.90987983948E+02 0.  0.
         11    1    3    3    0    0  0.28481481224E+02 -0.30680621265E+02 -0.57490125476E+00  0.41866762541E+02  0.51100000000E-03 0.  1.
         22    1    1    0    0    0  0.11410357488E+02  0.66416690823E+01 -0.26251768253E+02  0.29384747108E+02  0.00000000000E+00 0. -1.
</event>
<event>
 5    1  0.1717510E-003  0.9118800E+02  0.7818608E-02  0.1130116E+00
         25   -1    0    0    0    0  0.00000000000E+00  0.00000000000E+00  0.99999998245E-14  0.12500000000E+03  0.12500000000E+03 0.  0.
        -11    1    3    3    0    0 -0.21456372518E+02  0.27754939891E+02  0.14235961182E+02  0.37859941905E+02  0.51100000000E-03 0.  1.
         23    2    1    0    0    0  0.27228020402E+02 -0.19591127935E+00  0.14817809152E+02  0.94000468644E+02  0.88741856871E+02 0.  0.
         11    1    3    3    0    0  0.48684392920E+02 -0.27950851170E+02  0.58184796981E+00  0.56140526739E+02  0.51100000000E-03 0. -1.
         22    1    1    0    0    0 -0.27228020402E+02  0.19591127935E+00 -0.14817809152E+02  0.30999531356E+02  0.00000000000E+00 0. -1.
</event>
<event>
 5    1  0.1717510E-003  0.9118800E+02  0.7818608E-02  0.1130116E+00
         25   -1    0    0    0    0  0.00000000000E+00  0.00000000000E+00  0.99999998245E-14  0.12500000000E+03  0.12500000000E+03 0.  0.
        -11    1    3    3    0    0 -0.19097884968E+02  0.16101953480E+02 -0.49967915538E+02  0.55864073425E+02  0.51100000000E-03 0. -1.
         23    2    1    0    0    0 -0.25068057872E+02 -0.12214659495E+01 -0.13922979853E+02  0.96298974365E+02  0.91922486863E+02 0.  0.
         11    1    3    3    0    0 -0.59701729035E+01 -0.17323419430E+02  0.36044935685E+02  0.40434900940E+02  0.51100000000E-03 0.  1.
         22    1    1    0    0    0  0.25068057872E+02  0.12214659495E+01  0.13922979853E+02  0.28701025635E+02  0.00000000000E+00 0. -1.
</event>
<event>
 5    1  0.1717510E-003  0.9118800E+02  0.7818608E-02  0.1130116E+00
         25   -1    0    0    0    0  0.00000000000E+00  0.00000000000E+00  0.99999998245E-14  0.12500000000E+03  0.12500000000E+03 0.  0.
        -11    1    3    3    0    0 -0.43316092423E+01  0.30759494087E+02  0.16828234712E+02  0.35328441784E+02  0.51100000000E-03 0. -1.
         23    2    1    0    0    0 -0.15155623215E+02 -0.25381689926E+02 -0.15848701879E+01  0.95395356580E+02  0.90685385509E+02 0.  0.
         11    1    3    3    0    0 -0.10824013973E+02 -0.56141184013E+02 -0.18413104899E+02  0.60066914796E+02  0.51100000000E-03 0.  1.
         22    1    1    0    0    0  0.15155623215E+02  0.25381689926E+02  0.15848701879E+01  0.29604643420E+02  0.00000000000E+00 0.  1.
</event>
<event>
 5    1  0.1717510E-003  0.9118800E+02  0.7818608E-02  0.1130116E+00
         25   -1    0    0    0    0  0.00000000000E+00  0.00000000000E+00  0.99999998245E-14  0.12500000000E+03  0.12500000000E+03 0.  0.
        -11    1    3    3    0    0 -0.94821389698E+01  0.17231085629E+02 -0.33568087228E+02  0.38905497706E+02  0.51100000000E-03 0. -1.
         23    2    1    0    0    0  0.23010748272E+02 -0.15670827648E+02  0.17690954207E+01  0.97103780296E+02  0.93010456799E+02 0.  0.
         11    1    3    3    0    0  0.32492887242E+02 -0.32901913277E+02  0.35337182648E+02  0.58198282589E+02  0.51100000000E-03 0.  1.
         22    1    1    0    0    0 -0.23010748272E+02  0.15670827648E+02 -0.17690954207E+01  0.27896219704E+02  0.00000000000E+00 0.  1.
</event>
<event>
 5    1  0.1717510E-003  0.9118800E+02  0.7818608E-02  0.1130116E+00
         25   -1    0    0    0    0  0.00000000000E+00  0.00000000000E+00  0.99999998245E-14  0.12500000000E+03  0.12500000000E+03 0.  0.
        -11    1    3    3    0    0  0.38118292067E+02  0.16444164189E+02 -0.24617046120E+02  0.48263999896E+02  0.51100000000E-03 0.  1.
         23    2    1    0    0    0  0.10066594842E+02 -0.18057941120E+02  0.73818203399E+01  0.10304739558E+03  0.10068191941E+03 0.  0.
         11    1    3    3    0    0 -0.28051697225E+02 -0.34502105308E+02  0.31998866460E+02  0.54783395686E+02  0.51100000000E-03 0. -1.
         22    1    1    0    0    0 -0.10066594842E+02  0.18057941120E+02 -0.73818203399E+01  0.21952604418E+02  0.00000000000E+00 0.  1.
</event>
<event>
 5    1  0.1717510E-003  0.9118800E+02  0.7818608E-02  0.1130116E+00
         25   -1    0    0    0    0  0.00000000000E+00  0.00000000000E+00  0.99999998245E-14  0.12500000000E+03  0.12500000000E+03 0.  0.
        -11    1    3    3    0    0  0.42977005671E+02  0.14600389538E+01 -0.40080311452E+02  0.58784233401E+02  0.51100000000E-03 0. -1.
         23    2    1    0    0    0  0.10199981172E+02  0.88146475521E+01 -0.26978375565E+02  0.94840915539E+02  0.89917900803E+02 0.  0.
         11    1    3    3    0    0 -0.32777024498E+02  0.73546085983E+01  0.13101935887E+02  0.36056682139E+02  0.51100000000E-03 0.  1.
         22    1    1    0    0    0 -0.10199981172E+02 -0.88146475521E+01  0.26978375565E+02  0.30159084461E+02  0.00000000000E+00 0. -1.
</event>
<event>
 5    1  0.1717510E-003  0.9118800E+02  0.7818608E-02  0.1130116E+00
         25   -1    0    0    0    0  0.00000000000E+00  0.00000000000E+00  0.99999998245E-14  0.12500000000E+03  0.12500000000E+03 0.  0.
        -11    1    3    3    0    0  0.25715837655E+02  0.16441211425E+02 -0.17273772076E+02  0.35071369255E+02  0.51100000000E-03 0. -1.
         23    2    1    0    0    0 -0.66248550899E+01 -0.20206513670E+02  0.19429865326E+02  0.96195285694E+02  0.91781378413E+02 0.  0.
         11    1    3    3    0    0 -0.32340692745E+02 -0.36647725095E+02  0.36703637402E+02  0.61123916438E+02  0.51100000000E-03 0.  1.
         22    1    1    0    0    0  0.66248550899E+01  0.20206513670E+02 -0.19429865326E+02  0.28804714306E+02  0.00000000000E+00 0.  1.
</event>
<event>
 5    1  0.1717510E-003  0.9118800E+02  0.7818608E-02  0.1130116E+00
         25   -1    0    0    0    0  0.00000000000E+00  0.00000000000E+00  0.99999998245E-14  0.12500000000E+03  0.12500000000E+03 0.  0.
        -11    1    3    3    0    0 -0.60683720399E+02 -0.89594761348E+01 -0.83884200317E+00  0.61347288369E+02  0.51100000000E-03 0. -1.
         23    2    1    0    0    0 -0.28230543268E+02 -0.55428745527E+01 -0.87579246609E+01  0.94926951004E+02  0.90037424169E+02 0.  0.
         11    1    3    3    0    0  0.32453177131E+02  0.34166015821E+01 -0.79190826578E+01  0.33579662635E+02  0.51100000000E-03 0.  1.
         22    1    1    0    0    0  0.28230543268E+02  0.55428745527E+01  0.87579246609E+01  0.30073048996E+02  0.00000000000E+00 0. -1.
</event>
<event>
 5    1  0.1717510E-003  0.9118800E+02  0.7818608E-02  0.1130116E+00
         25   -1    0    0    0    0  0.00000000000E+00  0.00000000000E+00  0.99999998245E-14  0.12500000000E+03  0.12500000000E+03 0.  0.
        -11    1    3    3    0    0  0.21440000115E+02 -0.26596227944E+02 -0.59635055641E+01  0.34678470910E+02  0.51100000000E-03 0. -1.
         23    2    1    0    0    0 -0.44486620985E+01  0.28192935013E+02 -0.81560486357E+01  0.95315773407E+02  0.90575622282E+02 0.  0.
         11    1    3    3    0    0 -0.25888662213E+02  0.54789162957E+02 -0.21925430716E+01  0.60637302497E+02  0.51100000000E-03 0.  1.
         22    1    1    0    0    0  0.44486620985E+01 -0.28192935013E+02  0.81560486357E+01  0.29684226593E+02  0.00000000000E+00 0.  1.
</event>
<event>
 5    1  0.1717510E-003  0.9118800E+02  0.7818608E-02  0.1130116E+00
         25   -1    0    0    0    0  0.00000000000E+00  0.00000000000E+00  0.99999998245E-14  0.12500000000E+03  0.12500000000E+03 0.  0.
        -11    1    3    3    0    0  0.19772038408E+02 -0.38777291284E+02 -0.21388531854E+01  0.43579657127E+02  0.51100000000E-03 0.  1.
         23    2    1    0    0    0  0.22140565339E+02  0.45766723942E+01  0.22165923112E+02  0.93338055790E+02  0.87803837886E+02 0.  0.
         11    1    3    3    0    0  0.23685269310E+01  0.43353963678E+02  0.24304776297E+02  0.49758398663E+02  0.51100000000E-03 0. -1.
         22    1    1    0    0    0 -0.22140565339E+02 -0.45766723942E+01 -0.22165923112E+02  0.31661944210E+02  0.00000000000E+00 0. -1.
</event>
<event>
 5    1  0.1717510E-003  0.9118800E+02  0.7818608E-02  0.1130116E+00
         25   -1    0    0    0    0  0.00000000000E+00  0.00000000000E+00  0.99999998245E-14  0.12500000000E+03  0.12500000000E+03 0.  0.
        -11    1    3    3    0    0 -0.25968441696E+02  0.47847280682E+01 -0.26531890405E+02  0.37432536589E+02  0.51100000000E-03 0.  1.
         23    2    1    0    0    0  0.28029190038E+02 -0.39917199090E+01 -0.13318080327E+02  0.93711973766E+02  0.88334554063E+02 0.  0.
         11    1    3    3    0    0  0.53997631734E+02 -0.87764479771E+01  0.13213810077E+02  0.56279437177E+02  0.51100000000E-03 0. -1.
         22    1    1    0    0    0 -0.28029190038E+02  0.39917199090E+01  0.13318080327E+02  0.31288026234E+02  0.00000000000E+00 0.  1.
</event>
<event>
 5    1  0.1717510E-003  0.9118800E+02  0.7818608E-02  0.1130116E+00
         25   -1    0    0    0    0  0.00000000000E+00  0.00000000000E+00  0.99999998245E-14  0.12500000000E+03  0.12500000000E+03 0.  0.
        -11    1    3    3    0    0  0.48542681620E+02 -0.20791924032E+02 -0.31171850303E+02  0.61321939756E+02  0.51100000000E-03 0.  1.
         23    2    1    0    0    0  0.25745792730E+02 -0.13641951011E+02 -0.75915731844E+01  0.94890522188E+02  0.89986835409E+02 0.  0.
         11    1    3    3    0    0 -0.22796888890E+02  0.71499730204E+01  0.23580277118E+02  0.33568582432E+02  0.51100000000E-03 0. -1.
         22    1    1    0    0    0 -0.25745792730E+02  0.13641951011E+02  0.75915731844E+01  0.30109477812E+02  0.00000000000E+00 0.  1.
</event>
<event>
 5    1  0.1717510E-003  0.9118800E+02  0.7818608E-02  0.1130116E+00
         25   -1    0    0    0    0  0.00000000000E+00  0.00000000000E+00  0.99999998245E-14  0.12500000000E+03  0.12500000000E+03 0.  0.
        -11    1    3    3    0    0 -0.19284573699E+02 -0.28171040978E+02 -0.30868232525E+02  0.46025537607E+02  0.51100000000E-03 0.  1.
         23    2    1    0    0    0  0.22579274227E+02 -0.74417849292E+01 -0.19865455896E+02  0.94018713301E+02  0.88767552210E+02 0.  0.
         11    1    3    3    0    0  0.41863847926E+02  0.20729256048E+02  0.11002776628E+02  0.47993175695E+02  0.51100000000E-03 0. -1.
         22    1    1    0    0    0 -0.22579274227E+02  0.74417849292E+01  0.19865455896E+02  0.30981286699E+02  0.00000000000E+00 0. -1.
</event>
<event>
 5    1  0.1717510E-003  0.9118800E+02  0.7818608E-02  0.1130116E+00
         25   -1    0    0    0    0  0.00000000000E+00  0.00000000000E+00  0.99999998245E-14  0.12500000000E+03  0.12500000000E+03 0.  0.
        -11    1    3    3    0    0 -0.34113370232E+02  0.18314739698E+02  0.27318065816E+02  0.47385951915E+02  0.51100000000E-03 0.  1.
         23    2    1    0    0    0 -0.52896353971E+01  0.25781947411E+02 -0.11474706576E+02  0.96288365669E+02  0.91908059589E+02 0.  0.
         11    1    3    3    0    0  0.28823734835E+02  0.74672077132E+01 -0.38792772392E+02  0.48902413754E+02  0.51100000000E-03 0. -1.
         22    1    1    0    0    0  0.52896353971E+01 -0.25781947411E+02  0.11474706576E+02  0.28711634331E+02  0.00000000000E+00 0.  1.
</event>
<event>
 5    1  0.1717510E-003  0.9118800E+02  0.7818608E-02  0.1130116E+00
         25   -1    0    0    0    0  0.00000000000E+00  0.00000000000E+00  0.99999998245E-14  0.12500000000E+03  0.12500000000E+03 0.  0.
        -11    1    3    3    0    0 -0.19018255905E+02  0.27596009342E+02  0.17128656812E+02  0.37638074787E+02  0.51100000000E-03 0.  1.
         23    2    1    0    0    0  0.94860399345E+01  0.96692176658E+01 -0.27971062852E+02  0.93921726545E+02  0.88630872929E+02 0.  0.
         11    1    3    3    0    0  0.28504295839E+02 -0.17926791676E+02 -0.45099719664E+02  0.56283651757E+02  0.51100000000E-03 0. -1.
         22    1    1    0    0    0 -0.94860399345E+01 -0.96692176658E+01  0.27971062852E+02  0.31078273455E+02  0.00000000000E+00 0. -1.
</event>
<event>
 5    1  0.1717510E-003  0.9118800E+02  0.7818608E-02  0.1130116E+00
         25   -1    0    0    0    0  0.00000000000E+00  0.00000000000E+00  0.99999998245E-14  0.12500000000E+03  0.12500000000E+03 0.  0.
        -11    1    3    3    0    0 -0.34755216105E+02 -0.12323409630E+02  0.19027653918E+02  0.41495097124E+02  0.51100000000E-03 0. -1.
         23    2    1    0    0    0 -0.14160867453E+02 -0.13388967690E+02 -0.26866569400E+02  0.91809531878E+02  0.85600134168E+02 0.  0.
         11    1    3    3    0    0  0.20594348653E+02 -0.10655580603E+01 -0.45894223318E+02  0.50314434754E+02  0.51100000000E-03 0.  1.
         22    1    1    0    0    0  0.14160867453E+02  0.13388967690E+02  0.26866569400E+02  0.33190468122E+02  0.00000000000E+00 0. -1.
</event>
<event>
 5    1  0.1717510E-003  0.9118800E+02  0.7818608E-02  0.1130116E+00
         25   -1    0    0    0    0  0.00000000000E+00  0.00000000000E+00  0.99999998245E-14  0.12500000000E+03  0.12500000000E+03 0.  0.
        -11    1    3    3    0    0 -0.38707547295E+02  0.82959607588E+01 -0.13448137764E+02  0.41808487082E+02  0.51100000000E-03 0. -1.
         23    2    1    0    0    0 -0.48633479959E+01  0.98604626845E+01  0.27751621020E+02  0.95149818304E+02  0.90346303610E+02 0.  0.
         11    1    3    3    0    0  0.33844199299E+02  0.15645019257E+01  0.41199758783E+02  0.53341331222E+02  0.51100000000E-03 0.  1.
         22    1    1    0    0    0  0.48633479959E+01 -0.98604626845E+01 -0.27751621020E+02  0.29850181696E+02  0.00000000000E+00 0.  1.
</event>
<event>
 5    1  0.1717510E-003  0.9118800E+02  0.7818608E-02  0.1130116E+00
         25   -1    0    0    0    0  0.00000000000E+00  0.00000000000E+00  0.99999998245E-14  0.12500000000E+03  0.12500000000E+03 0.  0.
        -11    1    3    3    0    0 -0.30679129723E+02 -0.25485590347E+02  0.10778010465E+02  0.41314523182E+02  0.51100000000E-03 0. -1.
         23    2    1    0    0    0  0.23646970114E+02 -0.13361510710E+02  0.60200068672E+01  0.97180049484E+02  0.93112901206E+02 0.  0.
         11    1    3    3    0    0  0.54326099837E+02  0.12124079637E+02 -0.47580035978E+01  0.55865526302E+02  0.51100000000E-03 0.  1.
         22    1    1    0    0    0 -0.23646970114E+02  0.13361510710E+02 -0.60200068672E+01  0.27819950516E+02  0.00000000000E+00 0.  1.
</event>
<event>
 5    1  0.1717510E-003  0.9118800E+02  0.7818608E-02  0.1130116E+00
         25   -1    0    0    0    0  0.00000000000E+00  0.00000000000E+00  0.99999998245E-14  0.12500000000E+03  0.12500000000E+03 0.  0.
        -11    1    3    3    0    0  0.39411114085E+02 -0.19580442413E+02 -0.14192207664E+02  0.46239035427E+02  0.51100000000E-03 0. -1.
         23    2    1    0    0    0  0.10626548426E+02 -0.12134552743E+02  0.24887180348E+02  0.95342915730E+02  0.90613072636E+02 0.  0.
         11    1    3    3    0    0 -0.28784565660E+02  0.74458896709E+01  0.39079388012E+02  0.49103880304E+02  0.51100000000E-03 0.  1.
         22    1    1    0    0    0 -0.10626548426E+02  0.12134552743E+02 -0.24887180348E+02  0.29657084270E+02  0.00000000000E+00 0. -1.
</event>
<event>
 5    1  0.1717510E-003  0.9118800E+02  0.7818608E-02  0.1130116E+00
         25   -1    0    0    0    0  0.00000000000E+00  0.00000000000E+00  0.99999998245E-14  0.12500000000E+03  0.12500000000E+03 0.  0.
        -11    1    3    3    0    0  0.39443402134E+02  0.25883604714E+02  0.35608867149E+02  0.59107819997E+02  0.51100000000E-03 0. -1.
         23    2    1    0    0    0  0.16713728107E+02  0.22931976989E+02  0.69871606545E+01  0.95775956989E+02  0.91208493285E+02 0.  0.
         11    1    3    3    0    0 -0.22729674026E+02 -0.29516277246E+01 -0.28621706495E+02  0.36668136992E+02  0.51100000000E-03 0.  1.
         22    1    1    0    0    0 -0.16713728107E+02 -0.22931976989E+02 -0.69871606545E+01  0.29224043011E+02  0.00000000000E+00 0. -1.
</event>
<event>
 5    1  0.1717510E-003  0.9118800E+02  0.7818608E-02  0.1130116E+00
         25   -1    0    0    0    0  0.00000000000E+00  0.00000000000E+00  0.99999998245E-14  0.12500000000E+03  0.12500000000E+03 0.  0.
        -11    1    3    3    0    0 -0.16998547786E+02  0.24074641692E+02  0.18487157599E+02  0.34789567341E+02  0.51100000000E-03 0.  1.
         23    2    1    0    0    0 -0.45145891661E+01 -0.24089573536E+02 -0.16358017210E+02  0.95533514028E+02  0.90875621082E+02 0.  0.
         11    1    3    3    0    0  0.12483958620E+02 -0.48164215228E+02 -0.34845174809E+02  0.60743946687E+02  0.51100000000E-03 0. -1.
         22    1    1    0    0    0  0.45145891661E+01  0.24089573536E+02  0.16358017210E+02  0.29466485972E+02  0.00000000000E+00 0. -1.
</event>
<event>
 5    1  0.1717510E-003  0.9118800E+02  0.7818608E-02  0.1130116E+00
         25   -1    0    0    0    0  0.00000000000E+00  0.00000000000E+00  0.99999998245E-14  0.12500000000E+03  0.12500000000E+03 0.  0.
        -11    1    3    3    0    0  0.23384697049E+02 -0.11892492118E+02 -0.16660168646E+02  0.31077912485E+02  0.51100000000E-03 0.  1.
         23    2    1    0    0    0 -0.34096246258E+02 -0.62657793298E+01 -0.69114656250E+01  0.89650567804E+02  0.82387146759E+02 0.  0.
         11    1    3    3    0    0 -0.57480943307E+02  0.56267127883E+01  0.97487030212E+01  0.58572655319E+02  0.51100000000E-03 0. -1.
         22    1    1    0    0    0  0.34096246258E+02  0.62657793298E+01  0.69114656250E+01  0.35349432196E+02  0.00000000000E+00 0. -1.
</event>
<event>
 5    1  0.1717510E-003  0.9118800E+02  0.7818608E-02  0.1130116E+00
         25   -1    0    0    0    0  0.00000000000E+00  0.00000000000E+00  0.99999998245E-14  0.12500000000E+03  0.12500000000E+03 0.  0.
        -11    1    3    3    0    0 -0.14312293439E+02 -0.47338106979E+02 -0.28555517172E+01  0.49536777164E+02  0.51100000000E-03 0.  1.
         23    2    1    0    0    0 -0.58169249439E+01 -0.10017637032E+02 -0.27568358528E+02  0.95096755035E+02  0.90272857265E+02 0.  0.
         11    1    3    3    0    0  0.84953684952E+01  0.37320469947E+02 -0.24712806810E+02  0.45559977872E+02  0.51100000000E-03 0. -1.
         22    1    1    0    0    0  0.58169249439E+01  0.10017637032E+02  0.27568358528E+02  0.29903244965E+02  0.00000000000E+00 0. -1.
</event>
<event>
 5    1  0.1717510E-003  0.9118800E+02  0.7818608E-02  0.1130116E+00
         25   -1    0    0    0    0  0.00000000000E+00  0.00000000000E+00  0.99999998245E-14  0.12500000000E+03  0.12500000000E+03 0.  0.
        -11    1    3    3    0    0 -0.70219212217E+01  0.37803622234E+02  0.16142090360E+02  0.41701178798E+02  0.51100000000E-03 0.  1.
         23    2    1    0    0    0 -0.24974598727E+02 -0.12769023609E+02  0.50777306082E+01  0.96494528707E+02  0.92188026211E+02 0.  0.
         11    1    3    3    0    0 -0.17952677506E+02 -0.50572645843E+02 -0.11064359752E+02  0.54793349909E+02  0.51100000000E-03 0. -1.
         22    1    1    0    0    0  0.24974598727E+02  0.12769023609E+02 -0.50777306082E+01  0.28505471293E+02  0.00000000000E+00 0. -1.
</event>
<event>
 5    1  0.1717510E-003  0.9118800E+02  0.7818608E-02  0.1130116E+00
         25   -1    0    0    0    0  0.00000000000E+00  0.00000000000E+00  0.99999998245E-14  0.12500000000E+03  0.12500000000E+03 0.  0.
        -11    1    3    3    0    0  0.16174128699E+02  0.53237686575E+02  0.14027338547E+02  0.57381355317E+02  0.51100000000E-03 0. -1.
         23    2    1    0    0    0  0.20092150029E+02  0.20583659706E+02 -0.56207774317E+01  0.95691730201E+02  0.91092988480E+02 0.  0.
         11    1    3    3    0    0  0.39180213303E+01 -0.32654026870E+02 -0.19648115979E+02  0.38310374884E+02  0.51100000000E-03 0.  1.
         22    1    1    0    0    0 -0.20092150029E+02 -0.20583659706E+02  0.56207774317E+01  0.29308269799E+02  0.00000000000E+00 0. -1.
</event>
<event>
 5    1  0.1717510E-003  0.9118800E+02  0.7818608E-02  0.1130116E+00
         25   -1    0    0    0    0  0.00000000000E+00  0.00000000000E+00  0.99999998245E-14  0.12500000000E+03  0.12500000000E+03 0.  0.
        -11    1    3    3    0    0  0.23404037004E+02  0.26273891763E+02  0.24780309928E+02  0.43036381084E+02  0.51100000000E-03 0. -1.
         23    2    1    0    0    0 -0.14712901564E+02  0.22728913524E+02 -0.11318793880E+02  0.95653993844E+02  0.91041191012E+02 0.  0.
         11    1    3    3    0    0 -0.38116938568E+02 -0.35449782386E+01 -0.36099103808E+02  0.52617612760E+02  0.51100000000E-03 0.  1.
         22    1    1    0    0    0  0.14712901564E+02 -0.22728913524E+02  0.11318793880E+02  0.29346006156E+02  0.00000000000E+00 0.  1.
</event>
<event>
 5    1  0.1717510E-003  0.9118800E+02  0.7818608E-02  0.1130116E+00
         25   -1    0    0    0    0  0.00000000000E+00  0.00000000000E+00  0.99999998245E-14  0.12500000000E+03  0.12500000000E+03 0.  0.
        -11    1    3    3    0    0 -0.10970400431E+02 -0.39895312462E+02 -0.12376961978E+02  0.43187669885E+02  0.51100000000E-03 0.  1.
         23    2    1    0    0    0  0.20372610063E+02  0.53024647149E+00 -0.21752251852E+02  0.95192536795E+02  0.90405388107E+02 0.  0.
         11    1    3    3    0    0  0.31343010494E+02  0.40425558933E+02 -0.93752898739E+01  0.52004866910E+02  0.51100000000E-03 0. -1.
         22    1    1    0    0    0 -0.20372610063E+02 -0.53024647149E+00  0.21752251852E+02  0.29807463205E+02  0.00000000000E+00 0. -1.
</event>
<event>
 5    1  0.1717510E-003  0.9118800E+02  0.7818608E-02  0.1130116E+00
         25   -1    0    0    0    0  0.00000000000E+00  0.00000000000E+00  0.99999998245E-14  0.12500000000E+03  0.12500000000E+03 0.  0.
        -11    1    3    3    0    0  0.52230252771E+01  0.14370110011E+02 -0.40658435876E+02  0.43438329421E+02  0.51100000000E-03 0.  1.
         23    2    1    0    0    0  0.97148395926E+01 -0.26512704252E+02 -0.89242421728E+01  0.95386764894E+02  0.90673542026E+02 0.  0.
         11    1    3    3    0    0  0.44918143155E+01 -0.40882814263E+02  0.31734193703E+02  0.51948435473E+02  0.51100000000E-03 0. -1.
         22    1    1    0    0    0 -0.97148395926E+01  0.26512704252E+02  0.89242421728E+01  0.29613235106E+02  0.00000000000E+00 0. -1.
</event>
<event>
 5    1  0.1717510E-003  0.9118800E+02  0.7818608E-02  0.1130116E+00
         25   -1    0    0    0    0  0.00000000000E+00  0.00000000000E+00  0.99999998245E-14  0.12500000000E+03  0.12500000000E+03 0.  0.
        -11    1    3    3    0    0  0.48842838928E+02 -0.20976962599E+02 -0.14360655077E+02  0.55062548877E+02  0.51100000000E-03 0. -1.
         23    2    1    0    0    0  0.17782010490E+02  0.54155538637E+01 -0.21645892009E+02  0.96468039647E+02  0.92152102048E+02 0.  0.
         11    1    3    3    0    0 -0.31060828438E+02  0.26392516463E+02 -0.72852369320E+01  0.41405490770E+02  0.51100000000E-03 0.  1.
         22    1    1    0    0    0 -0.17782010490E+02 -0.54155538637E+01  0.21645892009E+02  0.28531960353E+02  0.00000000000E+00 0. -1.
</event>
<event>
 5    1  0.1717510E-003  0.9118800E+02  0.7818608E-02  0.1130116E+00
         25   -1    0    0    0    0  0.00000000000E+00  0.00000000000E+00  0.99999998245E-14  0.12500000000E+03  0.12500000000E+03 0.  0.
        -11    1    3    3    0    0 -0.12279037951E+02 -0.22077352671E+02 -0.22971890184E+01  0.25366540001E+02  0.51100000000E-03 0. -1.
         23    2    1    0    0    0  0.34408155612E+02  0.17307429120E+02 -0.15905657808E+01  0.86451353139E+02  0.77381123568E+02 0.  0.
         11    1    3    3    0    0  0.46687193563E+02  0.39384781791E+02  0.70662323761E+00  0.61084813138E+02  0.51100000000E-03 0.  1.
         22    1    1    0    0    0 -0.34408155612E+02 -0.17307429120E+02  0.15905657808E+01  0.38548646861E+02  0.00000000000E+00 0.  1.
</event>
<event>
 5    1  0.1717510E-003  0.9118800E+02  0.7818608E-02  0.1130116E+00
         25   -1    0    0    0    0  0.00000000000E+00  0.00000000000E+00  0.99999998245E-14  0.12500000000E+03  0.12500000000E+03 0.  0.
        -11    1    3    3    0    0  0.36276902735E+02  0.75367917123E+01  0.18550699882E+02  0.41436039479E+02  0.51100000000E-03 0.  1.
         23    2    1    0    0    0  0.68678969034E+01 -0.24369204390E+02 -0.14356068154E+02  0.95894625525E+02  0.91370982162E+02 0.  0.
         11    1    3    3    0    0 -0.29409005832E+02 -0.31905996102E+02 -0.32906768036E+02  0.54458586046E+02  0.51100000000E-03 0. -1.
         22    1    1    0    0    0 -0.68678969034E+01  0.24369204390E+02  0.14356068154E+02  0.29105374475E+02  0.00000000000E+00 0. -1.
</event>
<event>
 5    1  0.1717510E-003  0.9118800E+02  0.7818608E-02  0.1130116E+00
         25   -1    0    0    0    0  0.00000000000E+00  0.00000000000E+00  0.99999998245E-14  0.12500000000E+03  0.12500000000E+03 0.  0.
        -11    1    3    3    0    0  0.36578455541E+02  0.17939976813E+02 -0.11265635724E+02  0.42269856001E+02  0.51100000000E-03 0. -1.
         23    2    1    0    0    0 -0.13639699741E+02 -0.15988118909E+02 -0.62124380582E+01  0.10308526199E+03  0.10072892086E+03 0.  0.
         11    1    3    3    0    0 -0.50218155282E+02 -0.33928095722E+02  0.50531976654E+01  0.60815405993E+02  0.51100000000E-03 0.  1.
         22    1    1    0    0    0  0.13639699741E+02  0.15988118909E+02  0.62124380582E+01  0.21914738006E+02  0.00000000000E+00 0.  1.
</event>
<event>
 5    1  0.1717510E-003  0.9118800E+02  0.7818608E-02  0.1130116E+00
         25   -1    0    0    0    0  0.00000000000E+00  0.00000000000E+00  0.99999998245E-14  0.12500000000E+03  0.12500000000E+03 0.  0.
        -11    1    3    3    0    0 -0.20674801247E+02 -0.44578101153E+02  0.21520206754E+02  0.53644886131E+02  0.51100000000E-03 0.  1.
         23    2    1    0    0    0 -0.27179555330E+02 -0.48873676422E+01  0.61068866235E+01  0.96717343572E+02  0.92489652897E+02 0.  0.
         11    1    3    3    0    0 -0.65047540833E+01  0.39690733511E+02 -0.15413320131E+02  0.43072457441E+02  0.51100000000E-03 0. -1.
         22    1    1    0    0    0  0.27179555330E+02  0.48873676422E+01 -0.61068866235E+01  0.28282656428E+02  0.00000000000E+00 0. -1.
</event>
<event>
 5    1  0.1717510E-003  0.9118800E+02  0.7818608E-02  0.1130116E+00
         25   -1    0    0    0    0  0.00000000000E+00  0.00000000000E+00  0.99999998245E-14  0.12500000000E+03  0.12500000000E+03 0.  0.
        -11    1    3    3    0    0  0.44553366418E+02 -0.15238851576E+02 -0.15474822269E+02  0.49565060083E+02  0.51100000000E-03 0.  1.
         23    2    1    0    0    0  0.22875012517E+02  0.11395926132E+02  0.14903969486E+02  0.95415178951E+02  0.90712704390E+02 0.  0.
         11    1    3    3    0    0 -0.21678353900E+02  0.26634777708E+02  0.30378791756E+02  0.45850118867E+02  0.51100000000E-03 0. -1.
         22    1    1    0    0    0 -0.22875012517E+02 -0.11395926132E+02 -0.14903969486E+02  0.29584821049E+02  0.00000000000E+00 0.  1.
</event>
<event>
 5    1  0.1717510E-003  0.9118800E+02  0.7818608E-02  0.1130116E+00
         25   -1    0    0    0    0  0.00000000000E+00  0.00000000000E+00  0.99999998245E-14  0.12500000000E+03  0.12500000000E+03 0.  0.
        -11    1    3    3    0    0 -0.15525921483E+02 -0.17444654381E+02 -0.23397062340E+02  0.33057415670E+02  0.51100000000E-03 0. -1.
         23    2    1    0    0    0  0.22432137839E+02  0.23189454766E+02 -0.18771943180E+01  0.92681654144E+02  0.86864339841E+02 0.  0.
         11    1    3    3    0    0  0.37958059322E+02  0.40634109147E+02  0.21519868022E+02  0.59624238474E+02  0.51100000000E-03 0.  1.
         22    1    1    0    0    0 -0.22432137839E+02 -0.23189454766E+02  0.18771943180E+01  0.32318345856E+02  0.00000000000E+00 0.  1.
</event>
<event>
 5    1  0.1717510E-003  0.9118800E+02  0.7818608E-02  0.1130116E+00
         25   -1    0    0    0    0  0.00000000000E+00  0.00000000000E+00  0.99999998245E-14  0.12500000000E+03  0.12500000000E+03 0.  0.
        -11    1    3    3    0    0  0.45712920177E+02  0.44389391225E+01  0.34051720860E+01  0.46053994928E+02  0.51100000000E-03 0.  1.
         23    2    1    0    0    0 -0.13653446596E+02 -0.72275221302E+01 -0.79714691517E+01  0.10761615691E+03  0.10620282119E+03 0.  0.
         11    1    3    3    0    0 -0.59366366773E+02 -0.11666461253E+02 -0.11376641238E+02  0.61562161983E+02  0.51100000000E-03 0. -1.
         22    1    1    0    0    0  0.13653446596E+02  0.72275221302E+01  0.79714691517E+01  0.17383843089E+02  0.00000000000E+00 0. -1.
</event>
<event>
 5    1  0.1717510E-003  0.9118800E+02  0.7818608E-02  0.1130116E+00
         25   -1    0    0    0    0  0.00000000000E+00  0.00000000000E+00  0.99999998245E-14  0.12500000000E+03  0.12500000000E+03 0.  0.
        -11    1    3    3    0    0  0.23006085625E+02 -0.12134929435E+01 -0.86054845032E+01  0.24592822219E+02  0.51100000000E-03 0. -1.
         23    2    1    0    0    0 -0.11784471229E+02 -0.27216748771E+02  0.30080044047E+02  0.82757435854E+02  0.71164309618E+02 0.  0.
         11    1    3    3    0    0 -0.34790556854E+02 -0.26003255827E+02  0.38685528550E+02  0.58164613635E+02  0.51100000000E-03 0.  1.
         22    1    1    0    0    0  0.11784471229E+02  0.27216748771E+02 -0.30080044047E+02  0.42242564146E+02  0.00000000000E+00 0.  1.
</event>
<event>
 5    1  0.1717510E-003  0.9118800E+02  0.7818608E-02  0.1130116E+00
         25   -1    0    0    0    0  0.00000000000E+00  0.00000000000E+00  0.99999998245E-14  0.12500000000E+03  0.12500000000E+03 0.  0.
        -11    1    3    3    0    0 -0.24329494937E+02  0.47631227294E+01 -0.19461726857E+02  0.31517780292E+02  0.51100000000E-03 0. -1.
         23    2    1    0    0    0 -0.65150497791E+01 -0.26846030196E+02  0.24190346193E+02  0.88280413130E+02  0.80281400602E+02 0.  0.
         11    1    3    3    0    0  0.17814445158E+02 -0.31609152926E+02  0.43652073050E+02  0.56762632839E+02  0.51100000000E-03 0.  1.
         22    1    1    0    0    0  0.65150497791E+01  0.26846030196E+02 -0.24190346193E+02  0.36719586870E+02  0.00000000000E+00 0.  1.
</event>
<event>
 5    1  0.1717510E-003  0.9118800E+02  0.7818608E-02  0.1130116E+00
         25   -1    0    0    0    0  0.00000000000E+00  0.00000000000E+00  0.99999998245E-14  0.12500000000E+03  0.12500000000E+03 0.  0.
        -11    1    3    3    0    0  0.17418172728E+02  0.39740525629E+02 -0.26250024557E+02  0.50712581358E+02  0.51100000000E-03 0. -1.
         23    2    1    0    0    0 -0.28884795876E+01 -0.39504514843E+01 -0.25641268623E+02  0.98895899980E+02  0.95388547504E+02 0.  0.
         11    1    3    3    0    0 -0.20306652316E+02 -0.43690977113E+02  0.60875593344E+00  0.48183318622E+02  0.51100000000E-03 0.  1.
         22    1    1    0    0    0  0.28884795876E+01  0.39504514843E+01  0.25641268623E+02  0.26104100020E+02  0.00000000000E+00 0. -1.
</event>
<event>
 5    1  0.1717510E-003  0.9118800E+02  0.7818608E-02  0.1130116E+00
         25   -1    0    0    0    0  0.00000000000E+00  0.00000000000E+00  0.99999998245E-14  0.12500000000E+03  0.12500000000E+03 0.  0.
        -11    1    3    3    0    0  0.33729953167E+01  0.34077643223E+02 -0.29961755024E+01  0.34374989933E+02  0.51100000000E-03 0.  1.
         23    2    1    0    0    0  0.91784592428E+01 -0.27314070585E+02 -0.28878168896E+01  0.96040682806E+02  0.91570577706E+02 0.  0.
         11    1    3    3    0    0  0.58054639261E+01 -0.61391713807E+02  0.10835861280E+00  0.61665692872E+02  0.51100000000E-03 0. -1.
         22    1    1    0    0    0 -0.91784592428E+01  0.27314070585E+02  0.28878168896E+01  0.28959317194E+02  0.00000000000E+00 0. -1.
</event>
<event>
 5    1  0.1717510E-003  0.9118800E+02  0.7818608E-02  0.1130116E+00
         25   -1    0    0    0    0  0.00000000000E+00  0.00000000000E+00  0.99999998245E-14  0.12500000000E+03  0.12500000000E+03 0.  0.
        -11    1    3    3    0    0 -0.50406190725E+02 -0.90432758009E+01  0.11686499229E+02  0.52527508652E+02  0.51100000000E-03 0. -1.
         23    2    1    0    0    0 -0.17699766837E+02  0.20726466953E+02  0.32467418843E+01  0.97551693836E+02  0.93610487975E+02 0.  0.
         11    1    3    3    0    0  0.32706423889E+02  0.29769742753E+02 -0.84397573449E+01  0.45024185184E+02  0.51100000000E-03 0.  1.
         22    1    1    0    0    0  0.17699766837E+02 -0.20726466953E+02 -0.32467418843E+01  0.27448306164E+02  0.00000000000E+00 0.  1.
</event>
<event>
 5    1  0.1717510E-003  0.9118800E+02  0.7818608E-02  0.1130116E+00
         25   -1    0    0    0    0  0.00000000000E+00  0.00000000000E+00  0.99999998245E-14  0.12500000000E+03  0.12500000000E+03 0.  0.
        -11    1    3    3    0    0  0.11703239487E+02 -0.47410235865E+02 -0.23862624584E+02  0.54351827307E+02  0.51100000000E-03 0.  1.
         23    2    1    0    0    0 -0.15922706589E+02 -0.15996434766E+02 -0.16871677868E+00  0.10242906790E+03  0.99911295537E+02 0.  0.
         11    1    3    3    0    0 -0.27625946076E+02  0.31413801099E+02  0.23693907805E+02  0.48077240597E+02  0.51100000000E-03 0. -1.
         22    1    1    0    0    0  0.15922706589E+02  0.15996434766E+02  0.16871677868E+00  0.22570932096E+02  0.00000000000E+00 0.  1.
</event>
<event>
 5    1  0.1717510E-003  0.9118800E+02  0.7818608E-02  0.1130116E+00
         25   -1    0    0    0    0  0.00000000000E+00  0.00000000000E+00  0.99999998245E-14  0.12500000000E+03  0.12500000000E+03 0.  0.
        -11    1    3    3    0    0  0.52941320243E+02 -0.17417009765E+02 -0.20224330871E+02  0.59288777839E+02  0.51100000000E-03 0. -1.
         23    2    1    0    0    0  0.22848438589E+02 -0.19160269738E+02 -0.75776979892E+00  0.95171468399E+02  0.90376252964E+02 0.  0.
         11    1    3    3    0    0 -0.30092881654E+02 -0.17432599726E+01  0.19466561072E+02  0.35882690560E+02  0.51100000000E-03 0.  1.
         22    1    1    0    0    0 -0.22848438589E+02  0.19160269738E+02  0.75776979892E+00  0.29828531601E+02  0.00000000000E+00 0. -1.
</event>
<event>
 5    1  0.1717510E-003  0.9118800E+02  0.7818608E-02  0.1130116E+00
         25   -1    0    0    0    0  0.00000000000E+00  0.00000000000E+00  0.99999998245E-14  0.12500000000E+03  0.12500000000E+03 0.  0.
        -11    1    3    3    0    0 -0.20703971838E+02 -0.13485721251E+02 -0.35152350996E+02  0.42967509915E+02  0.51100000000E-03 0.  1.
         23    2    1    0    0    0  0.21246334837E+02 -0.18922777803E+02 -0.24351664946E+01  0.96444644992E+02  0.92120362830E+02 0.  0.
         11    1    3    3    0    0  0.41950306675E+02 -0.54370565522E+01  0.32717184501E+02  0.53477135077E+02  0.51100000000E-03 0. -1.
         22    1    1    0    0    0 -0.21246334837E+02  0.18922777803E+02  0.24351664946E+01  0.28555355008E+02  0.00000000000E+00 0. -1.
</event>
<event>
 5    1  0.1717510E-003  0.9118800E+02  0.7818608E-02  0.1130116E+00
         25   -1    0    0    0    0  0.00000000000E+00  0.00000000000E+00  0.99999998245E-14  0.12500000000E+03  0.12500000000E+03 0.  0.
        -11    1    3    3    0    0  0.29933021760E+02  0.34589944271E+02 -0.19233604829E+01  0.45783723660E+02  0.51100000000E-03 0. -1.
         23    2    1    0    0    0  0.45325721082E+01 -0.15276060893E+02 -0.14848828142E+02  0.10321950543E+03  0.10089537333E+03 0.  0.
         11    1    3    3    0    0 -0.25400449651E+02 -0.49866005164E+02 -0.12925467660E+02  0.57435781774E+02  0.51100000000E-03 0.  1.
         22    1    1    0    0    0 -0.45325721082E+01  0.15276060893E+02  0.14848828142E+02  0.21780494566E+02  0.00000000000E+00 0.  1.
</event>
<event>
 5    1  0.1717510E-003  0.9118800E+02  0.7818608E-02  0.1130116E+00
         25   -1    0    0    0    0  0.00000000000E+00  0.00000000000E+00  0.99999998245E-14  0.12500000000E+03  0.12500000000E+03 0.  0.
        -11    1    3    3    0    0 -0.47872135285E+02 -0.58649039899E+01 -0.60849434625E+01  0.48612395258E+02  0.51100000000E-03 0. -1.
         23    2    1    0    0    0 -0.16207911330E+02  0.74862061373E+01  0.24547061941E+02  0.94647110155E+02  0.89648076046E+02 0.  0.
         11    1    3    3    0    0  0.31664223955E+02  0.13351110127E+02  0.30632005404E+02  0.46034714897E+02  0.51100000000E-03 0.  1.
         22    1    1    0    0    0  0.16207911330E+02 -0.74862061373E+01 -0.24547061941E+02  0.30352889845E+02  0.00000000000E+00 0. -1.
</event>
<event>
 5    1  0.1717510E-003  0.9118800E+02  0.7818608E-02  0.1130116E+00
         25   -1    0    0    0    0  0.00000000000E+00  0.00000000000E+00  0.99999998245E-14  0.12500000000E+03  0.12500000000E+03 0.  0.
        -11    1    3    3    0    0 -0.19714094187E+02 -0.25168097643E+01  0.56608940150E+02  0.59996266102E+02  0.51100000000E-03 0.  1.
         23    2    1    0    0    0  0.22898721186E+01 -0.50376460198E+01  0.29419019206E+02  0.95065069187E+02  0.90228971494E+02 0.  0.
         11    1    3    3    0    0  0.22003966306E+02 -0.25208362555E+01 -0.27189920944E+02  0.35068803085E+02  0.51100000000E-03 0. -1.
         22    1    1    0    0    0 -0.22898721186E+01  0.50376460198E+01 -0.29419019206E+02  0.29934930813E+02  0.00000000000E+00 0.  1.
</event>
<event>
 5    1  0.1717510E-003  0.9118800E+02  0.7818608E-02  0.1130116E+00
         25   -1    0    0    0    0  0.00000000000E+00  0.00000000000E+00  0.99999998245E-14  0.12500000000E+03  0.12500000000E+03 0.  0.
        -11    1    3    3    0    0  0.47147863838E+01  0.15973546698E+02  0.12139362749E+02  0.20609403994E+02  0.51100000000E-03 0.  1.
         23    2    1    0    0    0  0.28797566945E+02 -0.34878908885E+02  0.16034858393E+02  0.77010888416E+02  0.60230574495E+02 0.  0.
         11    1    3    3    0    0  0.24082780562E+02 -0.50852455583E+02  0.38954956432E+01  0.56401484422E+02  0.51100000000E-03 0. -1.
         22    1    1    0    0    0 -0.28797566945E+02  0.34878908885E+02 -0.16034858393E+02  0.47989111584E+02  0.00000000000E+00 0. -1.
</event>
<event>
 5    1  0.1717510E-003  0.9118800E+02  0.7818608E-02  0.1130116E+00
         25   -1    0    0    0    0  0.00000000000E+00  0.00000000000E+00  0.99999998245E-14  0.12500000000E+03  0.12500000000E+03 0.  0.
        -11    1    3    3    0    0  0.38998954289E+02  0.90121386268E+01  0.47397926017E+02  0.62037895429E+02  0.51100000000E-03 0.  1.
         23    2    1    0    0    0  0.13840994293E+02  0.76674289135E+01  0.22791376503E+02  0.97254560158E+02  0.93212874859E+02 0.  0.
         11    1    3    3    0    0 -0.25157959996E+02 -0.13447097133E+01 -0.24606549514E+02  0.35216664729E+02  0.51100000000E-03 0. -1.
         22    1    1    0    0    0 -0.13840994293E+02 -0.76674289135E+01 -0.22791376503E+02  0.27745439842E+02  0.00000000000E+00 0.  1.
</event>
<event>
 5    1  0.1717510E-003  0.9118800E+02  0.7818608E-02  0.1130116E+00
         25   -1    0    0    0    0  0.00000000000E+00  0.00000000000E+00  0.99999998245E-14  0.12500000000E+03  0.12500000000E+03 0.  0.
        -11    1    3    3    0    0  0.37267037579E+02  0.28601084196E+02  0.30245621109E+02  0.55871743338E+02  0.51100000000E-03 0.  1.
         23    2    1    0    0    0  0.59475733138E+01  0.24000002336E+01  0.27460490402E+02  0.96800493576E+02  0.92601962149E+02 0.  0.
         11    1    3    3    0    0 -0.31319464265E+02 -0.26201083963E+02 -0.27851307068E+01  0.40928750237E+02  0.51100000000E-03 0. -1.
         22    1    1    0    0    0 -0.59475733138E+01 -0.24000002336E+01 -0.27460490402E+02  0.28199506424E+02  0.00000000000E+00 0.  1.
</event>
<event>
 5    1  0.1717510E-003  0.9118800E+02  0.7818608E-02  0.1130116E+00
         25   -1    0    0    0    0  0.00000000000E+00  0.00000000000E+00  0.99999998245E-14  0.12500000000E+03  0.12500000000E+03 0.  0.
        -11    1    3    3    0    0  0.15998601137E+02  0.24818440100E+02  0.20079008684E+02  0.35708217504E+02  0.51100000000E-03 0. -1.
         23    2    1    0    0    0 -0.85346414681E+01 -0.73460375774E+01 -0.25785050798E+02  0.96863311891E+02  0.92686719506E+02 0.  0.
         11    1    3    3    0    0 -0.24533242605E+02 -0.32164477677E+02 -0.45864059483E+02  0.61155094387E+02  0.51100000000E-03 0.  1.
         22    1    1    0    0    0  0.85346414681E+01  0.73460375774E+01  0.25785050798E+02  0.28136688109E+02  0.00000000000E+00 0.  1.
</event>
<event>
 5    1  0.1717510E-003  0.9118800E+02  0.7818608E-02  0.1130116E+00
         25   -1    0    0    0    0  0.00000000000E+00  0.00000000000E+00  0.99999998245E-14  0.12500000000E+03  0.12500000000E+03 0.  0.
        -11    1    3    3    0    0 -0.29267917600E+02 -0.43196769434E+01 -0.15037833032E+02  0.33187452932E+02  0.51100000000E-03 0. -1.
         23    2    1    0    0    0  0.25665243750E+02 -0.11607147128E+02  0.11433692361E+02  0.94600001279E+02  0.89582366121E+02 0.  0.
         11    1    3    3    0    0  0.54933161350E+02 -0.72874701844E+01  0.26471525393E+02  0.61412548347E+02  0.51100000000E-03 0.  1.
         22    1    1    0    0    0 -0.25665243750E+02  0.11607147128E+02 -0.11433692361E+02  0.30399998721E+02  0.00000000000E+00 0.  1.
</event>
<event>
 5    1  0.1717510E-003  0.9118800E+02  0.7818608E-02  0.1130116E+00
         25   -1    0    0    0    0  0.00000000000E+00  0.00000000000E+00  0.99999998245E-14  0.12500000000E+03  0.12500000000E+03 0.  0.
        -11    1    3    3    0    0  0.86390196698E+01 -0.20773002293E+02  0.19975111340E+02  0.30085799946E+02  0.51100000000E-03 0.  1.
         23    2    1    0    0    0 -0.27157304833E+01  0.31919029967E+02  0.25202332396E+02  0.84240249948E+02  0.73722876280E+02 0.  0.
         11    1    3    3    0    0 -0.11354750153E+02  0.52692032260E+02  0.52272210565E+01  0.54154450002E+02  0.51100000000E-03 0. -1.
         22    1    1    0    0    0  0.27157304833E+01 -0.31919029967E+02 -0.25202332396E+02  0.40759750052E+02  0.00000000000E+00 0. -1.
</event>
<event>
 5    1  0.1717510E-003  0.9118800E+02  0.7818608E-02  0.1130116E+00
         25   -1    0    0    0    0  0.00000000000E+00  0.00000000000E+00  0.99999998245E-14  0.12500000000E+03  0.12500000000E+03 0.  0.
        -11    1    3    3    0    0 -0.10622620745E+02 -0.40250686421E+02  0.24728694566E+02  0.48419687773E+02  0.51100000000E-03 0. -1.
         23    2    1    0    0    0 -0.23705255899E+01 -0.21277476173E+02 -0.18731289236E+02  0.96553355553E+02  0.92267756493E+02 0.  0.
         11    1    3    3    0    0  0.82520951554E+01  0.18973210248E+02 -0.43459983802E+02  0.48133667780E+02  0.51100000000E-03 0.  1.
         22    1    1    0    0    0  0.23705255899E+01  0.21277476173E+02  0.18731289236E+02  0.28446644447E+02  0.00000000000E+00 0.  1.
</event>
<event>
 5    1  0.1717510E-003  0.9118800E+02  0.7818608E-02  0.1130116E+00
         25   -1    0    0    0    0  0.00000000000E+00  0.00000000000E+00  0.99999998245E-14  0.12500000000E+03  0.12500000000E+03 0.  0.
        -11    1    3    3    0    0 -0.21759039088E+02 -0.82749185377E+01  0.52290052429E+02  0.57237921365E+02  0.51100000000E-03 0.  1.
         23    2    1    0    0    0 -0.21865972193E+02  0.84998391764E+01  0.17934837989E+02  0.95469906541E+02  0.90788086417E+02 0.  0.
         11    1    3    3    0    0 -0.10693310514E+00  0.16774757714E+02 -0.34355214440E+02  0.38231985176E+02  0.51100000000E-03 0. -1.
         22    1    1    0    0    0  0.21865972193E+02 -0.84998391764E+01 -0.17934837989E+02  0.29530093459E+02  0.00000000000E+00 0.  1.
</event>
<event>
 5    1  0.1717510E-003  0.9118800E+02  0.7818608E-02  0.1130116E+00
         25   -1    0    0    0    0  0.00000000000E+00  0.00000000000E+00  0.99999998245E-14  0.12500000000E+03  0.12500000000E+03 0.  0.
        -11    1    3    3    0    0 -0.16315443040E+02  0.12657811966E+02 -0.52997688925E+02  0.56878545313E+02  0.51100000000E-03 0.  1.
         23    2    1    0    0    0 -0.23824607819E+02  0.59807127891E+01 -0.14919494392E+02  0.96260268336E+02  0.91869837728E+02 0.  0.
         11    1    3    3    0    0 -0.75091647789E+01 -0.66770991769E+01  0.38078194533E+02  0.39381723023E+02  0.51100000000E-03 0. -1.
         22    1    1    0    0    0  0.23824607819E+02 -0.59807127891E+01  0.14919494392E+02  0.28739731664E+02  0.00000000000E+00 0.  1.
</event>
<event>
 5    1  0.1717510E-003  0.9118800E+02  0.7818608E-02  0.1130116E+00
         25   -1    0    0    0    0  0.00000000000E+00  0.00000000000E+00  0.99999998245E-14  0.12500000000E+03  0.12500000000E+03 0.  0.
        -11    1    3    3    0    0 -0.78447422803E+01 -0.18430316673E+02  0.26643516283E+02  0.33333069380E+02  0.51100000000E-03 0.  1.
         23    2    1    0    0    0  0.21101758622E+00  0.16474068795E+02 -0.24318875447E+02  0.95625739599E+02  0.91002389528E+02 0.  0.
         11    1    3    3    0    0  0.80557598666E+01  0.34904385468E+02 -0.50962391730E+02  0.62292670219E+02  0.51100000000E-03 0. -1.
         22    1    1    0    0    0 -0.21101758622E+00 -0.16474068795E+02  0.24318875447E+02  0.29374260401E+02  0.00000000000E+00 0. -1.
</event>
<event>
 5    1  0.1717510E-003  0.9118800E+02  0.7818608E-02  0.1130116E+00
         25   -1    0    0    0    0  0.00000000000E+00  0.00000000000E+00  0.99999998245E-14  0.12500000000E+03  0.12500000000E+03 0.  0.
        -11    1    3    3    0    0  0.49049152800E+01 -0.30841372479E+02  0.29034408422E+02  0.42640887924E+02  0.51100000000E-03 0. -1.
         23    2    1    0    0    0 -0.18752845675E+02  0.15512341957E+02  0.14485113441E+02  0.96678268321E+02  0.92436827510E+02 0.  0.
         11    1    3    3    0    0 -0.23657760955E+02  0.46353714436E+02 -0.14549294981E+02  0.54037380396E+02  0.51100000000E-03 0.  1.
         22    1    1    0    0    0  0.18752845675E+02 -0.15512341957E+02 -0.14485113441E+02  0.28321731679E+02  0.00000000000E+00 0.  1.
</event>
<event>
 5    1  0.1717510E-003  0.9118800E+02  0.7818608E-02  0.1130116E+00
         25   -1    0    0    0    0  0.00000000000E+00  0.00000000000E+00  0.99999998245E-14  0.12500000000E+03  0.12500000000E+03 0.  0.
        -11    1    3    3    0    0 -0.34335407716E+02 -0.29240089632E+01  0.24898422959E+02  0.42513545107E+02  0.51100000000E-03 0.  1.
         23    2    1    0    0    0 -0.93616127311E+01 -0.17739100299E+02 -0.20445699450E+02  0.96358385200E+02  0.92003240704E+02 0.  0.
         11    1    3    3    0    0  0.24973794985E+02 -0.14815091336E+02 -0.45344122410E+02  0.53844840093E+02  0.51100000000E-03 0. -1.
         22    1    1    0    0    0  0.93616127311E+01  0.17739100299E+02  0.20445699450E+02  0.28641614800E+02  0.00000000000E+00 0. -1.
</event>
<event>
 5    1  0.1717510E-003  0.9118800E+02  0.7818608E-02  0.1130116E+00
         25   -1    0    0    0    0  0.00000000000E+00  0.00000000000E+00  0.99999998245E-14  0.12500000000E+03  0.12500000000E+03 0.  0.
        -11    1    3    3    0    0  0.21361171903E+02  0.48245609538E+02  0.23206165438E+02  0.57640824243E+02  0.51100000000E-03 0.  1.
         23    2    1    0    0    0  0.22416086499E+02  0.98603687376E+01  0.12501074341E+02  0.97504824691E+02  0.93547881712E+02 0.  0.
         11    1    3    3    0    0  0.10549145964E+01 -0.38385240801E+02 -0.10705091097E+02  0.39864000449E+02  0.51100000000E-03 0. -1.
         22    1    1    0    0    0 -0.22416086499E+02 -0.98603687376E+01 -0.12501074341E+02  0.27495175309E+02  0.00000000000E+00 0.  1.
</event>
<event>
 5    1  0.1717510E-003  0.9118800E+02  0.7818608E-02  0.1130116E+00
         25   -1    0    0    0    0  0.00000000000E+00  0.00000000000E+00  0.99999998245E-14  0.12500000000E+03  0.12500000000E+03 0.  0.
        -11    1    3    3    0    0 -0.75759792980E+01 -0.24344430760E+02 -0.32613518322E+02  0.41396719060E+02  0.51100000000E-03 0.  1.
         23    2    1    0    0    0 -0.31481646974E+02  0.30068601935E+01  0.41788055850E+01  0.93100192469E+02  0.87464553490E+02 0.  0.
         11    1    3    3    0    0 -0.23905667676E+02  0.27351290953E+02  0.36792323907E+02  0.51703473409E+02  0.51100000000E-03 0. -1.
         22    1    1    0    0    0  0.31481646974E+02 -0.30068601935E+01 -0.41788055850E+01  0.31899807531E+02  0.00000000000E+00 0.  1.
</event>
<event>
 5    1  0.1717510E-003  0.9118800E+02  0.7818608E-02  0.1130116E+00
         25   -1    0    0    0    0  0.00000000000E+00  0.00000000000E+00  0.99999998245E-14  0.12500000000E+03  0.12500000000E+03 0.  0.
        -11    1    3    3    0    0 -0.11675799022E+02 -0.25171074913E+02 -0.35692973482E+02  0.45209464178E+02  0.51100000000E-03 0.  1.
         23    2    1    0    0    0 -0.28035971700E+02  0.59919134248E+01  0.13396361084E+01  0.96299593025E+02  0.91923328139E+02 0.  0.
         11    1    3    3    0    0 -0.16360172678E+02  0.31162988338E+02  0.37032609590E+02  0.51090128846E+02  0.51100000000E-03 0. -1.
         22    1    1    0    0    0  0.28035971700E+02 -0.59919134248E+01 -0.13396361084E+01  0.28700406975E+02  0.00000000000E+00 0. -1.
</event>
<event>
 5    1  0.1717510E-003  0.9118800E+02  0.7818608E-02  0.1130116E+00
         25   -1    0    0    0    0  0.00000000000E+00  0.00000000000E+00  0.99999998245E-14  0.12500000000E+03  0.12500000000E+03 0.  0.
        -11    1    3    3    0    0 -0.10825087533E+02  0.38757065074E+02  0.46894922330E+02  0.61793416752E+02  0.51100000000E-03 0.  1.
         23    2    1    0    0    0  0.17778286313E+01  0.17792209361E+02  0.21102135341E+02  0.97340941727E+02  0.93328642076E+02 0.  0.
         11    1    3    3    0    0  0.12602916164E+02 -0.20964855713E+02 -0.25792786989E+02  0.35547524975E+02  0.51100000000E-03 0. -1.
         22    1    1    0    0    0 -0.17778286313E+01 -0.17792209361E+02 -0.21102135341E+02  0.27659058273E+02  0.00000000000E+00 0.  1.
</event>
<event>
 5    1  0.1717510E-003  0.9118800E+02  0.7818608E-02  0.1130116E+00
         25   -1    0    0    0    0  0.00000000000E+00  0.00000000000E+00  0.99999998245E-14  0.12500000000E+03  0.12500000000E+03 0.  0.
        -11    1    3    3    0    0 -0.18620998806E+02  0.40383538740E+02 -0.43714598280E+02  0.62358142217E+02  0.51100000000E-03 0. -1.
         23    2    1    0    0    0 -0.72930194067E+01  0.14435827671E+02 -0.19913606696E+02  0.99345897321E+02  0.95976425909E+02 0.  0.
         11    1    3    3    0    0  0.11327979400E+02 -0.25947711069E+02  0.23800991584E+02  0.36987755104E+02  0.51100000000E-03 0.  1.
         22    1    1    0    0    0  0.72930194067E+01 -0.14435827671E+02  0.19913606696E+02  0.25654102679E+02  0.00000000000E+00 0. -1.
</event>
<event>
 5    1  0.1717510E-003  0.9118800E+02  0.7818608E-02  0.1130116E+00
         25   -1    0    0    0    0  0.00000000000E+00  0.00000000000E+00  0.99999998245E-14  0.12500000000E+03  0.12500000000E+03 0.  0.
        -11    1    3    3    0    0 -0.11323110117E+01 -0.14787473667E+01  0.40722695744E+02  0.40765264269E+02  0.51100000000E-03 0.  1.
         23    2    1    0    0    0  0.71379100522E+01 -0.26443912377E+02 -0.82853165071E+01  0.96383977716E+02  0.92038005352E+02 0.  0.
         11    1    3    3    0    0  0.82702210638E+01 -0.24965165010E+02 -0.49008012251E+02  0.55618713447E+02  0.51100000000E-03 0. -1.
         22    1    1    0    0    0 -0.71379100522E+01  0.26443912377E+02  0.82853165071E+01  0.28616022284E+02  0.00000000000E+00 0. -1.
</event>
<event>
 5    1  0.1717510E-003  0.9118800E+02  0.7818608E-02  0.1130116E+00
         25   -1    0    0    0    0  0.00000000000E+00  0.00000000000E+00  0.99999998245E-14  0.12500000000E+03  0.12500000000E+03 0.  0.
        -11    1    3    3    0    0  0.27902282778E+02 -0.25556384858E+01  0.16600094722E+02  0.32567342805E+02  0.51100000000E-03 0. -1.
         23    2    1    0    0    0 -0.25732651175E+02  0.14520074299E+02 -0.85836566041E+01  0.94231817492E+02  0.89067134079E+02 0.  0.
         11    1    3    3    0    0 -0.53634933954E+02  0.17075712784E+02 -0.25183751326E+02  0.61664474687E+02  0.51100000000E-03 0.  1.
         22    1    1    0    0    0  0.25732651175E+02 -0.14520074299E+02  0.85836566041E+01  0.30768182508E+02  0.00000000000E+00 0.  1.
</event>
<event>
 5    1  0.1717510E-003  0.9118800E+02  0.7818608E-02  0.1130116E+00
         25   -1    0    0    0    0  0.00000000000E+00  0.00000000000E+00  0.99999998245E-14  0.12500000000E+03  0.12500000000E+03 0.  0.
        -11    1    3    3    0    0 -0.17126168949E+02 -0.14645517624E+02  0.32493911032E+02  0.39543028511E+02  0.51100000000E-03 0. -1.
         23    2    1    0    0    0  0.28859601122E+02 -0.18443794629E+01  0.23771101432E+01  0.95983987780E+02  0.91493152449E+02 0.  0.
         11    1    3    3    0    0  0.45985770071E+02  0.12801138161E+02 -0.30116800889E+02  0.56440959270E+02  0.51100000000E-03 0.  1.
         22    1    1    0    0    0 -0.28859601122E+02  0.18443794629E+01 -0.23771101432E+01  0.29016012220E+02  0.00000000000E+00 0.  1.
</event>
<event>
 5    1  0.1717510E-003  0.9118800E+02  0.7818608E-02  0.1130116E+00
         25   -1    0    0    0    0  0.00000000000E+00  0.00000000000E+00  0.99999998245E-14  0.12500000000E+03  0.12500000000E+03 0.  0.
        -11    1    3    3    0    0 -0.41615434952E+02 -0.70300019555E+01 -0.16419379564E+02  0.45286437034E+02  0.51100000000E-03 0. -1.
         23    2    1    0    0    0 -0.49271140635E+01 -0.32630248315E+02 -0.37213193426E+01  0.91790697451E+02  0.85572626247E+02 0.  0.
         11    1    3    3    0    0  0.36688320888E+02 -0.25600246360E+02  0.12698060222E+02  0.46504260417E+02  0.51100000000E-03 0.  1.
         22    1    1    0    0    0  0.49271140635E+01  0.32630248315E+02  0.37213193426E+01  0.33209302549E+02  0.00000000000E+00 0.  1.
</event>
<event>
 5    1  0.1717510E-003  0.9118800E+02  0.7818608E-02  0.1130116E+00
         25   -1    0    0    0    0  0.00000000000E+00  0.00000000000E+00  0.99999998245E-14  0.12500000000E+03  0.12500000000E+03 0.  0.
        -11    1    3    3    0    0  0.36017400969E+02  0.21684146265E+02  0.93634542837E+01  0.43071216006E+02  0.51100000000E-03 0. -1.
         23    2    1    0    0    0 -0.43461027481E+01 -0.88079892927E+01  0.26703872384E+02  0.96547125193E+02  0.92259315509E+02 0.  0.
         11    1    3    3    0    0 -0.40363503718E+02 -0.30492135557E+02  0.17340418101E+02  0.53475909187E+02  0.51100000000E-03 0.  1.
         22    1    1    0    0    0  0.43461027481E+01  0.88079892927E+01 -0.26703872384E+02  0.28452874807E+02  0.00000000000E+00 0.  1.
</event>
<event>
 5    1  0.1717510E-003  0.9118800E+02  0.7818608E-02  0.1130116E+00
         25   -1    0    0    0    0  0.00000000000E+00  0.00000000000E+00  0.99999998245E-14  0.12500000000E+03  0.12500000000E+03 0.  0.
        -11    1    3    3    0    0 -0.18114043543E+02 -0.22552313375E+02  0.49072190622E+02  0.56963192544E+02  0.51100000000E-03 0. -1.
         23    2    1    0    0    0  0.18422198758E+01 -0.26149078668E+02  0.22063617576E+02  0.90736735272E+02  0.84018949161E+02 0.  0.
         11    1    3    3    0    0  0.19956263418E+02 -0.35967652925E+01 -0.27008573046E+02  0.33773542729E+02  0.51100000000E-03 0.  1.
         22    1    1    0    0    0 -0.18422198758E+01  0.26149078668E+02 -0.22063617576E+02  0.34263264728E+02  0.00000000000E+00 0. -1.
</event>
<event>
 5    1  0.1717510E-003  0.9118800E+02  0.7818608E-02  0.1130116E+00
         25   -1    0    0    0    0  0.00000000000E+00  0.00000000000E+00  0.99999998245E-14  0.12500000000E+03  0.12500000000E+03 0.  0.
        -11    1    3    3    0    0 -0.58650595806E+02 -0.31236280333E+01 -0.12553742036E+02  0.60060351979E+02  0.51100000000E-03 0. -1.
         23    2    1    0    0    0 -0.26891691084E+02  0.10823882266E+02 -0.68588977081E+01  0.95211345206E+02  0.90431390023E+02 0.  0.
         11    1    3    3    0    0  0.31758904721E+02  0.13947510299E+02  0.56948443282E+01  0.35150993227E+02  0.51100000000E-03 0.  1.
         22    1    1    0    0    0  0.26891691084E+02 -0.10823882266E+02  0.68588977081E+01  0.29788654794E+02  0.00000000000E+00 0. -1.
</event>
<event>
 5    1  0.1717510E-003  0.9118800E+02  0.7818608E-02  0.1130116E+00
         25   -1    0    0    0    0  0.00000000000E+00  0.00000000000E+00  0.99999998245E-14  0.12500000000E+03  0.12500000000E+03 0.  0.
        -11    1    3    3    0    0  0.39919615724E+02 -0.36678863026E+02  0.73152875204E+01  0.54703090811E+02  0.51100000000E-03 0. -1.
         23    2    1    0    0    0  0.16074377530E+02 -0.12700850422E+02 -0.18617104720E+02  0.97317987744E+02  0.93297893523E+02 0.  0.
         11    1    3    3    0    0 -0.23845238195E+02  0.23978012605E+02 -0.25932392240E+02  0.42614896933E+02  0.51100000000E-03 0.  1.
         22    1    1    0    0    0 -0.16074377530E+02  0.12700850422E+02  0.18617104720E+02  0.27682012256E+02  0.00000000000E+00 0. -1.
</event>
<event>
 5    1  0.1717510E-003  0.9118800E+02  0.7818608E-02  0.1130116E+00
         25   -1    0    0    0    0  0.00000000000E+00  0.00000000000E+00  0.99999998245E-14  0.12500000000E+03  0.12500000000E+03 0.  0.
        -11    1    3    3    0    0  0.11290135640E+02 -0.40576700180E+02 -0.22264852183E+02  0.47640942510E+02  0.51100000000E-03 0.  1.
         23    2    1    0    0    0 -0.98440716407E+01 -0.21550323022E+02  0.16797094897E+02  0.95957538572E+02  0.91457009808E+02 0.  0.
         11    1    3    3    0    0 -0.21134207281E+02  0.19026377157E+02  0.39061947079E+02  0.48316596062E+02  0.51100000000E-03 0. -1.
         22    1    1    0    0    0  0.98440716407E+01  0.21550323022E+02 -0.16797094897E+02  0.29042461428E+02  0.00000000000E+00 0. -1.
</event>
<event>
 5    1  0.1717510E-003  0.9118800E+02  0.7818608E-02  0.1130116E+00
         25   -1    0    0    0    0  0.00000000000E+00  0.00000000000E+00  0.99999998245E-14  0.12500000000E+03  0.12500000000E+03 0.  0.
        -11    1    3    3    0    0  0.15243245295E+02  0.46576727501E+02  0.36388212113E+01  0.49142538517E+02  0.51100000000E-03 0.  1.
         23    2    1    0    0    0 -0.66857619783E+01  0.17073408187E+02 -0.23758084698E+02  0.94989214124E+02  0.90123823327E+02 0.  0.
         11    1    3    3    0    0 -0.21929007274E+02 -0.29503319314E+02 -0.27396905909E+02  0.45846675607E+02  0.51100000000E-03 0. -1.
         22    1    1    0    0    0  0.66857619783E+01 -0.17073408187E+02  0.23758084698E+02  0.30010785876E+02  0.00000000000E+00 0.  1.
</event>
<event>
 5    1  0.1717510E-003  0.9118800E+02  0.7818608E-02  0.1130116E+00
         25   -1    0    0    0    0  0.00000000000E+00  0.00000000000E+00  0.99999998245E-14  0.12500000000E+03  0.12500000000E+03 0.  0.
        -11    1    3    3    0    0 -0.21705366121E+02 -0.19684497552E+01 -0.43037309605E+02  0.48241141479E+02  0.51100000000E-03 0. -1.
         23    2    1    0    0    0 -0.15176536675E+02  0.24815505766E+02 -0.45886529560E+01  0.95551870555E+02  0.90900867095E+02 0.  0.
         11    1    3    3    0    0  0.65288294458E+01  0.26783955522E+02  0.38448656649E+02  0.47310729076E+02  0.51100000000E-03 0.  1.
         22    1    1    0    0    0  0.15176536675E+02 -0.24815505766E+02  0.45886529560E+01  0.29448129445E+02  0.00000000000E+00 0. -1.
</event>
<event>
 5    1  0.1717510E-003  0.9118800E+02  0.7818608E-02  0.1130116E+00
         25   -1    0    0    0    0  0.00000000000E+00  0.00000000000E+00  0.99999998245E-14  0.12500000000E+03  0.12500000000E+03 0.  0.
        -11    1    3    3    0    0  0.20643667163E+02  0.42792887371E+02 -0.40601512029E+02  0.62496999790E+02  0.51100000000E-03 0.  1.
         23    2    1    0    0    0  0.96438252182E+01  0.19438537076E+02 -0.18071170355E+02  0.96761244955E+02  0.92548966709E+02 0.  0.
         11    1    3    3    0    0 -0.10999841944E+02 -0.23354350295E+02  0.22530341674E+02  0.34264245165E+02  0.51100000000E-03 0. -1.
         22    1    1    0    0    0 -0.96438252182E+01 -0.19438537076E+02  0.18071170355E+02  0.28238755045E+02  0.00000000000E+00 0.  1.
</event>
<event>
 5    1  0.1717510E-003  0.9118800E+02  0.7818608E-02  0.1130116E+00
         25   -1    0    0    0    0  0.00000000000E+00  0.00000000000E+00  0.99999998245E-14  0.12500000000E+03  0.12500000000E+03 0.  0.
        -11    1    3    3    0    0  0.15338541941E+02  0.35823940923E+02  0.41743617485E+02  0.57106525136E+02  0.51100000000E-03 0. -1.
         23    2    1    0    0    0  0.45057032798E+01  0.10343842912E+01  0.28887166548E+02  0.95745261853E+02  0.91166416312E+02 0.  0.
         11    1    3    3    0    0 -0.10832838662E+02 -0.34789556632E+02 -0.12856450937E+02  0.38638736716E+02  0.51100000000E-03 0.  1.
         22    1    1    0    0    0 -0.45057032798E+01 -0.10343842912E+01 -0.28887166548E+02  0.29254738147E+02  0.00000000000E+00 0. -1.
</event>
<event>
 5    1  0.1717510E-003  0.9118800E+02  0.7818608E-02  0.1130116E+00
         25   -1    0    0    0    0  0.00000000000E+00  0.00000000000E+00  0.99999998245E-14  0.12500000000E+03  0.12500000000E+03 0.  0.
        -11    1    3    3    0    0  0.59219465018E+01 -0.18366086757E+02 -0.34076294479E+02  0.39160904469E+02  0.51100000000E-03 0. -1.
         23    2    1    0    0    0  0.25744206919E+02  0.53350289582E+01  0.13155438528E+02  0.95601151609E+02  0.90968609433E+02 0.  0.
         11    1    3    3    0    0  0.19822260417E+02  0.23701115715E+02  0.47231733007E+02  0.56440247140E+02  0.51100000000E-03 0.  1.
         22    1    1    0    0    0 -0.25744206919E+02 -0.53350289582E+01 -0.13155438528E+02  0.29398848391E+02  0.00000000000E+00 0.  1.
</event>
<event>
 5    1  0.1717510E-003  0.9118800E+02  0.7818608E-02  0.1130116E+00
         25   -1    0    0    0    0  0.00000000000E+00  0.00000000000E+00  0.99999998245E-14  0.12500000000E+03  0.12500000000E+03 0.  0.
        -11    1    3    3    0    0  0.21189824753E+02  0.66450534211E+01  0.27664339346E+02  0.35475076882E+02  0.51100000000E-03 0.  1.
         23    2    1    0    0    0 -0.23609601714E+02  0.17178272209E+02 -0.91423407130E+01  0.94404432954E+02  0.89309060226E+02 0.  0.
         11    1    3    3    0    0 -0.44799426468E+02  0.10533218788E+02 -0.36806680059E+02  0.58929356072E+02  0.51100000000E-03 0. -1.
         22    1    1    0    0    0  0.23609601714E+02 -0.17178272209E+02  0.91423407130E+01  0.30595567046E+02  0.00000000000E+00 0.  1.
</event>
<event>
 5    1  0.1717510E-003  0.9118800E+02  0.7818608E-02  0.1130116E+00
         25   -1    0    0    0    0  0.00000000000E+00  0.00000000000E+00  0.99999998245E-14  0.12500000000E+03  0.12500000000E+03 0.  0.
        -11    1    3    3    0    0 -0.31179792182E+02 -0.21692084557E+02 -0.12893310625E+02  0.40111886418E+02  0.51100000000E-03 0.  1.
         23    2    1    0    0    0  0.23729579803E+02 -0.15824435430E+02 -0.68768630476E+01  0.95660658500E+02  0.91050341158E+02 0.  0.
         11    1    3    3    0    0  0.54909371985E+02  0.58676491269E+01  0.60164475778E+01  0.55548772081E+02  0.51100000000E-03 0. -1.
         22    1    1    0    0    0 -0.23729579803E+02  0.15824435430E+02  0.68768630476E+01  0.29339341500E+02  0.00000000000E+00 0. -1.
</event>
<event>
 5    1  0.1717510E-003  0.9118800E+02  0.7818608E-02  0.1130116E+00
         25   -1    0    0    0    0  0.00000000000E+00  0.00000000000E+00  0.99999998245E-14  0.12500000000E+03  0.12500000000E+03 0.  0.
        -11    1    3    3    0    0  0.38231364791E+02  0.54046346759E+01  0.84876818581E+01  0.39533379230E+02  0.51100000000E-03 0.  1.
         23    2    1    0    0    0 -0.53584122039E+01  0.62787952084E+01 -0.27639034777E+02  0.96154686793E+02  0.91726068804E+02 0.  0.
         11    1    3    3    0    0 -0.43589776995E+02  0.87416053244E+00 -0.36126716635E+02  0.56621307563E+02  0.51100000000E-03 0. -1.
         22    1    1    0    0    0  0.53584122039E+01 -0.62787952084E+01  0.27639034777E+02  0.28845313207E+02  0.00000000000E+00 0. -1.
</event>
<event>
 5    1  0.1717510E-003  0.9118800E+02  0.7818608E-02  0.1130116E+00
         25   -1    0    0    0    0  0.00000000000E+00  0.00000000000E+00  0.99999998245E-14  0.12500000000E+03  0.12500000000E+03 0.  0.
        -11    1    3    3    0    0 -0.53115950093E+02  0.14426088477E+02  0.25255942314E+01  0.55098047239E+02  0.51100000000E-03 0. -1.
         23    2    1    0    0    0 -0.16250462439E+02  0.15964845058E+02  0.18836870310E+02  0.95440204833E+02  0.90747182922E+02 0.  0.
         11    1    3    3    0    0  0.36865487654E+02  0.15387565804E+01  0.16311276079E+02  0.40342157594E+02  0.51100000000E-03 0.  1.
         22    1    1    0    0    0  0.16250462439E+02 -0.15964845058E+02 -0.18836870310E+02  0.29559795167E+02  0.00000000000E+00 0. -1.
</event>
<event>
 5    1  0.1717510E-003  0.9118800E+02  0.7818608E-02  0.1130116E+00
         25   -1    0    0    0    0  0.00000000000E+00  0.00000000000E+00  0.99999998245E-14  0.12500000000E+03  0.12500000000E+03 0.  0.
        -11    1    3    3    0    0 -0.14637593557E+02 -0.28168164091E+02  0.11440298722E+02  0.33742925904E+02  0.51100000000E-03 0.  1.
         23    2    1    0    0    0  0.90987450187E+01  0.26735432486E+02  0.13722489979E+02  0.93601317824E+02  0.88177828597E+02 0.  0.
         11    1    3    3    0    0  0.23736338576E+02  0.54903596577E+02  0.22821912568E+01  0.59858391921E+02  0.51100000000E-03 0. -1.
         22    1    1    0    0    0 -0.90987450187E+01 -0.26735432486E+02 -0.13722489979E+02  0.31398682176E+02  0.00000000000E+00 0. -1.
</event>
<event>
 5    1  0.1717510E-003  0.9118800E+02  0.7818608E-02  0.1130116E+00
         25   -1    0    0    0    0  0.00000000000E+00  0.00000000000E+00  0.99999998245E-14  0.12500000000E+03  0.12500000000E+03 0.  0.
        -11    1    3    3    0    0 -0.50181718795E+02 -0.31364423261E+02 -0.19821099249E+02  0.62408396257E+02  0.51100000000E-03 0. -1.
         23    2    1    0    0    0 -0.22035342879E+02 -0.16517404819E+02 -0.86406564970E+01  0.96137534020E+02  0.91702690827E+02 0.  0.
         11    1    3    3    0    0  0.28146375916E+02  0.14847018441E+02  0.11180442752E+02  0.33729137762E+02  0.51100000000E-03 0.  1.
         22    1    1    0    0    0  0.22035342879E+02  0.16517404819E+02  0.86406564970E+01  0.28862465980E+02  0.00000000000E+00 0. -1.
</event>
<event>
 5    1  0.1717510E-003  0.9118800E+02  0.7818608E-02  0.1130116E+00
         25   -1    0    0    0    0  0.00000000000E+00  0.00000000000E+00  0.99999998245E-14  0.12500000000E+03  0.12500000000E+03 0.  0.
        -11    1    3    3    0    0 -0.16826475195E+02  0.22654742020E+02 -0.18742416325E+01  0.28282156662E+02  0.51100000000E-03 0.  1.
         23    2    1    0    0    0  0.17167377892E+02 -0.22309359760E+02  0.21775787767E+02  0.89410516589E+02  0.82022125962E+02 0.  0.
         11    1    3    3    0    0  0.33993853087E+02 -0.44964101780E+02  0.23650029399E+02  0.61128359927E+02  0.51100000000E-03 0. -1.
         22    1    1    0    0    0 -0.17167377892E+02  0.22309359760E+02 -0.21775787767E+02  0.35589483411E+02  0.00000000000E+00 0. -1.
</event>
<event>
 5    1  0.1717510E-003  0.9118800E+02  0.7818608E-02  0.1130116E+00
         25   -1    0    0    0    0  0.00000000000E+00  0.00000000000E+00  0.99999998245E-14  0.12500000000E+03  0.12500000000E+03 0.  0.
        -11    1    3    3    0    0 -0.24895560498E+02  0.36727156599E+02 -0.39690776272E+02  0.59531761991E+02  0.51100000000E-03 0. -1.
         23    2    1    0    0    0 -0.85168349951E+01  0.50772560280E+01 -0.25050397642E+02  0.98058629784E+02  0.94284979959E+02 0.  0.
         11    1    3    3    0    0  0.16378725503E+02 -0.31649900571E+02  0.14640378630E+02  0.38526867793E+02  0.51100000000E-03 0.  1.
         22    1    1    0    0    0  0.85168349951E+01 -0.50772560280E+01  0.25050397642E+02  0.26941370216E+02  0.00000000000E+00 0. -1.
</event>
<event>
 5    1  0.1717510E-003  0.9118800E+02  0.7818608E-02  0.1130116E+00
         25   -1    0    0    0    0  0.00000000000E+00  0.00000000000E+00  0.99999998245E-14  0.12500000000E+03  0.12500000000E+03 0.  0.
        -11    1    3    3    0    0 -0.50425387204E+02 -0.19386573375E+02  0.30533406322E+02  0.62055199652E+02  0.51100000000E-03 0.  1.
         23    2    1    0    0    0 -0.20206372608E+02 -0.10499513383E+02  0.18070005695E+02  0.95930043325E+02  0.91419422615E+02 0.  0.
         11    1    3    3    0    0  0.30219014596E+02  0.88870599923E+01 -0.12463400626E+02  0.33874843674E+02  0.51100000000E-03 0. -1.
         22    1    1    0    0    0  0.20206372608E+02  0.10499513383E+02 -0.18070005695E+02  0.29069956675E+02  0.00000000000E+00 0.  1.
</event>
<event>
 5    1  0.1717510E-003  0.9118800E+02  0.7818608E-02  0.1130116E+00
         25   -1    0    0    0    0  0.00000000000E+00  0.00000000000E+00  0.99999998245E-14  0.12500000000E+03  0.12500000000E+03 0.  0.
        -11    1    3    3    0    0 -0.20593662637E+02  0.33821514643E+02 -0.10251003941E+01  0.39611167928E+02  0.51100000000E-03 0.  1.
         23    2    1    0    0    0 -0.12004437095E+02 -0.20775028636E+02 -0.15108733086E+02  0.96645421176E+02  0.92392398464E+02 0.  0.
         11    1    3    3    0    0  0.85892255413E+01 -0.54596543279E+02 -0.14083632692E+02  0.57034253248E+02  0.51100000000E-03 0. -1.
         22    1    1    0    0    0  0.12004437095E+02  0.20775028636E+02  0.15108733086E+02  0.28354578824E+02  0.00000000000E+00 0.  1.
</event>
<event>
 5    1  0.1717510E-003  0.9118800E+02  0.7818608E-02  0.1130116E+00
         25   -1    0    0    0    0  0.00000000000E+00  0.00000000000E+00  0.99999998245E-14  0.12500000000E+03  0.12500000000E+03 0.  0.
        -11    1    3    3    0    0  0.18067553067E+02 -0.35705135630E+02 -0.45767023310E+02  0.60794026081E+02  0.51100000000E-03 0.  1.
         23    2    1    0    0    0  0.17122158580E+02 -0.11409348191E+02 -0.18455162233E+02  0.97360633987E+02  0.93355013238E+02 0.  0.
         11    1    3    3    0    0 -0.94539448706E+00  0.24295787439E+02  0.27311861077E+02  0.36566607906E+02  0.51100000000E-03 0. -1.
         22    1    1    0    0    0 -0.17122158580E+02  0.11409348191E+02  0.18455162233E+02  0.27639366013E+02  0.00000000000E+00 0.  1.
</event>
<event>
 5    1  0.1717510E-003  0.9118800E+02  0.7818608E-02  0.1130116E+00
         25   -1    0    0    0    0  0.00000000000E+00  0.00000000000E+00  0.99999998245E-14  0.12500000000E+03  0.12500000000E+03 0.  0.
        -11    1    3    3    0    0 -0.11173282728E+02 -0.15699602295E+01  0.43574536579E+02  0.45011634722E+02  0.51100000000E-03 0.  1.
         23    2    1    0    0    0 -0.24952873455E+02 -0.12752299384E+02 -0.48277588331E+01  0.96564559286E+02  0.92282933533E+02 0.  0.
         11    1    3    3    0    0 -0.13779590727E+02 -0.11182339155E+02 -0.48402295412E+02  0.51552924563E+02  0.51100000000E-03 0. -1.
         22    1    1    0    0    0  0.24952873455E+02  0.12752299384E+02  0.48277588331E+01  0.28435440714E+02  0.00000000000E+00 0. -1.
</event>
<event>
 5    1  0.1717510E-003  0.9118800E+02  0.7818608E-02  0.1130116E+00
         25   -1    0    0    0    0  0.00000000000E+00  0.00000000000E+00  0.99999998245E-14  0.12500000000E+03  0.12500000000E+03 0.  0.
        -11    1    3    3    0    0  0.22517612642E+02 -0.72542915579E+01  0.30352358865E+02  0.38482896384E+02  0.51100000000E-03 0. -1.
         23    2    1    0    0    0 -0.78840269414E+01 -0.26043497138E+02 -0.13145855407E+02  0.94780219419E+02  0.89833484039E+02 0.  0.
         11    1    3    3    0    0 -0.30401639584E+02 -0.18789205580E+02 -0.43498214273E+02  0.56297323035E+02  0.51100000000E-03 0.  1.
         22    1    1    0    0    0  0.78840269414E+01  0.26043497138E+02  0.13145855407E+02  0.30219780581E+02  0.00000000000E+00 0.  1.
</event>
<event>
 5    1  0.1717510E-003  0.9118800E+02  0.7818608E-02  0.1130116E+00
         25   -1    0    0    0    0  0.00000000000E+00  0.00000000000E+00  0.99999998245E-14  0.12500000000E+03  0.12500000000E+03 0.  0.
        -11    1    3    3    0    0  0.21949864103E+02  0.35660502486E+02  0.28979463816E+02  0.50924230922E+02  0.51100000000E-03 0. -1.
         23    2    1    0    0    0  0.16410289232E+02 -0.63335012367E+01  0.26291050659E+02  0.93367261021E+02  0.87845405430E+02 0.  0.
         11    1    3    3    0    0 -0.55395748714E+01 -0.41994003722E+02 -0.26884131569E+01  0.42443030099E+02  0.51100000000E-03 0.  1.
         22    1    1    0    0    0 -0.16410289232E+02  0.63335012367E+01 -0.26291050659E+02  0.31632738979E+02  0.00000000000E+00 0.  1.
</event>
<event>
 5    1  0.1717510E-003  0.9118800E+02  0.7818608E-02  0.1130116E+00
         25   -1    0    0    0    0  0.00000000000E+00  0.00000000000E+00  0.99999998245E-14  0.12500000000E+03  0.12500000000E+03 0.  0.
        -11    1    3    3    0    0  0.14795631851E+02  0.50231069834E+02 -0.15575048347E+02  0.54631979918E+02  0.51100000000E-03 0. -1.
         23    2    1    0    0    0  0.28587382856E+01  0.11653502663E+02 -0.26023052280E+02  0.96343835587E+02  0.91983470780E+02 0.  0.
         11    1    3    3    0    0 -0.11936893565E+02 -0.38577567171E+02 -0.10448003934E+02  0.41711855668E+02  0.51100000000E-03 0.  1.
         22    1    1    0    0    0 -0.28587382856E+01 -0.11653502663E+02  0.26023052280E+02  0.28656164413E+02  0.00000000000E+00 0. -1.
</event>
<event>
 5    1  0.1717510E-003  0.9118800E+02  0.7818608E-02  0.1130116E+00
         25   -1    0    0    0    0  0.00000000000E+00  0.00000000000E+00  0.99999998245E-14  0.12500000000E+03  0.12500000000E+03 0.  0.
        -11    1    3    3    0    0  0.10690803307E+02 -0.58013932056E+01 -0.32340072056E+02  0.34551840752E+02  0.51100000000E-03 0.  1.
         23    2    1    0    0    0 -0.10140406881E+02  0.17670621860E+02  0.20556842887E+02  0.96057599994E+02  0.91593667895E+02 0.  0.
         11    1    3    3    0    0 -0.20831210188E+02  0.23472015066E+02  0.52896914943E+02  0.61505759242E+02  0.51100000000E-03 0. -1.
         22    1    1    0    0    0  0.10140406881E+02 -0.17670621860E+02 -0.20556842887E+02  0.28942400006E+02  0.00000000000E+00 0. -1.
</event>
<event>
 5    1  0.1717510E-003  0.9118800E+02  0.7818608E-02  0.1130116E+00
         25   -1    0    0    0    0  0.00000000000E+00  0.00000000000E+00  0.99999998245E-14  0.12500000000E+03  0.12500000000E+03 0.  0.
        -11    1    3    3    0    0  0.19055457832E+02 -0.35560019576E+02 -0.36572120836E+02  0.54453149478E+02  0.51100000000E-03 0. -1.
         23    2    1    0    0    0  0.16946543603E+02 -0.23135565056E+02  0.31715400666E+01  0.96146952034E+02  0.91715527630E+02 0.  0.
         11    1    3    3    0    0 -0.21089142288E+01  0.12424454520E+02  0.39743660902E+02  0.41693802555E+02  0.51100000000E-03 0.  1.
         22    1    1    0    0    0 -0.16946543603E+02  0.23135565056E+02 -0.31715400666E+01  0.28853047966E+02  0.00000000000E+00 0. -1.
</event>
<event>
 5    1  0.1717510E-003  0.9118800E+02  0.7818608E-02  0.1130116E+00
         25   -1    0    0    0    0  0.00000000000E+00  0.00000000000E+00  0.99999998245E-14  0.12500000000E+03  0.12500000000E+03 0.  0.
        -11    1    3    3    0    0  0.72922018189E+01 -0.28599306495E+02 -0.37498040795E+02  0.47720012606E+02  0.51100000000E-03 0.  1.
         23    2    1    0    0    0  0.14012387674E+02 -0.22555642728E+02  0.10414029171E+02  0.96477096382E+02  0.92164386265E+02 0.  0.
         11    1    3    3    0    0  0.67201858550E+01  0.60436637670E+01  0.47912069966E+02  0.48757083776E+02  0.51100000000E-03 0. -1.
         22    1    1    0    0    0 -0.14012387674E+02  0.22555642728E+02 -0.10414029171E+02  0.28522903618E+02  0.00000000000E+00 0.  1.
</event>
<event>
 5    1  0.1717510E-003  0.9118800E+02  0.7818608E-02  0.1130116E+00
         25   -1    0    0    0    0  0.00000000000E+00  0.00000000000E+00  0.99999998245E-14  0.12500000000E+03  0.12500000000E+03 0.  0.
        -11    1    3    3    0    0 -0.59391247462E+02 -0.47999823390E+01 -0.43899693770E+01  0.59746396853E+02  0.51100000000E-03 0.  1.
         23    2    1    0    0    0 -0.23151536117E+02 -0.10886083176E+02 -0.11119600687E+02  0.97104732464E+02  0.93011736442E+02 0.  0.
         11    1    3    3    0    0  0.36239711345E+02 -0.60861008369E+01 -0.67296313100E+01  0.37358335611E+02  0.51100000000E-03 0. -1.
         22    1    1    0    0    0  0.23151536117E+02  0.10886083176E+02  0.11119600687E+02  0.27895267536E+02  0.00000000000E+00 0.  1.
</event>
<event>
 5    1  0.1717510E-003  0.9118800E+02  0.7818608E-02  0.1130116E+00
         25   -1    0    0    0    0  0.00000000000E+00  0.00000000000E+00  0.99999998245E-14  0.12500000000E+03  0.12500000000E+03 0.  0.
        -11    1    3    3    0    0 -0.34291126564E+02 -0.39716609869E+01 -0.27810055342E+02  0.44328936716E+02  0.51100000000E-03 0. -1.
         23    2    1    0    0    0  0.84207787625E+01  0.22601904400E+02 -0.16169626633E+02  0.95961879831E+02  0.91462943085E+02 0.  0.
         11    1    3    3    0    0  0.42711905326E+02  0.26573565387E+02  0.11640428708E+02  0.51632943115E+02  0.51100000000E-03 0.  1.
         22    1    1    0    0    0 -0.84207787625E+01 -0.22601904400E+02  0.16169626633E+02  0.29038120169E+02  0.00000000000E+00 0. -1.
</event>
<event>
 5    1  0.1717510E-003  0.9118800E+02  0.7818608E-02  0.1130116E+00
         25   -1    0    0    0    0  0.00000000000E+00  0.00000000000E+00  0.99999998245E-14  0.12500000000E+03  0.12500000000E+03 0.  0.
        -11    1    3    3    0    0  0.30758240648E+02  0.21321323975E+02  0.33277079954E+01  0.37573153508E+02  0.51100000000E-03 0. -1.
         23    2    1    0    0    0  0.68485205370E+01 -0.27853091307E+02 -0.11294663977E+02  0.94173609306E+02  0.88985405131E+02 0.  0.
         11    1    3    3    0    0 -0.23909720111E+02 -0.49174415282E+02 -0.14622371972E+02  0.56600455797E+02  0.51100000000E-03 0.  1.
         22    1    1    0    0    0 -0.68485205370E+01  0.27853091307E+02  0.11294663977E+02  0.30826390694E+02  0.00000000000E+00 0.  1.
</event>
<event>
 5    1  0.1717510E-003  0.9118800E+02  0.7818608E-02  0.1130116E+00
         25   -1    0    0    0    0  0.00000000000E+00  0.00000000000E+00  0.99999998245E-14  0.12500000000E+03  0.12500000000E+03 0.  0.
        -11    1    3    3    0    0  0.30552994953E+02 -0.60537107294E+01  0.93026941345E+01  0.32506507542E+02  0.51100000000E-03 0. -1.
         23    2    1    0    0    0 -0.27057177403E+02 -0.50869311286E+01 -0.13331230044E+02  0.94410959286E+02  0.89318194235E+02 0.  0.
         11    1    3    3    0    0 -0.57610172356E+02  0.96677960081E+00 -0.22633924179E+02  0.61904451743E+02  0.51100000000E-03 0.  1.
         22    1    1    0    0    0  0.27057177403E+02  0.50869311286E+01  0.13331230044E+02  0.30589040714E+02  0.00000000000E+00 0.  1.
</event>
<event>
 5    1  0.1717510E-003  0.9118800E+02  0.7818608E-02  0.1130116E+00
         25   -1    0    0    0    0  0.00000000000E+00  0.00000000000E+00  0.99999998245E-14  0.12500000000E+03  0.12500000000E+03 0.  0.
        -11    1    3    3    0    0  0.31314934219E+02 -0.14011062562E+02  0.21392458685E+02  0.40429843781E+02  0.51100000000E-03 0.  1.
         23    2    1    0    0    0 -0.92012925666E+01  0.21289755313E+02  0.20299095048E+02  0.94178404877E+02  0.88992141334E+02 0.  0.
         11    1    3    3    0    0 -0.40516226786E+02  0.35300817875E+02 -0.10933636371E+01  0.53748561096E+02  0.51100000000E-03 0. -1.
         22    1    1    0    0    0  0.92012925666E+01 -0.21289755313E+02 -0.20299095048E+02  0.30821595123E+02  0.00000000000E+00 0. -1.
</event>
<event>
 5    1  0.1717510E-003  0.9118800E+02  0.7818608E-02  0.1130116E+00
         25   -1    0    0    0    0  0.00000000000E+00  0.00000000000E+00  0.99999998245E-14  0.12500000000E+03  0.12500000000E+03 0.  0.
        -11    1    3    3    0    0  0.12593437980E+02 -0.51626969678E+02 -0.30469259128E+02  0.61256137900E+02  0.51100000000E-03 0. -1.
         23    2    1    0    0    0  0.10833334758E+02 -0.18022457650E+02 -0.18562655323E+02  0.96951073205E+02  0.92805001488E+02 0.  0.
         11    1    3    3    0    0 -0.17601032225E+01  0.33604512028E+02  0.11906603806E+02  0.35694935305E+02  0.51100000000E-03 0.  1.
         22    1    1    0    0    0 -0.10833334758E+02  0.18022457650E+02  0.18562655323E+02  0.28048926795E+02  0.00000000000E+00 0. -1.
</event>
<event>
 5    1  0.1717510E-003  0.9118800E+02  0.7818608E-02  0.1130116E+00
         25   -1    0    0    0    0  0.00000000000E+00  0.00000000000E+00  0.99999998245E-14  0.12500000000E+03  0.12500000000E+03 0.  0.
        -11    1    3    3    0    0  0.44799840215E+02  0.18231256371E+02  0.10924367666E+02  0.49585745949E+02  0.51100000000E-03 0. -1.
         23    2    1    0    0    0  0.29500984993E+01  0.13548940699E+02  0.26989376933E+02  0.94656906182E+02  0.89661734009E+02 0.  0.
         11    1    3    3    0    0 -0.41849741716E+02 -0.46823156714E+01  0.16065009267E+02  0.45071160233E+02  0.51100000000E-03 0.  1.
         22    1    1    0    0    0 -0.29500984993E+01 -0.13548940699E+02 -0.26989376933E+02  0.30343093818E+02  0.00000000000E+00 0. -1.
</event>
<event>
 5    1  0.1717510E-003  0.9118800E+02  0.7818608E-02  0.1130116E+00
         25   -1    0    0    0    0  0.00000000000E+00  0.00000000000E+00  0.99999998245E-14  0.12500000000E+03  0.12500000000E+03 0.  0.
        -11    1    3    3    0    0 -0.45791268565E+02  0.27717316350E+02 -0.14450148300E+02  0.55442733416E+02  0.51100000000E-03 0. -1.
         23    2    1    0    0    0 -0.21927069497E+02  0.18648699278E+02  0.13422110724E+02  0.93239593552E+02  0.87663552221E+02 0.  0.
         11    1    3    3    0    0  0.23864199068E+02 -0.90686170721E+01  0.27872259024E+02  0.37796860136E+02  0.51100000000E-03 0.  1.
         22    1    1    0    0    0  0.21927069497E+02 -0.18648699278E+02 -0.13422110724E+02  0.31760406448E+02  0.00000000000E+00 0. -1.
</event>
<event>
 5    1  0.1717510E-003  0.9118800E+02  0.7818608E-02  0.1130116E+00
         25   -1    0    0    0    0  0.00000000000E+00  0.00000000000E+00  0.99999998245E-14  0.12500000000E+03  0.12500000000E+03 0.  0.
        -11    1    3    3    0    0 -0.27481831728E+02 -0.42981541887E+02  0.10699885444E+02  0.52126303983E+02  0.51100000000E-03 0. -1.
         23    2    1    0    0    0 -0.28192245371E+02 -0.30688438624E+00 -0.22181042450E+01  0.96718966364E+02  0.92491846078E+02 0.  0.
         11    1    3    3    0    0 -0.71041364353E+00  0.42674657501E+02 -0.12917989689E+02  0.44592662381E+02  0.51100000000E-03 0.  1.
         22    1    1    0    0    0  0.28192245371E+02  0.30688438624E+00  0.22181042450E+01  0.28281033636E+02  0.00000000000E+00 0.  1.
</event>
<event>
 5    1  0.1717510E-003  0.9118800E+02  0.7818608E-02  0.1130116E+00
         25   -1    0    0    0    0  0.00000000000E+00  0.00000000000E+00  0.99999998245E-14  0.12500000000E+03  0.12500000000E+03 0.  0.
        -11    1    3    3    0    0 -0.16181866558E+02  0.34861094063E+02 -0.73313427484E+01  0.39126682345E+02  0.51100000000E-03 0. -1.
         23    2    1    0    0    0 -0.98357435441E+01 -0.14676603646E+02  0.21796249792E+02  0.96942540196E+02  0.92793507580E+02 0.  0.
         11    1    3    3    0    0  0.63461230137E+01 -0.49537697709E+02  0.29127592541E+02  0.57815857851E+02  0.51100000000E-03 0.  1.
         22    1    1    0    0    0  0.98357435441E+01  0.14676603646E+02 -0.21796249792E+02  0.28057459804E+02  0.00000000000E+00 0.  1.
</event>
<event>
 5    1  0.1717510E-003  0.9118800E+02  0.7818608E-02  0.1130116E+00
         25   -1    0    0    0    0  0.00000000000E+00  0.00000000000E+00  0.99999998245E-14  0.12500000000E+03  0.12500000000E+03 0.  0.
        -11    1    3    3    0    0  0.28876662438E+02  0.43428593585E+02  0.54246416754E+00  0.52155523600E+02  0.51100000000E-03 0. -1.
         23    2    1    0    0    0 -0.61025375825E+01  0.25404459449E+02 -0.15467499564E+02  0.94637670254E+02  0.89634912637E+02 0.  0.
         11    1    3    3    0    0 -0.34979200021E+02 -0.18024134135E+02 -0.16009963731E+02  0.42482146654E+02  0.51100000000E-03 0.  1.
         22    1    1    0    0    0  0.61025375825E+01 -0.25404459449E+02  0.15467499564E+02  0.30362329746E+02  0.00000000000E+00 0. -1.
</event>
<event>
 5    1  0.1717510E-003  0.9118800E+02  0.7818608E-02  0.1130116E+00
         25   -1    0    0    0    0  0.00000000000E+00  0.00000000000E+00  0.99999998245E-14  0.12500000000E+03  0.12500000000E+03 0.  0.
        -11    1    3    3    0    0 -0.20628094351E+00 -0.28604305682E+02 -0.23224003819E+02  0.36845667439E+02  0.51100000000E-03 0. -1.
         23    2    1    0    0    0 -0.22929437910E+02  0.72184306637E+01  0.17198398545E+02  0.95442432837E+02  0.90750251841E+02 0.  0.
         11    1    3    3    0    0 -0.22723156966E+02  0.35822736346E+02  0.40422402365E+02  0.58596765397E+02  0.51100000000E-03 0.  1.
         22    1    1    0    0    0  0.22929437910E+02 -0.72184306637E+01 -0.17198398545E+02  0.29557567163E+02  0.00000000000E+00 0.  1.
</event>
<event>
 5    1  0.1717510E-003  0.9118800E+02  0.7818608E-02  0.1130116E+00
         25   -1    0    0    0    0  0.00000000000E+00  0.00000000000E+00  0.99999998245E-14  0.12500000000E+03  0.12500000000E+03 0.  0.
        -11    1    3    3    0    0 -0.49615611511E+02  0.23058609300E+02 -0.14948270050E+02  0.56717361947E+02  0.51100000000E-03 0.  1.
         23    2    1    0    0    0 -0.28592319910E+02  0.91960277275E+01  0.11129718129E+02  0.92969416031E+02  0.87277454177E+02 0.  0.
         11    1    3    3    0    0  0.21023291601E+02 -0.13862581572E+02  0.26077988178E+02  0.36252054084E+02  0.51100000000E-03 0. -1.
         22    1    1    0    0    0  0.28592319910E+02 -0.91960277275E+01 -0.11129718129E+02  0.32030583969E+02  0.00000000000E+00 0.  1.
</event>
<event>
 5    1  0.1717510E-003  0.9118800E+02  0.7818608E-02  0.1130116E+00
         25   -1    0    0    0    0  0.00000000000E+00  0.00000000000E+00  0.99999998245E-14  0.12500000000E+03  0.12500000000E+03 0.  0.
        -11    1    3    3    0    0 -0.21996902794E+02 -0.53690469925E+02  0.61468406984E+01  0.58346498988E+02  0.51100000000E-03 0.  1.
         23    2    1    0    0    0  0.16139647889E+01 -0.26857091039E+02  0.13592463222E+02  0.94855957838E+02  0.89938809529E+02 0.  0.
         11    1    3    3    0    0  0.23610867583E+02  0.26833378886E+02  0.74456225232E+01  0.36509458850E+02  0.51100000000E-03 0. -1.
         22    1    1    0    0    0 -0.16139647889E+01  0.26857091039E+02 -0.13592463222E+02  0.30144042162E+02  0.00000000000E+00 0.  1.
</event>
<event>
 5    1  0.1717510E-003  0.9118800E+02  0.7818608E-02  0.1130116E+00
         25   -1    0    0    0    0  0.00000000000E+00  0.00000000000E+00  0.99999998245E-14  0.12500000000E+03  0.12500000000E+03 0.  0.
        -11    1    3    3    0    0 -0.28054986469E+02 -0.34934451747E+02 -0.83571622239E+01  0.45577849284E+02  0.51100000000E-03 0.  1.
         23    2    1    0    0    0 -0.20719827014E+02  0.70366565868E+01  0.18839503638E+02  0.96125224421E+02  0.91685910070E+02 0.  0.
         11    1    3    3    0    0  0.73351594547E+01  0.41971108334E+02  0.27196665862E+02  0.50547375137E+02  0.51100000000E-03 0. -1.
         22    1    1    0    0    0  0.20719827014E+02 -0.70366565868E+01 -0.18839503638E+02  0.28874775579E+02  0.00000000000E+00 0. -1.
</event>
<event>
 5    1  0.1717510E-003  0.9118800E+02  0.7818608E-02  0.1130116E+00
         25   -1    0    0    0    0  0.00000000000E+00  0.00000000000E+00  0.99999998245E-14  0.12500000000E+03  0.12500000000E+03 0.  0.
        -11    1    3    3    0    0 -0.43409641790E+02  0.10397054796E+02 -0.34880285643E+02  0.56649184244E+02  0.51100000000E-03 0.  1.
         23    2    1    0    0    0 -0.66395484777E+01  0.16385000615E+02 -0.23479084644E+02  0.95609197614E+02  0.90979664780E+02 0.  0.
         11    1    3    3    0    0  0.36770093312E+02  0.59879458190E+01  0.11401200999E+02  0.38960013370E+02  0.51100000000E-03 0. -1.
         22    1    1    0    0    0  0.66395484777E+01 -0.16385000615E+02  0.23479084644E+02  0.29390802386E+02  0.00000000000E+00 0.  1.
</event>
<event>
 5    1  0.1717510E-003  0.9118800E+02  0.7818608E-02  0.1130116E+00
         25   -1    0    0    0    0  0.00000000000E+00  0.00000000000E+00  0.99999998245E-14  0.12500000000E+03  0.12500000000E+03 0.  0.
        -11    1    3    3    0    0  0.41565385997E+01 -0.94117362457E+01  0.51175031064E+02  0.52199055517E+02  0.51100000000E-03 0. -1.
         23    2    1    0    0    0  0.22966754837E+02  0.82869263045E+01  0.16114925257E+02  0.95745328726E+02  0.91166508003E+02 0.  0.
         11    1    3    3    0    0  0.18810216237E+02  0.17698662550E+02 -0.35060105806E+02  0.43546273208E+02  0.51100000000E-03 0.  1.
         22    1    1    0    0    0 -0.22966754837E+02 -0.82869263045E+01 -0.16114925257E+02  0.29254671274E+02  0.00000000000E+00 0.  1.
</event>
<event>
 5    1  0.1717510E-003  0.9118800E+02  0.7818608E-02  0.1130116E+00
         25   -1    0    0    0    0  0.00000000000E+00  0.00000000000E+00  0.99999998245E-14  0.12500000000E+03  0.12500000000E+03 0.  0.
        -11    1    3    3    0    0 -0.11847646425E+02  0.28335329258E+01 -0.57058174789E+02  0.58344073779E+02  0.51100000000E-03 0.  1.
         23    2    1    0    0    0  0.12901439376E+01 -0.13364602732E+02 -0.25688851706E+02  0.96013896786E+02  0.91534005684E+02 0.  0.
         11    1    3    3    0    0  0.13137790363E+02 -0.16198135658E+02  0.31369323083E+02  0.37669823007E+02  0.51100000000E-03 0. -1.
         22    1    1    0    0    0 -0.12901439376E+01  0.13364602732E+02  0.25688851706E+02  0.28986103214E+02  0.00000000000E+00 0.  1.
</event>
<event>
 5    1  0.1717510E-003  0.9118800E+02  0.7818608E-02  0.1130116E+00
         25   -1    0    0    0    0  0.00000000000E+00  0.00000000000E+00  0.99999998245E-14  0.12500000000E+03  0.12500000000E+03 0.  0.
        -11    1    3    3    0    0 -0.25303278049E+02  0.18733366144E+02 -0.21999832310E+02  0.38408169822E+02  0.51100000000E-03 0. -1.
         23    2    1    0    0    0  0.11502755339E+02 -0.24009425392E+02 -0.12423616745E+02  0.95621229755E+02  0.90996194639E+02 0.  0.
         11    1    3    3    0    0  0.36806033389E+02 -0.42742791536E+02  0.95762155650E+01  0.57213059933E+02  0.51100000000E-03 0.  1.
         22    1    1    0    0    0 -0.11502755339E+02  0.24009425392E+02  0.12423616745E+02  0.29378770245E+02  0.00000000000E+00 0.  1.
</event>
<event>
 5    1  0.1717510E-003  0.9118800E+02  0.7818608E-02  0.1130116E+00
         25   -1    0    0    0    0  0.00000000000E+00  0.00000000000E+00  0.99999998245E-14  0.12500000000E+03  0.12500000000E+03 0.  0.
        -11    1    3    3    0    0 -0.92321666633E+01  0.12266147480E+02 -0.39678253931E+02  0.42544742455E+02  0.51100000000E-03 0.  1.
         23    2    1    0    0    0  0.26379752458E+02  0.13274393303E+02 -0.54800837552E+00  0.95463561987E+02  0.90779350607E+02 0.  0.
         11    1    3    3    0    0  0.35611919121E+02  0.10082458233E+01  0.39130245555E+02  0.52918819532E+02  0.51100000000E-03 0. -1.
         22    1    1    0    0    0 -0.26379752458E+02 -0.13274393303E+02  0.54800837552E+00  0.29536438013E+02  0.00000000000E+00 0. -1.
</event>
<event>
 5    1  0.1717510E-003  0.9118800E+02  0.7818608E-02  0.1130116E+00
         25   -1    0    0    0    0  0.00000000000E+00  0.00000000000E+00  0.99999998245E-14  0.12500000000E+03  0.12500000000E+03 0.  0.
        -11    1    3    3    0    0 -0.36645192921E+02  0.14656364938E+02  0.40869206293E+02  0.56815237575E+02  0.51100000000E-03 0.  1.
         23    2    1    0    0    0 -0.18632767484E+02  0.21496259092E+02  0.71234954576E+01  0.95674015505E+02  0.91068676702E+02 0.  0.
         11    1    3    3    0    0  0.18012425437E+02  0.68398941546E+01 -0.33745710835E+02  0.38858777930E+02  0.51100000000E-03 0. -1.
         22    1    1    0    0    0  0.18632767484E+02 -0.21496259092E+02 -0.71234954576E+01  0.29325984495E+02  0.00000000000E+00 0.  1.
</event>
<event>
 5    1  0.1717510E-003  0.9118800E+02  0.7818608E-02  0.1130116E+00
         25   -1    0    0    0    0  0.00000000000E+00  0.00000000000E+00  0.99999998245E-14  0.12500000000E+03  0.12500000000E+03 0.  0.
        -11    1    3    3    0    0 -0.13007096020E+02  0.29241055356E+02 -0.20963891596E+02  0.38258445032E+02  0.51100000000E-03 0. -1.
         23    2    1    0    0    0  0.20287645634E+02  0.95794459999E+01  0.20254220543E+02  0.94774385021E+02  0.89825365322E+02 0.  0.
         11    1    3    3    0    0  0.33294741654E+02 -0.19661609356E+02  0.41218112139E+02  0.56515939989E+02  0.51100000000E-03 0.  1.
         22    1    1    0    0    0 -0.20287645634E+02 -0.95794459999E+01 -0.20254220543E+02  0.30225614979E+02  0.00000000000E+00 0. -1.
</event>
<event>
 5    1  0.1717510E-003  0.9118800E+02  0.7818608E-02  0.1130116E+00
         25   -1    0    0    0    0  0.00000000000E+00  0.00000000000E+00  0.99999998245E-14  0.12500000000E+03  0.12500000000E+03 0.  0.
        -11    1    3    3    0    0 -0.28700394462E+02  0.21609920497E+02 -0.77131267272E+01  0.36744981023E+02  0.51100000000E-03 0.  1.
         23    2    1    0    0    0  0.10001000833E+02 -0.21400361214E+02 -0.17729520868E+02  0.95464743306E+02  0.90780977228E+02 0.  0.
         11    1    3    3    0    0  0.38701395296E+02 -0.43010281712E+02 -0.10016394141E+02  0.58719762283E+02  0.51100000000E-03 0. -1.
         22    1    1    0    0    0 -0.10001000833E+02  0.21400361214E+02  0.17729520868E+02  0.29535256694E+02  0.00000000000E+00 0. -1.
</event>
<event>
 5    1  0.1717510E-003  0.9118800E+02  0.7818608E-02  0.1130116E+00
         25   -1    0    0    0    0  0.00000000000E+00  0.00000000000E+00  0.99999998245E-14  0.12500000000E+03  0.12500000000E+03 0.  0.
        -11    1    3    3    0    0  0.32136665645E+02  0.18913389875E+02  0.98516930232E+01  0.38568607067E+02  0.51100000000E-03 0.  1.
         23    2    1    0    0    0 -0.16779819417E+02  0.13091142918E+02 -0.19687463473E+02  0.96007991092E+02  0.91525940437E+02 0.  0.
         11    1    3    3    0    0 -0.48916485062E+02 -0.58222469576E+01 -0.29539156496E+02  0.57439384025E+02  0.51100000000E-03 0. -1.
         22    1    1    0    0    0  0.16779819417E+02 -0.13091142918E+02  0.19687463473E+02  0.28992008908E+02  0.00000000000E+00 0. -1.
</event>
<event>
 5    1  0.1717510E-003  0.9118800E+02  0.7818608E-02  0.1130116E+00
         25   -1    0    0    0    0  0.00000000000E+00  0.00000000000E+00  0.99999998245E-14  0.12500000000E+03  0.12500000000E+03 0.  0.
        -11    1    3    3    0    0 -0.27963601328E+02 -0.15231701227E+01 -0.21672951503E+02  0.35411860634E+02  0.51100000000E-03 0.  1.
         23    2    1    0    0    0  0.23871245877E+02 -0.20407701898E+02 -0.40028315042E+01  0.93340351604E+02  0.87807106211E+02 0.  0.
         11    1    3    3    0    0  0.51834847205E+02 -0.18884531775E+02  0.17670119999E+02  0.57928490971E+02  0.51100000000E-03 0. -1.
         22    1    1    0    0    0 -0.23871245877E+02  0.20407701898E+02  0.40028315042E+01  0.31659648396E+02  0.00000000000E+00 0. -1.
</event>
<event>
 5    1  0.1717510E-003  0.9118800E+02  0.7818608E-02  0.1130116E+00
         25   -1    0    0    0    0  0.00000000000E+00  0.00000000000E+00  0.99999998245E-14  0.12500000000E+03  0.12500000000E+03 0.  0.
        -11    1    3    3    0    0 -0.27909757121E+02  0.28050067496E+02 -0.28913285871E+02  0.49007539514E+02  0.51100000000E-03 0. -1.
         23    2    1    0    0    0 -0.15499824148E+02 -0.14733062698E+02 -0.22405811095E+02  0.94026978580E+02  0.88779190382E+02 0.  0.
         11    1    3    3    0    0  0.12409932973E+02 -0.42783130194E+02  0.65074747758E+01  0.45019439066E+02  0.51100000000E-03 0.  1.
         22    1    1    0    0    0  0.15499824148E+02  0.14733062698E+02  0.22405811095E+02  0.30973021420E+02  0.00000000000E+00 0.  1.
</event>
<event>
 5    1  0.1717510E-003  0.9118800E+02  0.7818608E-02  0.1130116E+00
         25   -1    0    0    0    0  0.00000000000E+00  0.00000000000E+00  0.99999998245E-14  0.12500000000E+03  0.12500000000E+03 0.  0.
        -11    1    3    3    0    0 -0.14261850167E+01  0.58124623348E+00  0.42088971400E+02  0.42117138609E+02  0.51100000000E-03 0.  1.
         23    2    1    0    0    0  0.21537128443E+02  0.20405047397E+02 -0.15803274083E+01  0.95289542319E+02  0.90539414510E+02 0.  0.
         11    1    3    3    0    0  0.22963313460E+02  0.19823801164E+02 -0.43669298808E+02  0.53172403710E+02  0.51100000000E-03 0. -1.
         22    1    1    0    0    0 -0.21537128443E+02 -0.20405047397E+02  0.15803274083E+01  0.29710457681E+02  0.00000000000E+00 0. -1.
</event>
<event>
 5    1  0.1717510E-003  0.9118800E+02  0.7818608E-02  0.1130116E+00
         25   -1    0    0    0    0  0.00000000000E+00  0.00000000000E+00  0.99999998245E-14  0.12500000000E+03  0.12500000000E+03 0.  0.
        -11    1    3    3    0    0 -0.17350887046E+02  0.21048198778E+02  0.43887100068E+02  0.51673566798E+02  0.51100000000E-03 0.  1.
         23    2    1    0    0    0  0.13908507199E+02  0.16275758394E+01  0.31540784862E+02  0.90490339246E+02  0.83651567897E+02 0.  0.
         11    1    3    3    0    0  0.31259394245E+02 -0.19420622938E+02 -0.12346315205E+02  0.38816772448E+02  0.51100000000E-03 0. -1.
         22    1    1    0    0    0 -0.13908507199E+02 -0.16275758394E+01 -0.31540784862E+02  0.34509660754E+02  0.00000000000E+00 0.  1.
</event>
<event>
 5    1  0.1717510E-003  0.9118800E+02  0.7818608E-02  0.1130116E+00
         25   -1    0    0    0    0  0.00000000000E+00  0.00000000000E+00  0.99999998245E-14  0.12500000000E+03  0.12500000000E+03 0.  0.
        -11    1    3    3    0    0  0.39366685560E+02 -0.56263031049E+01 -0.31795564436E+02  0.50915116976E+02  0.51100000000E-03 0. -1.
         23    2    1    0    0    0  0.20116210001E+02 -0.20961005215E+02  0.53352266726E+01  0.95462053421E+02  0.90777273342E+02 0.  0.
         11    1    3    3    0    0 -0.19250475559E+02 -0.15334702110E+02  0.37130791109E+02  0.44546936445E+02  0.51100000000E-03 0.  1.
         22    1    1    0    0    0 -0.20116210001E+02  0.20961005215E+02 -0.53352266726E+01  0.29537946579E+02  0.00000000000E+00 0.  1.
</event>
<event>
 5    1  0.1717510E-003  0.9118800E+02  0.7818608E-02  0.1130116E+00
         25   -1    0    0    0    0  0.00000000000E+00  0.00000000000E+00  0.99999998245E-14  0.12500000000E+03  0.12500000000E+03 0.  0.
        -11    1    3    3    0    0  0.27902938537E+02  0.54357125372E+02 -0.14984320021E+00  0.61100683392E+02  0.51100000000E-03 0.  1.
         23    2    1    0    0    0  0.56827981922E+01  0.28522268399E+02 -0.49034094879E+01  0.95506654741E+02  0.90838668448E+02 0.  0.
         11    1    3    3    0    0 -0.22220140345E+02 -0.25834856973E+02 -0.47535662877E+01  0.34405971349E+02  0.51100000000E-03 0. -1.
         22    1    1    0    0    0 -0.56827981922E+01 -0.28522268399E+02  0.49034094879E+01  0.29493345259E+02  0.00000000000E+00 0.  1.
</event>
<event>
 5    1  0.1717510E-003  0.9118800E+02  0.7818608E-02  0.1130116E+00
         25   -1    0    0    0    0  0.00000000000E+00  0.00000000000E+00  0.99999998245E-14  0.12500000000E+03  0.12500000000E+03 0.  0.
        -11    1    3    3    0    0 -0.19170097313E+02 -0.25687951778E+02 -0.52486482701E+02  0.61499547674E+02  0.51100000000E-03 0.  1.
         23    2    1    0    0    0 -0.45245228119E+01 -0.65576135482E+01 -0.28148597503E+02  0.95745647443E+02  0.91166945001E+02 0.  0.
         11    1    3    3    0    0  0.14645574501E+02  0.19130338230E+02  0.24337885198E+02  0.34246099769E+02  0.51100000000E-03 0. -1.
         22    1    1    0    0    0  0.45245228119E+01  0.65576135482E+01  0.28148597503E+02  0.29254352557E+02  0.00000000000E+00 0.  1.
</event>
<event>
 5    1  0.1717510E-003  0.9118800E+02  0.7818608E-02  0.1130116E+00
         25   -1    0    0    0    0  0.00000000000E+00  0.00000000000E+00  0.99999998245E-14  0.12500000000E+03  0.12500000000E+03 0.  0.
        -11    1    3    3    0    0 -0.37241088614E+02  0.10154440852E+02  0.18382516084E+02  0.42754277540E+02  0.51100000000E-03 0.  1.
         23    2    1    0    0    0 -0.60194889321E+01  0.55821303612E+01 -0.26296067045E+02  0.97452267454E+02  0.93477627610E+02 0.  0.
         11    1    3    3    0    0  0.31221599681E+02 -0.45723104905E+01 -0.44678583130E+02  0.54697989914E+02  0.51100000000E-03 0. -1.
         22    1    1    0    0    0  0.60194889321E+01 -0.55821303612E+01  0.26296067045E+02  0.27547732546E+02  0.00000000000E+00 0. -1.
</event>
<event>
 5    1  0.1717510E-003  0.9118800E+02  0.7818608E-02  0.1130116E+00
         25   -1    0    0    0    0  0.00000000000E+00  0.00000000000E+00  0.99999998245E-14  0.12500000000E+03  0.12500000000E+03 0.  0.
        -11    1    3    3    0    0 -0.90689149808E+01  0.48150304195E+02 -0.41674145367E+01  0.49173817802E+02  0.51100000000E-03 0. -1.
         23    2    1    0    0    0 -0.21945221450E+02  0.90318481977E+01  0.17315306258E+02  0.95623362051E+02  0.90999123692E+02 0.  0.
         11    1    3    3    0    0 -0.12876306469E+02 -0.39118455998E+02  0.21482720795E+02  0.46449544249E+02  0.51100000000E-03 0.  1.
         22    1    1    0    0    0  0.21945221450E+02 -0.90318481977E+01 -0.17315306258E+02  0.29376637949E+02  0.00000000000E+00 0.  1.
</event>
<event>
 5    1  0.1717510E-003  0.9118800E+02  0.7818608E-02  0.1130116E+00
         25   -1    0    0    0    0  0.00000000000E+00  0.00000000000E+00  0.99999998245E-14  0.12500000000E+03  0.12500000000E+03 0.  0.
        -11    1    3    3    0    0 -0.21464836009E+02 -0.23050229282E+02 -0.13782576034E+02  0.34380396409E+02  0.51100000000E-03 0. -1.
         23    2    1    0    0    0  0.13420594693E+02  0.26038864664E+02 -0.31056675922E+01  0.95541894051E+02  0.90887147126E+02 0.  0.
         11    1    3    3    0    0  0.34885430703E+02  0.49089093946E+02  0.10676908442E+02  0.61161497642E+02  0.51100000000E-03 0.  1.
         22    1    1    0    0    0 -0.13420594693E+02 -0.26038864664E+02  0.31056675922E+01  0.29458105949E+02  0.00000000000E+00 0.  1.
</event>
<event>
 5    1  0.1717510E-003  0.9118800E+02  0.7818608E-02  0.1130116E+00
         25   -1    0    0    0    0  0.00000000000E+00  0.00000000000E+00  0.99999998245E-14  0.12500000000E+03  0.12500000000E+03 0.  0.
        -11    1    3    3    0    0  0.55558129519E+01 -0.16162287493E+02  0.46086553237E+02  0.49153402569E+02  0.51100000000E-03 0.  1.
         23    2    1    0    0    0 -0.14827598396E+02  0.16162714208E+02  0.18821460625E+02  0.96097778895E+02  0.91648484568E+02 0.  0.
         11    1    3    3    0    0 -0.20383411348E+02  0.32325001701E+02 -0.27265092613E+02  0.46944376326E+02  0.51100000000E-03 0. -1.
         22    1    1    0    0    0  0.14827598396E+02 -0.16162714208E+02 -0.18821460625E+02  0.28902221105E+02  0.00000000000E+00 0. -1.
</event>
<event>
 5    1  0.1717510E-003  0.9118800E+02  0.7818608E-02  0.1130116E+00
         25   -1    0    0    0    0  0.00000000000E+00  0.00000000000E+00  0.99999998245E-14  0.12500000000E+03  0.12500000000E+03 0.  0.
        -11    1    3    3    0    0  0.24226274268E+02 -0.38865238316E+02 -0.18386114428E+02  0.49350464216E+02  0.51100000000E-03 0.  1.
         23    2    1    0    0    0  0.85244356956E+01 -0.18558588304E+02  0.20576662981E+02  0.96008858884E+02  0.91527125602E+02 0.  0.
         11    1    3    3    0    0 -0.15701838572E+02  0.20306650012E+02  0.38962777410E+02  0.46658394668E+02  0.51100000000E-03 0. -1.
         22    1    1    0    0    0 -0.85244356956E+01  0.18558588304E+02 -0.20576662981E+02  0.28991141116E+02  0.00000000000E+00 0.  1.
</event>
<event>
 5    1  0.1717510E-003  0.9118800E+02  0.7818608E-02  0.1130116E+00
         25   -1    0    0    0    0  0.00000000000E+00  0.00000000000E+00  0.99999998245E-14  0.12500000000E+03  0.12500000000E+03 0.  0.
        -11    1    3    3    0    0 -0.18056334379E+02  0.55968400251E+02  0.81107927022E+01  0.59365629757E+02  0.51100000000E-03 0.  1.
         23    2    1    0    0    0  0.39485215281E+01  0.31367615217E+02 -0.12795676190E+00  0.93384584779E+02  0.87870052889E+02 0.  0.
         11    1    3    3    0    0  0.22004855908E+02 -0.24600785034E+02 -0.82387494641E+01  0.34018955022E+02  0.51100000000E-03 0. -1.
         22    1    1    0    0    0 -0.39485215281E+01 -0.31367615217E+02  0.12795676190E+00  0.31615415221E+02  0.00000000000E+00 0.  1.
</event>
<event>
 5    1  0.1717510E-003  0.9118800E+02  0.7818608E-02  0.1130116E+00
         25   -1    0    0    0    0  0.00000000000E+00  0.00000000000E+00  0.99999998245E-14  0.12500000000E+03  0.12500000000E+03 0.  0.
        -11    1    3    3    0    0  0.51923864436E+02 -0.20409660014E+01 -0.21293585147E+02  0.56157546321E+02  0.51100000000E-03 0.  1.
         23    2    1    0    0    0  0.27419370045E+02 -0.16256500101E+02  0.23222870513E+01  0.93039263676E+02  0.87377433694E+02 0.  0.
         11    1    3    3    0    0 -0.24504494391E+02 -0.14215534100E+02  0.23615872198E+02  0.36881717355E+02  0.51100000000E-03 0. -1.
         22    1    1    0    0    0 -0.27419370045E+02  0.16256500101E+02 -0.23222870513E+01  0.31960736324E+02  0.00000000000E+00 0.  1.
</event>
<event>
 5    1  0.1717510E-003  0.9118800E+02  0.7818608E-02  0.1130116E+00
         25   -1    0    0    0    0  0.00000000000E+00  0.00000000000E+00  0.99999998245E-14  0.12500000000E+03  0.12500000000E+03 0.  0.
        -11    1    3    3    0    0 -0.38246049766E+02 -0.43775507362E+02  0.14151405471E+02  0.59827398779E+02  0.51100000000E-03 0. -1.
         23    2    1    0    0    0 -0.11027377202E+02 -0.25993245523E+02 -0.30329205289E+01  0.96601928451E+02  0.92333537313E+02 0.  0.
         11    1    3    3    0    0  0.27218672564E+02  0.17782261839E+02 -0.17184326000E+02  0.36774529672E+02  0.51100000000E-03 0.  1.
         22    1    1    0    0    0  0.11027377202E+02  0.25993245523E+02  0.30329205289E+01  0.28398071549E+02  0.00000000000E+00 0. -1.
</event>
<event>
 5    1  0.1717510E-003  0.9118800E+02  0.7818608E-02  0.1130116E+00
         25   -1    0    0    0    0  0.00000000000E+00  0.00000000000E+00  0.99999998245E-14  0.12500000000E+03  0.12500000000E+03 0.  0.
        -11    1    3    3    0    0 -0.27846730317E+02 -0.45815971066E+01 -0.53607217736E+02  0.60581888507E+02  0.51100000000E-03 0.  1.
         23    2    1    0    0    0 -0.48953215910E+01  0.45352704688E+01 -0.28229246874E+02  0.95992703835E+02  0.91505059745E+02 0.  0.
         11    1    3    3    0    0  0.22951408726E+02  0.91168675754E+01  0.25377970862E+02  0.35410815329E+02  0.51100000000E-03 0. -1.
         22    1    1    0    0    0  0.48953215910E+01 -0.45352704688E+01  0.28229246874E+02  0.29007296165E+02  0.00000000000E+00 0.  1.
</event>
<event>
 5    1  0.1717510E-003  0.9118800E+02  0.7818608E-02  0.1130116E+00
         25   -1    0    0    0    0  0.00000000000E+00  0.00000000000E+00  0.99999998245E-14  0.12500000000E+03  0.12500000000E+03 0.  0.
        -11    1    3    3    0    0 -0.11818556328E+01 -0.30192503118E+02  0.17136851893E+02  0.34736950360E+02  0.51100000000E-03 0. -1.
         23    2    1    0    0    0  0.14615721844E+02  0.26230689165E+02  0.59596141129E+01  0.94386516378E+02  0.89283980056E+02 0.  0.
         11    1    3    3    0    0  0.15797577477E+02  0.56423192283E+02 -0.11177237780E+02  0.59649566018E+02  0.51100000000E-03 0.  1.
         22    1    1    0    0    0 -0.14615721844E+02 -0.26230689165E+02 -0.59596141129E+01  0.30613483622E+02  0.00000000000E+00 0.  1.
</event>
<event>
 5    1  0.1717510E-003  0.9118800E+02  0.7818608E-02  0.1130116E+00
         25   -1    0    0    0    0  0.00000000000E+00  0.00000000000E+00  0.99999998245E-14  0.12500000000E+03  0.12500000000E+03 0.  0.
        -11    1    3    3    0    0  0.23317769481E+02  0.42601160604E+01  0.57444687338E+02  0.62143053240E+02  0.51100000000E-03 0.  1.
         23    2    1    0    0    0  0.11731060560E+02 -0.26375663214E+01  0.27883341952E+02  0.94634636568E+02  0.89630681923E+02 0.  0.
         11    1    3    3    0    0 -0.11586708922E+02 -0.68976823818E+01 -0.29561345386E+02  0.32491583328E+02  0.51100000000E-03 0. -1.
         22    1    1    0    0    0 -0.11731060560E+02  0.26375663214E+01 -0.27883341952E+02  0.30365363432E+02  0.00000000000E+00 0.  1.
</event>
<event>
 5    1  0.1717510E-003  0.9118800E+02  0.7818608E-02  0.1130116E+00
         25   -1    0    0    0    0  0.00000000000E+00  0.00000000000E+00  0.99999998245E-14  0.12500000000E+03  0.12500000000E+03 0.  0.
        -11    1    3    3    0    0 -0.56208353035E+02  0.14602138971E+01 -0.17262972271E+02  0.58817696210E+02  0.51100000000E-03 0. -1.
         23    2    1    0    0    0 -0.28364554355E+02  0.11737005217E+02  0.20610453394E+01  0.94233896199E+02  0.89070051362E+02 0.  0.
         11    1    3    3    0    0  0.27843798680E+02  0.10276791320E+02  0.19324017611E+02  0.35416199989E+02  0.51100000000E-03 0.  1.
         22    1    1    0    0    0  0.28364554355E+02 -0.11737005217E+02 -0.20610453394E+01  0.30766103801E+02  0.00000000000E+00 0. -1.
</event>
<event>
 5    1  0.1717510E-003  0.9118800E+02  0.7818608E-02  0.1130116E+00
         25   -1    0    0    0    0  0.00000000000E+00  0.00000000000E+00  0.99999998245E-14  0.12500000000E+03  0.12500000000E+03 0.  0.
        -11    1    3    3    0    0 -0.49351807887E+01  0.41230478251E+02  0.40360894091E+02  0.57907772521E+02  0.51100000000E-03 0.  1.
         23    2    1    0    0    0  0.10648250435E+02  0.10728719552E+02  0.25739790985E+02  0.95149916240E+02  0.90346439110E+02 0.  0.
         11    1    3    3    0    0  0.15583431224E+02 -0.30501758699E+02 -0.14621103106E+02  0.37242143719E+02  0.51100000000E-03 0. -1.
         22    1    1    0    0    0 -0.10648250435E+02 -0.10728719552E+02 -0.25739790985E+02  0.29850083760E+02  0.00000000000E+00 0.  1.
</event>
<event>
 5    1  0.1717510E-003  0.9118800E+02  0.7818608E-02  0.1130116E+00
         25   -1    0    0    0    0  0.00000000000E+00  0.00000000000E+00  0.99999998245E-14  0.12500000000E+03  0.12500000000E+03 0.  0.
        -11    1    3    3    0    0 -0.30421166862E+02 -0.96392315051E+01  0.34714108687E+02  0.47153276869E+02  0.51100000000E-03 0. -1.
         23    2    1    0    0    0 -0.25899608265E+02  0.91987075535E+01 -0.98957466472E+01  0.95788157698E+02  0.91225212658E+02 0.  0.
         11    1    3    3    0    0  0.45215585966E+01  0.18837939059E+02 -0.44609855334E+02  0.48634880830E+02  0.51100000000E-03 0.  1.
         22    1    1    0    0    0  0.25899608265E+02 -0.91987075535E+01  0.98957466472E+01  0.29211842302E+02  0.00000000000E+00 0. -1.
</event>
<event>
 5    1  0.1717510E-003  0.9118800E+02  0.7818608E-02  0.1130116E+00
         25   -1    0    0    0    0  0.00000000000E+00  0.00000000000E+00  0.99999998245E-14  0.12500000000E+03  0.12500000000E+03 0.  0.
        -11    1    3    3    0    0 -0.26995432910E+02 -0.29841386984E+02  0.29679478702E+02  0.50001332297E+02  0.51100000000E-03 0.  1.
         23    2    1    0    0    0 -0.24672794220E+02 -0.19832756202E+02 -0.10635818942E+02  0.91605305245E+02  0.85301385166E+02 0.  0.
         11    1    3    3    0    0  0.23226386900E+01  0.10008630783E+02 -0.40315297645E+02  0.41603972948E+02  0.51100000000E-03 0. -1.
         22    1    1    0    0    0  0.24672794220E+02  0.19832756202E+02  0.10635818942E+02  0.33394694755E+02  0.00000000000E+00 0.  1.
</event>
<event>
 5    1  0.1717510E-003  0.9118800E+02  0.7818608E-02  0.1130116E+00
         25   -1    0    0    0    0  0.00000000000E+00  0.00000000000E+00  0.99999998245E-14  0.12500000000E+03  0.12500000000E+03 0.  0.
        -11    1    3    3    0    0 -0.45114575162E+02 -0.49730822817E+01  0.11692914499E+02  0.46869827066E+02  0.51100000000E-03 0. -1.
         23    2    1    0    0    0 -0.13089848713E+02 -0.33408243689E+01 -0.25600517737E+02  0.96053640036E+02  0.91588263489E+02 0.  0.
         11    1    3    3    0    0  0.32024726450E+02  0.16322579127E+01 -0.37293432236E+02  0.49183812970E+02  0.51100000000E-03 0.  1.
         22    1    1    0    0    0  0.13089848713E+02  0.33408243689E+01  0.25600517737E+02  0.28946359964E+02  0.00000000000E+00 0.  1.
</event>
<event>
 5    1  0.1717510E-003  0.9118800E+02  0.7818608E-02  0.1130116E+00
         25   -1    0    0    0    0  0.00000000000E+00  0.00000000000E+00  0.99999998245E-14  0.12500000000E+03  0.12500000000E+03 0.  0.
        -11    1    3    3    0    0  0.30210281179E+02 -0.97383286865E+01 -0.17447076170E+02  0.36220113220E+02  0.51100000000E-03 0. -1.
         23    2    1    0    0    0 -0.17507892258E+02  0.23054045027E+02 -0.29888085952E+01  0.95897624491E+02  0.91375084803E+02 0.  0.
         11    1    3    3    0    0 -0.47718173437E+02  0.32792373714E+02  0.14458267575E+02  0.59677511271E+02  0.51100000000E-03 0.  1.
         22    1    1    0    0    0  0.17507892258E+02 -0.23054045027E+02  0.29888085952E+01  0.29102375509E+02  0.00000000000E+00 0.  1.
</event>
<event>
 5    1  0.1717510E-003  0.9118800E+02  0.7818608E-02  0.1130116E+00
         25   -1    0    0    0    0  0.00000000000E+00  0.00000000000E+00  0.99999998245E-14  0.12500000000E+03  0.12500000000E+03 0.  0.
        -11    1    3    3    0    0 -0.48382252803E+00 -0.31892371682E+02  0.20041736606E+02  0.37669996843E+02  0.51100000000E-03 0. -1.
         23    2    1    0    0    0  0.14046893662E+01 -0.90936582125E-01 -0.28899400777E+02  0.96066338169E+02  0.91605592308E+02 0.  0.
         11    1    3    3    0    0  0.18885118942E+01  0.31801435100E+02 -0.48941137383E+02  0.58396341325E+02  0.51100000000E-03 0.  1.
         22    1    1    0    0    0 -0.14046893662E+01  0.90936582125E-01  0.28899400777E+02  0.28933661831E+02  0.00000000000E+00 0.  1.
</event>
<event>
 5    1  0.1717510E-003  0.9118800E+02  0.7818608E-02  0.1130116E+00
         25   -1    0    0    0    0  0.00000000000E+00  0.00000000000E+00  0.99999998245E-14  0.12500000000E+03  0.12500000000E+03 0.  0.
        -11    1    3    3    0    0  0.12570184226E+02  0.55580269270E+02  0.11495594740E+02  0.58131958184E+02  0.51100000000E-03 0.  1.
         23    2    1    0    0    0  0.21058567098E+02  0.41618279904E+02  0.16972475060E+02  0.75365240204E+02  0.56712521112E+02 0.  0.
         11    1    3    3    0    0  0.84883828726E+01 -0.13961989366E+02  0.54768803198E+01  0.17233282019E+02  0.51100000000E-03 0. -1.
         22    1    1    0    0    0 -0.21058567098E+02 -0.41618279904E+02 -0.16972475060E+02  0.49634759796E+02  0.00000000000E+00 0.  1.
</event>
<event>
 5    1  0.1717510E-003  0.9118800E+02  0.7818608E-02  0.1130116E+00
         25   -1    0    0    0    0  0.00000000000E+00  0.00000000000E+00  0.99999998245E-14  0.12500000000E+03  0.12500000000E+03 0.  0.
        -11    1    3    3    0    0 -0.53091467708E+02  0.42601499624E+01 -0.21234739162E+02  0.57339052736E+02  0.51100000000E-03 0. -1.
         23    2    1    0    0    0 -0.20099776429E+02  0.82124304126E+01  0.82602345026E+01  0.10176906158E+03  0.99082114407E+02 0.  0.
         11    1    3    3    0    0  0.32991691280E+02  0.39522804503E+01  0.29494973665E+02  0.44430008845E+02  0.51100000000E-03 0.  1.
         22    1    1    0    0    0  0.20099776429E+02 -0.82124304126E+01 -0.82602345026E+01  0.23230938418E+02  0.00000000000E+00 0. -1.
</event>
<event>
 5    1  0.1717510E-003  0.9118800E+02  0.7818608E-02  0.1130116E+00
         25   -1    0    0    0    0  0.00000000000E+00  0.00000000000E+00  0.99999998245E-14  0.12500000000E+03  0.12500000000E+03 0.  0.
        -11    1    3    3    0    0 -0.44586543358E+01 -0.27476592522E+02  0.42343323873E+02  0.50673462601E+02  0.51100000000E-03 0. -1.
         23    2    1    0    0    0 -0.56372492480E+01 -0.30508449000E+02 -0.82496888641E+00  0.93964139884E+02  0.88690670146E+02 0.  0.
         11    1    3    3    0    0 -0.11785949122E+01 -0.30318564784E+01 -0.43168292759E+02  0.43290677284E+02  0.51100000000E-03 0.  1.
         22    1    1    0    0    0  0.56372492480E+01  0.30508449000E+02  0.82496888641E+00  0.31035860116E+02  0.00000000000E+00 0. -1.
</event>
<event>
 5    1  0.1717510E-003  0.9118800E+02  0.7818608E-02  0.1130116E+00
         25   -1    0    0    0    0  0.00000000000E+00  0.00000000000E+00  0.99999998245E-14  0.12500000000E+03  0.12500000000E+03 0.  0.
        -11    1    3    3    0    0 -0.21033929138E+02 -0.81751021811E+01  0.30162116892E+02  0.37669772582E+02  0.51100000000E-03 0.  1.
         23    2    1    0    0    0  0.28692598623E+02 -0.12127088167E+01 -0.72873844550E-01  0.96281692442E+02  0.91898983185E+02 0.  0.
         11    1    3    3    0    0  0.49726527761E+02  0.69623933644E+01 -0.30234990737E+02  0.58611919860E+02  0.51100000000E-03 0. -1.
         22    1    1    0    0    0 -0.28692598623E+02  0.12127088167E+01  0.72873844550E-01  0.28718307558E+02  0.00000000000E+00 0. -1.
</event>
<event>
 5    1  0.1717510E-003  0.9118800E+02  0.7818608E-02  0.1130116E+00
         25   -1    0    0    0    0  0.00000000000E+00  0.00000000000E+00  0.99999998245E-14  0.12500000000E+03  0.12500000000E+03 0.  0.
        -11    1    3    3    0    0 -0.15801456440E+01  0.22674398193E+02  0.19806460743E+02  0.30148318048E+02  0.51100000000E-03 0.  1.
         23    2    1    0    0    0 -0.96308233069E+01 -0.29840726366E+02 -0.11248087606E+02  0.91687221935E+02  0.85421340915E+02 0.  0.
         11    1    3    3    0    0 -0.80506776629E+01 -0.52515124559E+02 -0.31054548349E+02  0.61538903888E+02  0.51100000000E-03 0. -1.
         22    1    1    0    0    0  0.96308233069E+01  0.29840726366E+02  0.11248087606E+02  0.33312778065E+02  0.00000000000E+00 0. -1.
</event>
<event>
 5    1  0.1717510E-003  0.9118800E+02  0.7818608E-02  0.1130116E+00
         25   -1    0    0    0    0  0.00000000000E+00  0.00000000000E+00  0.99999998245E-14  0.12500000000E+03  0.12500000000E+03 0.  0.
        -11    1    3    3    0    0  0.24664258004E+02  0.22497367666E+02 -0.35401216563E+02  0.48659051667E+02  0.51100000000E-03 0.  1.
         23    2    1    0    0    0 -0.55713019589E+01 -0.94454491744E+01 -0.30104781095E+02  0.92960122341E+02  0.87264142609E+02 0.  0.
         11    1    3    3    0    0 -0.30235559963E+02 -0.31942816840E+02  0.52964354683E+01  0.44301070674E+02  0.51100000000E-03 0. -1.
         22    1    1    0    0    0  0.55713019589E+01  0.94454491744E+01  0.30104781095E+02  0.32039877659E+02  0.00000000000E+00 0. -1.
</event>
<event>
 5    1  0.1717510E-003  0.9118800E+02  0.7818608E-02  0.1130116E+00
         25   -1    0    0    0    0  0.00000000000E+00  0.00000000000E+00  0.99999998245E-14  0.12500000000E+03  0.12500000000E+03 0.  0.
        -11    1    3    3    0    0 -0.23078433134E+02 -0.76868252135E+01 -0.56365917599E+02  0.61390699824E+02  0.51100000000E-03 0. -1.
         23    2    1    0    0    0 -0.26603433815E+01 -0.33727679904E+01 -0.28357803095E+02  0.96318682262E+02  0.91949282572E+02 0.  0.
         11    1    3    3    0    0  0.20418089753E+02  0.43140572231E+01  0.28008114504E+02  0.34927982438E+02  0.51100000000E-03 0.  1.
         22    1    1    0    0    0  0.26603433815E+01  0.33727679904E+01  0.28357803095E+02  0.28681317738E+02  0.00000000000E+00 0. -1.
</event>
<event>
 5    1  0.1717510E-003  0.9118800E+02  0.7818608E-02  0.1130116E+00
         25   -1    0    0    0    0  0.00000000000E+00  0.00000000000E+00  0.99999998245E-14  0.12500000000E+03  0.12500000000E+03 0.  0.
        -11    1    3    3    0    0 -0.17917799804E+02  0.19540481570E+02  0.27797791401E+02  0.38413476500E+02  0.51100000000E-03 0. -1.
         23    2    1    0    0    0 -0.14802617396E+02 -0.24136279964E+02 -0.86594526858E+01  0.95391494245E+02  0.90680061541E+02 0.  0.
         11    1    3    3    0    0  0.31151824083E+01 -0.43676761533E+02 -0.36457244087E+02  0.56978017745E+02  0.51100000000E-03 0.  1.
         22    1    1    0    0    0  0.14802617396E+02  0.24136279964E+02  0.86594526858E+01  0.29608505755E+02  0.00000000000E+00 0.  1.
</event>
<event>
 5    1  0.1717510E-003  0.9118800E+02  0.7818608E-02  0.1130116E+00
         25   -1    0    0    0    0  0.00000000000E+00  0.00000000000E+00  0.99999998245E-14  0.12500000000E+03  0.12500000000E+03 0.  0.
        -11    1    3    3    0    0  0.11285809905E+02 -0.28887579021E+02 -0.23835340080E+02  0.39115024784E+02  0.51100000000E-03 0.  1.
         23    2    1    0    0    0 -0.16022932428E+02 -0.14194022123E+02  0.21902420010E+02  0.94374510128E+02  0.89267169396E+02 0.  0.
         11    1    3    3    0    0 -0.27308742332E+02  0.14693556898E+02  0.45737760090E+02  0.55259485343E+02  0.51100000000E-03 0. -1.
         22    1    1    0    0    0  0.16022932428E+02  0.14194022123E+02 -0.21902420010E+02  0.30625489872E+02  0.00000000000E+00 0. -1.
</event>
<event>
 5    1  0.1717510E-003  0.9118800E+02  0.7818608E-02  0.1130116E+00
         25   -1    0    0    0    0  0.00000000000E+00  0.00000000000E+00  0.99999998245E-14  0.12500000000E+03  0.12500000000E+03 0.  0.
        -11    1    3    3    0    0  0.35891256035E+02 -0.99110213973E+00  0.20289754878E+02  0.41241225691E+02  0.51100000000E-03 0.  1.
         23    2    1    0    0    0  0.32113996339E+01 -0.10667223187E+02 -0.24829260070E+02  0.97786126814E+02  0.93923009447E+02 0.  0.
         11    1    3    3    0    0 -0.32679856401E+02 -0.96761210474E+01 -0.45119014948E+02  0.56544901124E+02  0.51100000000E-03 0. -1.
         22    1    1    0    0    0 -0.32113996339E+01  0.10667223187E+02  0.24829260070E+02  0.27213873186E+02  0.00000000000E+00 0. -1.
</event>
<event>
 5    1  0.1717510E-003  0.9118800E+02  0.7818608E-02  0.1130116E+00
         25   -1    0    0    0    0  0.00000000000E+00  0.00000000000E+00  0.99999998245E-14  0.12500000000E+03  0.12500000000E+03 0.  0.
        -11    1    3    3    0    0  0.17315748540E+02 -0.16206824194E+02  0.28518959389E+02  0.37092146647E+02  0.51100000000E-03 0.  1.
         23    2    1    0    0    0 -0.26685535112E+02 -0.35487054699E+01 -0.93424733137E+01  0.96504510842E+02  0.92201560239E+02 0.  0.
         11    1    3    3    0    0 -0.44001283653E+02  0.12658118724E+02 -0.37861432703E+02  0.59412364195E+02  0.51100000000E-03 0. -1.
         22    1    1    0    0    0  0.26685535112E+02  0.35487054699E+01  0.93424733137E+01  0.28495489158E+02  0.00000000000E+00 0. -1.
</event>
<event>
 5    1  0.1717510E-003  0.9118800E+02  0.7818608E-02  0.1130116E+00
         25   -1    0    0    0    0  0.00000000000E+00  0.00000000000E+00  0.99999998245E-14  0.12500000000E+03  0.12500000000E+03 0.  0.
        -11    1    3    3    0    0  0.16378458088E+02 -0.26710341872E+02 -0.32291698033E+02  0.44993888633E+02  0.51100000000E-03 0. -1.
         23    2    1    0    0    0 -0.11723509206E+02 -0.21227942713E+02  0.12162620709E+02  0.97870761852E+02  0.94035580836E+02 0.  0.
         11    1    3    3    0    0 -0.28101967294E+02  0.54823991581E+01  0.44454318742E+02  0.52876873219E+02  0.51100000000E-03 0.  1.
         22    1    1    0    0    0  0.11723509206E+02  0.21227942713E+02 -0.12162620709E+02  0.27129238148E+02  0.00000000000E+00 0.  1.
</event>
<event>
 5    1  0.1717510E-003  0.9118800E+02  0.7818608E-02  0.1130116E+00
         25   -1    0    0    0    0  0.00000000000E+00  0.00000000000E+00  0.99999998245E-14  0.12500000000E+03  0.12500000000E+03 0.  0.
        -11    1    3    3    0    0  0.52064943732E+02  0.26664422588E+02  0.16710696262E+02  0.60835821418E+02  0.51100000000E-03 0.  1.
         23    2    1    0    0    0  0.24771551542E+02  0.15107941757E+02 -0.20483216918E+01  0.95912626594E+02  0.91395605192E+02 0.  0.
         11    1    3    3    0    0 -0.27293392190E+02 -0.11556480832E+02 -0.18759017954E+02  0.35076805175E+02  0.51100000000E-03 0. -1.
         22    1    1    0    0    0 -0.24771551542E+02 -0.15107941757E+02  0.20483216918E+01  0.29087373406E+02  0.00000000000E+00 0.  1.
</event>
<event>
 5    1  0.1717510E-003  0.9118800E+02  0.7818608E-02  0.1130116E+00
         25   -1    0    0    0    0  0.00000000000E+00  0.00000000000E+00  0.99999998245E-14  0.12500000000E+03  0.12500000000E+03 0.  0.
        -11    1    3    3    0    0 -0.36599021442E+02 -0.15137527322E+02 -0.51464524501E+01  0.39938941861E+02  0.51100000000E-03 0.  1.
         23    2    1    0    0    0  0.72701031621E+01 -0.18145963727E+02  0.25008836010E+02  0.93257720968E+02  0.87689396406E+02 0.  0.
         11    1    3    3    0    0  0.43869124604E+02 -0.30084364052E+01  0.30155288460E+02  0.53318779107E+02  0.51100000000E-03 0. -1.
         22    1    1    0    0    0 -0.72701031621E+01  0.18145963727E+02 -0.25008836010E+02  0.31742279032E+02  0.00000000000E+00 0.  1.
</event>
<event>
 5    1  0.1717510E-003  0.9118800E+02  0.7818608E-02  0.1130116E+00
         25   -1    0    0    0    0  0.00000000000E+00  0.00000000000E+00  0.99999998245E-14  0.12500000000E+03  0.12500000000E+03 0.  0.
        -11    1    3    3    0    0 -0.37470061390E+02 -0.11269085539E+02  0.53234872412E+01  0.39488445223E+02  0.51100000000E-03 0.  1.
         23    2    1    0    0    0 -0.10515287112E+02  0.23501048756E+02  0.26271802911E+02  0.88215788932E+02  0.80180716092E+02 0.  0.
         11    1    3    3    0    0  0.26954774278E+02  0.34770134295E+02  0.20948315670E+02  0.48727343709E+02  0.51100000000E-03 0. -1.
         22    1    1    0    0    0  0.10515287112E+02 -0.23501048756E+02 -0.26271802911E+02  0.36784211068E+02  0.00000000000E+00 0.  1.
</event>
<event>
 5    1  0.1717510E-003  0.9118800E+02  0.7818608E-02  0.1130116E+00
         25   -1    0    0    0    0  0.00000000000E+00  0.00000000000E+00  0.99999998245E-14  0.12500000000E+03  0.12500000000E+03 0.  0.
        -11    1    3    3    0    0 -0.23556117557E+01 -0.20454051738E+02 -0.48869004819E+02  0.53029206778E+02  0.51100000000E-03 0.  1.
         23    2    1    0    0    0 -0.24124564489E+02 -0.76645233006E+01 -0.14017525075E+02  0.96065063704E+02  0.91603853227E+02 0.  0.
         11    1    3    3    0    0 -0.21768952733E+02  0.12789528438E+02  0.34851479744E+02  0.43035856926E+02  0.51100000000E-03 0. -1.
         22    1    1    0    0    0  0.24124564489E+02  0.76645233006E+01  0.14017525075E+02  0.28934936296E+02  0.00000000000E+00 0.  1.
</event>
<event>
 5    1  0.1717510E-003  0.9118800E+02  0.7818608E-02  0.1130116E+00
         25   -1    0    0    0    0  0.00000000000E+00  0.00000000000E+00  0.99999998245E-14  0.12500000000E+03  0.12500000000E+03 0.  0.
        -11    1    3    3    0    0 -0.36954111151E+02  0.93668180972E+00  0.41262684100E+02  0.55399393527E+02  0.51100000000E-03 0.  1.
         23    2    1    0    0    0 -0.15178274915E+02 -0.20066831666E+02  0.13575080262E+02  0.96410831306E+02  0.92074468918E+02 0.  0.
         11    1    3    3    0    0  0.21775836236E+02 -0.21003513476E+02 -0.27687603839E+02  0.41011437779E+02  0.51100000000E-03 0. -1.
         22    1    1    0    0    0  0.15178274915E+02  0.20066831666E+02 -0.13575080262E+02  0.28589168694E+02  0.00000000000E+00 0.  1.
</event>
<event>
 5    1  0.1717510E-003  0.9118800E+02  0.7818608E-02  0.1130116E+00
         25   -1    0    0    0    0  0.00000000000E+00  0.00000000000E+00  0.99999998245E-14  0.12500000000E+03  0.12500000000E+03 0.  0.
        -11    1    3    3    0    0 -0.31308365302E+02  0.38308558089E+02 -0.22365994997E+02  0.54295461074E+02  0.51100000000E-03 0.  1.
         23    2    1    0    0    0 -0.26102758458E+02  0.78699927827E+01  0.69388329523E+01  0.96867488767E+02  0.92692352391E+02 0.  0.
         11    1    3    3    0    0  0.52056068432E+01 -0.30438565307E+02  0.29304827949E+02  0.42572027693E+02  0.51100000000E-03 0. -1.
         22    1    1    0    0    0  0.26102758458E+02 -0.78699927827E+01 -0.69388329523E+01  0.28132511233E+02  0.00000000000E+00 0.  1.
</event>
<event>
 5    1  0.1717510E-003  0.9118800E+02  0.7818608E-02  0.1130116E+00
         25   -1    0    0    0    0  0.00000000000E+00  0.00000000000E+00  0.99999998245E-14  0.12500000000E+03  0.12500000000E+03 0.  0.
        -11    1    3    3    0    0  0.17446363930E+02 -0.16824239405E+02  0.54550545665E+02  0.59692484272E+02  0.51100000000E-03 0. -1.
         23    2    1    0    0    0  0.15778278679E+02  0.26686501015E+01  0.20131506654E+02  0.99283209151E+02  0.95894745881E+02 0.  0.
         11    1    3    3    0    0 -0.16680852515E+01  0.19492889506E+02 -0.34419039011E+02  0.39590724879E+02  0.51100000000E-03 0.  1.
         22    1    1    0    0    0 -0.15778278679E+02 -0.26686501015E+01 -0.20131506654E+02  0.25716790849E+02  0.00000000000E+00 0. -1.
</event>
<event>
 5    1  0.1717510E-003  0.9118800E+02  0.7818608E-02  0.1130116E+00
         25   -1    0    0    0    0  0.00000000000E+00  0.00000000000E+00  0.99999998245E-14  0.12500000000E+03  0.12500000000E+03 0.  0.
        -11    1    3    3    0    0 -0.35151731941E+02 -0.44006875892E+02  0.21298826886E+02  0.60215358599E+02  0.51100000000E-03 0. -1.
         23    2    1    0    0    0 -0.19537632632E+02 -0.22163710979E+02 -0.14672316531E+01  0.95417878001E+02  0.90716423542E+02 0.  0.
         11    1    3    3    0    0  0.15614099308E+02  0.21843164913E+02 -0.22766058539E+02  0.35202519402E+02  0.51100000000E-03 0.  1.
         22    1    1    0    0    0  0.19537632632E+02  0.22163710979E+02  0.14672316531E+01  0.29582121999E+02  0.00000000000E+00 0. -1.
</event>
<event>
 5    1  0.1717510E-003  0.9118800E+02  0.7818608E-02  0.1130116E+00
         25   -1    0    0    0    0  0.00000000000E+00  0.00000000000E+00  0.99999998245E-14  0.12500000000E+03  0.12500000000E+03 0.  0.
        -11    1    3    3    0    0 -0.71354601180E+01  0.48767005158E+01 -0.32403940000E+02  0.33536731009E+02  0.51100000000E-03 0.  1.
         23    2    1    0    0    0 -0.23759855915E+02  0.12493594755E+02  0.21594840120E+02  0.90547746332E+02  0.83737306997E+02 0.  0.
         11    1    3    3    0    0 -0.16624395797E+02  0.76168942390E+01  0.53998780120E+02  0.57011015323E+02  0.51100000000E-03 0. -1.
         22    1    1    0    0    0  0.23759855915E+02 -0.12493594755E+02 -0.21594840120E+02  0.34452253668E+02  0.00000000000E+00 0. -1.
</event>
<event>
 5    1  0.1717510E-003  0.9118800E+02  0.7818608E-02  0.1130116E+00
         25   -1    0    0    0    0  0.00000000000E+00  0.00000000000E+00  0.99999998245E-14  0.12500000000E+03  0.12500000000E+03 0.  0.
        -11    1    3    3    0    0 -0.11127700009E+02 -0.12983384565E+01 -0.44149656934E+02  0.45548914343E+02  0.51100000000E-03 0. -1.
         23    2    1    0    0    0  0.11025435660E+02  0.25264637544E+02 -0.64927459314E+01  0.96680079600E+02  0.92439276825E+02 0.  0.
         11    1    3    3    0    0  0.22153135670E+02  0.26562976000E+02  0.37656911002E+02  0.51131165257E+02  0.51100000000E-03 0.  1.
         22    1    1    0    0    0 -0.11025435660E+02 -0.25264637544E+02  0.64927459314E+01  0.28319920400E+02  0.00000000000E+00 0.  1.
</event>
<event>
 5    1  0.1717510E-003  0.9118800E+02  0.7818608E-02  0.1130116E+00
         25   -1    0    0    0    0  0.00000000000E+00  0.00000000000E+00  0.99999998245E-14  0.12500000000E+03  0.12500000000E+03 0.  0.
        -11    1    3    3    0    0 -0.38786848587E+02  0.20912373612E+02  0.17509492440E+02  0.47416551110E+02  0.51100000000E-03 0. -1.
         23    2    1    0    0    0 -0.22697635038E+02 -0.49297015352E+00 -0.20834992328E+02  0.94185676039E+02  0.89002353956E+02 0.  0.
         11    1    3    3    0    0  0.16089213549E+02 -0.21405343765E+02 -0.38344484767E+02  0.46769124929E+02  0.51100000000E-03 0.  1.
         22    1    1    0    0    0  0.22697635038E+02  0.49297015352E+00  0.20834992328E+02  0.30814323961E+02  0.00000000000E+00 0. -1.
</event>
<event>
 5    1  0.1717510E-003  0.9118800E+02  0.7818608E-02  0.1130116E+00
         25   -1    0    0    0    0  0.00000000000E+00  0.00000000000E+00  0.99999998245E-14  0.12500000000E+03  0.12500000000E+03 0.  0.
        -11    1    3    3    0    0 -0.31817756951E+02  0.40533534304E+02  0.33693001910E+02  0.61567486862E+02  0.51100000000E-03 0. -1.
         23    2    1    0    0    0 -0.86903790117E+01  0.19442278519E+02  0.20183649902E+02  0.95658824073E+02  0.91047822699E+02 0.  0.
         11    1    3    3    0    0  0.23127377939E+02 -0.21091255784E+02 -0.13509352008E+02  0.34091337211E+02  0.51100000000E-03 0.  1.
         22    1    1    0    0    0  0.86903790117E+01 -0.19442278519E+02 -0.20183649902E+02  0.29341175927E+02  0.00000000000E+00 0. -1.
</event>
<event>
 5    1  0.1717510E-003  0.9118800E+02  0.7818608E-02  0.1130116E+00
         25   -1    0    0    0    0  0.00000000000E+00  0.00000000000E+00  0.99999998245E-14  0.12500000000E+03  0.12500000000E+03 0.  0.
        -11    1    3    3    0    0  0.86406970774E+01 -0.13793517210E+01  0.55262595929E+02  0.55951039009E+02  0.51100000000E-03 0.  1.
         23    2    1    0    0    0 -0.98937490690E+00  0.16171111975E+02  0.87544366517E+01  0.10658468338E+03  0.10498176434E+03 0.  0.
         11    1    3    3    0    0 -0.96300719843E+01  0.17550463696E+02 -0.46508159277E+02  0.50633644368E+02  0.51100000000E-03 0. -1.
         22    1    1    0    0    0  0.98937490690E+00 -0.16171111975E+02 -0.87544366517E+01  0.18415316623E+02  0.00000000000E+00 0.  1.
</event>
<event>
 5    1  0.1717510E-003  0.9118800E+02  0.7818608E-02  0.1130116E+00
         25   -1    0    0    0    0  0.00000000000E+00  0.00000000000E+00  0.99999998245E-14  0.12500000000E+03  0.12500000000E+03 0.  0.
        -11    1    3    3    0    0 -0.23517066047E+02  0.30753149971E+02  0.33090572156E+02  0.50929309778E+02  0.51100000000E-03 0.  1.
         23    2    1    0    0    0 -0.32810678931E+02  0.18951381093E+02  0.17677446370E+00  0.87109014971E+02  0.78436303730E+02 0.  0.
         11    1    3    3    0    0 -0.92936128836E+01 -0.11801768878E+02 -0.32913797693E+02  0.36179705193E+02  0.51100000000E-03 0. -1.
         22    1    1    0    0    0  0.32810678931E+02 -0.18951381093E+02 -0.17677446370E+00  0.37890985029E+02  0.00000000000E+00 0.  1.
</event>
<event>
 5    1  0.1717510E-003  0.9118800E+02  0.7818608E-02  0.1130116E+00
         25   -1    0    0    0    0  0.00000000000E+00  0.00000000000E+00  0.99999998245E-14  0.12500000000E+03  0.12500000000E+03 0.  0.
        -11    1    3    3    0    0  0.34513217544E+02  0.16895967848E+02 -0.80391501467E+00  0.38435428896E+02  0.51100000000E-03 0.  1.
         23    2    1    0    0    0 -0.20882002233E+02  0.13361194419E+02 -0.15380971840E+02  0.95825459244E+02  0.91276310240E+02 0.  0.
         11    1    3    3    0    0 -0.55395219778E+02 -0.35347734281E+01 -0.14577056825E+02  0.57390030348E+02  0.51100000000E-03 0. -1.
         22    1    1    0    0    0  0.20882002233E+02 -0.13361194419E+02  0.15380971840E+02  0.29174540756E+02  0.00000000000E+00 0. -1.
</event>
<event>
 5    1  0.1717510E-003  0.9118800E+02  0.7818608E-02  0.1130116E+00
         25   -1    0    0    0    0  0.00000000000E+00  0.00000000000E+00  0.99999998245E-14  0.12500000000E+03  0.12500000000E+03 0.  0.
        -11    1    3    3    0    0  0.14730466984E+02  0.27968166932E+02 -0.22549963720E+02  0.38829188546E+02  0.51100000000E-03 0.  1.
         23    2    1    0    0    0  0.27832322980E+02 -0.17708670815E+02  0.12766918131E+01  0.91986894020E+02  0.85858741576E+02 0.  0.
         11    1    3    3    0    0  0.13101855996E+02 -0.45676837747E+02  0.23826655533E+02  0.53157705474E+02  0.51100000000E-03 0. -1.
         22    1    1    0    0    0 -0.27832322980E+02  0.17708670815E+02 -0.12766918131E+01  0.33013105980E+02  0.00000000000E+00 0.  1.
</event>
<event>
 5    1  0.1717510E-003  0.9118800E+02  0.7818608E-02  0.1130116E+00
         25   -1    0    0    0    0  0.00000000000E+00  0.00000000000E+00  0.99999998245E-14  0.12500000000E+03  0.12500000000E+03 0.  0.
        -11    1    3    3    0    0 -0.80815674487E+01 -0.61536149302E+02 -0.51847308913E+01  0.62280742112E+02  0.51100000000E-03 0. -1.
         23    2    1    0    0    0 -0.57385058747E+01 -0.28780390502E+02 -0.56037216185E+01  0.95122867890E+02  0.90309008258E+02 0.  0.
         11    1    3    3    0    0  0.23430615740E+01  0.32755758800E+02 -0.41899072719E+00  0.32842125778E+02  0.51100000000E-03 0.  1.
         22    1    1    0    0    0  0.57385058747E+01  0.28780390502E+02  0.56037216185E+01  0.29877132110E+02  0.00000000000E+00 0. -1.
</event>
<event>
 5    1  0.1717510E-003  0.9118800E+02  0.7818608E-02  0.1130116E+00
         25   -1    0    0    0    0  0.00000000000E+00  0.00000000000E+00  0.99999998245E-14  0.12500000000E+03  0.12500000000E+03 0.  0.
        -11    1    3    3    0    0 -0.12556407935E+02  0.15163226818E+02 -0.32370179098E+02  0.37886875338E+02  0.51100000000E-03 0. -1.
         23    2    1    0    0    0  0.40155208021E+01 -0.12286537830E+02  0.21112464891E+02  0.10024480675E+03  0.97140113686E+02 0.  0.
         11    1    3    3    0    0  0.16571928737E+02 -0.27449764648E+02  0.53482643990E+02  0.62357931410E+02  0.51100000000E-03 0.  1.
         22    1    1    0    0    0 -0.40155208021E+01  0.12286537830E+02 -0.21112464891E+02  0.24755193252E+02  0.00000000000E+00 0.  1.
</event>
<event>
 5    1  0.1717510E-003  0.9118800E+02  0.7818608E-02  0.1130116E+00
         25   -1    0    0    0    0  0.00000000000E+00  0.00000000000E+00  0.99999998245E-14  0.12500000000E+03  0.12500000000E+03 0.  0.
        -11    1    3    3    0    0  0.16774456597E+02  0.45290059846E+02 -0.15777480378E+02  0.50808471757E+02  0.51100000000E-03 0. -1.
         23    2    1    0    0    0  0.27891419247E+02  0.74300520533E+01  0.54673576824E+01  0.95622645777E+02  0.90998139785E+02 0.  0.
         11    1    3    3    0    0  0.11116962649E+02 -0.37860007792E+02  0.21244838061E+02  0.44814174020E+02  0.51100000000E-03 0.  1.
         22    1    1    0    0    0 -0.27891419247E+02 -0.74300520533E+01 -0.54673576824E+01  0.29377354223E+02  0.00000000000E+00 0. -1.
</event>
<event>
 5    1  0.1717510E-003  0.9118800E+02  0.7818608E-02  0.1130116E+00
         25   -1    0    0    0    0  0.00000000000E+00  0.00000000000E+00  0.99999998245E-14  0.12500000000E+03  0.12500000000E+03 0.  0.
        -11    1    3    3    0    0 -0.91993525799E+01 -0.18349039816E+02 -0.35816275570E+02  0.41280999819E+02  0.51100000000E-03 0. -1.
         23    2    1    0    0    0  0.63520634475E+01 -0.72447141096E+01  0.21360791619E+02  0.10156673281E+03  0.98826530865E+02 0.  0.
         11    1    3    3    0    0  0.15551416027E+02  0.11104325707E+02  0.57177067189E+02  0.60285732992E+02  0.51100000000E-03 0.  1.
         22    1    1    0    0    0 -0.63520634475E+01  0.72447141096E+01 -0.21360791619E+02  0.23433267189E+02  0.00000000000E+00 0.  1.
</event>
<event>
 5    1  0.1717510E-003  0.9118800E+02  0.7818608E-02  0.1130116E+00
         25   -1    0    0    0    0  0.00000000000E+00  0.00000000000E+00  0.99999998245E-14  0.12500000000E+03  0.12500000000E+03 0.  0.
        -11    1    3    3    0    0 -0.25037016448E+02  0.13912780445E+02 -0.27972317613E+02  0.40035836512E+02  0.51100000000E-03 0.  1.
         23    2    1    0    0    0  0.26768612958E+02  0.49961850791E+01 -0.13757128519E+02  0.94491327624E+02  0.89430598265E+02 0.  0.
         11    1    3    3    0    0  0.51805629406E+02 -0.89165953659E+01  0.14215189093E+02  0.54455491112E+02  0.51100000000E-03 0. -1.
         22    1    1    0    0    0 -0.26768612958E+02 -0.49961850791E+01  0.13757128519E+02  0.30508672376E+02  0.00000000000E+00 0. -1.
</event>
<event>
 5    1  0.1717510E-003  0.9118800E+02  0.7818608E-02  0.1130116E+00
         25   -1    0    0    0    0  0.00000000000E+00  0.00000000000E+00  0.99999998245E-14  0.12500000000E+03  0.12500000000E+03 0.  0.
        -11    1    3    3    0    0 -0.20040982820E+02 -0.29481142223E+02 -0.11093284643E+02  0.37334162688E+02  0.51100000000E-03 0.  1.
         23    2    1    0    0    0 -0.61376608774E+01  0.27390351462E+02 -0.72649085696E+01  0.96005498266E+02  0.91522535840E+02 0.  0.
         11    1    3    3    0    0  0.13903321943E+02  0.56871493685E+02  0.38283760735E+01  0.58671335579E+02  0.51100000000E-03 0. -1.
         22    1    1    0    0    0  0.61376608774E+01 -0.27390351462E+02  0.72649085696E+01  0.28994501734E+02  0.00000000000E+00 0. -1.
</event>
<event>
 5    1  0.1717510E-003  0.9118800E+02  0.7818608E-02  0.1130116E+00
         25   -1    0    0    0    0  0.00000000000E+00  0.00000000000E+00  0.99999998245E-14  0.12500000000E+03  0.12500000000E+03 0.  0.
        -11    1    3    3    0    0 -0.14455420241E+02  0.55480815566E+02  0.19422072412E+02  0.60533436771E+02  0.51100000000E-03 0. -1.
         23    2    1    0    0    0  0.20961683300E+01  0.29047011641E+02  0.31604336824E+01  0.95706465765E+02  0.91113206733E+02 0.  0.
         11    1    3    3    0    0  0.16551588571E+02 -0.26433803926E+02 -0.16261638730E+02  0.35173028994E+02  0.51100000000E-03 0.  1.
         22    1    1    0    0    0 -0.20961683300E+01 -0.29047011641E+02 -0.31604336824E+01  0.29293534235E+02  0.00000000000E+00 0. -1.
</event>
<event>
 5    1  0.1717510E-003  0.9118800E+02  0.7818608E-02  0.1130116E+00
         25   -1    0    0    0    0  0.00000000000E+00  0.00000000000E+00  0.99999998245E-14  0.12500000000E+03  0.12500000000E+03 0.  0.
        -11    1    3    3    0    0 -0.21186889142E+02  0.24348486579E+02  0.29891871181E+02  0.43991556385E+02  0.51100000000E-03 0.  1.
         23    2    1    0    0    0 -0.45178541945E+01  0.64187905644E+01 -0.22147986931E+02  0.10150222981E+03  0.98744911020E+02 0.  0.
         11    1    3    3    0    0  0.16669034947E+02 -0.17929696015E+02 -0.52039858111E+02  0.57510673425E+02  0.51100000000E-03 0. -1.
         22    1    1    0    0    0  0.45178541945E+01 -0.64187905644E+01  0.22147986931E+02  0.23497770190E+02  0.00000000000E+00 0. -1.
</event>
<event>
 5    1  0.1717510E-003  0.9118800E+02  0.7818608E-02  0.1130116E+00
         25   -1    0    0    0    0  0.00000000000E+00  0.00000000000E+00  0.99999998245E-14  0.12500000000E+03  0.12500000000E+03 0.  0.
        -11    1    3    3    0    0  0.55197166910E+02  0.23112736262E+02  0.16057323998E+02  0.61957755500E+02  0.51100000000E-03 0.  1.
         23    2    1    0    0    0  0.29222930070E+02  0.59489788803E+01  0.73513320887E+01  0.94284986162E+02  0.89141721660E+02 0.  0.
         11    1    3    3    0    0 -0.25974236840E+02 -0.17163757382E+02 -0.87059919089E+01  0.32327230662E+02  0.51100000000E-03 0. -1.
         22    1    1    0    0    0 -0.29222930070E+02 -0.59489788803E+01 -0.73513320887E+01  0.30715013838E+02  0.00000000000E+00 0.  1.
</event>
<event>
 5    1  0.1717510E-003  0.9118800E+02  0.7818608E-02  0.1130116E+00
         25   -1    0    0    0    0  0.00000000000E+00  0.00000000000E+00  0.99999998245E-14  0.12500000000E+03  0.12500000000E+03 0.  0.
        -11    1    3    3    0    0 -0.11651892435E+02 -0.19179286081E+02 -0.70449894304E+01  0.23521128549E+02  0.51100000000E-03 0.  1.
         23    2    1    0    0    0  0.56832114575E+01  0.27701395060E+02  0.28497739710E+02  0.84852928508E+02  0.74754478977E+02 0.  0.
         11    1    3    3    0    0  0.17335103893E+02  0.46880681141E+02  0.35542729141E+02  0.61331799959E+02  0.51100000000E-03 0. -1.
         22    1    1    0    0    0 -0.56832114575E+01 -0.27701395060E+02 -0.28497739710E+02  0.40147071492E+02  0.00000000000E+00 0. -1.
</event>
<event>
 5    1  0.1717510E-003  0.9118800E+02  0.7818608E-02  0.1130116E+00
         25   -1    0    0    0    0  0.00000000000E+00  0.00000000000E+00  0.99999998245E-14  0.12500000000E+03  0.12500000000E+03 0.  0.
        -11    1    3    3    0    0 -0.27518447540E+02 -0.28509670774E+02  0.21955555261E+01  0.39684842786E+02  0.51100000000E-03 0. -1.
         23    2    1    0    0    0 -0.91783272985E+01  0.23784880842E+02  0.13362379043E+02  0.96216056171E+02  0.91809662034E+02 0.  0.
         11    1    3    3    0    0  0.18340120241E+02  0.52294551615E+02  0.11166823517E+02  0.56531213385E+02  0.51100000000E-03 0.  1.
         22    1    1    0    0    0  0.91783272985E+01 -0.23784880842E+02 -0.13362379043E+02  0.28783943829E+02  0.00000000000E+00 0. -1.
</event>
<event>
 5    1  0.1717510E-003  0.9118800E+02  0.7818608E-02  0.1130116E+00
         25   -1    0    0    0    0  0.00000000000E+00  0.00000000000E+00  0.99999998245E-14  0.12500000000E+03  0.12500000000E+03 0.  0.
        -11    1    3    3    0    0 -0.85048879872E+01 -0.46780114998E+02 -0.31376561105E+02  0.56966664515E+02  0.51100000000E-03 0.  1.
         23    2    1    0    0    0  0.10042576229E+02 -0.25279250642E+02 -0.21524606425E+01  0.97713979089E+02  0.93826940545E+02 0.  0.
         11    1    3    3    0    0  0.18547464217E+02  0.21500864355E+02  0.29224100462E+02  0.40747314574E+02  0.51100000000E-03 0. -1.
         22    1    1    0    0    0 -0.10042576229E+02  0.25279250642E+02  0.21524606425E+01  0.27286020911E+02  0.00000000000E+00 0.  1.
</event>
<event>
 5    1  0.1717510E-003  0.9118800E+02  0.7818608E-02  0.1130116E+00
         25   -1    0    0    0    0  0.00000000000E+00  0.00000000000E+00  0.99999998245E-14  0.12500000000E+03  0.12500000000E+03 0.  0.
        -11    1    3    3    0    0 -0.24445831610E+02 -0.37895619777E+02  0.25260626177E+02  0.51689224375E+02  0.51100000000E-03 0.  1.
         23    2    1    0    0    0  0.58810179389E+01 -0.29688996926E+02 -0.38127473693E+01  0.94494919227E+02  0.89435618222E+02 0.  0.
         11    1    3    3    0    0  0.30326849549E+02  0.82066228515E+01 -0.29073373546E+02  0.42805694852E+02  0.51100000000E-03 0. -1.
         22    1    1    0    0    0 -0.58810179389E+01  0.29688996926E+02  0.38127473693E+01  0.30505080773E+02  0.00000000000E+00 0.  1.
</event>
<event>
 5    1  0.1717510E-003  0.9118800E+02  0.7818608E-02  0.1130116E+00
         25   -1    0    0    0    0  0.00000000000E+00  0.00000000000E+00  0.99999998245E-14  0.12500000000E+03  0.12500000000E+03 0.  0.
        -11    1    3    3    0    0  0.37043703456E+02 -0.21903932524E+02  0.11894848385E+02  0.44648691404E+02  0.51100000000E-03 0. -1.
         23    2    1    0    0    0  0.85234717597E+01 -0.46042007876E+01 -0.27250554592E+02  0.96078710933E+02  0.91622473952E+02 0.  0.
         11    1    3    3    0    0 -0.28520231696E+02  0.17299731736E+02 -0.39145402978E+02  0.51430019528E+02  0.51100000000E-03 0.  1.
         22    1    1    0    0    0 -0.85234717597E+01  0.46042007876E+01  0.27250554592E+02  0.28921289067E+02  0.00000000000E+00 0.  1.
</event>
<event>
 5    1  0.1717510E-003  0.9118800E+02  0.7818608E-02  0.1130116E+00
         25   -1    0    0    0    0  0.00000000000E+00  0.00000000000E+00  0.99999998245E-14  0.12500000000E+03  0.12500000000E+03 0.  0.
        -11    1    3    3    0    0 -0.33256437960E+01  0.37775392390E+02  0.10312233100E+02  0.39298630111E+02  0.51100000000E-03 0.  1.
         23    2    1    0    0    0  0.29190035800E+02  0.81023011189E+00 -0.12099894061E+02  0.93391107278E+02  0.87879331014E+02 0.  0.
         11    1    3    3    0    0  0.32515679596E+02 -0.36965162278E+02 -0.22412127161E+02  0.54092477166E+02  0.51100000000E-03 0. -1.
         22    1    1    0    0    0 -0.29190035800E+02 -0.81023011189E+00  0.12099894061E+02  0.31608892722E+02  0.00000000000E+00 0. -1.
</event>
<event>
 5    1  0.1717510E-003  0.9118800E+02  0.7818608E-02  0.1130116E+00
         25   -1    0    0    0    0  0.00000000000E+00  0.00000000000E+00  0.99999998245E-14  0.12500000000E+03  0.12500000000E+03 0.  0.
        -11    1    3    3    0    0  0.12328894660E+02 -0.29416561001E+02  0.10583349865E+02  0.33605698911E+02  0.51100000000E-03 0.  1.
         23    2    1    0    0    0 -0.70960806906E+01  0.14260585602E+02 -0.26483665988E+02  0.94095255590E+02  0.88875271575E+02 0.  0.
         11    1    3    3    0    0 -0.19424975351E+02  0.43677146603E+02 -0.37067015853E+02  0.60489556679E+02  0.51100000000E-03 0. -1.
         22    1    1    0    0    0  0.70960806906E+01 -0.14260585602E+02  0.26483665988E+02  0.30904744410E+02  0.00000000000E+00 0. -1.
</event>
<event>
 5    1  0.1717510E-003  0.9118800E+02  0.7818608E-02  0.1130116E+00
         25   -1    0    0    0    0  0.00000000000E+00  0.00000000000E+00  0.99999998245E-14  0.12500000000E+03  0.12500000000E+03 0.  0.
        -11    1    3    3    0    0  0.53743797346E+02 -0.29504702284E+02  0.11681611755E+02  0.62413005564E+02  0.51100000000E-03 0. -1.
         23    2    1    0    0    0  0.22760758331E+02 -0.99246908723E+01  0.43146166770E+01  0.99797469853E+02  0.96562764373E+02 0.  0.
         11    1    3    3    0    0 -0.30983039015E+02  0.19580011411E+02 -0.73669950782E+01  0.37384464290E+02  0.51100000000E-03 0.  1.
         22    1    1    0    0    0 -0.22760758331E+02  0.99246908723E+01 -0.43146166770E+01  0.25202530147E+02  0.00000000000E+00 0. -1.
</event>
<event>
 5    1  0.1717510E-003  0.9118800E+02  0.7818608E-02  0.1130116E+00
         25   -1    0    0    0    0  0.00000000000E+00  0.00000000000E+00  0.99999998245E-14  0.12500000000E+03  0.12500000000E+03 0.  0.
        -11    1    3    3    0    0 -0.28217467579E+02  0.13841762467E+02  0.21458317394E+02  0.38056264273E+02  0.51100000000E-03 0.  1.
         23    2    1    0    0    0 -0.78602561681E+01 -0.16508254683E+02 -0.23007057870E+02  0.95612403780E+02  0.90984069733E+02 0.  0.
         11    1    3    3    0    0  0.20357211411E+02 -0.30350017150E+02 -0.44465375264E+02  0.57556139508E+02  0.51100000000E-03 0. -1.
         22    1    1    0    0    0  0.78602561681E+01  0.16508254683E+02  0.23007057870E+02  0.29387596220E+02  0.00000000000E+00 0. -1.
</event>
<event>
 5    1  0.1717510E-003  0.9118800E+02  0.7818608E-02  0.1130116E+00
         25   -1    0    0    0    0  0.00000000000E+00  0.00000000000E+00  0.99999998245E-14  0.12500000000E+03  0.12500000000E+03 0.  0.
        -11    1    3    3    0    0 -0.79018375655E+01 -0.45497704584E+00  0.51975095631E+02  0.52574296069E+02  0.51100000000E-03 0. -1.
         23    2    1    0    0    0 -0.25236420877E+02  0.65037437671E+00  0.10280721133E+02  0.97742099264E+02  0.93864395891E+02 0.  0.
         11    1    3    3    0    0 -0.17334583312E+02  0.11053514226E+01 -0.41694374498E+02  0.45167803195E+02  0.51100000000E-03 0.  1.
         22    1    1    0    0    0  0.25236420877E+02 -0.65037437671E+00 -0.10280721133E+02  0.27257900736E+02  0.00000000000E+00 0. -1.
</event>
<event>
 5    1  0.1717510E-003  0.9118800E+02  0.7818608E-02  0.1130116E+00
         25   -1    0    0    0    0  0.00000000000E+00  0.00000000000E+00  0.99999998245E-14  0.12500000000E+03  0.12500000000E+03 0.  0.
        -11    1    3    3    0    0  0.43362193687E+02 -0.18658549800E+02 -0.14662715459E+02  0.49430927029E+02  0.51100000000E-03 0.  1.
         23    2    1    0    0    0  0.57419203858E+01 -0.32774785739E+02 -0.11728792174E+02  0.89719399157E+02  0.82491513438E+02 0.  0.
         11    1    3    3    0    0 -0.37620273302E+02 -0.14116235939E+02  0.29339232847E+01  0.40288472129E+02  0.51100000000E-03 0. -1.
         22    1    1    0    0    0 -0.57419203858E+01  0.32774785739E+02  0.11728792174E+02  0.35280600843E+02  0.00000000000E+00 0.  1.
</event>
<event>
 5    1  0.1717510E-003  0.9118800E+02  0.7818608E-02  0.1130116E+00
         25   -1    0    0    0    0  0.00000000000E+00  0.00000000000E+00  0.99999998245E-14  0.12500000000E+03  0.12500000000E+03 0.  0.
        -11    1    3    3    0    0  0.44569791479E+02  0.62461758407E+01  0.10951870130E+02  0.46318727149E+02  0.51100000000E-03 0.  1.
         23    2    1    0    0    0  0.66560254183E+01 -0.97793514694E+01 -0.22645327663E+02  0.99451042008E+02  0.96113269126E+02 0.  0.
         11    1    3    3    0    0 -0.37913766061E+02 -0.16025527310E+02 -0.33597197793E+02  0.53132314859E+02  0.51100000000E-03 0. -1.
         22    1    1    0    0    0 -0.66560254183E+01  0.97793514694E+01  0.22645327663E+02  0.25548957992E+02  0.00000000000E+00 0. -1.
</event>
<event>
 5    1  0.1717510E-003  0.9118800E+02  0.7818608E-02  0.1130116E+00
         25   -1    0    0    0    0  0.00000000000E+00  0.00000000000E+00  0.99999998245E-14  0.12500000000E+03  0.12500000000E+03 0.  0.
        -11    1    3    3    0    0 -0.76848232191E+00  0.17635774269E+02  0.51359093339E+02  0.54308080136E+02  0.51100000000E-03 0. -1.
         23    2    1    0    0    0  0.23857064401E+01 -0.14277909542E+02  0.26193796457E+02  0.95072332718E+02  0.90239033569E+02 0.  0.
         11    1    3    3    0    0  0.31541887620E+01 -0.31913683811E+02 -0.25165296882E+02  0.40764252582E+02  0.51100000000E-03 0.  1.
         22    1    1    0    0    0 -0.23857064401E+01  0.14277909542E+02 -0.26193796457E+02  0.29927667282E+02  0.00000000000E+00 0. -1.
</event>
<event>
 5    1  0.1717510E-003  0.9118800E+02  0.7818608E-02  0.1130116E+00
         25   -1    0    0    0    0  0.00000000000E+00  0.00000000000E+00  0.99999998245E-14  0.12500000000E+03  0.12500000000E+03 0.  0.
        -11    1    3    3    0    0  0.17444059755E+02  0.44834308814E+02  0.24694314831E+02  0.54076054338E+02  0.51100000000E-03 0.  1.
         23    2    1    0    0    0  0.24459906526E+02  0.38274239945E+01  0.71155062801E+01  0.99240212903E+02  0.95838683347E+02 0.  0.
         11    1    3    3    0    0  0.70158467704E+01 -0.41006884819E+02 -0.17578808551E+02  0.45164158564E+02  0.51100000000E-03 0. -1.
         22    1    1    0    0    0 -0.24459906526E+02 -0.38274239945E+01 -0.71155062801E+01  0.25759787097E+02  0.00000000000E+00 0.  1.
</event>
<event>
 5    1  0.1717510E-003  0.9118800E+02  0.7818608E-02  0.1130116E+00
         25   -1    0    0    0    0  0.00000000000E+00  0.00000000000E+00  0.99999998245E-14  0.12500000000E+03  0.12500000000E+03 0.  0.
        -11    1    3    3    0    0  0.25066150557E+02  0.74107501181E+01  0.38617962649E+02  0.46632372452E+02  0.51100000000E-03 0.  1.
         23    2    1    0    0    0  0.25432141150E+02  0.10342155954E+02 -0.10327742380E+02  0.95667147157E+02  0.91059248784E+02 0.  0.
         11    1    3    3    0    0  0.36599059304E+00  0.29314058354E+01 -0.48945705029E+02  0.49034774705E+02  0.51100000000E-03 0. -1.
         22    1    1    0    0    0 -0.25432141150E+02 -0.10342155954E+02  0.10327742380E+02  0.29332852843E+02  0.00000000000E+00 0.  1.
</event>
<event>
 5    1  0.1717510E-003  0.9118800E+02  0.7818608E-02  0.1130116E+00
         25   -1    0    0    0    0  0.00000000000E+00  0.00000000000E+00  0.99999998245E-14  0.12500000000E+03  0.12500000000E+03 0.  0.
        -11    1    3    3    0    0  0.17818902064E+02 -0.28213541728E+02 -0.50715047913E+02  0.60708593236E+02  0.51100000000E-03 0.  1.
         23    2    1    0    0    0  0.14358079763E+02 -0.51334558326E+01 -0.27066488786E+02  0.93933914980E+02  0.88648061146E+02 0.  0.
         11    1    3    3    0    0 -0.34608223012E+01  0.23080085896E+02  0.23648559127E+02  0.33225321744E+02  0.51100000000E-03 0. -1.
         22    1    1    0    0    0 -0.14358079763E+02  0.51334558326E+01  0.27066488786E+02  0.31066085020E+02  0.00000000000E+00 0.  1.
</event>
<event>
 5    1  0.1717510E-003  0.9118800E+02  0.7818608E-02  0.1130116E+00
         25   -1    0    0    0    0  0.00000000000E+00  0.00000000000E+00  0.99999998245E-14  0.12500000000E+03  0.12500000000E+03 0.  0.
        -11    1    3    3    0    0 -0.25612829956E+02 -0.22315294943E+02  0.36268311415E+02  0.49692855219E+02  0.51100000000E-03 0. -1.
         23    2    1    0    0    0 -0.11020266496E+02 -0.27427030084E+02 -0.61214907480E+01  0.94814558114E+02  0.89881252375E+02 0.  0.
         11    1    3    3    0    0  0.14592563460E+02 -0.51117351412E+01 -0.42389802163E+02  0.45121702895E+02  0.51100000000E-03 0.  1.
         22    1    1    0    0    0  0.11020266496E+02  0.27427030084E+02  0.61214907480E+01  0.30185441886E+02  0.00000000000E+00 0.  1.
</event>
<event>
 5    1  0.1717510E-003  0.9118800E+02  0.7818608E-02  0.1130116E+00
         25   -1    0    0    0    0  0.00000000000E+00  0.00000000000E+00  0.99999998245E-14  0.12500000000E+03  0.12500000000E+03 0.  0.
        -11    1    3    3    0    0 -0.52676755429E+02  0.14839722378E+02 -0.21492365884E+02  0.58796085876E+02  0.51100000000E-03 0. -1.
         23    2    1    0    0    0 -0.22583835465E+02 -0.63538355373E+01 -0.17319819581E+02  0.95838775735E+02  0.91294544929E+02 0.  0.
         11    1    3    3    0    0  0.30092919964E+02 -0.21193557915E+02  0.41725463031E+01  0.37042689859E+02  0.51100000000E-03 0.  1.
         22    1    1    0    0    0  0.22583835465E+02  0.63538355373E+01  0.17319819581E+02  0.29161224265E+02  0.00000000000E+00 0. -1.
</event>
<event>
 5    1  0.1717510E-003  0.9118800E+02  0.7818608E-02  0.1130116E+00
         25   -1    0    0    0    0  0.00000000000E+00  0.00000000000E+00  0.99999998245E-14  0.12500000000E+03  0.12500000000E+03 0.  0.
        -11    1    3    3    0    0 -0.24701720886E+02 -0.25226465472E+02  0.60603355316E+01  0.35822859210E+02  0.51100000000E-03 0. -1.
         23    2    1    0    0    0  0.55909638818E+01  0.25514386068E+02 -0.99507599389E+01  0.97048964296E+02  0.92936758465E+02 0.  0.
         11    1    3    3    0    0  0.30292684768E+02  0.50740851541E+02 -0.16011095470E+02  0.61226105086E+02  0.51100000000E-03 0.  1.
         22    1    1    0    0    0 -0.55909638818E+01 -0.25514386068E+02  0.99507599389E+01  0.27951035704E+02  0.00000000000E+00 0.  1.
</event>
<event>
 5    1  0.1717510E-003  0.9118800E+02  0.7818608E-02  0.1130116E+00
         25   -1    0    0    0    0  0.00000000000E+00  0.00000000000E+00  0.99999998245E-14  0.12500000000E+03  0.12500000000E+03 0.  0.
        -11    1    3    3    0    0 -0.27745798381E+01 -0.23034541520E+02  0.35826169798E+02  0.42682582384E+02  0.51100000000E-03 0.  1.
         23    2    1    0    0    0 -0.23551569193E+02  0.49640480022E+01 -0.88519807113E+01  0.99354810460E+02  0.95988033707E+02 0.  0.
         11    1    3    3    0    0 -0.20776989355E+02  0.27998589522E+02 -0.44678150509E+02  0.56672228076E+02  0.51100000000E-03 0. -1.
         22    1    1    0    0    0  0.23551569193E+02 -0.49640480022E+01  0.88519807113E+01  0.25645189540E+02  0.00000000000E+00 0. -1.
</event>
<event>
 5    1  0.1717510E-003  0.9118800E+02  0.7818608E-02  0.1130116E+00
         25   -1    0    0    0    0  0.00000000000E+00  0.00000000000E+00  0.99999998245E-14  0.12500000000E+03  0.12500000000E+03 0.  0.
        -11    1    3    3    0    0  0.50367520743E+02 -0.24440906301E+02 -0.21907304605E+01  0.56027175075E+02  0.51100000000E-03 0.  1.
         23    2    1    0    0    0  0.28177842801E+02  0.81321946658E+01 -0.35135684504E+01  0.95462420914E+02  0.90777779377E+02 0.  0.
         11    1    3    3    0    0 -0.22189677943E+02  0.32573100967E+02 -0.13228379900E+01  0.39435245839E+02  0.51100000000E-03 0. -1.
         22    1    1    0    0    0 -0.28177842801E+02 -0.81321946658E+01  0.35135684504E+01  0.29537579086E+02  0.00000000000E+00 0.  1.
</event>
<event>
 5    1  0.1717510E-003  0.9118800E+02  0.7818608E-02  0.1130116E+00
         25   -1    0    0    0    0  0.00000000000E+00  0.00000000000E+00  0.99999998245E-14  0.12500000000E+03  0.12500000000E+03 0.  0.
        -11    1    3    3    0    0  0.65567006079E+01 -0.22433850492E+01 -0.32401254411E+02  0.33134036684E+02  0.51100000000E-03 0.  1.
         23    2    1    0    0    0 -0.22429963640E+01  0.63233893168E+01  0.28735252058E+02  0.95491848652E+02  0.90818292006E+02 0.  0.
         11    1    3    3    0    0 -0.87996969719E+01  0.85667743660E+01  0.61136506469E+02  0.62357811967E+02  0.51100000000E-03 0. -1.
         22    1    1    0    0    0  0.22429963640E+01 -0.63233893168E+01 -0.28735252058E+02  0.29508151348E+02  0.00000000000E+00 0. -1.
</event>
<event>
 5    1  0.1717510E-003  0.9118800E+02  0.7818608E-02  0.1130116E+00
         25   -1    0    0    0    0  0.00000000000E+00  0.00000000000E+00  0.99999998245E-14  0.12500000000E+03  0.12500000000E+03 0.  0.
        -11    1    3    3    0    0 -0.45687221765E+01  0.27725699771E+02  0.29799062543E+02  0.40958171087E+02  0.51100000000E-03 0. -1.
         23    2    1    0    0    0 -0.31197182472E+02  0.10884916031E+01 -0.63289865662E+01  0.93148703651E+02  0.87533855809E+02 0.  0.
         11    1    3    3    0    0 -0.26628460295E+02 -0.26637208168E+02 -0.36128049109E+02  0.52190532564E+02  0.51100000000E-03 0.  1.
         22    1    1    0    0    0  0.31197182472E+02 -0.10884916031E+01  0.63289865662E+01  0.31851296349E+02  0.00000000000E+00 0. -1.
</event>
<event>
 5    1  0.1717510E-003  0.9118800E+02  0.7818608E-02  0.1130116E+00
         25   -1    0    0    0    0  0.00000000000E+00  0.00000000000E+00  0.99999998245E-14  0.12500000000E+03  0.12500000000E+03 0.  0.
        -11    1    3    3    0    0  0.23849410941E+01  0.33834329818E+02  0.51813493390E+01  0.34311750167E+02  0.51100000000E-03 0.  1.
         23    2    1    0    0    0  0.86362664385E+00 -0.26228352054E+02  0.14351544037E+02  0.95089481470E+02  0.90262785065E+02 0.  0.
         11    1    3    3    0    0 -0.15213144502E+01 -0.60062681872E+02  0.91701946984E+01  0.60777731304E+02  0.51100000000E-03 0. -1.
         22    1    1    0    0    0 -0.86362664385E+00  0.26228352054E+02 -0.14351544037E+02  0.29910518530E+02  0.00000000000E+00 0. -1.
</event>
<event>
 5    1  0.1717510E-003  0.9118800E+02  0.7818608E-02  0.1130116E+00
         25   -1    0    0    0    0  0.00000000000E+00  0.00000000000E+00  0.99999998245E-14  0.12500000000E+03  0.12500000000E+03 0.  0.
        -11    1    3    3    0    0 -0.24309050731E+02  0.41479498296E+02 -0.32058075137E+02  0.57785801959E+02  0.51100000000E-03 0.  1.
         23    2    1    0    0    0  0.29967954413E+01  0.27468131490E+02 -0.98626662468E+01  0.95661438072E+02  0.91051411401E+02 0.  0.
         11    1    3    3    0    0  0.27305846172E+02 -0.14011366805E+02  0.22195408891E+02  0.37875636113E+02  0.51100000000E-03 0. -1.
         22    1    1    0    0    0 -0.29967954413E+01 -0.27468131490E+02  0.98626662468E+01  0.29338561928E+02  0.00000000000E+00 0.  1.
</event>
<event>
 5    1  0.1717510E-003  0.9118800E+02  0.7818608E-02  0.1130116E+00
         25   -1    0    0    0    0  0.00000000000E+00  0.00000000000E+00  0.99999998245E-14  0.12500000000E+03  0.12500000000E+03 0.  0.
        -11    1    3    3    0    0 -0.14273264354E+01  0.38296075947E+01  0.23316218511E+02  0.23671696200E+02  0.51100000000E-03 0.  1.
         23    2    1    0    0    0  0.37518847283E+02 -0.28133599559E+02  0.29605644116E+01  0.78011402796E+02  0.62272391146E+02 0.  0.
         11    1    3    3    0    0  0.38946173718E+02 -0.31963207154E+02 -0.20355654100E+02  0.54339706596E+02  0.51100000000E-03 0. -1.
         22    1    1    0    0    0 -0.37518847283E+02  0.28133599559E+02 -0.29605644116E+01  0.46988597204E+02  0.00000000000E+00 0. -1.
</event>
<event>
 5    1  0.1717510E-003  0.9118800E+02  0.7818608E-02  0.1130116E+00
         25   -1    0    0    0    0  0.00000000000E+00  0.00000000000E+00  0.99999998245E-14  0.12500000000E+03  0.12500000000E+03 0.  0.
        -11    1    3    3    0    0  0.34425970354E+02 -0.12826691871E+02 -0.11370057868E+02  0.38457114756E+02  0.51100000000E-03 0. -1.
         23    2    1    0    0    0 -0.13303279649E+02  0.19993154980E+02 -0.15318160429E+02  0.96515802023E+02  0.92216866710E+02 0.  0.
         11    1    3    3    0    0 -0.47729250003E+02  0.32819846851E+02 -0.39481025606E+01  0.58058687267E+02  0.51100000000E-03 0.  1.
         22    1    1    0    0    0  0.13303279649E+02 -0.19993154980E+02  0.15318160429E+02  0.28484197977E+02  0.00000000000E+00 0.  1.
</event>
<event>
 5    1  0.1717510E-003  0.9118800E+02  0.7818608E-02  0.1130116E+00
         25   -1    0    0    0    0  0.00000000000E+00  0.00000000000E+00  0.99999998245E-14  0.12500000000E+03  0.12500000000E+03 0.  0.
        -11    1    3    3    0    0  0.29828062477E+01 -0.32044131242E+02 -0.18129083965E+01  0.32233679859E+02  0.51100000000E-03 0.  1.
         23    2    1    0    0    0 -0.25718066075E+01  0.30058487403E+02  0.24673861676E+01  0.94730958907E+02  0.89764913673E+02 0.  0.
         11    1    3    3    0    0 -0.55546128552E+01  0.62102618645E+02  0.42802945641E+01  0.62497279048E+02  0.51100000000E-03 0. -1.
         22    1    1    0    0    0  0.25718066075E+01 -0.30058487403E+02 -0.24673861676E+01  0.30269041093E+02  0.00000000000E+00 0. -1.
</event>
<event>
 5    1  0.1717510E-003  0.9118800E+02  0.7818608E-02  0.1130116E+00
         25   -1    0    0    0    0  0.00000000000E+00  0.00000000000E+00  0.99999998245E-14  0.12500000000E+03  0.12500000000E+03 0.  0.
        -11    1    3    3    0    0 -0.46908020874E+02  0.16506554979E+02  0.26674077767E+02  0.56429914094E+02  0.51100000000E-03 0.  1.
         23    2    1    0    0    0 -0.79679942913E+01  0.16474980011E+02  0.23093701012E+02  0.95534207531E+02  0.90876574995E+02 0.  0.
         11    1    3    3    0    0  0.38940026583E+02 -0.31574968119E-01 -0.35803767548E+01  0.39104293437E+02  0.51100000000E-03 0. -1.
         22    1    1    0    0    0  0.79679942913E+01 -0.16474980011E+02 -0.23093701012E+02  0.29465792469E+02  0.00000000000E+00 0.  1.
</event>
<event>
 5    1  0.1717510E-003  0.9118800E+02  0.7818608E-02  0.1130116E+00
         25   -1    0    0    0    0  0.00000000000E+00  0.00000000000E+00  0.99999998245E-14  0.12500000000E+03  0.12500000000E+03 0.  0.
        -11    1    3    3    0    0  0.17007640736E+02 -0.28525419377E+02 -0.34685933950E+02  0.48021593146E+02  0.51100000000E-03 0.  1.
         23    2    1    0    0    0 -0.42323043076E+01  0.12306846340E+02 -0.27460789721E+02  0.94611419272E+02  0.89598296959E+02 0.  0.
         11    1    3    3    0    0 -0.21239945044E+02  0.40832265717E+02  0.72251442290E+01  0.46589826126E+02  0.51100000000E-03 0. -1.
         22    1    1    0    0    0  0.42323043076E+01 -0.12306846340E+02  0.27460789721E+02  0.30388580728E+02  0.00000000000E+00 0. -1.
</event>
<event>
 5    1  0.1717510E-003  0.9118800E+02  0.7818608E-02  0.1130116E+00
         25   -1    0    0    0    0  0.00000000000E+00  0.00000000000E+00  0.99999998245E-14  0.12500000000E+03  0.12500000000E+03 0.  0.
        -11    1    3    3    0    0  0.23193483015E+02  0.29273179903E+02  0.28807019866E+02  0.47166737324E+02  0.51100000000E-03 0.  1.
         23    2    1    0    0    0  0.50670058721E+01  0.24909184957E+02 -0.15493702990E+02  0.95230940961E+02  0.90458472462E+02 0.  0.
         11    1    3    3    0    0 -0.18126477143E+02 -0.43639949454E+01 -0.44300722855E+02  0.48064203637E+02  0.51100000000E-03 0. -1.
         22    1    1    0    0    0 -0.50670058721E+01 -0.24909184957E+02  0.15493702990E+02  0.29769059039E+02  0.00000000000E+00 0.  1.
</event>
<event>
 5    1  0.1717510E-003  0.9118800E+02  0.7818608E-02  0.1130116E+00
         25   -1    0    0    0    0  0.00000000000E+00  0.00000000000E+00  0.99999998245E-14  0.12500000000E+03  0.12500000000E+03 0.  0.
        -11    1    3    3    0    0 -0.95069438440E+01 -0.24912673541E+01 -0.56958396622E+02  0.57800063498E+02  0.51100000000E-03 0. -1.
         23    2    1    0    0    0 -0.15843918732E+02 -0.12809038091E+02 -0.21006935589E+02  0.95735814373E+02  0.91153461773E+02 0.  0.
         11    1    3    3    0    0 -0.63369748884E+01 -0.10317770737E+02  0.35951461034E+02  0.37935750875E+02  0.51100000000E-03 0.  1.
         22    1    1    0    0    0  0.15843918732E+02  0.12809038091E+02  0.21006935589E+02  0.29264185627E+02  0.00000000000E+00 0. -1.
</event>
<event>
 5    1  0.1717510E-003  0.9118800E+02  0.7818608E-02  0.1130116E+00
         25   -1    0    0    0    0  0.00000000000E+00  0.00000000000E+00  0.99999998245E-14  0.12500000000E+03  0.12500000000E+03 0.  0.
        -11    1    3    3    0    0 -0.20218316828E+00 -0.29856808092E+02 -0.16523890371E+02  0.34124900303E+02  0.51100000000E-03 0. -1.
         23    2    1    0    0    0  0.12973879147E+02  0.19814344659E+02  0.17321189346E+02  0.95657992660E+02  0.91046681241E+02 0.  0.
         11    1    3    3    0    0  0.13176062315E+02  0.49671152750E+02  0.33845079717E+02  0.61533092357E+02  0.51100000000E-03 0.  1.
         22    1    1    0    0    0 -0.12973879147E+02 -0.19814344659E+02 -0.17321189346E+02  0.29342007340E+02  0.00000000000E+00 0.  1.
</event>
<event>
 5    1  0.1717510E-003  0.9118800E+02  0.7818608E-02  0.1130116E+00
         25   -1    0    0    0    0  0.00000000000E+00  0.00000000000E+00  0.99999998245E-14  0.12500000000E+03  0.12500000000E+03 0.  0.
        -11    1    3    3    0    0  0.34306897300E+01 -0.64620374194E+00 -0.52673359894E+02  0.52788919804E+02  0.51100000000E-03 0.  1.
         23    2    1    0    0    0 -0.19858477791E+02 -0.10383297484E+02 -0.15385640872E+02  0.97817469730E+02  0.93964713763E+02 0.  0.
         11    1    3    3    0    0 -0.23289167521E+02 -0.97370937421E+01  0.37287719022E+02  0.45028549927E+02  0.51100000000E-03 0. -1.
         22    1    1    0    0    0  0.19858477791E+02  0.10383297484E+02  0.15385640872E+02  0.27182530270E+02  0.00000000000E+00 0.  1.
</event>
<event>
 5    1  0.1717510E-003  0.9118800E+02  0.7818608E-02  0.1130116E+00
         25   -1    0    0    0    0  0.00000000000E+00  0.00000000000E+00  0.99999998245E-14  0.12500000000E+03  0.12500000000E+03 0.  0.
        -11    1    3    3    0    0  0.28703315386E+02  0.22606506282E+02 -0.57856703983E+01  0.36992004847E+02  0.51100000000E-03 0.  1.
         23    2    1    0    0    0 -0.15028965385E+02 -0.15024946549E+02 -0.19349577393E+02  0.96259349961E+02  0.91868588159E+02 0.  0.
         11    1    3    3    0    0 -0.43732280772E+02 -0.37631452830E+02 -0.13563906995E+02  0.59267345114E+02  0.51100000000E-03 0. -1.
         22    1    1    0    0    0  0.15028965385E+02  0.15024946549E+02  0.19349577393E+02  0.28740650039E+02  0.00000000000E+00 0. -1.
</event>
<event>
 5    1  0.1717510E-003  0.9118800E+02  0.7818608E-02  0.1130116E+00
         25   -1    0    0    0    0  0.00000000000E+00  0.00000000000E+00  0.99999998245E-14  0.12500000000E+03  0.12500000000E+03 0.  0.
        -11    1    3    3    0    0 -0.25798434873E+02 -0.18425739518E+02  0.14469481011E+02  0.34848715897E+02  0.51100000000E-03 0.  1.
         23    2    1    0    0    0  0.24273361904E+02  0.12327525439E+02  0.15602891651E+02  0.93621437103E+02  0.88206344873E+02 0.  0.
         11    1    3    3    0    0  0.50071796777E+02  0.30753264958E+02  0.11334106403E+01  0.58772721206E+02  0.51100000000E-03 0. -1.
         22    1    1    0    0    0 -0.24273361904E+02 -0.12327525439E+02 -0.15602891651E+02  0.31378562897E+02  0.00000000000E+00 0. -1.
</event>
<event>
 5    1  0.1717510E-003  0.9118800E+02  0.7818608E-02  0.1130116E+00
         25   -1    0    0    0    0  0.00000000000E+00  0.00000000000E+00  0.99999998245E-14  0.12500000000E+03  0.12500000000E+03 0.  0.
        -11    1    3    3    0    0 -0.12100083258E+02 -0.18703515187E+02  0.32555109096E+02  0.39447035677E+02  0.51100000000E-03 0. -1.
         23    2    1    0    0    0 -0.21820517331E+02  0.71854438605E+01 -0.17153039738E+02  0.96329590999E+02  0.91964111205E+02 0.  0.
         11    1    3    3    0    0 -0.97204340733E+01  0.25888959048E+02 -0.49708148834E+02  0.56882555321E+02  0.51100000000E-03 0.  1.
         22    1    1    0    0    0  0.21820517331E+02 -0.71854438605E+01  0.17153039738E+02  0.28670409001E+02  0.00000000000E+00 0.  1.
</event>
<event>
 5    1  0.1717510E-003  0.9118800E+02  0.7818608E-02  0.1130116E+00
         25   -1    0    0    0    0  0.00000000000E+00  0.00000000000E+00  0.99999998245E-14  0.12500000000E+03  0.12500000000E+03 0.  0.
        -11    1    3    3    0    0 -0.56707970066E+01 -0.26513496083E+02  0.47417087101E+02  0.54621456980E+02  0.51100000000E-03 0. -1.
         23    2    1    0    0    0 -0.23689506711E+02 -0.63471160539E+01  0.18014823509E+02  0.94569546890E+02  0.89539861082E+02 0.  0.
         11    1    3    3    0    0 -0.18018709705E+02  0.20166380029E+02 -0.29402263592E+02  0.39948089910E+02  0.51100000000E-03 0.  1.
         22    1    1    0    0    0  0.23689506711E+02  0.63471160539E+01 -0.18014823509E+02  0.30430453110E+02  0.00000000000E+00 0. -1.
</event>
<event>
 5    1  0.1717510E-003  0.9118800E+02  0.7818608E-02  0.1130116E+00
         25   -1    0    0    0    0  0.00000000000E+00  0.00000000000E+00  0.99999998245E-14  0.12500000000E+03  0.12500000000E+03 0.  0.
        -11    1    3    3    0    0 -0.18004177811E+02 -0.47284446287E+02  0.33710390582E+02  0.60797694963E+02  0.51100000000E-03 0.  1.
         23    2    1    0    0    0 -0.71545177014E+00 -0.17914505555E+02  0.21513422378E+02  0.96995201787E+02  0.92864419703E+02 0.  0.
         11    1    3    3    0    0  0.17288726041E+02  0.29369940732E+02 -0.12196968204E+02  0.36197506825E+02  0.51100000000E-03 0. -1.
         22    1    1    0    0    0  0.71545177014E+00  0.17914505555E+02 -0.21513422378E+02  0.28004798213E+02  0.00000000000E+00 0.  1.
</event>
<event>
 5    1  0.1717510E-003  0.9118800E+02  0.7818608E-02  0.1130116E+00
         25   -1    0    0    0    0  0.00000000000E+00  0.00000000000E+00  0.99999998245E-14  0.12500000000E+03  0.12500000000E+03 0.  0.
        -11    1    3    3    0    0 -0.22389898992E+02 -0.40961342213E+02 -0.26479081700E+02  0.53668248534E+02  0.51100000000E-03 0.  1.
         23    2    1    0    0    0  0.11458820876E+02 -0.15430014927E+02 -0.21185776980E+02  0.96395331102E+02  0.92053423486E+02 0.  0.
         11    1    3    3    0    0  0.33848719867E+02  0.25531327286E+02  0.52933047201E+01  0.42727082568E+02  0.51100000000E-03 0. -1.
         22    1    1    0    0    0 -0.11458820876E+02  0.15430014927E+02  0.21185776980E+02  0.28604668898E+02  0.00000000000E+00 0.  1.
</event>
<event>
 5    1  0.1717510E-003  0.9118800E+02  0.7818608E-02  0.1130116E+00
         25   -1    0    0    0    0  0.00000000000E+00  0.00000000000E+00  0.99999998245E-14  0.12500000000E+03  0.12500000000E+03 0.  0.
        -11    1    3    3    0    0 -0.10550151097E+02 -0.22574218738E+02 -0.23067125049E+02  0.33955755007E+02  0.51100000000E-03 0. -1.
         23    2    1    0    0    0  0.15584748039E+02  0.34834737386E+01  0.25474555215E+02  0.94933874142E+02  0.90047035128E+02 0.  0.
         11    1    3    3    0    0  0.26134899136E+02  0.26057692476E+02  0.48541680264E+02  0.60978119135E+02  0.51100000000E-03 0.  1.
         22    1    1    0    0    0 -0.15584748039E+02 -0.34834737386E+01 -0.25474555215E+02  0.30066125858E+02  0.00000000000E+00 0.  1.
</event>
<event>
 5    1  0.1717510E-003  0.9118800E+02  0.7818608E-02  0.1130116E+00
         25   -1    0    0    0    0  0.00000000000E+00  0.00000000000E+00  0.99999998245E-14  0.12500000000E+03  0.12500000000E+03 0.  0.
        -11    1    3    3    0    0  0.20782533173E+02  0.15685704972E+02  0.25248349387E+02  0.36268914687E+02  0.51100000000E-03 0. -1.
         23    2    1    0    0    0 -0.14869436511E+02 -0.25342166488E+02  0.15146686389E+01  0.95578583216E+02  0.90937592909E+02 0.  0.
         11    1    3    3    0    0 -0.35651969684E+02 -0.41027871460E+02 -0.23733680749E+02  0.59309668529E+02  0.51100000000E-03 0.  1.
         22    1    1    0    0    0  0.14869436511E+02  0.25342166488E+02 -0.15146686389E+01  0.29421416784E+02  0.00000000000E+00 0.  1.
</event>
<event>
 5    1  0.1717510E-003  0.9118800E+02  0.7818608E-02  0.1130116E+00
         25   -1    0    0    0    0  0.00000000000E+00  0.00000000000E+00  0.99999998245E-14  0.12500000000E+03  0.12500000000E+03 0.  0.
        -11    1    3    3    0    0 -0.72658630719E+01  0.18612446174E+02  0.52725416621E+02  0.56384266217E+02  0.51100000000E-03 0.  1.
         23    2    1    0    0    0  0.81149932506E+01  0.25125087153E+02  0.25703063866E+02  0.88152060953E+02  0.80081303925E+02 0.  0.
         11    1    3    3    0    0  0.15380856323E+02  0.65126409787E+01 -0.27022352755E+02  0.31767794736E+02  0.51100000000E-03 0. -1.
         22    1    1    0    0    0 -0.81149932506E+01 -0.25125087153E+02 -0.25703063866E+02  0.36847939047E+02  0.00000000000E+00 0.  1.
</event>
<event>
 5    1  0.1717510E-003  0.9118800E+02  0.7818608E-02  0.1130116E+00
         25   -1    0    0    0    0  0.00000000000E+00  0.00000000000E+00  0.99999998245E-14  0.12500000000E+03  0.12500000000E+03 0.  0.
        -11    1    3    3    0    0 -0.80683183424E+01 -0.91957020984E+01 -0.41883694872E+02  0.43633732299E+02  0.51100000000E-03 0.  1.
         23    2    1    0    0    0 -0.27902314540E+02 -0.71899441437E+01  0.60591284961E+01  0.95556027924E+02  0.90906583815E+02 0.  0.
         11    1    3    3    0    0 -0.19833996198E+02  0.20057579547E+01  0.47942823368E+02  0.51922295625E+02  0.51100000000E-03 0. -1.
         22    1    1    0    0    0  0.27902314540E+02  0.71899441437E+01 -0.60591284961E+01  0.29443972076E+02  0.00000000000E+00 0.  1.
</event>
<event>
 5    1  0.1717510E-003  0.9118800E+02  0.7818608E-02  0.1130116E+00
         25   -1    0    0    0    0  0.00000000000E+00  0.00000000000E+00  0.99999998245E-14  0.12500000000E+03  0.12500000000E+03 0.  0.
        -11    1    3    3    0    0 -0.23309741411E+02 -0.23032283819E+02  0.23545938479E+02  0.40351472856E+02  0.51100000000E-03 0.  1.
         23    2    1    0    0    0 -0.10253846228E+02  0.27213234576E+02  0.49197040606E+01  0.95505848264E+02  0.90837558675E+02 0.  0.
         11    1    3    3    0    0  0.13055895183E+02  0.50245518395E+02 -0.18626234418E+02  0.55154375408E+02  0.51100000000E-03 0. -1.
         22    1    1    0    0    0  0.10253846228E+02 -0.27213234576E+02 -0.49197040606E+01  0.29494151736E+02  0.00000000000E+00 0. -1.
</event>
<event>
 5    1  0.1717510E-003  0.9118800E+02  0.7818608E-02  0.1130116E+00
         25   -1    0    0    0    0  0.00000000000E+00  0.00000000000E+00  0.99999998245E-14  0.12500000000E+03  0.12500000000E+03 0.  0.
        -11    1    3    3    0    0  0.19946569086E+02  0.16442514968E+02  0.41283469770E+02  0.48708795851E+02  0.51100000000E-03 0. -1.
         23    2    1    0    0    0 -0.15627442009E+02 -0.85982169569E+01  0.22990281128E+02  0.95901902040E+02  0.91380936250E+02 0.  0.
         11    1    3    3    0    0 -0.35574011095E+02 -0.25040731925E+02 -0.18293188642E+02  0.47193106188E+02  0.51100000000E-03 0.  1.
         22    1    1    0    0    0  0.15627442009E+02  0.85982169569E+01 -0.22990281128E+02  0.29098097960E+02  0.00000000000E+00 0. -1.
</event>
<event>
 5    1  0.1717510E-003  0.9118800E+02  0.7818608E-02  0.1130116E+00
         25   -1    0    0    0    0  0.00000000000E+00  0.00000000000E+00  0.99999998245E-14  0.12500000000E+03  0.12500000000E+03 0.  0.
        -11    1    3    3    0    0 -0.32899299881E+02  0.12384756782E+02 -0.43167710963E+02  0.55670435631E+02  0.51100000000E-03 0. -1.
         23    2    1    0    0    0 -0.28582734065E+02 -0.13447002463E+01 -0.56779972874E+01  0.95827743341E+02  0.91279438184E+02 0.  0.
         11    1    3    3    0    0  0.43165658157E+01 -0.13729457029E+02  0.37489713676E+02  0.40157307710E+02  0.51100000000E-03 0.  1.
         22    1    1    0    0    0  0.28582734065E+02  0.13447002463E+01  0.56779972874E+01  0.29172256659E+02  0.00000000000E+00 0. -1.
</event>
<event>
 5    1  0.1717510E-003  0.9118800E+02  0.7818608E-02  0.1130116E+00
         25   -1    0    0    0    0  0.00000000000E+00  0.00000000000E+00  0.99999998245E-14  0.12500000000E+03  0.12500000000E+03 0.  0.
        -11    1    3    3    0    0  0.47141458494E+02 -0.97409429780E+01  0.36072453938E+02  0.60153345812E+02  0.51100000000E-03 0.  1.
         23    2    1    0    0    0  0.20113232182E+02  0.53729701963E+01  0.23578997041E+02  0.93545588243E+02  0.88098791482E+02 0.  0.
         11    1    3    3    0    0 -0.27028226312E+02  0.15113913174E+02 -0.12493456896E+02  0.33392242430E+02  0.51100000000E-03 0. -1.
         22    1    1    0    0    0 -0.20113232182E+02 -0.53729701963E+01 -0.23578997041E+02  0.31454411757E+02  0.00000000000E+00 0.  1.
</event>
<event>
 5    1  0.1717510E-003  0.9118800E+02  0.7818608E-02  0.1130116E+00
         25   -1    0    0    0    0  0.00000000000E+00  0.00000000000E+00  0.99999998245E-14  0.12500000000E+03  0.12500000000E+03 0.  0.
        -11    1    3    3    0    0 -0.16756212753E+02  0.10526620989E+02  0.56430017345E+02  0.59799057460E+02  0.51100000000E-03 0.  1.
         23    2    1    0    0    0  0.49396153624E+01  0.71913159704E+01  0.27722825560E+02  0.95936795043E+02  0.91428653937E+02 0.  0.
         11    1    3    3    0    0  0.21695828116E+02 -0.33353050186E+01 -0.28707191785E+02  0.36137737583E+02  0.51100000000E-03 0. -1.
         22    1    1    0    0    0 -0.49396153624E+01 -0.71913159704E+01 -0.27722825560E+02  0.29063204957E+02  0.00000000000E+00 0.  1.
</event>
<event>
 5    1  0.1717510E-003  0.9118800E+02  0.7818608E-02  0.1130116E+00
         25   -1    0    0    0    0  0.00000000000E+00  0.00000000000E+00  0.99999998245E-14  0.12500000000E+03  0.12500000000E+03 0.  0.
        -11    1    3    3    0    0 -0.13785440260E+02 -0.37581419959E+02  0.39199015525E+02  0.56026460782E+02  0.51100000000E-03 0.  1.
         23    2    1    0    0    0  0.31136546980E+01 -0.29376676296E+02  0.50094097597E+01  0.95037053851E+02  0.90190151695E+02 0.  0.
         11    1    3    3    0    0  0.16899094958E+02  0.82047436632E+01 -0.34189605766E+02  0.39010593070E+02  0.51100000000E-03 0. -1.
         22    1    1    0    0    0 -0.31136546980E+01  0.29376676296E+02 -0.50094097597E+01  0.29962946149E+02  0.00000000000E+00 0.  1.
</event>
<event>
 5    1  0.1717510E-003  0.9118800E+02  0.7818608E-02  0.1130116E+00
         25   -1    0    0    0    0  0.00000000000E+00  0.00000000000E+00  0.99999998245E-14  0.12500000000E+03  0.12500000000E+03 0.  0.
        -11    1    3    3    0    0  0.11859591861E+02  0.21926641844E+02 -0.33096723772E+02  0.41434534707E+02  0.51100000000E-03 0. -1.
         23    2    1    0    0    0 -0.29123660475E+02  0.19137041125E+01 -0.22208577052E+02  0.88324793695E+02  0.80350472455E+02 0.  0.
         11    1    3    3    0    0 -0.40983252336E+02 -0.20012937732E+02  0.10888146720E+02  0.46890258988E+02  0.51100000000E-03 0.  1.
         22    1    1    0    0    0  0.29123660475E+02 -0.19137041125E+01  0.22208577052E+02  0.36675206305E+02  0.00000000000E+00 0.  1.
</event>
<event>
 5    1  0.1717510E-003  0.9118800E+02  0.7818608E-02  0.1130116E+00
         25   -1    0    0    0    0  0.00000000000E+00  0.00000000000E+00  0.99999998245E-14  0.12500000000E+03  0.12500000000E+03 0.  0.
        -11    1    3    3    0    0 -0.16814600879E+02 -0.27983944982E+02 -0.61329168848E+01  0.33218137353E+02  0.51100000000E-03 0.  1.
         23    2    1    0    0    0  0.14040244784E+02  0.18535237291E+02  0.19508861709E+02  0.94647418888E+02  0.89648506524E+02 0.  0.
         11    1    3    3    0    0  0.30854845662E+02  0.46519182272E+02  0.25641778594E+02  0.61429281534E+02  0.51100000000E-03 0. -1.
         22    1    1    0    0    0 -0.14040244784E+02 -0.18535237291E+02 -0.19508861709E+02  0.30352581112E+02  0.00000000000E+00 0. -1.
</event>
<event>
 5    1  0.1717510E-003  0.9118800E+02  0.7818608E-02  0.1130116E+00
         25   -1    0    0    0    0  0.00000000000E+00  0.00000000000E+00  0.99999998245E-14  0.12500000000E+03  0.12500000000E+03 0.  0.
        -11    1    3    3    0    0 -0.14497007038E+02 -0.55301194529E+02 -0.14952775680E+02  0.59092899998E+02  0.51100000000E-03 0. -1.
         23    2    1    0    0    0 -0.16944341118E+02 -0.26236990151E+02  0.34451955661E+01  0.93577719360E+02  0.88144369305E+02 0.  0.
         11    1    3    3    0    0 -0.24473340797E+01  0.29064204378E+02  0.18397971246E+02  0.34484819362E+02  0.51100000000E-03 0.  1.
         22    1    1    0    0    0  0.16944341118E+02  0.26236990151E+02 -0.34451955661E+01  0.31422280640E+02  0.00000000000E+00 0. -1.
</event>
<event>
 5    1  0.1717510E-003  0.9118800E+02  0.7818608E-02  0.1130116E+00
         25   -1    0    0    0    0  0.00000000000E+00  0.00000000000E+00  0.99999998245E-14  0.12500000000E+03  0.12500000000E+03 0.  0.
        -11    1    3    3    0    0  0.85222017500E+01 -0.73602269524E+01 -0.49767247289E+02  0.51025285560E+02  0.51100000000E-03 0. -1.
         23    2    1    0    0    0 -0.16939370149E+02 -0.18298173538E+02 -0.13572551954E+02  0.96610220458E+02  0.92344762248E+02 0.  0.
         11    1    3    3    0    0 -0.25461571899E+02 -0.10937946585E+02  0.36194695335E+02  0.45584934899E+02  0.51100000000E-03 0.  1.
         22    1    1    0    0    0  0.16939370149E+02  0.18298173538E+02  0.13572551954E+02  0.28389779542E+02  0.00000000000E+00 0. -1.
</event>
<event>
 5    1  0.1717510E-003  0.9118800E+02  0.7818608E-02  0.1130116E+00
         25   -1    0    0    0    0  0.00000000000E+00  0.00000000000E+00  0.99999998245E-14  0.12500000000E+03  0.12500000000E+03 0.  0.
        -11    1    3    3    0    0  0.52999205268E+02  0.69028373976E+01 -0.31701703086E+02  0.62141474894E+02  0.51100000000E-03 0.  1.
         23    2    1    0    0    0  0.28611856244E+02  0.88996685767E+00 -0.12470426047E+02  0.93775940614E+02  0.88425025607E+02 0.  0.
         11    1    3    3    0    0 -0.24387349024E+02 -0.60128705399E+01  0.19231277039E+02  0.31634465720E+02  0.51100000000E-03 0. -1.
         22    1    1    0    0    0 -0.28611856244E+02 -0.88996685767E+00  0.12470426047E+02  0.31224059386E+02  0.00000000000E+00 0.  1.
</event>
<event>
 5    1  0.1717510E-003  0.9118800E+02  0.7818608E-02  0.1130116E+00
         25   -1    0    0    0    0  0.00000000000E+00  0.00000000000E+00  0.99999998245E-14  0.12500000000E+03  0.12500000000E+03 0.  0.
        -11    1    3    3    0    0 -0.41321444139E+02  0.27188570298E+02 -0.36484743200E+02  0.61463945425E+02  0.51100000000E-03 0. -1.
         23    2    1    0    0    0 -0.22437607681E+02  0.53237642851E+01 -0.17779153647E+02  0.95881500570E+02  0.91353024813E+02 0.  0.
         11    1    3    3    0    0  0.18883836458E+02 -0.21864806013E+02  0.18705589552E+02  0.34417555145E+02  0.51100000000E-03 0.  1.
         22    1    1    0    0    0  0.22437607681E+02 -0.53237642851E+01  0.17779153647E+02  0.29118499430E+02  0.00000000000E+00 0. -1.
</event>
<event>
 5    1  0.1717510E-003  0.9118800E+02  0.7818608E-02  0.1130116E+00
         25   -1    0    0    0    0  0.00000000000E+00  0.00000000000E+00  0.99999998245E-14  0.12500000000E+03  0.12500000000E+03 0.  0.
        -11    1    3    3    0    0 -0.34318239635E+02  0.18535213053E+02  0.12179554117E+01  0.39022802439E+02  0.51100000000E-03 0. -1.
         23    2    1    0    0    0  0.93168094481E+01 -0.22528195449E+01 -0.27933838226E+02  0.95467349387E+02  0.90784565576E+02 0.  0.
         11    1    3    3    0    0  0.43635049083E+02 -0.20788032597E+02 -0.29151793637E+02  0.56444546949E+02  0.51100000000E-03 0.  1.
         22    1    1    0    0    0 -0.93168094481E+01  0.22528195449E+01  0.27933838226E+02  0.29532650613E+02  0.00000000000E+00 0.  1.
</event>
<event>
 5    1  0.1717510E-003  0.9118800E+02  0.7818608E-02  0.1130116E+00
         25   -1    0    0    0    0  0.00000000000E+00  0.00000000000E+00  0.99999998245E-14  0.12500000000E+03  0.12500000000E+03 0.  0.
        -11    1    3    3    0    0  0.17018505359E+02  0.30861950845E+02 -0.13804105103E+02  0.37850268858E+02  0.51100000000E-03 0.  1.
         23    2    1    0    0    0 -0.30050390413E+02  0.17943251066E+02  0.39268164186E+01  0.89780600375E+02  0.82584200024E+02 0.  0.
         11    1    3    3    0    0 -0.47068895772E+02 -0.12918699779E+02  0.17730921522E+02  0.51930331517E+02  0.51100000000E-03 0. -1.
         22    1    1    0    0    0  0.30050390413E+02 -0.17943251066E+02 -0.39268164186E+01  0.35219399625E+02  0.00000000000E+00 0. -1.
</event>
<event>
 5    1  0.1717510E-003  0.9118800E+02  0.7818608E-02  0.1130116E+00
         25   -1    0    0    0    0  0.00000000000E+00  0.00000000000E+00  0.99999998245E-14  0.12500000000E+03  0.12500000000E+03 0.  0.
        -11    1    3    3    0    0  0.27471277076E+02  0.26943631284E+02  0.31106815663E+02  0.49479938479E+02  0.51100000000E-03 0. -1.
         23    2    1    0    0    0  0.29273140973E+02 -0.98039014953E+00 -0.51314664428E+01  0.95264332947E+02  0.90504603400E+02 0.  0.
         11    1    3    3    0    0  0.18018638972E+01 -0.27924021434E+02 -0.36238282106E+02  0.45784394468E+02  0.51100000000E-03 0.  1.
         22    1    1    0    0    0 -0.29273140973E+02  0.98039014953E+00  0.51314664428E+01  0.29735667053E+02  0.00000000000E+00 0. -1.
</event>
<event>
 5    1  0.1717510E-003  0.9118800E+02  0.7818608E-02  0.1130116E+00
         25   -1    0    0    0    0  0.00000000000E+00  0.00000000000E+00  0.99999998245E-14  0.12500000000E+03  0.12500000000E+03 0.  0.
        -11    1    3    3    0    0 -0.20399577690E+02  0.37179775327E+02 -0.72388504701E+01  0.43021848167E+02  0.51100000000E-03 0. -1.
         23    2    1    0    0    0 -0.16530144688E+02 -0.15488499911E+02 -0.16937675558E+02  0.96715301553E+02  0.92486893062E+02 0.  0.
         11    1    3    3    0    0  0.38694330023E+01 -0.52668275237E+02 -0.96988250884E+01  0.53693453387E+02  0.51100000000E-03 0.  1.
         22    1    1    0    0    0  0.16530144688E+02  0.15488499911E+02  0.16937675558E+02  0.28284698447E+02  0.00000000000E+00 0.  1.
</event>
<event>
 5    1  0.1717510E-003  0.9118800E+02  0.7818608E-02  0.1130116E+00
         25   -1    0    0    0    0  0.00000000000E+00  0.00000000000E+00  0.99999998245E-14  0.12500000000E+03  0.12500000000E+03 0.  0.
        -11    1    3    3    0    0 -0.46318504730E+02  0.37867690059E+01  0.58817424153E+01  0.46843765797E+02  0.51100000000E-03 0. -1.
         23    2    1    0    0    0 -0.11237576680E+02 -0.22319298125E+02 -0.15576938002E+02  0.95553859405E+02  0.90903601971E+02 0.  0.
         11    1    3    3    0    0  0.35080928050E+02 -0.26106067131E+02 -0.21458680417E+02  0.48710093609E+02  0.51100000000E-03 0.  1.
         22    1    1    0    0    0  0.11237576680E+02  0.22319298125E+02  0.15576938002E+02  0.29446140595E+02  0.00000000000E+00 0.  1.
</event>
<event>
 5    1  0.1717510E-003  0.9118800E+02  0.7818608E-02  0.1130116E+00
         25   -1    0    0    0    0  0.00000000000E+00  0.00000000000E+00  0.99999998245E-14  0.12500000000E+03  0.12500000000E+03 0.  0.
        -11    1    3    3    0    0  0.44502619741E+02 -0.57374789484E+01  0.39806793009E+02  0.59983185964E+02  0.51100000000E-03 0.  1.
         23    2    1    0    0    0  0.27573908512E+02 -0.50744740343E+01  0.82929246711E+01  0.95762296312E+02  0.91189769591E+02 0.  0.
         11    1    3    3    0    0 -0.16928711229E+02  0.66300491416E+00 -0.31513868338E+02  0.35779110348E+02  0.51100000000E-03 0. -1.
         22    1    1    0    0    0 -0.27573908512E+02  0.50744740343E+01 -0.82929246711E+01  0.29237703688E+02  0.00000000000E+00 0.  1.
</event>
<event>
 5    1  0.1717510E-003  0.9118800E+02  0.7818608E-02  0.1130116E+00
         25   -1    0    0    0    0  0.00000000000E+00  0.00000000000E+00  0.99999998245E-14  0.12500000000E+03  0.12500000000E+03 0.  0.
        -11    1    3    3    0    0  0.28819055839E+02 -0.17238203752E+02 -0.10716868165E+02  0.35249750518E+02  0.51100000000E-03 0. -1.
         23    2    1    0    0    0 -0.28707726255E+02 -0.34849385231E+01  0.28739401652E+01  0.95939066166E+02  0.91431758933E+02 0.  0.
         11    1    3    3    0    0 -0.57526782094E+02  0.13753265229E+02  0.13590808330E+02  0.60689315648E+02  0.51100000000E-03 0.  1.
         22    1    1    0    0    0  0.28707726255E+02  0.34849385231E+01 -0.28739401652E+01  0.29060933834E+02  0.00000000000E+00 0.  1.
</event>
<event>
 5    1  0.1717510E-003  0.9118800E+02  0.7818608E-02  0.1130116E+00
         25   -1    0    0    0    0  0.00000000000E+00  0.00000000000E+00  0.99999998245E-14  0.12500000000E+03  0.12500000000E+03 0.  0.
        -11    1    3    3    0    0 -0.23558170307E+02 -0.13327078996E+02  0.22173513142E+02  0.34989471389E+02  0.51100000000E-03 0. -1.
         23    2    1    0    0    0  0.11906278353E+02  0.14431050818E+01 -0.25858678981E+02  0.96495381161E+02  0.92189182068E+02 0.  0.
         11    1    3    3    0    0  0.35464448660E+02  0.14770184078E+02 -0.48032192123E+02  0.61505909772E+02  0.51100000000E-03 0.  1.
         22    1    1    0    0    0 -0.11906278353E+02 -0.14431050818E+01  0.25858678981E+02  0.28504618839E+02  0.00000000000E+00 0.  1.
</event>
<event>
 5    1  0.1717510E-003  0.9118800E+02  0.7818608E-02  0.1130116E+00
         25   -1    0    0    0    0  0.00000000000E+00  0.00000000000E+00  0.99999998245E-14  0.12500000000E+03  0.12500000000E+03 0.  0.
        -11    1    3    3    0    0  0.22395196350E+02 -0.35435965984E+02  0.38549668924E+02  0.56950236867E+02  0.51100000000E-03 0.  1.
         23    2    1    0    0    0  0.71296372515E+01 -0.13615989831E+00  0.26952717482E+02  0.97119913083E+02  0.93032135688E+02 0.  0.
         11    1    3    3    0    0 -0.15265559098E+02  0.35299806086E+02 -0.11596951442E+02  0.40169676216E+02  0.51100000000E-03 0. -1.
         22    1    1    0    0    0 -0.71296372515E+01  0.13615989831E+00 -0.26952717482E+02  0.27880086917E+02  0.00000000000E+00 0.  1.
</event>
<event>
 5    1  0.1717510E-003  0.9118800E+02  0.7818608E-02  0.1130116E+00
         25   -1    0    0    0    0  0.00000000000E+00  0.00000000000E+00  0.99999998245E-14  0.12500000000E+03  0.12500000000E+03 0.  0.
        -11    1    3    3    0    0  0.25542564000E+02  0.32462008264E+02 -0.38045096279E+02  0.56157224890E+02  0.51100000000E-03 0. -1.
         23    2    1    0    0    0  0.14508976275E+02 -0.44993850064E+01 -0.22733816536E+02  0.97658067510E+02  0.93752423316E+02 0.  0.
         11    1    3    3    0    0 -0.11033587725E+02 -0.36961393270E+02  0.15311279743E+02  0.41500842620E+02  0.51100000000E-03 0.  1.
         22    1    1    0    0    0 -0.14508976275E+02  0.44993850064E+01  0.22733816536E+02  0.27341932490E+02  0.00000000000E+00 0. -1.
</event>
<event>
 5    1  0.1717510E-003  0.9118800E+02  0.7818608E-02  0.1130116E+00
         25   -1    0    0    0    0  0.00000000000E+00  0.00000000000E+00  0.99999998245E-14  0.12500000000E+03  0.12500000000E+03 0.  0.
        -11    1    3    3    0    0 -0.45206942121E+02  0.10293438573E+02  0.58311880939E+01  0.46729276139E+02  0.51100000000E-03 0.  1.
         23    2    1    0    0    0 -0.13591909011E+02 -0.26308371177E+02  0.54078278598E+00  0.95383065139E+02  0.90668441504E+02 0.  0.
         11    1    3    3    0    0  0.31615033111E+02 -0.36601809750E+02 -0.52904053080E+01  0.48653789001E+02  0.51100000000E-03 0. -1.
         22    1    1    0    0    0  0.13591909011E+02  0.26308371177E+02 -0.54078278598E+00  0.29616934861E+02  0.00000000000E+00 0.  1.
</event>
<event>
 5    1  0.1717510E-003  0.9118800E+02  0.7818608E-02  0.1130116E+00
         25   -1    0    0    0    0  0.00000000000E+00  0.00000000000E+00  0.99999998245E-14  0.12500000000E+03  0.12500000000E+03 0.  0.
        -11    1    3    3    0    0  0.29272964562E+02 -0.48999643764E+02  0.18582276866E+02  0.60026432153E+02  0.51100000000E-03 0.  1.
         23    2    1    0    0    0  0.14039313989E+02 -0.20490552352E+02  0.21045793831E+02  0.92444040316E+02  0.86521731830E+02 0.  0.
         11    1    3    3    0    0 -0.15233650572E+02  0.28509091412E+02  0.24635169648E+01  0.32417608163E+02  0.51100000000E-03 0. -1.
         22    1    1    0    0    0 -0.14039313989E+02  0.20490552352E+02 -0.21045793831E+02  0.32555959684E+02  0.00000000000E+00 0.  1.
</event>
<event>
 5    1  0.1717510E-003  0.9118800E+02  0.7818608E-02  0.1130116E+00
         25   -1    0    0    0    0  0.00000000000E+00  0.00000000000E+00  0.99999998245E-14  0.12500000000E+03  0.12500000000E+03 0.  0.
        -11    1    3    3    0    0 -0.51486773340E+02  0.25064287562E+02 -0.12956270308E+02  0.58710912789E+02  0.51100000000E-03 0. -1.
         23    2    1    0    0    0 -0.16036341215E+02  0.13888101710E+02 -0.19182383802E+02  0.96399170344E+02  0.92058636672E+02 0.  0.
         11    1    3    3    0    0  0.35450432124E+02 -0.11176185852E+02 -0.62261134947E+01  0.37688257555E+02  0.51100000000E-03 0.  1.
         22    1    1    0    0    0  0.16036341215E+02 -0.13888101710E+02  0.19182383802E+02  0.28600829656E+02  0.00000000000E+00 0. -1.
</event>
<event>
 5    1  0.1717510E-003  0.9118800E+02  0.7818608E-02  0.1130116E+00
         25   -1    0    0    0    0  0.00000000000E+00  0.00000000000E+00  0.99999998245E-14  0.12500000000E+03  0.12500000000E+03 0.  0.
        -11    1    3    3    0    0 -0.13489096086E+02  0.37284917569E+02  0.22381263491E+02  0.45530668204E+02  0.51100000000E-03 0.  1.
         23    2    1    0    0    0 -0.43336033355E+01  0.17637382662E+02 -0.22923416077E+02  0.95753797004E+02  0.91178118269E+02 0.  0.
         11    1    3    3    0    0  0.91554927504E+01 -0.19647534907E+02 -0.45304679569E+02  0.50223128800E+02  0.51100000000E-03 0. -1.
         22    1    1    0    0    0  0.43336033355E+01 -0.17637382662E+02  0.22923416077E+02  0.29246202996E+02  0.00000000000E+00 0. -1.
</event>
<event>
 5    1  0.1717510E-003  0.9118800E+02  0.7818608E-02  0.1130116E+00
         25   -1    0    0    0    0  0.00000000000E+00  0.00000000000E+00  0.99999998245E-14  0.12500000000E+03  0.12500000000E+03 0.  0.
        -11    1    3    3    0    0 -0.42203993666E+02 -0.91266239646E+00  0.37964325472E+02  0.56774114197E+02  0.51100000000E-03 0. -1.
         23    2    1    0    0    0 -0.50422275602E+01  0.59451817460E+01  0.28112832595E+02  0.95826371476E+02  0.91277559504E+02 0.  0.
         11    1    3    3    0    0  0.37161766106E+02  0.68578441424E+01 -0.98514928768E+01  0.39052257279E+02  0.51100000000E-03 0.  1.
         22    1    1    0    0    0  0.50422275602E+01 -0.59451817460E+01 -0.28112832595E+02  0.29173628524E+02  0.00000000000E+00 0. -1.
</event>
<event>
 5    1  0.1717510E-003  0.9118800E+02  0.7818608E-02  0.1130116E+00
         25   -1    0    0    0    0  0.00000000000E+00  0.00000000000E+00  0.99999998245E-14  0.12500000000E+03  0.12500000000E+03 0.  0.
        -11    1    3    3    0    0 -0.14631454055E+02  0.22464449912E+02 -0.36472250263E+02  0.45265395139E+02  0.51100000000E-03 0. -1.
         23    2    1    0    0    0 -0.28792467541E+02 -0.30957692985E+01  0.46070723603E+01  0.95677396255E+02  0.91073316969E+02 0.  0.
         11    1    3    3    0    0 -0.14161013486E+02 -0.25560219211E+02  0.41079322623E+02  0.50412001115E+02  0.51100000000E-03 0.  1.
         22    1    1    0    0    0  0.28792467541E+02  0.30957692985E+01 -0.46070723603E+01  0.29322603745E+02  0.00000000000E+00 0.  1.
</event>
<event>
 5    1  0.1717510E-003  0.9118800E+02  0.7818608E-02  0.1130116E+00
         25   -1    0    0    0    0  0.00000000000E+00  0.00000000000E+00  0.99999998245E-14  0.12500000000E+03  0.12500000000E+03 0.  0.
        -11    1    3    3    0    0  0.48399517317E+02  0.51042817674E+01  0.38980473793E+02  0.62354184353E+02  0.51100000000E-03 0. -1.
         23    2    1    0    0    0  0.24963524351E+02  0.69133794854E-01  0.17820159527E+02  0.94328508137E+02  0.89202729971E+02 0.  0.
         11    1    3    3    0    0 -0.23435992966E+02 -0.50351479726E+01 -0.21160314265E+02  0.31974323785E+02  0.51100000000E-03 0.  1.
         22    1    1    0    0    0 -0.24963524351E+02 -0.69133794854E-01 -0.17820159527E+02  0.30671491863E+02  0.00000000000E+00 0. -1.
</event>
<event>
 5    1  0.1717510E-003  0.9118800E+02  0.7818608E-02  0.1130116E+00
         25   -1    0    0    0    0  0.00000000000E+00  0.00000000000E+00  0.99999998245E-14  0.12500000000E+03  0.12500000000E+03 0.  0.
        -11    1    3    3    0    0 -0.16460697704E+02  0.49311386975E+02  0.23338202273E+02  0.56984551765E+02  0.51100000000E-03 0.  1.
         23    2    1    0    0    0 -0.28735254136E+01  0.33843066178E+02 -0.35503716934E+01  0.90850103722E+02  0.84187445207E+02 0.  0.
         11    1    3    3    0    0  0.13587172291E+02 -0.15468320797E+02 -0.26888573967E+02  0.33865551957E+02  0.51100000000E-03 0. -1.
         22    1    1    0    0    0  0.28735254136E+01 -0.33843066178E+02  0.35503716934E+01  0.34149896278E+02  0.00000000000E+00 0.  1.
</event>
<event>
 5    1  0.1717510E-003  0.9118800E+02  0.7818608E-02  0.1130116E+00
         25   -1    0    0    0    0  0.00000000000E+00  0.00000000000E+00  0.99999998245E-14  0.12500000000E+03  0.12500000000E+03 0.  0.
        -11    1    3    3    0    0 -0.12184178579E+02 -0.44101857691E+02  0.30503241473E+01  0.45855561681E+02  0.51100000000E-03 0.  1.
         23    2    1    0    0    0  0.11671859312E+02 -0.36956283738E+00 -0.20845648625E+02  0.10110627817E+03  0.98242401952E+02 0.  0.
         11    1    3    3    0    0  0.23856037891E+02  0.43732294853E+02 -0.23895972773E+02  0.55250716484E+02  0.51100000000E-03 0. -1.
         22    1    1    0    0    0 -0.11671859312E+02  0.36956283738E+00  0.20845648625E+02  0.23893721835E+02  0.00000000000E+00 0. -1.
</event>
<event>
 5    1  0.1717510E-003  0.9118800E+02  0.7818608E-02  0.1130116E+00
         25   -1    0    0    0    0  0.00000000000E+00  0.00000000000E+00  0.99999998245E-14  0.12500000000E+03  0.12500000000E+03 0.  0.
        -11    1    3    3    0    0 -0.26458469370E+01  0.20053465864E+02  0.31872936838E+02  0.37749517906E+02  0.51100000000E-03 0. -1.
         23    2    1    0    0    0 -0.25273716053E+02  0.21583567819E+01 -0.16973671729E+02  0.94479109465E+02  0.89413518923E+02 0.  0.
         11    1    3    3    0    0 -0.22627869116E+02 -0.17895109082E+02 -0.48846608567E+02  0.56729591559E+02  0.51100000000E-03 0.  1.
         22    1    1    0    0    0  0.25273716053E+02 -0.21583567819E+01  0.16973671729E+02  0.30520890535E+02  0.00000000000E+00 0.  1.
</event>
<event>
 5    1  0.1717510E-003  0.9118800E+02  0.7818608E-02  0.1130116E+00
         25   -1    0    0    0    0  0.00000000000E+00  0.00000000000E+00  0.99999998245E-14  0.12500000000E+03  0.12500000000E+03 0.  0.
        -11    1    3    3    0    0 -0.27130843692E+02  0.77265357033E+00  0.26987931735E+02  0.38275685919E+02  0.51100000000E-03 0.  1.
         23    2    1    0    0    0  0.27470618263E+02 -0.21291084406E+01  0.11817207968E+02  0.95019766934E+02  0.90166189526E+02 0.  0.
         11    1    3    3    0    0  0.54601461955E+02 -0.29017620110E+01 -0.15170723767E+02  0.56744081015E+02  0.51100000000E-03 0. -1.
         22    1    1    0    0    0 -0.27470618263E+02  0.21291084406E+01 -0.11817207968E+02  0.29980233066E+02  0.00000000000E+00 0. -1.
</event>
<event>
 5    1  0.1717510E-003  0.9118800E+02  0.7818608E-02  0.1130116E+00
         25   -1    0    0    0    0  0.00000000000E+00  0.00000000000E+00  0.99999998245E-14  0.12500000000E+03  0.12500000000E+03 0.  0.
        -11    1    3    3    0    0  0.40049750205E+02 -0.29696739923E+00  0.46054380116E+02  0.61033405683E+02  0.51100000000E-03 0.  1.
         23    2    1    0    0    0  0.13230394521E+02  0.71946606681E+01  0.24476873821E+02  0.96261109393E+02  0.91870982079E+02 0.  0.
         11    1    3    3    0    0 -0.26819355685E+02  0.74916280673E+01 -0.21577506296E+02  0.35227703709E+02  0.51100000000E-03 0. -1.
         22    1    1    0    0    0 -0.13230394521E+02 -0.71946606681E+01 -0.24476873821E+02  0.28738890607E+02  0.00000000000E+00 0.  1.
</event>
<event>
 5    1  0.1717510E-003  0.9118800E+02  0.7818608E-02  0.1130116E+00
         25   -1    0    0    0    0  0.00000000000E+00  0.00000000000E+00  0.99999998245E-14  0.12500000000E+03  0.12500000000E+03 0.  0.
        -11    1    3    3    0    0 -0.25068456891E+02 -0.40438162581E+02 -0.16592274945E+02  0.50388253710E+02  0.51100000000E-03 0. -1.
         23    2    1    0    0    0 -0.34158334148E+01 -0.44079653180E+01 -0.29980988751E+02  0.94504791152E+02  0.89449414688E+02 0.  0.
         11    1    3    3    0    0  0.21652623476E+02  0.36030197263E+02 -0.13388713807E+02  0.44116537442E+02  0.51100000000E-03 0.  1.
         22    1    1    0    0    0  0.34158334148E+01  0.44079653180E+01  0.29980988751E+02  0.30495208848E+02  0.00000000000E+00 0.  1.
</event>
<event>
 5    1  0.1717510E-003  0.9118800E+02  0.7818608E-02  0.1130116E+00
         25   -1    0    0    0    0  0.00000000000E+00  0.00000000000E+00  0.99999998245E-14  0.12500000000E+03  0.12500000000E+03 0.  0.
        -11    1    3    3    0    0 -0.18144953058E+01 -0.58748992199E+01 -0.50759096474E+02  0.51130154597E+02  0.51100000000E-03 0. -1.
         23    2    1    0    0    0 -0.36281888852E+01 -0.27044110517E+02 -0.12296696614E+02  0.95070809970E+02  0.90236924219E+02 0.  0.
         11    1    3    3    0    0 -0.18136935794E+01 -0.21169211297E+02  0.38462399860E+02  0.43940655372E+02  0.51100000000E-03 0.  1.
         22    1    1    0    0    0  0.36281888852E+01  0.27044110517E+02  0.12296696614E+02  0.29929190030E+02  0.00000000000E+00 0.  1.
</event>
<event>
 5    1  0.1717510E-003  0.9118800E+02  0.7818608E-02  0.1130116E+00
         25   -1    0    0    0    0  0.00000000000E+00  0.00000000000E+00  0.99999998245E-14  0.12500000000E+03  0.12500000000E+03 0.  0.
        -11    1    3    3    0    0  0.13630971861E+02 -0.14982787397E+02  0.43009481226E+02  0.47540538361E+02  0.51100000000E-03 0.  1.
         23    2    1    0    0    0  0.13601953831E+02  0.22846844833E+02  0.18103464641E+02  0.92832828864E+02  0.87081612388E+02 0.  0.
         11    1    3    3    0    0 -0.29018029617E-01  0.37829632230E+02 -0.24906016584E+02  0.45292290504E+02  0.51100000000E-03 0. -1.
         22    1    1    0    0    0 -0.13601953831E+02 -0.22846844833E+02 -0.18103464641E+02  0.32167171136E+02  0.00000000000E+00 0.  1.
</event>
<event>
 5    1  0.1717510E-003  0.9118800E+02  0.7818608E-02  0.1130116E+00
         25   -1    0    0    0    0  0.00000000000E+00  0.00000000000E+00  0.99999998245E-14  0.12500000000E+03  0.12500000000E+03 0.  0.
        -11    1    3    3    0    0  0.31665120695E+02  0.14074181885E+01 -0.21451230881E+02  0.38272914720E+02  0.51100000000E-03 0. -1.
         23    2    1    0    0    0 -0.10586693970E+02 -0.29170063605E+02 -0.13993818637E+02  0.90958882804E+02  0.84348803791E+02 0.  0.
         11    1    3    3    0    0 -0.42251814665E+02 -0.30577481793E+02  0.74574122442E+01  0.52685968084E+02  0.51100000000E-03 0.  1.
         22    1    1    0    0    0  0.10586693970E+02  0.29170063605E+02  0.13993818637E+02  0.34041117196E+02  0.00000000000E+00 0.  1.
</event>
<event>
 5    1  0.1717510E-003  0.9118800E+02  0.7818608E-02  0.1130116E+00
         25   -1    0    0    0    0  0.00000000000E+00  0.00000000000E+00  0.99999998245E-14  0.12500000000E+03  0.12500000000E+03 0.  0.
        -11    1    3    3    0    0  0.48283398459E+02 -0.31587380309E+02 -0.26955315771E-01  0.57697919273E+02  0.51100000000E-03 0. -1.
         23    2    1    0    0    0  0.10547765724E+02 -0.26649511475E+02 -0.43908552845E+01  0.96004630823E+02  0.91521351092E+02 0.  0.
         11    1    3    3    0    0 -0.37735632735E+02  0.49378688349E+01 -0.43638999687E+01  0.38306711550E+02  0.51100000000E-03 0.  1.
         22    1    1    0    0    0 -0.10547765724E+02  0.26649511475E+02  0.43908552845E+01  0.28995369177E+02  0.00000000000E+00 0. -1.
</event>
<event>
 5    1  0.1717510E-003  0.9118800E+02  0.7818608E-02  0.1130116E+00
         25   -1    0    0    0    0  0.00000000000E+00  0.00000000000E+00  0.99999998245E-14  0.12500000000E+03  0.12500000000E+03 0.  0.
        -11    1    3    3    0    0  0.11097355970E+02 -0.73806681381E+01 -0.32911092607E+02  0.35507261068E+02  0.51100000000E-03 0.  1.
         23    2    1    0    0    0 -0.21528803907E+02 -0.53374899700E+01  0.18287856083E+02  0.96252410936E+02  0.91859146165E+02 0.  0.
         11    1    3    3    0    0 -0.32626159878E+02  0.20431781681E+01  0.51198948690E+02  0.60745149869E+02  0.51100000000E-03 0. -1.
         22    1    1    0    0    0  0.21528803907E+02  0.53374899700E+01 -0.18287856083E+02  0.28747589064E+02  0.00000000000E+00 0. -1.
</event>
<event>
 5    1  0.1717510E-003  0.9118800E+02  0.7818608E-02  0.1130116E+00
         25   -1    0    0    0    0  0.00000000000E+00  0.00000000000E+00  0.99999998245E-14  0.12500000000E+03  0.12500000000E+03 0.  0.
        -11    1    3    3    0    0  0.35909655658E+02  0.17594486626E+02 -0.13799335143E+02  0.42302375581E+02  0.51100000000E-03 0. -1.
         23    2    1    0    0    0  0.11902979578E+02 -0.75800186730E+01  0.26156760078E+02  0.95279406067E+02  0.90525419175E+02 0.  0.
         11    1    3    3    0    0 -0.24006676080E+02 -0.25174505299E+02  0.39956095222E+02  0.52977030486E+02  0.51100000000E-03 0.  1.
         22    1    1    0    0    0 -0.11902979578E+02  0.75800186730E+01 -0.26156760078E+02  0.29720593933E+02  0.00000000000E+00 0.  1.
</event>
<event>
 5    1  0.1717510E-003  0.9118800E+02  0.7818608E-02  0.1130116E+00
         25   -1    0    0    0    0  0.00000000000E+00  0.00000000000E+00  0.99999998245E-14  0.12500000000E+03  0.12500000000E+03 0.  0.
        -11    1    3    3    0    0  0.42857140253E+01  0.53496787310E+02  0.16546511439E+02  0.56161024191E+02  0.51100000000E-03 0.  1.
         23    2    1    0    0    0 -0.10795629472E+02  0.25599672016E+02 -0.78015149589E+01  0.96142549338E+02  0.91709526956E+02 0.  0.
         11    1    3    3    0    0 -0.15081343498E+02 -0.27897115293E+02 -0.24348026397E+02  0.39981525147E+02  0.51100000000E-03 0. -1.
         22    1    1    0    0    0  0.10795629472E+02 -0.25599672016E+02  0.78015149589E+01  0.28857450662E+02  0.00000000000E+00 0.  1.
</event>
<event>
 5    1  0.1717510E-003  0.9118800E+02  0.7818608E-02  0.1130116E+00
         25   -1    0    0    0    0  0.00000000000E+00  0.00000000000E+00  0.99999998245E-14  0.12500000000E+03  0.12500000000E+03 0.  0.
        -11    1    3    3    0    0 -0.30113474805E+02  0.41226261406E+02 -0.23627003036E+02  0.56255322123E+02  0.51100000000E-03 0.  1.
         23    2    1    0    0    0 -0.24360966259E+02  0.14602533589E+02  0.54306038280E+01  0.96083186167E+02  0.91628579285E+02 0.  0.
         11    1    3    3    0    0  0.57525085465E+01 -0.26623727817E+02  0.29057606864E+02  0.39827864045E+02  0.51100000000E-03 0. -1.
         22    1    1    0    0    0  0.24360966259E+02 -0.14602533589E+02 -0.54306038280E+01  0.28916813833E+02  0.00000000000E+00 0.  1.
</event>
<event>
 5    1  0.1717510E-003  0.9118800E+02  0.7818608E-02  0.1130116E+00
         25   -1    0    0    0    0  0.00000000000E+00  0.00000000000E+00  0.99999998245E-14  0.12500000000E+03  0.12500000000E+03 0.  0.
        -11    1    3    3    0    0  0.46649227467E+01 -0.34020278899E+02  0.23861941411E+02  0.41815465186E+02  0.51100000000E-03 0. -1.
         23    2    1    0    0    0 -0.28225017932E+02  0.43292969254E+01  0.37225598044E+01  0.96203265799E+02  0.91792246131E+02 0.  0.
         11    1    3    3    0    0 -0.32889940679E+02  0.38349575824E+02 -0.20139381606E+02  0.54387800613E+02  0.51100000000E-03 0.  1.
         22    1    1    0    0    0  0.28225017932E+02 -0.43292969254E+01 -0.37225598044E+01  0.28796734201E+02  0.00000000000E+00 0.  1.
</event>
<event>
 5    1  0.1717510E-003  0.9118800E+02  0.7818608E-02  0.1130116E+00
         25   -1    0    0    0    0  0.00000000000E+00  0.00000000000E+00  0.99999998245E-14  0.12500000000E+03  0.12500000000E+03 0.  0.
        -11    1    3    3    0    0  0.10484229145E+02  0.42846899330E+02 -0.40672155850E+02  0.60000000873E+02  0.51100000000E-03 0. -1.
         23    2    1    0    0    0 -0.34058885016E+01  0.32801799218E+02 -0.21946595600E+02  0.85386729914E+02  0.75641803776E+02 0.  0.
         11    1    3    3    0    0 -0.13890117646E+02 -0.10045100112E+02  0.18725560250E+02  0.25386729041E+02  0.51100000000E-03 0.  1.
         22    1    1    0    0    0  0.34058885016E+01 -0.32801799218E+02  0.21946595600E+02  0.39613270086E+02  0.00000000000E+00 0. -1.
</event>
<event>
 5    1  0.1717510E-003  0.9118800E+02  0.7818608E-02  0.1130116E+00
         25   -1    0    0    0    0  0.00000000000E+00  0.00000000000E+00  0.99999998245E-14  0.12500000000E+03  0.12500000000E+03 0.  0.
        -11    1    3    3    0    0 -0.58868264805E+02  0.10738936901E+01 -0.59819622295E+01  0.59181160188E+02  0.51100000000E-03 0. -1.
         23    2    1    0    0    0 -0.25057774898E+02  0.12892927344E+02  0.44143264531E+01  0.96476221562E+02  0.92163199763E+02 0.  0.
         11    1    3    3    0    0  0.33810489907E+02  0.11819033654E+02  0.10396288683E+02  0.37295061374E+02  0.51100000000E-03 0.  1.
         22    1    1    0    0    0  0.25057774898E+02 -0.12892927344E+02 -0.44143264531E+01  0.28523778438E+02  0.00000000000E+00 0. -1.
</event>
<event>
 5    1  0.1717510E-003  0.9118800E+02  0.7818608E-02  0.1130116E+00
         25   -1    0    0    0    0  0.00000000000E+00  0.00000000000E+00  0.99999998245E-14  0.12500000000E+03  0.12500000000E+03 0.  0.
        -11    1    3    3    0    0  0.73300975307E+01  0.30204375561E+02 -0.33475544495E+02  0.45679828287E+02  0.51100000000E-03 0.  1.
         23    2    1    0    0    0  0.12767334847E+02 -0.15025949889E+02 -0.26808679847E+02  0.91721037812E+02  0.85470810532E+02 0.  0.
         11    1    3    3    0    0  0.54372373163E+01 -0.45230325451E+02  0.66668646481E+01  0.46041209525E+02  0.51100000000E-03 0. -1.
         22    1    1    0    0    0 -0.12767334847E+02  0.15025949889E+02  0.26808679847E+02  0.33278962188E+02  0.00000000000E+00 0. -1.
</event>
<event>
 5    1  0.1717510E-003  0.9118800E+02  0.7818608E-02  0.1130116E+00
         25   -1    0    0    0    0  0.00000000000E+00  0.00000000000E+00  0.99999998245E-14  0.12500000000E+03  0.12500000000E+03 0.  0.
        -11    1    3    3    0    0  0.13984181742E+02  0.33178724733E+02 -0.69281071524E+01  0.36665839454E+02  0.51100000000E-03 0.  1.
         23    2    1    0    0    0  0.12629823707E+02 -0.25978003452E+02 -0.18593126785E+01  0.96054773211E+02  0.91589810038E+02 0.  0.
         11    1    3    3    0    0 -0.13543580352E+01 -0.59156728184E+02  0.50687944739E+01  0.59388933758E+02  0.51100000000E-03 0. -1.
         22    1    1    0    0    0 -0.12629823707E+02  0.25978003452E+02  0.18593126785E+01  0.28945226789E+02  0.00000000000E+00 0. -1.
</event>
<event>
 5    1  0.1717510E-003  0.9118800E+02  0.7818608E-02  0.1130116E+00
         25   -1    0    0    0    0  0.00000000000E+00  0.00000000000E+00  0.99999998245E-14  0.12500000000E+03  0.12500000000E+03 0.  0.
        -11    1    3    3    0    0 -0.13156192571E+02  0.25463629551E+02 -0.33385939085E+02  0.44001167731E+02  0.51100000000E-03 0.  1.
         23    2    1    0    0    0  0.25522831725E+02 -0.30535878100E+01 -0.10396780869E+02  0.97272172999E+02  0.93236490977E+02 0.  0.
         11    1    3    3    0    0  0.38679024296E+02 -0.28517217361E+02  0.22989158216E+02  0.53271005268E+02  0.51100000000E-03 0. -1.
         22    1    1    0    0    0 -0.25522831725E+02  0.30535878100E+01  0.10396780869E+02  0.27727827001E+02  0.00000000000E+00 0. -1.
</event>
<event>
 5    1  0.1717510E-003  0.9118800E+02  0.7818608E-02  0.1130116E+00
         25   -1    0    0    0    0  0.00000000000E+00  0.00000000000E+00  0.99999998245E-14  0.12500000000E+03  0.12500000000E+03 0.  0.
        -11    1    3    3    0    0  0.27976219377E+02 -0.44055464948E+02 -0.15803257437E+02  0.54527935852E+02  0.51100000000E-03 0. -1.
         23    2    1    0    0    0  0.13194193834E+02 -0.90491925467E+01 -0.26536088657E+02  0.94013896052E+02  0.88760768434E+02 0.  0.
         11    1    3    3    0    0 -0.14782025543E+02  0.35006272402E+02 -0.10732831220E+02  0.39485960199E+02  0.51100000000E-03 0.  1.
         22    1    1    0    0    0 -0.13194193834E+02  0.90491925467E+01  0.26536088657E+02  0.30986103948E+02  0.00000000000E+00 0.  1.
</event>
<event>
 5    1  0.1717510E-003  0.9118800E+02  0.7818608E-02  0.1130116E+00
         25   -1    0    0    0    0  0.00000000000E+00  0.00000000000E+00  0.99999998245E-14  0.12500000000E+03  0.12500000000E+03 0.  0.
        -11    1    3    3    0    0  0.13601181527E+02  0.16379471877E+02  0.28889604724E+02  0.35887163433E+02  0.51100000000E-03 0. -1.
         23    2    1    0    0    0 -0.13626608080E+02 -0.18695319666E+02 -0.14277591799E+02  0.97814543359E+02  0.93960820770E+02 0.  0.
         11    1    3    3    0    0 -0.27227789607E+02 -0.35074791543E+02 -0.43167196522E+02  0.61927379926E+02  0.51100000000E-03 0.  1.
         22    1    1    0    0    0  0.13626608080E+02  0.18695319666E+02  0.14277591799E+02  0.27185456641E+02  0.00000000000E+00 0.  1.
</event>
<event>
 5    1  0.1717510E-003  0.9118800E+02  0.7818608E-02  0.1130116E+00
         25   -1    0    0    0    0  0.00000000000E+00  0.00000000000E+00  0.99999998245E-14  0.12500000000E+03  0.12500000000E+03 0.  0.
        -11    1    3    3    0    0 -0.32273009123E+02  0.91534540547E+01 -0.46192619876E+01  0.33862522360E+02  0.51100000000E-03 0.  1.
         23    2    1    0    0    0  0.18851009336E+02 -0.10149075486E+02  0.21699479261E+02  0.94516698237E+02  0.89466052552E+02 0.  0.
         11    1    3    3    0    0  0.51124018459E+02 -0.19302529541E+02  0.26318741248E+02  0.60654175877E+02  0.51100000000E-03 0. -1.
         22    1    1    0    0    0 -0.18851009336E+02  0.10149075486E+02 -0.21699479261E+02  0.30483301763E+02  0.00000000000E+00 0. -1.
</event>
<event>
 5    1  0.1717510E-003  0.9118800E+02  0.7818608E-02  0.1130116E+00
         25   -1    0    0    0    0  0.00000000000E+00  0.00000000000E+00  0.99999998245E-14  0.12500000000E+03  0.12500000000E+03 0.  0.
        -11    1    3    3    0    0  0.42661157280E+02 -0.55018589293E+01  0.11833894943E+02  0.44612619985E+02  0.51100000000E-03 0.  1.
         23    2    1    0    0    0  0.63466340313E+01  0.27573466058E+02 -0.44432522283E+01  0.96358800927E+02  0.92003805529E+02 0.  0.
         11    1    3    3    0    0 -0.36314523249E+02  0.33075324987E+02 -0.16277147171E+02  0.51746180942E+02  0.51100000000E-03 0. -1.
         22    1    1    0    0    0 -0.63466340313E+01 -0.27573466058E+02  0.44432522283E+01  0.28641199073E+02  0.00000000000E+00 0.  1.
</event>
<event>
 5    1  0.1717510E-003  0.9118800E+02  0.7818608E-02  0.1130116E+00
         25   -1    0    0    0    0  0.00000000000E+00  0.00000000000E+00  0.99999998245E-14  0.12500000000E+03  0.12500000000E+03 0.  0.
        -11    1    3    3    0    0  0.31898972041E+02  0.51858709443E+01  0.22036235054E+02  0.39115640482E+02  0.51100000000E-03 0. -1.
         23    2    1    0    0    0  0.22443924193E+01 -0.12120612754E+02 -0.24868285604E+02  0.97244312659E+02  0.93199131781E+02 0.  0.
         11    1    3    3    0    0 -0.29654579622E+02 -0.17306483699E+02 -0.46904520658E+02  0.58128672177E+02  0.51100000000E-03 0.  1.
         22    1    1    0    0    0 -0.22443924193E+01  0.12120612754E+02  0.24868285604E+02  0.27755687341E+02  0.00000000000E+00 0.  1.
</event>
<event>
 5    1  0.1717510E-003  0.9118800E+02  0.7818608E-02  0.1130116E+00
         25   -1    0    0    0    0  0.00000000000E+00  0.00000000000E+00  0.99999998245E-14  0.12500000000E+03  0.12500000000E+03 0.  0.
        -11    1    3    3    0    0  0.12930887647E+02 -0.19650741241E+02  0.25222099159E+02  0.34489328392E+02  0.51100000000E-03 0. -1.
         23    2    1    0    0    0 -0.13240483100E+02  0.36269831215E-01 -0.26309350533E+02  0.95546755125E+02  0.90893832471E+02 0.  0.
         11    1    3    3    0    0 -0.26171370746E+02  0.19687011072E+02 -0.51531449692E+02  0.61057426733E+02  0.51100000000E-03 0.  1.
         22    1    1    0    0    0  0.13240483100E+02 -0.36269831215E-01  0.26309350533E+02  0.29453244875E+02  0.00000000000E+00 0.  1.
</event>
<event>
 5    1  0.1717510E-003  0.9118800E+02  0.7818608E-02  0.1130116E+00
         25   -1    0    0    0    0  0.00000000000E+00  0.00000000000E+00  0.99999998245E-14  0.12500000000E+03  0.12500000000E+03 0.  0.
        -11    1    3    3    0    0  0.17297906442E+02 -0.49506668345E+02 -0.69766682881E+01  0.52903701936E+02  0.51100000000E-03 0. -1.
         23    2    1    0    0    0 -0.38482377828E+01 -0.16370042812E+02 -0.23962536689E+02  0.95725601625E+02  0.91139455814E+02 0.  0.
         11    1    3    3    0    0 -0.21146144225E+02  0.33136625533E+02 -0.16985868401E+02  0.42821899688E+02  0.51100000000E-03 0.  1.
         22    1    1    0    0    0  0.38482377828E+01  0.16370042812E+02  0.23962536689E+02  0.29274398375E+02  0.00000000000E+00 0. -1.
</event>
<event>
 5    1  0.1717510E-003  0.9118800E+02  0.7818608E-02  0.1130116E+00
         25   -1    0    0    0    0  0.00000000000E+00  0.00000000000E+00  0.99999998245E-14  0.12500000000E+03  0.12500000000E+03 0.  0.
        -11    1    3    3    0    0 -0.24122099574E+02 -0.30723684127E+02  0.46412268008E+02  0.60662336553E+02  0.51100000000E-03 0. -1.
         23    2    1    0    0    0 -0.18582344401E+02 -0.65067775195E+01  0.21591890644E+02  0.95779263892E+02  0.91213025237E+02 0.  0.
         11    1    3    3    0    0  0.55397551732E+01  0.24216906607E+02 -0.24820377363E+02  0.35116927339E+02  0.51100000000E-03 0.  1.
         22    1    1    0    0    0  0.18582344401E+02  0.65067775195E+01 -0.21591890644E+02  0.29220736108E+02  0.00000000000E+00 0. -1.
</event>
<event>
 5    1  0.1717510E-003  0.9118800E+02  0.7818608E-02  0.1130116E+00
         25   -1    0    0    0    0  0.00000000000E+00  0.00000000000E+00  0.99999998245E-14  0.12500000000E+03  0.12500000000E+03 0.  0.
        -11    1    3    3    0    0 -0.43888340381E+02 -0.36838079984E+02  0.16166882735E+02  0.59536532112E+02  0.51100000000E-03 0.  1.
         23    2    1    0    0    0 -0.27095816241E+02 -0.77336604736E+01  0.64645103780E-02  0.96822122083E+02  0.92631153080E+02 0.  0.
         11    1    3    3    0    0  0.16792524140E+02  0.29104419511E+02 -0.16160418224E+02  0.37285589971E+02  0.51100000000E-03 0. -1.
         22    1    1    0    0    0  0.27095816241E+02  0.77336604736E+01 -0.64645103780E-02  0.28177877917E+02  0.00000000000E+00 0.  1.
</event>
<event>
 5    1  0.1717510E-003  0.9118800E+02  0.7818608E-02  0.1130116E+00
         25   -1    0    0    0    0  0.00000000000E+00  0.00000000000E+00  0.99999998245E-14  0.12500000000E+03  0.12500000000E+03 0.  0.
        -11    1    3    3    0    0  0.35946747705E+00  0.31849946538E+02  0.11588749992E+02  0.33894652056E+02  0.51100000000E-03 0. -1.
         23    2    1    0    0    0 -0.10369372161E+02 -0.27294755822E+02 -0.26932402544E+01  0.95677975557E+02  0.91074112069E+02 0.  0.
         11    1    3    3    0    0 -0.10728839638E+02 -0.59144702360E+02 -0.14281990247E+02  0.61783323501E+02  0.51100000000E-03 0.  1.
         22    1    1    0    0    0  0.10369372161E+02  0.27294755822E+02  0.26932402544E+01  0.29322024443E+02  0.00000000000E+00 0.  1.
</event>
<event>
 5    1  0.1717510E-003  0.9118800E+02  0.7818608E-02  0.1130116E+00
         25   -1    0    0    0    0  0.00000000000E+00  0.00000000000E+00  0.99999998245E-14  0.12500000000E+03  0.12500000000E+03 0.  0.
        -11    1    3    3    0    0  0.22663611488E+02  0.30923109098E+02 -0.14692861612E+02  0.41057985150E+02  0.51100000000E-03 0.  1.
         23    2    1    0    0    0  0.20134809813E+02 -0.21902763296E+02 -0.58655962401E+01  0.94675969505E+02  0.89688306798E+02 0.  0.
         11    1    3    3    0    0 -0.25288016744E+01 -0.52825872394E+02  0.88272653715E+01  0.53617984355E+02  0.51100000000E-03 0. -1.
         22    1    1    0    0    0 -0.20134809813E+02  0.21902763296E+02  0.58655962401E+01  0.30324030495E+02  0.00000000000E+00 0. -1.
</event>
<event>
 5    1  0.1717510E-003  0.9118800E+02  0.7818608E-02  0.1130116E+00
         25   -1    0    0    0    0  0.00000000000E+00  0.00000000000E+00  0.99999998245E-14  0.12500000000E+03  0.12500000000E+03 0.  0.
        -11    1    3    3    0    0 -0.15536695453E+01  0.60986084220E+02 -0.69213808929E+00  0.61009797680E+02  0.51100000000E-03 0. -1.
         23    2    1    0    0    0 -0.79200520596E+01  0.26803694524E+02  0.59893340540E+01  0.96416134146E+02  0.92081667755E+02 0.  0.
         11    1    3    3    0    0 -0.63663825143E+01 -0.34182389697E+02  0.66814721433E+01  0.35406336466E+02  0.51100000000E-03 0.  1.
         22    1    1    0    0    0  0.79200520596E+01 -0.26803694524E+02 -0.59893340540E+01  0.28583865854E+02  0.00000000000E+00 0. -1.
</event>
<event>
 5    1  0.1717510E-003  0.9118800E+02  0.7818608E-02  0.1130116E+00
         25   -1    0    0    0    0  0.00000000000E+00  0.00000000000E+00  0.99999998245E-14  0.12500000000E+03  0.12500000000E+03 0.  0.
        -11    1    3    3    0    0  0.35698882989E+01 -0.13236048379E+02  0.59505879573E+02  0.61064611545E+02  0.51100000000E-03 0. -1.
         23    2    1    0    0    0  0.87403807562E+01  0.31643328098E+00  0.25753888523E+02  0.97801522840E+02  0.93943497433E+02 0.  0.
         11    1    3    3    0    0  0.51704924574E+01  0.13552481660E+02 -0.33751991050E+02  0.36736911295E+02  0.51100000000E-03 0.  1.
         22    1    1    0    0    0 -0.87403807562E+01 -0.31643328098E+00 -0.25753888523E+02  0.27198477160E+02  0.00000000000E+00 0. -1.
</event>
<event>
 5    1  0.1717510E-003  0.9118800E+02  0.7818608E-02  0.1130116E+00
         25   -1    0    0    0    0  0.00000000000E+00  0.00000000000E+00  0.99999998245E-14  0.12500000000E+03  0.12500000000E+03 0.  0.
        -11    1    3    3    0    0 -0.18605723788E+02  0.29892631050E+02 -0.42774166481E+02  0.55401910321E+02  0.51100000000E-03 0.  1.
         23    2    1    0    0    0 -0.49576349175E+01 -0.51419801381E+01 -0.28498666330E+02  0.95619869192E+02  0.90994325636E+02 0.  0.
         11    1    3    3    0    0  0.13648088871E+02 -0.35034611188E+02  0.14275500151E+02  0.40217958871E+02  0.51100000000E-03 0. -1.
         22    1    1    0    0    0  0.49576349175E+01  0.51419801381E+01  0.28498666330E+02  0.29380130808E+02  0.00000000000E+00 0.  1.
</event>
<event>
 5    1  0.1717510E-003  0.9118800E+02  0.7818608E-02  0.1130116E+00
         25   -1    0    0    0    0  0.00000000000E+00  0.00000000000E+00  0.99999998245E-14  0.12500000000E+03  0.12500000000E+03 0.  0.
        -11    1    3    3    0    0 -0.12623331194E+02  0.25936039453E+02 -0.46144696166E+02  0.54418375733E+02  0.51100000000E-03 0.  1.
         23    2    1    0    0    0 -0.19018255692E+02  0.21826346969E+02 -0.57973631137E+01  0.95475554354E+02  0.90795862178E+02 0.  0.
         11    1    3    3    0    0 -0.63949244984E+01 -0.41096924836E+01  0.40347333052E+02  0.41057178621E+02  0.51100000000E-03 0. -1.
         22    1    1    0    0    0  0.19018255692E+02 -0.21826346969E+02  0.57973631137E+01  0.29524445646E+02  0.00000000000E+00 0.  1.
</event>
<event>
 5    1  0.1717510E-003  0.9118800E+02  0.7818608E-02  0.1130116E+00
         25   -1    0    0    0    0  0.00000000000E+00  0.00000000000E+00  0.99999998245E-14  0.12500000000E+03  0.12500000000E+03 0.  0.
        -11    1    3    3    0    0  0.39629755925E+02  0.30899405484E+02  0.27084287768E+01  0.50325206414E+02  0.51100000000E-03 0. -1.
         23    2    1    0    0    0 -0.33195793394E+01  0.26273648252E+02 -0.11955341964E+02  0.95943943817E+02  0.91438427120E+02 0.  0.
         11    1    3    3    0    0 -0.42949335264E+02 -0.46257572324E+01 -0.14663770741E+02  0.45618737403E+02  0.51100000000E-03 0.  1.
         22    1    1    0    0    0  0.33195793394E+01 -0.26273648252E+02  0.11955341964E+02  0.29056056183E+02  0.00000000000E+00 0. -1.
</event>
<event>
 5    1  0.1717510E-003  0.9118800E+02  0.7818608E-02  0.1130116E+00
         25   -1    0    0    0    0  0.00000000000E+00  0.00000000000E+00  0.99999998245E-14  0.12500000000E+03  0.12500000000E+03 0.  0.
        -11    1    3    3    0    0  0.29308869641E+02 -0.12177307636E+02  0.20804388552E+02  0.37948903070E+02  0.51100000000E-03 0.  1.
         23    2    1    0    0    0 -0.19509671727E+02  0.40820605235E+01 -0.14500608075E+02  0.10035130544E+03  0.97277059781E+02 0.  0.
         11    1    3    3    0    0 -0.48818541368E+02  0.16259368160E+02 -0.35304996628E+02  0.62402402369E+02  0.51100000000E-03 0. -1.
         22    1    1    0    0    0  0.19509671727E+02 -0.40820605235E+01  0.14500608075E+02  0.24648694561E+02  0.00000000000E+00 0. -1.
</event>
<event>
 5    1  0.1717510E-003  0.9118800E+02  0.7818608E-02  0.1130116E+00
         25   -1    0    0    0    0  0.00000000000E+00  0.00000000000E+00  0.99999998245E-14  0.12500000000E+03  0.12500000000E+03 0.  0.
        -11    1    3    3    0    0  0.49270544874E+01  0.15796042846E+02  0.36263177681E+02  0.39859865671E+02  0.51100000000E-03 0.  1.
         23    2    1    0    0    0 -0.24331029094E+02 -0.16436351282E+02  0.14462362472E+01  0.95601969122E+02  0.90969732771E+02 0.  0.
         11    1    3    3    0    0 -0.29258083582E+02 -0.32232394127E+02 -0.34816941434E+02  0.55742103451E+02  0.51100000000E-03 0. -1.
         22    1    1    0    0    0  0.24331029094E+02  0.16436351282E+02 -0.14462362472E+01  0.29398030878E+02  0.00000000000E+00 0. -1.
</event>
<event>
 5    1  0.1717510E-003  0.9118800E+02  0.7818608E-02  0.1130116E+00
         25   -1    0    0    0    0  0.00000000000E+00  0.00000000000E+00  0.99999998245E-14  0.12500000000E+03  0.12500000000E+03 0.  0.
        -11    1    3    3    0    0 -0.44381110494E+00 -0.36306689567E+02  0.41662471453E+02  0.55264221731E+02  0.51100000000E-03 0.  1.
         23    2    1    0    0    0 -0.47666210551E+01 -0.29116834685E+02  0.24165579233E+01  0.95396782429E+02  0.90687350866E+02 0.  0.
         11    1    3    3    0    0 -0.43228099501E+01  0.71898548821E+01 -0.39245913530E+02  0.40132560698E+02  0.51100000000E-03 0. -1.
         22    1    1    0    0    0  0.47666210551E+01  0.29116834685E+02 -0.24165579233E+01  0.29603217571E+02  0.00000000000E+00 0.  1.
</event>
<event>
 5    1  0.1717510E-003  0.9118800E+02  0.7818608E-02  0.1130116E+00
         25   -1    0    0    0    0  0.00000000000E+00  0.00000000000E+00  0.99999998245E-14  0.12500000000E+03  0.12500000000E+03 0.  0.
        -11    1    3    3    0    0  0.11102678198E+01  0.41012438067E+02  0.88718200042E+01  0.41975730622E+02  0.51100000000E-03 0.  1.
         23    2    1    0    0    0 -0.27365464967E+02 -0.51799883228E+01  0.70482129174E+01  0.96270602909E+02  0.91883898085E+02 0.  0.
         11    1    3    3    0    0 -0.28475732787E+02 -0.46192426390E+02 -0.18236070868E+01  0.54294872286E+02  0.51100000000E-03 0. -1.
         22    1    1    0    0    0  0.27365464967E+02  0.51799883228E+01 -0.70482129174E+01  0.28729397091E+02  0.00000000000E+00 0. -1.
</event>
<event>
 5    1  0.1717510E-003  0.9118800E+02  0.7818608E-02  0.1130116E+00
         25   -1    0    0    0    0  0.00000000000E+00  0.00000000000E+00  0.99999998245E-14  0.12500000000E+03  0.12500000000E+03 0.  0.
        -11    1    3    3    0    0  0.32726906577E+02 -0.37210381268E+01  0.20892400841E+02  0.39004986245E+02  0.51100000000E-03 0.  1.
         23    2    1    0    0    0  0.11756747236E+02  0.10407342037E+02 -0.27344931385E+02  0.93467807778E+02  0.87988362552E+02 0.  0.
         11    1    3    3    0    0 -0.20970159341E+02  0.14128380163E+02 -0.48237332226E+02  0.54462821533E+02  0.51100000000E-03 0. -1.
         22    1    1    0    0    0 -0.11756747236E+02 -0.10407342037E+02  0.27344931385E+02  0.31532192222E+02  0.00000000000E+00 0.  1.
</event>
<event>
 5    1  0.1717510E-003  0.9118800E+02  0.7818608E-02  0.1130116E+00
         25   -1    0    0    0    0  0.00000000000E+00  0.00000000000E+00  0.99999998245E-14  0.12500000000E+03  0.12500000000E+03 0.  0.
        -11    1    3    3    0    0  0.13840762053E+02  0.18897763070E+02 -0.47862323263E+02  0.53286903942E+02  0.51100000000E-03 0.  1.
         23    2    1    0    0    0 -0.10015126126E+02  0.23663217598E+02 -0.11953564776E+02  0.96660304708E+02  0.92412532575E+02 0.  0.
         11    1    3    3    0    0 -0.23855888179E+02  0.47654545279E+01  0.35908758487E+02  0.43373400766E+02  0.51100000000E-03 0. -1.
         22    1    1    0    0    0  0.10015126126E+02 -0.23663217598E+02  0.11953564776E+02  0.28339695292E+02  0.00000000000E+00 0.  1.
</event>
<event>
 5    1  0.1717510E-003  0.9118800E+02  0.7818608E-02  0.1130116E+00
         25   -1    0    0    0    0  0.00000000000E+00  0.00000000000E+00  0.99999998245E-14  0.12500000000E+03  0.12500000000E+03 0.  0.
        -11    1    3    3    0    0  0.43056433722E+02  0.10549987565E+02  0.63734381583E+01  0.44785929004E+02  0.51100000000E-03 0. -1.
         23    2    1    0    0    0 -0.17208451812E+01  0.15705931724E+02 -0.21901915629E+02  0.97993861667E+02  0.94199073332E+02 0.  0.
         11    1    3    3    0    0 -0.44777278904E+02  0.51559441586E+01 -0.28275353788E+02  0.53207932663E+02  0.51100000000E-03 0.  1.
         22    1    1    0    0    0  0.17208451812E+01 -0.15705931724E+02  0.21901915629E+02  0.27006138333E+02  0.00000000000E+00 0.  1.
</event>
<event>
 5    1  0.1717510E-003  0.9118800E+02  0.7818608E-02  0.1130116E+00
         25   -1    0    0    0    0  0.00000000000E+00  0.00000000000E+00  0.99999998245E-14  0.12500000000E+03  0.12500000000E+03 0.  0.
        -11    1    3    3    0    0 -0.25625396426E+02 -0.42701265435E+01 -0.28092791174E+02  0.38263557583E+02  0.51100000000E-03 0.  1.
         23    2    1    0    0    0  0.13502467927E+02 -0.26146452158E+02  0.64715400745E+01  0.94869709070E+02  0.89957919427E+02 0.  0.
         11    1    3    3    0    0  0.39127864353E+02 -0.21876325615E+02  0.34564331249E+02  0.56606151487E+02  0.51100000000E-03 0. -1.
         22    1    1    0    0    0 -0.13502467927E+02  0.26146452158E+02 -0.64715400745E+01  0.30130290930E+02  0.00000000000E+00 0. -1.
</event>
<event>
 5    1  0.1717510E-003  0.9118800E+02  0.7818608E-02  0.1130116E+00
         25   -1    0    0    0    0  0.00000000000E+00  0.00000000000E+00  0.99999998245E-14  0.12500000000E+03  0.12500000000E+03 0.  0.
        -11    1    3    3    0    0 -0.31678370798E+02  0.24484586033E+02  0.22225452921E+02  0.45792847558E+02  0.51100000000E-03 0.  1.
         23    2    1    0    0    0 -0.53200120761E+00  0.18846528766E+02 -0.19308508562E+02  0.98013092532E+02  0.94224588792E+02 0.  0.
         11    1    3    3    0    0  0.31146369590E+02 -0.56380572675E+01 -0.41533961483E+02  0.52220244974E+02  0.51100000000E-03 0. -1.
         22    1    1    0    0    0  0.53200120761E+00 -0.18846528766E+02  0.19308508562E+02  0.26986907468E+02  0.00000000000E+00 0. -1.
</event>
<event>
 5    1  0.1717510E-003  0.9118800E+02  0.7818608E-02  0.1130116E+00
         25   -1    0    0    0    0  0.00000000000E+00  0.00000000000E+00  0.99999998245E-14  0.12500000000E+03  0.12500000000E+03 0.  0.
        -11    1    3    3    0    0  0.62369435294E+01  0.29948667788E+02  0.24643484590E+02  0.39282610655E+02  0.51100000000E-03 0. -1.
         23    2    1    0    0    0  0.18161534211E+02  0.38322928188E+01 -0.23327717977E+02  0.95188756833E+02  0.90400161550E+02 0.  0.
         11    1    3    3    0    0  0.11924590682E+02 -0.26116374970E+02 -0.47971202567E+02  0.55906146178E+02  0.51100000000E-03 0.  1.
         22    1    1    0    0    0 -0.18161534211E+02 -0.38322928188E+01  0.23327717977E+02  0.29811243167E+02  0.00000000000E+00 0.  1.
</event>
<event>
 5    1  0.1717510E-003  0.9118800E+02  0.7818608E-02  0.1130116E+00
         25   -1    0    0    0    0  0.00000000000E+00  0.00000000000E+00  0.99999998245E-14  0.12500000000E+03  0.12500000000E+03 0.  0.
        -11    1    3    3    0    0  0.26505077403E+02  0.13182183194E+02  0.26697072801E+02  0.39862548567E+02  0.51100000000E-03 0.  1.
         23    2    1    0    0    0  0.15407857516E+02 -0.16914940252E+02 -0.18700474236E+02  0.95449619062E+02  0.90760149655E+02 0.  0.
         11    1    3    3    0    0 -0.11097219886E+02 -0.30097123446E+02 -0.45397547037E+02  0.55587070494E+02  0.51100000000E-03 0. -1.
         22    1    1    0    0    0 -0.15407857516E+02  0.16914940252E+02  0.18700474236E+02  0.29550380938E+02  0.00000000000E+00 0. -1.
</event>
<event>
 5    1  0.1717510E-003  0.9118800E+02  0.7818608E-02  0.1130116E+00
         25   -1    0    0    0    0  0.00000000000E+00  0.00000000000E+00  0.99999998245E-14  0.12500000000E+03  0.12500000000E+03 0.  0.
        -11    1    3    3    0    0  0.21727367080E+01  0.34160158144E+02 -0.21600315376E+01  0.34297272861E+02  0.51100000000E-03 0. -1.
         23    2    1    0    0    0 -0.10119750056E+02 -0.23057998230E+02  0.15504256388E+02  0.95428686371E+02  0.90731315393E+02 0.  0.
         11    1    3    3    0    0 -0.12292486764E+02 -0.57218156373E+02  0.17664287926E+02  0.61131413511E+02  0.51100000000E-03 0.  1.
         22    1    1    0    0    0  0.10119750056E+02  0.23057998230E+02 -0.15504256388E+02  0.29571313629E+02  0.00000000000E+00 0.  1.
</event>
<event>
 5    1  0.1717510E-003  0.9118800E+02  0.7818608E-02  0.1130116E+00
         25   -1    0    0    0    0  0.00000000000E+00  0.00000000000E+00  0.99999998245E-14  0.12500000000E+03  0.12500000000E+03 0.  0.
        -11    1    3    3    0    0 -0.40701905095E+02 -0.31977518451E+02  0.10183467730E+02  0.52753291650E+02  0.51100000000E-03 0.  1.
         23    2    1    0    0    0 -0.25554893470E+02  0.21370669829E+01 -0.12541949218E+02  0.96453194123E+02  0.92131962591E+02 0.  0.
         11    1    3    3    0    0  0.15147011625E+02  0.34114585433E+02 -0.22725416948E+02  0.43699902473E+02  0.51100000000E-03 0. -1.
         22    1    1    0    0    0  0.25554893470E+02 -0.21370669829E+01  0.12541949218E+02  0.28546805877E+02  0.00000000000E+00 0.  1.
</event>
<event>
 5    1  0.1717510E-003  0.9118800E+02  0.7818608E-02  0.1130116E+00
         25   -1    0    0    0    0  0.00000000000E+00  0.00000000000E+00  0.99999998245E-14  0.12500000000E+03  0.12500000000E+03 0.  0.
        -11    1    3    3    0    0 -0.90606676295E+01 -0.16601111576E+02  0.49446263016E+02  0.52939829335E+02  0.51100000000E-03 0.  1.
         23    2    1    0    0    0  0.16602082453E+00  0.13422039878E+02  0.35004966575E+02  0.87509649210E+02  0.79072196774E+02 0.  0.
         11    1    3    3    0    0  0.92266884540E+01  0.30023151454E+02 -0.14441296441E+02  0.34569819876E+02  0.51100000000E-03 0. -1.
         22    1    1    0    0    0 -0.16602082453E+00 -0.13422039878E+02 -0.35004966575E+02  0.37490350790E+02  0.00000000000E+00 0.  1.
</event>
<event>
 5    1  0.1717510E-003  0.9118800E+02  0.7818608E-02  0.1130116E+00
         25   -1    0    0    0    0  0.00000000000E+00  0.00000000000E+00  0.99999998245E-14  0.12500000000E+03  0.12500000000E+03 0.  0.
        -11    1    3    3    0    0  0.33678266464E+02 -0.34855370436E+02 -0.36166508014E+02  0.60474281993E+02  0.51100000000E-03 0. -1.
         23    2    1    0    0    0  0.24918547745E+02 -0.98084197317E+01 -0.15975010536E+02  0.93817631889E+02  0.88483941890E+02 0.  0.
         11    1    3    3    0    0 -0.87597187192E+01  0.25046950705E+02  0.20191497479E+02  0.33343349897E+02  0.51100000000E-03 0.  1.
         22    1    1    0    0    0 -0.24918547745E+02  0.98084197317E+01  0.15975010536E+02  0.31182368111E+02  0.00000000000E+00 0. -1.
</event>
<event>
 5    1  0.1717510E-003  0.9118800E+02  0.7818608E-02  0.1130116E+00
         25   -1    0    0    0    0  0.00000000000E+00  0.00000000000E+00  0.99999998245E-14  0.12500000000E+03  0.12500000000E+03 0.  0.
        -11    1    3    3    0    0 -0.79789686718E+01 -0.22561248403E+02  0.48663468394E+02  0.54229208246E+02  0.51100000000E-03 0. -1.
         23    2    1    0    0    0 -0.12874832726E+02 -0.24318098065E+02  0.64811796334E+01  0.96730990455E+02  0.92508094855E+02 0.  0.
         11    1    3    3    0    0 -0.48958640538E+01 -0.17568496618E+01 -0.42182288761E+02  0.42501782209E+02  0.51100000000E-03 0.  1.
         22    1    1    0    0    0  0.12874832726E+02  0.24318098065E+02 -0.64811796334E+01  0.28269009545E+02  0.00000000000E+00 0. -1.
</event>
<event>
 5    1  0.1717510E-003  0.9118800E+02  0.7818608E-02  0.1130116E+00
         25   -1    0    0    0    0  0.00000000000E+00  0.00000000000E+00  0.99999998245E-14  0.12500000000E+03  0.12500000000E+03 0.  0.
        -11    1    3    3    0    0 -0.28039541702E+02  0.25981769728E+02  0.25723980171E+02  0.46075930953E+02  0.51100000000E-03 0.  1.
         23    2    1    0    0    0 -0.16147613188E+02  0.93377262128E+01 -0.20898003975E+02  0.96988125507E+02  0.92854894199E+02 0.  0.
         11    1    3    3    0    0  0.11891928515E+02 -0.16644043515E+02 -0.46621984146E+02  0.50912194554E+02  0.51100000000E-03 0. -1.
         22    1    1    0    0    0  0.16147613188E+02 -0.93377262128E+01  0.20898003975E+02  0.28011874493E+02  0.00000000000E+00 0. -1.
</event>
<event>
 5    1  0.1717510E-003  0.9118800E+02  0.7818608E-02  0.1130116E+00
         25   -1    0    0    0    0  0.00000000000E+00  0.00000000000E+00  0.99999998245E-14  0.12500000000E+03  0.12500000000E+03 0.  0.
        -11    1    3    3    0    0  0.22448830893E+02  0.40551287618E+01  0.22875179668E+02  0.32305849669E+02  0.51100000000E-03 0.  1.
         23    2    1    0    0    0 -0.31457449562E+02  0.42377443604E+01 -0.47933804981E+01  0.92898503044E+02  0.87175832436E+02 0.  0.
         11    1    3    3    0    0 -0.53906280456E+02  0.18261559866E+00 -0.27668560166E+02  0.60592653374E+02  0.51100000000E-03 0. -1.
         22    1    1    0    0    0  0.31457449562E+02 -0.42377443604E+01  0.47933804981E+01  0.32101496956E+02  0.00000000000E+00 0. -1.
</event>
<event>
 5    1  0.1717510E-003  0.9118800E+02  0.7818608E-02  0.1130116E+00
         25   -1    0    0    0    0  0.00000000000E+00  0.00000000000E+00  0.99999998245E-14  0.12500000000E+03  0.12500000000E+03 0.  0.
        -11    1    3    3    0    0  0.17760166067E+02 -0.34840776181E+02  0.20614980242E+02  0.44207245947E+02  0.51100000000E-03 0. -1.
         23    2    1    0    0    0  0.28542785815E+02  0.46389708557E+01 -0.89890356515E+01  0.94717770316E+02  0.89746546335E+02 0.  0.
         11    1    3    3    0    0  0.10782619749E+02  0.39479747037E+02 -0.29604015893E+02  0.50510524369E+02  0.51100000000E-03 0.  1.
         22    1    1    0    0    0 -0.28542785815E+02 -0.46389708557E+01  0.89890356515E+01  0.30282229684E+02  0.00000000000E+00 0.  1.
</event>
<event>
 5    1  0.1717510E-003  0.9118800E+02  0.7818608E-02  0.1130116E+00
         25   -1    0    0    0    0  0.00000000000E+00  0.00000000000E+00  0.99999998245E-14  0.12500000000E+03  0.12500000000E+03 0.  0.
        -11    1    3    3    0    0 -0.34012614781E+01 -0.53864094301E+02  0.33787181013E+01  0.54077028124E+02  0.51100000000E-03 0.  1.
         23    2    1    0    0    0  0.20085592110E+02 -0.19635455828E+02 -0.51159294887E+01  0.96449082843E+02  0.92126384445E+02 0.  0.
         11    1    3    3    0    0  0.23486853588E+02  0.34228638473E+02 -0.84946475900E+01  0.42372054719E+02  0.51100000000E-03 0. -1.
         22    1    1    0    0    0 -0.20085592110E+02  0.19635455828E+02  0.51159294887E+01  0.28550917157E+02  0.00000000000E+00 0.  1.
</event>
<event>
 5    1  0.1717510E-003  0.9118800E+02  0.7818608E-02  0.1130116E+00
         25   -1    0    0    0    0  0.00000000000E+00  0.00000000000E+00  0.99999998245E-14  0.12500000000E+03  0.12500000000E+03 0.  0.
        -11    1    3    3    0    0 -0.15408559642E+02  0.43514696977E+02  0.33105849812E+02  0.56806248382E+02  0.51100000000E-03 0. -1.
         23    2    1    0    0    0 -0.37503895675E+01  0.56813817227E+01  0.27355106928E+02  0.96810544609E+02  0.92615528678E+02 0.  0.
         11    1    3    3    0    0  0.11658170074E+02 -0.37833315255E+02 -0.57507428840E+01  0.40004296227E+02  0.51100000000E-03 0.  1.
         22    1    1    0    0    0  0.37503895675E+01 -0.56813817227E+01 -0.27355106928E+02  0.28189455391E+02  0.00000000000E+00 0. -1.
</event>
<event>
 5    1  0.1717510E-003  0.9118800E+02  0.7818608E-02  0.1130116E+00
         25   -1    0    0    0    0  0.00000000000E+00  0.00000000000E+00  0.99999998245E-14  0.12500000000E+03  0.12500000000E+03 0.  0.
        -11    1    3    3    0    0 -0.18852203451E+02 -0.24656534909E+02  0.23535885862E+02  0.38952383910E+02  0.51100000000E-03 0. -1.
         23    2    1    0    0    0 -0.13963730561E+02 -0.32759853966E+02 -0.20442834096E+02  0.83937812176E+02  0.73208285350E+02 0.  0.
         11    1    3    3    0    0  0.48884728901E+01 -0.81033190570E+01 -0.43978719957E+02  0.44985428266E+02  0.51100000000E-03 0.  1.
         22    1    1    0    0    0  0.13963730561E+02  0.32759853966E+02  0.20442834096E+02  0.41062187824E+02  0.00000000000E+00 0. -1.
</event>
<event>
 5    1  0.1717510E-003  0.9118800E+02  0.7818608E-02  0.1130116E+00
         25   -1    0    0    0    0  0.00000000000E+00  0.00000000000E+00  0.99999998245E-14  0.12500000000E+03  0.12500000000E+03 0.  0.
        -11    1    3    3    0    0 -0.27016925472E+02  0.32687845854E+02 -0.12239461097E+02  0.44138576514E+02  0.51100000000E-03 0. -1.
         23    2    1    0    0    0 -0.89956563320E+01 -0.10698313116E+02 -0.28010920286E+02  0.93695249695E+02  0.88310885081E+02 0.  0.
         11    1    3    3    0    0  0.18021269140E+02 -0.43386158970E+02 -0.15771459189E+02  0.49556673181E+02  0.51100000000E-03 0.  1.
         22    1    1    0    0    0  0.89956563320E+01  0.10698313116E+02  0.28010920286E+02  0.31304750305E+02  0.00000000000E+00 0.  1.
</event>
<event>
 5    1  0.1717510E-003  0.9118800E+02  0.7818608E-02  0.1130116E+00
         25   -1    0    0    0    0  0.00000000000E+00  0.00000000000E+00  0.99999998245E-14  0.12500000000E+03  0.12500000000E+03 0.  0.
        -11    1    3    3    0    0  0.26309270749E+02 -0.44923816075E+02 -0.20994906239E+02  0.56134775909E+02  0.51100000000E-03 0.  1.
         23    2    1    0    0    0  0.67086359820E+01 -0.26926782971E+02  0.86139868547E+01  0.95943878314E+02  0.91438337575E+02 0.  0.
         11    1    3    3    0    0 -0.19600634767E+02  0.17997033104E+02  0.29608893094E+02  0.39809102406E+02  0.51100000000E-03 0. -1.
         22    1    1    0    0    0 -0.67086359820E+01  0.26926782971E+02 -0.86139868547E+01  0.29056121686E+02  0.00000000000E+00 0.  1.
</event>
<event>
 5    1  0.1717510E-003  0.9118800E+02  0.7818608E-02  0.1130116E+00
         25   -1    0    0    0    0  0.00000000000E+00  0.00000000000E+00  0.99999998245E-14  0.12500000000E+03  0.12500000000E+03 0.  0.
        -11    1    3    3    0    0 -0.39957735874E+02  0.16287021913E+02 -0.19507042327E+02  0.47354117451E+02  0.51100000000E-03 0. -1.
         23    2    1    0    0    0 -0.23349681975E+02 -0.17372698178E+02  0.90556522147E+01  0.94520119303E+02  0.89470832262E+02 0.  0.
         11    1    3    3    0    0  0.16608053900E+02 -0.33659720090E+02  0.28562694542E+02  0.47166001851E+02  0.51100000000E-03 0.  1.
         22    1    1    0    0    0  0.23349681975E+02  0.17372698178E+02 -0.90556522147E+01  0.30479880697E+02  0.00000000000E+00 0.  1.
</event>
<event>
 5    1  0.1717510E-003  0.9118800E+02  0.7818608E-02  0.1130116E+00
         25   -1    0    0    0    0  0.00000000000E+00  0.00000000000E+00  0.99999998245E-14  0.12500000000E+03  0.12500000000E+03 0.  0.
        -11    1    3    3    0    0 -0.71536118914E+01 -0.20520567140E+02  0.22255548500E+02  0.31105904232E+02  0.51100000000E-03 0. -1.
         23    2    1    0    0    0  0.20903572450E+02  0.21254094363E+02 -0.12926492596E+02  0.92507076475E+02  0.86612753788E+02 0.  0.
         11    1    3    3    0    0  0.28057184341E+02  0.41774661503E+02 -0.35182041096E+02  0.61401172243E+02  0.51100000000E-03 0.  1.
         22    1    1    0    0    0 -0.20903572450E+02 -0.21254094363E+02  0.12926492596E+02  0.32492923525E+02  0.00000000000E+00 0.  1.
</event>
<event>
 5    1  0.1717510E-003  0.9118800E+02  0.7818608E-02  0.1130116E+00
         25   -1    0    0    0    0  0.00000000000E+00  0.00000000000E+00  0.99999998245E-14  0.12500000000E+03  0.12500000000E+03 0.  0.
        -11    1    3    3    0    0  0.24193842051E+02 -0.17297113946E+01 -0.30924317340E+02  0.39302001195E+02  0.51100000000E-03 0.  1.
         23    2    1    0    0    0  0.72637737408E+01 -0.16829420280E+02  0.21692033824E+02  0.96600420296E+02  0.92331495569E+02 0.  0.
         11    1    3    3    0    0 -0.16930068310E+02 -0.15099708886E+02  0.52616351164E+02  0.57298419101E+02  0.51100000000E-03 0. -1.
         22    1    1    0    0    0 -0.72637737408E+01  0.16829420280E+02 -0.21692033824E+02  0.28399579704E+02  0.00000000000E+00 0. -1.
</event>
<event>
 5    1  0.1717510E-003  0.9118800E+02  0.7818608E-02  0.1130116E+00
         25   -1    0    0    0    0  0.00000000000E+00  0.00000000000E+00  0.99999998245E-14  0.12500000000E+03  0.12500000000E+03 0.  0.
        -11    1    3    3    0    0  0.28007301104E+02 -0.19238036637E+02  0.99716243120E+00  0.33992724250E+02  0.51100000000E-03 0.  1.
         23    2    1    0    0    0 -0.15155742758E+02  0.24314854348E+02 -0.60571938640E+01  0.95715221052E+02  0.91125217493E+02 0.  0.
         11    1    3    3    0    0 -0.43163043862E+02  0.43552890985E+02 -0.70543562952E+01  0.61722496803E+02  0.51100000000E-03 0. -1.
         22    1    1    0    0    0  0.15155742758E+02 -0.24314854348E+02  0.60571938640E+01  0.29284778948E+02  0.00000000000E+00 0. -1.
</event>
<event>
 5    1  0.1717510E-003  0.9118800E+02  0.7818608E-02  0.1130116E+00
         25   -1    0    0    0    0  0.00000000000E+00  0.00000000000E+00  0.99999998245E-14  0.12500000000E+03  0.12500000000E+03 0.  0.
        -11    1    3    3    0    0 -0.82952150908E+01 -0.16414575295E+02  0.27545854151E+02  0.33121336880E+02  0.51100000000E-03 0. -1.
         23    2    1    0    0    0  0.16891847868E+02 -0.97983132843E+01 -0.25893571550E+02  0.92568248348E+02  0.86700992422E+02 0.  0.
         11    1    3    3    0    0  0.25187062959E+02  0.66162620110E+01 -0.53439425701E+02  0.59446911468E+02  0.51100000000E-03 0.  1.
         22    1    1    0    0    0 -0.16891847868E+02  0.97983132843E+01  0.25893571550E+02  0.32431751652E+02  0.00000000000E+00 0.  1.
</event>
<event>
 5    1  0.1717510E-003  0.9118800E+02  0.7818608E-02  0.1130116E+00
         25   -1    0    0    0    0  0.00000000000E+00  0.00000000000E+00  0.99999998245E-14  0.12500000000E+03  0.12500000000E+03 0.  0.
        -11    1    3    3    0    0 -0.22940454335E+02  0.47751571534E+02 -0.29754234743E+02  0.60760114503E+02  0.51100000000E-03 0. -1.
         23    2    1    0    0    0 -0.11026406363E+01  0.25560828515E+02 -0.16209502852E+02  0.94712713006E+02  0.89739502180E+02 0.  0.
         11    1    3    3    0    0  0.21837813698E+02 -0.22190743019E+02  0.13544731891E+02  0.33952598503E+02  0.51100000000E-03 0.  1.
         22    1    1    0    0    0  0.11026406363E+01 -0.25560828515E+02  0.16209502852E+02  0.30287286994E+02  0.00000000000E+00 0. -1.
</event>
<event>
 5    1  0.1717510E-003  0.9118800E+02  0.7818608E-02  0.1130116E+00
         25   -1    0    0    0    0  0.00000000000E+00  0.00000000000E+00  0.99999998245E-14  0.12500000000E+03  0.12500000000E+03 0.  0.
        -11    1    3    3    0    0  0.10321136416E+02 -0.26275398553E+02 -0.24430436064E+02  0.37333210853E+02  0.51100000000E-03 0.  1.
         23    2    1    0    0    0 -0.18025624108E+02  0.21856960926E+02 -0.78409671057E+01  0.95603901099E+02  0.90972387431E+02 0.  0.
         11    1    3    3    0    0 -0.28346760524E+02  0.48132359480E+02  0.16589468958E+02  0.58270690247E+02  0.51100000000E-03 0. -1.
         22    1    1    0    0    0  0.18025624108E+02 -0.21856960926E+02  0.78409671057E+01  0.29396098901E+02  0.00000000000E+00 0. -1.
</event>
<event>
 5    1  0.1717510E-003  0.9118800E+02  0.7818608E-02  0.1130116E+00
         25   -1    0    0    0    0  0.00000000000E+00  0.00000000000E+00  0.99999998245E-14  0.12500000000E+03  0.12500000000E+03 0.  0.
        -11    1    3    3    0    0  0.20284511382E+02  0.36521692129E+02 -0.12492976488E+02  0.43604699973E+02  0.51100000000E-03 0.  1.
         23    2    1    0    0    0  0.62808881155E+01 -0.13030975107E+02 -0.24563133472E+02  0.96493800785E+02  0.92187039199E+02 0.  0.
         11    1    3    3    0    0 -0.14003623266E+02 -0.49552667236E+02 -0.12070156984E+02  0.52889100811E+02  0.51100000000E-03 0. -1.
         22    1    1    0    0    0 -0.62808881155E+01  0.13030975107E+02  0.24563133472E+02  0.28506199215E+02  0.00000000000E+00 0. -1.
</event>
<event>
 5    1  0.1717510E-003  0.9118800E+02  0.7818608E-02  0.1130116E+00
         25   -1    0    0    0    0  0.00000000000E+00  0.00000000000E+00  0.99999998245E-14  0.12500000000E+03  0.12500000000E+03 0.  0.
        -11    1    3    3    0    0 -0.39005251950E+02 -0.30565042814E+02  0.10101181916E+01  0.49564623078E+02  0.51100000000E-03 0. -1.
         23    2    1    0    0    0 -0.15787171473E+02  0.85197481784E+01  0.19375294933E+02  0.98595020434E+02  0.94993447714E+02 0.  0.
         11    1    3    3    0    0  0.23218080477E+02  0.39084790992E+02  0.18365176741E+02  0.49030397356E+02  0.51100000000E-03 0.  1.
         22    1    1    0    0    0  0.15787171473E+02 -0.85197481784E+01 -0.19375294933E+02  0.26404979566E+02  0.00000000000E+00 0. -1.
</event>
<event>
 5    1  0.1717510E-003  0.9118800E+02  0.7818608E-02  0.1130116E+00
         25   -1    0    0    0    0  0.00000000000E+00  0.00000000000E+00  0.99999998245E-14  0.12500000000E+03  0.12500000000E+03 0.  0.
        -11    1    3    3    0    0 -0.34600473026E+02 -0.24570662285E+02  0.33866420228E+02  0.54294056747E+02  0.51100000000E-03 0. -1.
         23    2    1    0    0    0 -0.26625884103E+02 -0.64400403620E+01 -0.42779225133E+01  0.97274335983E+02  0.93239390795E+02 0.  0.
         11    1    3    3    0    0  0.79745889224E+01  0.18130621923E+02 -0.38144342741E+02  0.42980279236E+02  0.51100000000E-03 0.  1.
         22    1    1    0    0    0  0.26625884103E+02  0.64400403620E+01  0.42779225133E+01  0.27725664017E+02  0.00000000000E+00 0. -1.
</event>
<event>
 5    1  0.1717510E-003  0.9118800E+02  0.7818608E-02  0.1130116E+00
         25   -1    0    0    0    0  0.00000000000E+00  0.00000000000E+00  0.99999998245E-14  0.12500000000E+03  0.12500000000E+03 0.  0.
        -11    1    3    3    0    0 -0.34553447703E+02 -0.31333820549E+02  0.33046761217E+02  0.57165002279E+02  0.51100000000E-03 0. -1.
         23    2    1    0    0    0 -0.26316390564E+02 -0.35145894074E+00  0.92024804210E+01  0.97118795191E+02  0.93030633652E+02 0.  0.
         11    1    3    3    0    0  0.82370571385E+01  0.30982361608E+02 -0.23844280796E+02  0.39953792912E+02  0.51100000000E-03 0.  1.
         22    1    1    0    0    0  0.26316390564E+02  0.35145894074E+00 -0.92024804210E+01  0.27881204809E+02  0.00000000000E+00 0. -1.
</event>
<event>
 5    1  0.1717510E-003  0.9118800E+02  0.7818608E-02  0.1130116E+00
         25   -1    0    0    0    0  0.00000000000E+00  0.00000000000E+00  0.99999998245E-14  0.12500000000E+03  0.12500000000E+03 0.  0.
        -11    1    3    3    0    0  0.18040380449E+02 -0.10858883569E+02 -0.30141630129E+02  0.36768037019E+02  0.51100000000E-03 0.  1.
         23    2    1    0    0    0  0.11215904506E+02  0.21122503533E+02  0.18071001399E+02  0.95024714164E+02  0.90173047753E+02 0.  0.
         11    1    3    3    0    0 -0.68244759435E+01  0.31981387102E+02  0.48212631528E+02  0.58256677145E+02  0.51100000000E-03 0. -1.
         22    1    1    0    0    0 -0.11215904506E+02 -0.21122503533E+02 -0.18071001399E+02  0.29975285836E+02  0.00000000000E+00 0. -1.
</event>
<event>
 5    1  0.1717510E-003  0.9118800E+02  0.7818608E-02  0.1130116E+00
         25   -1    0    0    0    0  0.00000000000E+00  0.00000000000E+00  0.99999998245E-14  0.12500000000E+03  0.12500000000E+03 0.  0.
        -11    1    3    3    0    0 -0.41469981693E+02 -0.69429643416E+01 -0.42218322744E+02  0.59584821146E+02  0.51100000000E-03 0. -1.
         23    2    1    0    0    0 -0.16899845925E+02  0.96993290014E+01 -0.22602592067E+02  0.95157765775E+02  0.90357298785E+02 0.  0.
         11    1    3    3    0    0  0.24570135768E+02  0.16642293343E+02  0.19615730676E+02  0.35572944629E+02  0.51100000000E-03 0.  1.
         22    1    1    0    0    0  0.16899845925E+02 -0.96993290014E+01  0.22602592067E+02  0.29842234225E+02  0.00000000000E+00 0. -1.
</event>
<event>
 5    1  0.1717510E-003  0.9118800E+02  0.7818608E-02  0.1130116E+00
         25   -1    0    0    0    0  0.00000000000E+00  0.00000000000E+00  0.99999998245E-14  0.12500000000E+03  0.12500000000E+03 0.  0.
        -11    1    3    3    0    0 -0.11311693315E+02 -0.41207939987E+02 -0.90755367676E+01  0.43685399066E+02  0.51100000000E-03 0. -1.
         23    2    1    0    0    0  0.66073638203E+01 -0.28898723384E+01  0.25613289140E+02  0.98390806112E+02  0.94724344959E+02 0.  0.
         11    1    3    3    0    0  0.17919057136E+02  0.38318067649E+02  0.34688825908E+02  0.54705407046E+02  0.51100000000E-03 0.  1.
         22    1    1    0    0    0 -0.66073638203E+01  0.28898723384E+01 -0.25613289140E+02  0.26609193888E+02  0.00000000000E+00 0.  1.
</event>
<event>
 5    1  0.1717510E-003  0.9118800E+02  0.7818608E-02  0.1130116E+00
         25   -1    0    0    0    0  0.00000000000E+00  0.00000000000E+00  0.99999998245E-14  0.12500000000E+03  0.12500000000E+03 0.  0.
        -11    1    3    3    0    0 -0.15364776127E+02 -0.30554660254E+02 -0.16307562476E+02  0.37889315154E+02  0.51100000000E-03 0. -1.
         23    2    1    0    0    0  0.28091104649E+02  0.14410105668E+01  0.59263824388E+01  0.96254414589E+02  0.91861872652E+02 0.  0.
         11    1    3    3    0    0  0.43455880775E+02  0.31995670821E+02  0.22233944915E+02  0.58365099434E+02  0.51100000000E-03 0.  1.
         22    1    1    0    0    0 -0.28091104649E+02 -0.14410105668E+01 -0.59263824388E+01  0.28745585411E+02  0.00000000000E+00 0.  1.
</event>
<event>
 5    1  0.1717510E-003  0.9118800E+02  0.7818608E-02  0.1130116E+00
         25   -1    0    0    0    0  0.00000000000E+00  0.00000000000E+00  0.99999998245E-14  0.12500000000E+03  0.12500000000E+03 0.  0.
        -11    1    3    3    0    0 -0.88987494468E+01  0.24965087829E+02  0.35697180548E+02  0.44460454916E+02  0.51100000000E-03 0.  1.
         23    2    1    0    0    0  0.97427757940E+01  0.25787717880E+02 -0.11437806952E+02  0.95154539683E+02  0.90352835710E+02 0.  0.
         11    1    3    3    0    0  0.18641525241E+02  0.82263005183E+00 -0.47134987500E+02  0.50694084767E+02  0.51100000000E-03 0. -1.
         22    1    1    0    0    0 -0.97427757940E+01 -0.25787717880E+02  0.11437806952E+02  0.29845460317E+02  0.00000000000E+00 0. -1.
</event>
<event>
 5    1  0.1717510E-003  0.9118800E+02  0.7818608E-02  0.1130116E+00
         25   -1    0    0    0    0  0.00000000000E+00  0.00000000000E+00  0.99999998245E-14  0.12500000000E+03  0.12500000000E+03 0.  0.
        -11    1    3    3    0    0  0.44276600685E+02  0.13329405082E+02  0.33446017302E+02  0.57067735908E+02  0.51100000000E-03 0. -1.
         23    2    1    0    0    0  0.12625186649E+02 -0.77377576625E+01  0.24887227185E+02  0.96040678383E+02  0.91570571669E+02 0.  0.
         11    1    3    3    0    0 -0.31651414036E+02 -0.21067162745E+02 -0.85587901175E+01  0.38972942475E+02  0.51100000000E-03 0.  1.
         22    1    1    0    0    0 -0.12625186649E+02  0.77377576625E+01 -0.24887227185E+02  0.28959321617E+02  0.00000000000E+00 0. -1.
</event>
<event>
 5    1  0.1717510E-003  0.9118800E+02  0.7818608E-02  0.1130116E+00
         25   -1    0    0    0    0  0.00000000000E+00  0.00000000000E+00  0.99999998245E-14  0.12500000000E+03  0.12500000000E+03 0.  0.
        -11    1    3    3    0    0  0.27081811045E+02  0.35993899884E+02 -0.27075038844E+02  0.52555142917E+02  0.51100000000E-03 0.  1.
         23    2    1    0    0    0 -0.20110032383E+01  0.31529725913E+02  0.12192682396E+01  0.93382688837E+02  0.87867355765E+02 0.  0.
         11    1    3    3    0    0 -0.29092814283E+02 -0.44641739715E+01  0.28294307084E+02  0.40827545919E+02  0.51100000000E-03 0. -1.
         22    1    1    0    0    0  0.20110032383E+01 -0.31529725913E+02 -0.12192682396E+01  0.31617311163E+02  0.00000000000E+00 0.  1.
</event>
<event>
 5    1  0.1717510E-003  0.9118800E+02  0.7818608E-02  0.1130116E+00
         25   -1    0    0    0    0  0.00000000000E+00  0.00000000000E+00  0.99999998245E-14  0.12500000000E+03  0.12500000000E+03 0.  0.
        -11    1    3    3    0    0  0.38428785734E+02 -0.76138743151E+01  0.48073292852E+02  0.62014386565E+02  0.51100000000E-03 0.  1.
         23    2    1    0    0    0  0.20887892221E+02 -0.71463415747E+01  0.19504985175E+02  0.95541237534E+02  0.90886244193E+02 0.  0.
         11    1    3    3    0    0 -0.17540893513E+02  0.46753274040E+00 -0.28568307677E+02  0.33526850969E+02  0.51100000000E-03 0. -1.
         22    1    1    0    0    0 -0.20887892221E+02  0.71463415747E+01 -0.19504985175E+02  0.29458762466E+02  0.00000000000E+00 0.  1.
</event>
<event>
 5    1  0.1717510E-003  0.9118800E+02  0.7818608E-02  0.1130116E+00
         25   -1    0    0    0    0  0.00000000000E+00  0.00000000000E+00  0.99999998245E-14  0.12500000000E+03  0.12500000000E+03 0.  0.
        -11    1    3    3    0    0  0.17948309117E+02  0.39216815758E+02  0.10565777269E+02  0.44404235022E+02  0.51100000000E-03 0.  1.
         23    2    1    0    0    0  0.76888607606E+01 -0.86268476128E+01  0.26683428899E+02  0.95921718459E+02  0.91408039115E+02 0.  0.
         11    1    3    3    0    0 -0.10259448357E+02 -0.47843663371E+02  0.16117651631E+02  0.51517483437E+02  0.51100000000E-03 0. -1.
         22    1    1    0    0    0 -0.76888607606E+01  0.86268476128E+01 -0.26683428899E+02  0.29078281541E+02  0.00000000000E+00 0. -1.
</event>
<event>
 5    1  0.1717510E-003  0.9118800E+02  0.7818608E-02  0.1130116E+00
         25   -1    0    0    0    0  0.00000000000E+00  0.00000000000E+00  0.99999998245E-14  0.12500000000E+03  0.12500000000E+03 0.  0.
        -11    1    3    3    0    0 -0.47316376132E+00  0.53322235447E+02 -0.18464572660E+02  0.56430710795E+02  0.51100000000E-03 0.  1.
         23    2    1    0    0    0 -0.77415955873E+01  0.27426113240E+02  0.92377721953E+01  0.95042356153E+02  0.90197500178E+02 0.  0.
         11    1    3    3    0    0 -0.72684318260E+01 -0.25896122207E+02  0.27702344855E+02  0.38611645359E+02  0.51100000000E-03 0. -1.
         22    1    1    0    0    0  0.77415955873E+01 -0.27426113240E+02 -0.92377721953E+01  0.29957643847E+02  0.00000000000E+00 0.  1.
</event>
<event>
 5    1  0.1717510E-003  0.9118800E+02  0.7818608E-02  0.1130116E+00
         25   -1    0    0    0    0  0.00000000000E+00  0.00000000000E+00  0.99999998245E-14  0.12500000000E+03  0.12500000000E+03 0.  0.
        -11    1    3    3    0    0 -0.16692205013E+01 -0.38522248650E+02 -0.18882491166E+02  0.42933651266E+02  0.51100000000E-03 0.  1.
         23    2    1    0    0    0  0.26793008529E+02  0.25954760400E+01 -0.17369247727E+02  0.92964198644E+02  0.87269981443E+02 0.  0.
         11    1    3    3    0    0  0.28462229030E+02  0.41117724690E+02  0.15132434386E+01  0.50030547378E+02  0.51100000000E-03 0. -1.
         22    1    1    0    0    0 -0.26793008529E+02 -0.25954760400E+01  0.17369247727E+02  0.32035801356E+02  0.00000000000E+00 0. -1.
</event>
<event>
 5    1  0.1717510E-003  0.9118800E+02  0.7818608E-02  0.1130116E+00
         25   -1    0    0    0    0  0.00000000000E+00  0.00000000000E+00  0.99999998245E-14  0.12500000000E+03  0.12500000000E+03 0.  0.
        -11    1    3    3    0    0  0.26168492505E+01  0.29195465335E+02  0.26247034877E+02  0.39346282369E+02  0.51100000000E-03 0.  1.
         23    2    1    0    0    0 -0.12254986499E+02 -0.68982796962E+01 -0.20431111381E+02  0.10019674882E+03  0.97078252997E+02 0.  0.
         11    1    3    3    0    0 -0.14871835750E+02 -0.36093745031E+02 -0.46678146258E+02  0.60850466451E+02  0.51100000000E-03 0. -1.
         22    1    1    0    0    0  0.12254986499E+02  0.68982796962E+01  0.20431111381E+02  0.24803251180E+02  0.00000000000E+00 0. -1.
</event>
<event>
 5    1  0.1717510E-003  0.9118800E+02  0.7818608E-02  0.1130116E+00
         25   -1    0    0    0    0  0.00000000000E+00  0.00000000000E+00  0.99999998245E-14  0.12500000000E+03  0.12500000000E+03 0.  0.
        -11    1    3    3    0    0 -0.32772117332E+02 -0.16671388380E+02  0.26916118977E+02  0.45567799223E+02  0.51100000000E-03 0. -1.
         23    2    1    0    0    0  0.14839526055E+02 -0.21787177667E+02  0.13938913152E+02  0.95180778949E+02  0.90389129531E+02 0.  0.
         11    1    3    3    0    0  0.47611643387E+02 -0.51157892866E+01 -0.12977205825E+02  0.49612979726E+02  0.51100000000E-03 0.  1.
         22    1    1    0    0    0 -0.14839526055E+02  0.21787177667E+02 -0.13938913152E+02  0.29819221051E+02  0.00000000000E+00 0.  1.
</event>
<event>
 5    1  0.1717510E-003  0.9118800E+02  0.7818608E-02  0.1130116E+00
         25   -1    0    0    0    0  0.00000000000E+00  0.00000000000E+00  0.99999998245E-14  0.12500000000E+03  0.12500000000E+03 0.  0.
        -11    1    3    3    0    0  0.36401759686E+02 -0.14107776742E+02  0.29003517793E+02  0.48634571217E+02  0.51100000000E-03 0. -1.
         23    2    1    0    0    0  0.24597800915E+02 -0.90233320565E+01 -0.15227959549E+02  0.94695494010E+02  0.89715514280E+02 0.  0.
         11    1    3    3    0    0 -0.11803958771E+02  0.50844446850E+01 -0.44231477342E+02  0.46060922793E+02  0.51100000000E-03 0.  1.
         22    1    1    0    0    0 -0.24597800915E+02  0.90233320565E+01  0.15227959549E+02  0.30304505990E+02  0.00000000000E+00 0. -1.
</event>
<event>
 5    1  0.1717510E-003  0.9118800E+02  0.7818608E-02  0.1130116E+00
         25   -1    0    0    0    0  0.00000000000E+00  0.00000000000E+00  0.99999998245E-14  0.12500000000E+03  0.12500000000E+03 0.  0.
        -11    1    3    3    0    0 -0.90423405903E+01  0.49211634997E+02 -0.41690640293E+01  0.50208864133E+02  0.51100000000E-03 0.  1.
         23    2    1    0    0    0 -0.17252754154E+02  0.12390281802E+02  0.20657407863E+02  0.95370536477E+02  0.90651167225E+02 0.  0.
         11    1    3    3    0    0 -0.82104135636E+01 -0.36821353195E+02  0.24826471892E+02  0.45161672344E+02  0.51100000000E-03 0. -1.
         22    1    1    0    0    0  0.17252754154E+02 -0.12390281802E+02 -0.20657407863E+02  0.29629463523E+02  0.00000000000E+00 0.  1.
</event>
<event>
 5    1  0.1717510E-003  0.9118800E+02  0.7818608E-02  0.1130116E+00
         25   -1    0    0    0    0  0.00000000000E+00  0.00000000000E+00  0.99999998245E-14  0.12500000000E+03  0.12500000000E+03 0.  0.
        -11    1    3    3    0    0 -0.33228482803E+02  0.80748834035E+01 -0.64394198479E+01  0.34796579424E+02  0.51100000000E-03 0.  1.
         23    2    1    0    0    0  0.25436459069E+02 -0.19512651944E+01 -0.15724433923E+02  0.95032038641E+02  0.90183200543E+02 0.  0.
         11    1    3    3    0    0  0.58664941871E+02 -0.10026148598E+02 -0.92850140755E+01  0.60235459217E+02  0.51100000000E-03 0. -1.
         22    1    1    0    0    0 -0.25436459069E+02  0.19512651944E+01  0.15724433923E+02  0.29967961359E+02  0.00000000000E+00 0. -1.
</event>
<event>
 4    1  0.1717510E-003  0.9118800E+02  0.7818608E-02  0.1130116E+00
         25   -1    0    0    0    0  0.00000000000E+00  0.00000000000E+00  0.99999998245E-14  0.12500000000E+03  0.12500000000E+03 0.  0.
        -11    1    1    0    0    0  0.22075503467E+02 -0.17454614745E+02  0.30322366921E+02  0.41369522178E+02  0.51100000000E-03 0.  1.
         11    1    1    0    0    0 -0.17655827227E+02 -0.26152839902E+02 -0.23666948289E+01  0.31643332863E+02  0.51100000000E-03 0. -1.
         22    1    1    0    0    0 -0.44196762398E+01  0.43607454647E+02 -0.27955672092E+02  0.51987144959E+02  0.00000000000E+00 0. -1.
</event>
<event>
 5    1  0.1717510E-003  0.9118800E+02  0.7818608E-02  0.1130116E+00
         25   -1    0    0    0    0  0.00000000000E+00  0.00000000000E+00  0.99999998245E-14  0.12500000000E+03  0.12500000000E+03 0.  0.
        -11    1    3    3    0    0 -0.23289811791E+02 -0.32179264590E+01  0.48129562416E+02  0.53565148768E+02  0.51100000000E-03 0. -1.
         23    2    1    0    0    0 -0.27920782659E+02 -0.11298934356E+02  0.93288837615E+01  0.93468046459E+02  0.87988701631E+02 0.  0.
         11    1    3    3    0    0 -0.46309708683E+01 -0.80810078972E+01 -0.38800678654E+02  0.39902897691E+02  0.51100000000E-03 0.  1.
         22    1    1    0    0    0  0.27920782659E+02  0.11298934356E+02 -0.93288837615E+01  0.31531953541E+02  0.00000000000E+00 0. -1.
</event>
<event>
 5    1  0.1717510E-003  0.9118800E+02  0.7818608E-02  0.1130116E+00
         25   -1    0    0    0    0  0.00000000000E+00  0.00000000000E+00  0.99999998245E-14  0.12500000000E+03  0.12500000000E+03 0.  0.
        -11    1    3    3    0    0  0.18380297041E+02  0.27013832848E+02  0.15409326967E+02  0.36125196778E+02  0.51100000000E-03 0. -1.
         23    2    1    0    0    0 -0.17077685029E+02 -0.79674201900E+01 -0.20215539369E+02  0.97363156070E+02  0.93358390183E+02 0.  0.
         11    1    3    3    0    0 -0.35457982070E+02 -0.34981253038E+02 -0.35624866336E+02  0.61237959292E+02  0.51100000000E-03 0.  1.
         22    1    1    0    0    0  0.17077685029E+02  0.79674201900E+01  0.20215539369E+02  0.27636843930E+02  0.00000000000E+00 0.  1.
</event>
<event>
 5    1  0.1717510E-003  0.9118800E+02  0.7818608E-02  0.1130116E+00
         25   -1    0    0    0    0  0.00000000000E+00  0.00000000000E+00  0.99999998245E-14  0.12500000000E+03  0.12500000000E+03 0.  0.
        -11    1    3    3    0    0  0.44593904315E+01 -0.46775328587E+02 -0.26541942545E+02  0.53965657985E+02  0.51100000000E-03 0.  1.
         23    2    1    0    0    0  0.76904388470E+01 -0.30042424374E+01 -0.25852336379E+02  0.97861252451E+02  0.94022939290E+02 0.  0.
         11    1    3    3    0    0  0.32310484155E+01  0.43771086150E+02  0.68960616680E+00  0.43895594466E+02  0.51100000000E-03 0. -1.
         22    1    1    0    0    0 -0.76904388470E+01  0.30042424374E+01  0.25852336379E+02  0.27138747549E+02  0.00000000000E+00 0. -1.
</event>
<event>
 5    1  0.1717510E-003  0.9118800E+02  0.7818608E-02  0.1130116E+00
         25   -1    0    0    0    0  0.00000000000E+00  0.00000000000E+00  0.99999998245E-14  0.12500000000E+03  0.12500000000E+03 0.  0.
        -11    1    3    3    0    0  0.16834571695E+02 -0.74768792769E+01 -0.31294775725E+02  0.36313489447E+02  0.51100000000E-03 0.  1.
         23    2    1    0    0    0 -0.21476169016E+02  0.15606390599E+02  0.94533073823E+01  0.96819327837E+02  0.92627382340E+02 0.  0.
         11    1    3    3    0    0 -0.38310740711E+02  0.23083269876E+02  0.40748083108E+02  0.60505838389E+02  0.51100000000E-03 0. -1.
         22    1    1    0    0    0  0.21476169016E+02 -0.15606390599E+02 -0.94533073823E+01  0.28180672163E+02  0.00000000000E+00 0. -1.
</event>
<event>
 5    1  0.1717510E-003  0.9118800E+02  0.7818608E-02  0.1130116E+00
         25   -1    0    0    0    0  0.00000000000E+00  0.00000000000E+00  0.99999998245E-14  0.12500000000E+03  0.12500000000E+03 0.  0.
        -11    1    3    3    0    0  0.19862649075E+02 -0.23223686606E+02  0.15752880175E+02  0.34380484026E+02  0.51100000000E-03 0.  1.
         23    2    1    0    0    0 -0.22808987460E+01  0.22753265264E+02 -0.18284138514E+02  0.95721624012E+02  0.91134000258E+02 0.  0.
         11    1    3    3    0    0 -0.22143547821E+02  0.45976951870E+02 -0.34037018689E+02  0.61341139986E+02  0.51100000000E-03 0. -1.
         22    1    1    0    0    0  0.22808987460E+01 -0.22753265264E+02  0.18284138514E+02  0.29278375988E+02  0.00000000000E+00 0. -1.
</event>
<event>
 5    1  0.1717510E-003  0.9118800E+02  0.7818608E-02  0.1130116E+00
         25   -1    0    0    0    0  0.00000000000E+00  0.00000000000E+00  0.99999998245E-14  0.12500000000E+03  0.12500000000E+03 0.  0.
        -11    1    3    3    0    0 -0.11721837374E+02  0.19330193373E+02 -0.27131932696E+02  0.35315713490E+02  0.51100000000E-03 0.  1.
         23    2    1    0    0    0  0.27968927633E+02  0.10190162093E+01  0.12527115722E+02  0.94336863577E+02  0.89214437701E+02 0.  0.
         11    1    3    3    0    0  0.39690765007E+02 -0.18311177163E+02  0.39659048417E+02  0.59021150087E+02  0.51100000000E-03 0. -1.
         22    1    1    0    0    0 -0.27968927633E+02 -0.10190162093E+01 -0.12527115722E+02  0.30663136423E+02  0.00000000000E+00 0. -1.
</event>
<event>
 5    1  0.1717510E-003  0.9118800E+02  0.7818608E-02  0.1130116E+00
         25   -1    0    0    0    0  0.00000000000E+00  0.00000000000E+00  0.99999998245E-14  0.12500000000E+03  0.12500000000E+03 0.  0.
        -11    1    3    3    0    0  0.17836772155E+02  0.20502457696E+01  0.39895832037E+02  0.43749644145E+02  0.51100000000E-03 0. -1.
         23    2    1    0    0    0  0.43841304872E+02  0.12939687010E+00  0.18767876283E+02  0.77310274308E+02  0.60848735213E+02 0.  0.
         11    1    3    3    0    0  0.26004532717E+02 -0.19208488995E+01 -0.21127955754E+02  0.33560630163E+02  0.51100000000E-03 0.  1.
         22    1    1    0    0    0 -0.43841304872E+02 -0.12939687010E+00 -0.18767876283E+02  0.47689725692E+02  0.00000000000E+00 0. -1.
</event>
<event>
 5    1  0.1717510E-003  0.9118800E+02  0.7818608E-02  0.1130116E+00
         25   -1    0    0    0    0  0.00000000000E+00  0.00000000000E+00  0.99999998245E-14  0.12500000000E+03  0.12500000000E+03 0.  0.
        -11    1    3    3    0    0 -0.15550997778E+02 -0.30305458023E+02  0.11658953307E+02  0.36002576440E+02  0.51100000000E-03 0. -1.
         23    2    1    0    0    0  0.17772567013E+02  0.13925939962E+02 -0.15430292722E+02  0.97652424686E+02  0.93744899443E+02 0.  0.
         11    1    3    3    0    0  0.33323564791E+02  0.44231397985E+02 -0.27089246029E+02  0.61649848246E+02  0.51100000000E-03 0.  1.
         22    1    1    0    0    0 -0.17772567013E+02 -0.13925939962E+02  0.15430292722E+02  0.27347575314E+02  0.00000000000E+00 0.  1.
</event>
<event>
 5    1  0.1717510E-003  0.9118800E+02  0.7818608E-02  0.1130116E+00
         25   -1    0    0    0    0  0.00000000000E+00  0.00000000000E+00  0.99999998245E-14  0.12500000000E+03  0.12500000000E+03 0.  0.
        -11    1    3    3    0    0 -0.45480644278E+02  0.20941856555E+02  0.11497994216E+02  0.51373672549E+02  0.51100000000E-03 0.  1.
         23    2    1    0    0    0 -0.38416238255E+01  0.16761282857E+02  0.24385279075E+02  0.95161425768E+02  0.90362361866E+02 0.  0.
         11    1    3    3    0    0  0.41639020453E+02 -0.41805736978E+01  0.12887284859E+02  0.43787753219E+02  0.51100000000E-03 0. -1.
         22    1    1    0    0    0  0.38416238255E+01 -0.16761282857E+02 -0.24385279075E+02  0.29838574232E+02  0.00000000000E+00 0. -1.
</event>
<event>
 5    1  0.1717510E-003  0.9118800E+02  0.7818608E-02  0.1130116E+00
         25   -1    0    0    0    0  0.00000000000E+00  0.00000000000E+00  0.99999998245E-14  0.12500000000E+03  0.12500000000E+03 0.  0.
        -11    1    3    3    0    0 -0.37914167997E+02  0.23844354627E+02 -0.40870803324E+02  0.60633818509E+02  0.51100000000E-03 0. -1.
         23    2    1    0    0    0 -0.15884309750E+02  0.21356896235E+02 -0.16028655983E+02  0.93929980276E+02  0.88642512763E+02 0.  0.
         11    1    3    3    0    0  0.22029858246E+02 -0.24874583917E+01  0.24842147341E+02  0.33296161767E+02  0.51100000000E-03 0.  1.
         22    1    1    0    0    0  0.15884309750E+02 -0.21356896235E+02  0.16028655983E+02  0.31070019724E+02  0.00000000000E+00 0. -1.
</event>
<event>
 5    1  0.1717510E-003  0.9118800E+02  0.7818608E-02  0.1130116E+00
         25   -1    0    0    0    0  0.00000000000E+00  0.00000000000E+00  0.99999998245E-14  0.12500000000E+03  0.12500000000E+03 0.  0.
        -11    1    3    3    0    0  0.22916900639E+02  0.42810013474E+02 -0.61792208090E+01  0.48949610403E+02  0.51100000000E-03 0.  1.
         23    2    1    0    0    0 -0.39825659483E+00  0.12224181393E+02 -0.28899884479E+02  0.93618595603E+02  0.88202318001E+02 0.  0.
         11    1    3    3    0    0 -0.23315157234E+02 -0.30585832081E+02 -0.22720663670E+02  0.44668985200E+02  0.51100000000E-03 0. -1.
         22    1    1    0    0    0  0.39825659483E+00 -0.12224181393E+02  0.28899884479E+02  0.31381404397E+02  0.00000000000E+00 0. -1.
</event>
<event>
 5    1  0.1717510E-003  0.9118800E+02  0.7818608E-02  0.1130116E+00
         25   -1    0    0    0    0  0.00000000000E+00  0.00000000000E+00  0.99999998245E-14  0.12500000000E+03  0.12500000000E+03 0.  0.
        -11    1    3    3    0    0  0.35979499239E+02  0.17469580949E+02 -0.38127736041E+02  0.55257894277E+02  0.51100000000E-03 0.  1.
         23    2    1    0    0    0  0.64017967010E+01  0.25599934622E+02 -0.10305121236E+02  0.96670948175E+02  0.92426928131E+02 0.  0.
         11    1    3    3    0    0 -0.29577702538E+02  0.81303536722E+01  0.27822614806E+02  0.41413053898E+02  0.51100000000E-03 0. -1.
         22    1    1    0    0    0 -0.64017967010E+01 -0.25599934622E+02  0.10305121236E+02  0.28329051825E+02  0.00000000000E+00 0.  1.
</event>
<event>
 5    1  0.1717510E-003  0.9118800E+02  0.7818608E-02  0.1130116E+00
         25   -1    0    0    0    0  0.00000000000E+00  0.00000000000E+00  0.99999998245E-14  0.12500000000E+03  0.12500000000E+03 0.  0.
        -11    1    3    3    0    0  0.16802778176E+01  0.46685409395E+02 -0.13574588414E+02  0.48647921176E+02  0.51100000000E-03 0.  1.
         23    2    1    0    0    0 -0.25679820046E+02  0.14730291087E+02  0.55845991024E+01  0.94873228181E+02  0.89962809234E+02 0.  0.
         11    1    3    3    0    0 -0.27360097863E+02 -0.31955118308E+02  0.19159187516E+02  0.46225307005E+02  0.51100000000E-03 0. -1.
         22    1    1    0    0    0  0.25679820046E+02 -0.14730291087E+02 -0.55845991024E+01  0.30126771819E+02  0.00000000000E+00 0.  1.
</event>
<event>
 5    1  0.1717510E-003  0.9118800E+02  0.7818608E-02  0.1130116E+00
         25   -1    0    0    0    0  0.00000000000E+00  0.00000000000E+00  0.99999998245E-14  0.12500000000E+03  0.12500000000E+03 0.  0.
        -11    1    3    3    0    0  0.77300370785E+01  0.21003320754E+02 -0.51346708298E+02  0.56012296947E+02  0.51100000000E-03 0.  1.
         23    2    1    0    0    0  0.19886374619E+02 -0.20666948302E+01 -0.22718852185E+02  0.94736401939E+02  0.89772492918E+02 0.  0.
         11    1    3    3    0    0  0.12156337541E+02 -0.23070015584E+02  0.28627856114E+02  0.38724104992E+02  0.51100000000E-03 0. -1.
         22    1    1    0    0    0 -0.19886374619E+02  0.20666948302E+01  0.22718852185E+02  0.30263598061E+02  0.00000000000E+00 0.  1.
</event>
<event>
 5    1  0.1717510E-003  0.9118800E+02  0.7818608E-02  0.1130116E+00
         25   -1    0    0    0    0  0.00000000000E+00  0.00000000000E+00  0.99999998245E-14  0.12500000000E+03  0.12500000000E+03 0.  0.
        -11    1    3    3    0    0 -0.34434688562E+02 -0.41710075074E+02  0.16490371014E+02  0.56545649483E+02  0.51100000000E-03 0.  1.
         23    2    1    0    0    0 -0.13658012637E+02 -0.31201285424E+02 -0.76576232177E+01  0.90090105777E+02  0.83051348239E+02 0.  0.
         11    1    3    3    0    0  0.20776675924E+02  0.10508789650E+02 -0.24147994232E+02  0.33544456294E+02  0.51100000000E-03 0. -1.
         22    1    1    0    0    0  0.13658012637E+02  0.31201285424E+02  0.76576232177E+01  0.34909894223E+02  0.00000000000E+00 0.  1.
</event>
<event>
 5    1  0.1717510E-003  0.9118800E+02  0.7818608E-02  0.1130116E+00
         25   -1    0    0    0    0  0.00000000000E+00  0.00000000000E+00  0.99999998245E-14  0.12500000000E+03  0.12500000000E+03 0.  0.
        -11    1    3    3    0    0  0.82766294493E+01  0.37769191861E+02 -0.48220934479E+00  0.38668423487E+02  0.51100000000E-03 0.  1.
         23    2    1    0    0    0 -0.17461857969E+02 -0.92973911171E+01  0.20721524479E+02  0.96351447819E+02  0.91993814764E+02 0.  0.
         11    1    3    3    0    0 -0.25738487418E+02 -0.47066582978E+02  0.21203733824E+02  0.57683024332E+02  0.51100000000E-03 0. -1.
         22    1    1    0    0    0  0.17461857969E+02  0.92973911171E+01 -0.20721524479E+02  0.28648552181E+02  0.00000000000E+00 0. -1.
</event>
<event>
 5    1  0.1717510E-003  0.9118800E+02  0.7818608E-02  0.1130116E+00
         25   -1    0    0    0    0  0.00000000000E+00  0.00000000000E+00  0.99999998245E-14  0.12500000000E+03  0.12500000000E+03 0.  0.
        -11    1    3    3    0    0 -0.49996334050E+02 -0.26622530375E+02  0.45085283056E+01  0.56821821246E+02  0.51100000000E-03 0. -1.
         23    2    1    0    0    0 -0.22849945972E+02 -0.80845678740E+01 -0.16358840514E+02  0.95758045011E+02  0.91183941858E+02 0.  0.
         11    1    3    3    0    0  0.27146388078E+02  0.18537962501E+02 -0.20867368819E+02  0.38936223765E+02  0.51100000000E-03 0.  1.
         22    1    1    0    0    0  0.22849945972E+02  0.80845678740E+01  0.16358840514E+02  0.29241954989E+02  0.00000000000E+00 0. -1.
</event>
<event>
 5    1  0.1717510E-003  0.9118800E+02  0.7818608E-02  0.1130116E+00
         25   -1    0    0    0    0  0.00000000000E+00  0.00000000000E+00  0.99999998245E-14  0.12500000000E+03  0.12500000000E+03 0.  0.
        -11    1    3    3    0    0  0.32748338650E+02 -0.47193897818E+02  0.12012300225E+02  0.58685714042E+02  0.51100000000E-03 0.  1.
         23    2    1    0    0    0  0.22737511571E+01 -0.30050810185E+02  0.35990777017E+01  0.94649143383E+02  0.89650911015E+02 0.  0.
         11    1    3    3    0    0 -0.30474587493E+02  0.17143087634E+02 -0.84132225237E+01  0.35963429341E+02  0.51100000000E-03 0. -1.
         22    1    1    0    0    0 -0.22737511571E+01  0.30050810185E+02 -0.35990777017E+01  0.30350856617E+02  0.00000000000E+00 0.  1.
</event>
<event>
 5    1  0.1717510E-003  0.9118800E+02  0.7818608E-02  0.1130116E+00
         25   -1    0    0    0    0  0.00000000000E+00  0.00000000000E+00  0.99999998245E-14  0.12500000000E+03  0.12500000000E+03 0.  0.
        -11    1    3    3    0    0  0.28901075203E+02 -0.81949273160E+01  0.21226909954E+02  0.36783293600E+02  0.51100000000E-03 0.  1.
         23    2    1    0    0    0 -0.72723333793E+01  0.28528857942E+02 -0.58099142757E+01  0.94991040136E+02  0.90126355934E+02 0.  0.
         11    1    3    3    0    0 -0.36173408583E+02  0.36723785257E+02 -0.27036824229E+02  0.58207746536E+02  0.51100000000E-03 0. -1.
         22    1    1    0    0    0  0.72723333793E+01 -0.28528857942E+02  0.58099142757E+01  0.30008959864E+02  0.00000000000E+00 0. -1.
</event>
<event>
 5    1  0.1717510E-003  0.9118800E+02  0.7818608E-02  0.1130116E+00
         25   -1    0    0    0    0  0.00000000000E+00  0.00000000000E+00  0.99999998245E-14  0.12500000000E+03  0.12500000000E+03 0.  0.
        -11    1    3    3    0    0  0.63396641209E+01 -0.86946199434E+01  0.50216144962E+02  0.51356099659E+02  0.51100000000E-03 0.  1.
         23    2    1    0    0    0  0.27877796743E+02 -0.10546978484E+02  0.17913312025E+02  0.90225051343E+02  0.83254206115E+02 0.  0.
         11    1    3    3    0    0  0.21538132622E+02 -0.18523585404E+01 -0.32302832937E+02  0.38868951684E+02  0.51100000000E-03 0. -1.
         22    1    1    0    0    0 -0.27877796743E+02  0.10546978484E+02 -0.17913312025E+02  0.34774948657E+02  0.00000000000E+00 0. -1.
</event>
<event>
 5    1  0.1717510E-003  0.9118800E+02  0.7818608E-02  0.1130116E+00
         25   -1    0    0    0    0  0.00000000000E+00  0.00000000000E+00  0.99999998245E-14  0.12500000000E+03  0.12500000000E+03 0.  0.
        -11    1    3    3    0    0  0.41677444671E+02 -0.28164130863E+02 -0.31528594767E+02  0.59365646209E+02  0.51100000000E-03 0.  1.
         23    2    1    0    0    0  0.16692473169E+02 -0.22935490023E+01 -0.23275039864E+02  0.96266282729E+02  0.91878020670E+02 0.  0.
         11    1    3    3    0    0 -0.24984971503E+02  0.25870581860E+02  0.82535549030E+01  0.36900636520E+02  0.51100000000E-03 0. -1.
         22    1    1    0    0    0 -0.16692473169E+02  0.22935490023E+01  0.23275039864E+02  0.28733717271E+02  0.00000000000E+00 0.  1.
</event>
<event>
 5    1  0.1717510E-003  0.9118800E+02  0.7818608E-02  0.1130116E+00
         25   -1    0    0    0    0  0.00000000000E+00  0.00000000000E+00  0.99999998245E-14  0.12500000000E+03  0.12500000000E+03 0.  0.
        -11    1    3    3    0    0 -0.10634606932E+02  0.56782530278E+02  0.99545523426E+01  0.58621188336E+02  0.51100000000E-03 0.  1.
         23    2    1    0    0    0  0.95802748561E+01  0.24994630840E+02  0.10367701488E+02  0.96294556765E+02  0.91916479433E+02 0.  0.
         11    1    3    3    0    0  0.20214881788E+02 -0.31787899437E+02  0.41314914508E+00  0.37673368429E+02  0.51100000000E-03 0. -1.
         22    1    1    0    0    0 -0.95802748561E+01 -0.24994630840E+02 -0.10367701488E+02  0.28705443235E+02  0.00000000000E+00 0.  1.
</event>
<event>
 5    1  0.1717510E-003  0.9118800E+02  0.7818608E-02  0.1130116E+00
         25   -1    0    0    0    0  0.00000000000E+00  0.00000000000E+00  0.99999998245E-14  0.12500000000E+03  0.12500000000E+03 0.  0.
        -11    1    3    3    0    0  0.44337066534E+02  0.36638445526E+02  0.22527869243E+02  0.61770996854E+02  0.51100000000E-03 0. -1.
         23    2    1    0    0    0  0.17028225059E+02  0.20075382182E+02  0.15420697932E+02  0.94491323479E+02  0.89430592471E+02 0.  0.
         11    1    3    3    0    0 -0.27308841476E+02 -0.16563063344E+02 -0.71071713118E+01  0.32720326624E+02  0.51100000000E-03 0.  1.
         22    1    1    0    0    0 -0.17028225059E+02 -0.20075382182E+02 -0.15420697932E+02  0.30508676521E+02  0.00000000000E+00 0. -1.
</event>
<event>
 5    1  0.1717510E-003  0.9118800E+02  0.7818608E-02  0.1130116E+00
         25   -1    0    0    0    0  0.00000000000E+00  0.00000000000E+00  0.99999998245E-14  0.12500000000E+03  0.12500000000E+03 0.  0.
        -11    1    3    3    0    0 -0.16940825003E+02 -0.20382163245E+02  0.23353017712E+02  0.35324036672E+02  0.51100000000E-03 0.  1.
         23    2    1    0    0    0  0.21433401205E+02  0.20896695440E+02  0.11597318147E+02  0.92897658096E+02  0.87174620871E+02 0.  0.
         11    1    3    3    0    0  0.38374226207E+02  0.41278858685E+02 -0.11755699565E+02  0.57573621424E+02  0.51100000000E-03 0. -1.
         22    1    1    0    0    0 -0.21433401205E+02 -0.20896695440E+02 -0.11597318147E+02  0.32102341904E+02  0.00000000000E+00 0. -1.
</event>
<event>
 5    1  0.1717510E-003  0.9118800E+02  0.7818608E-02  0.1130116E+00
         25   -1    0    0    0    0  0.00000000000E+00  0.00000000000E+00  0.99999998245E-14  0.12500000000E+03  0.12500000000E+03 0.  0.
        -11    1    3    3    0    0  0.16001986157E+02 -0.85442937506E+01 -0.37821340350E+02  0.41946660210E+02  0.51100000000E-03 0.  1.
         23    2    1    0    0    0 -0.19158364069E+02 -0.22891593097E+02 -0.56754692639E+00  0.95143843887E+02  0.90338037237E+02 0.  0.
         11    1    3    3    0    0 -0.35160350226E+02 -0.14347299347E+02  0.37253793423E+02  0.53197183677E+02  0.51100000000E-03 0. -1.
         22    1    1    0    0    0  0.19158364069E+02  0.22891593097E+02  0.56754692639E+00  0.29856156113E+02  0.00000000000E+00 0. -1.
</event>
<event>
 5    1  0.1717510E-003  0.9118800E+02  0.7818608E-02  0.1130116E+00
         25   -1    0    0    0    0  0.00000000000E+00  0.00000000000E+00  0.99999998245E-14  0.12500000000E+03  0.12500000000E+03 0.  0.
        -11    1    3    3    0    0 -0.29593434855E+02  0.24713060473E+02 -0.22650753834E+02  0.44716477880E+02  0.51100000000E-03 0. -1.
         23    2    1    0    0    0 -0.33245348636E+02 -0.99739544539E+01 -0.28508620435E+02  0.80083695471E+02  0.66301763685E+02 0.  0.
         11    1    3    3    0    0 -0.36519137813E+01 -0.34687014927E+02 -0.58578666014E+01  0.35367217592E+02  0.51100000000E-03 0.  1.
         22    1    1    0    0    0  0.33245348636E+02  0.99739544539E+01  0.28508620435E+02  0.44916304529E+02  0.00000000000E+00 0. -1.
</event>
<event>
 5    1  0.1717510E-003  0.9118800E+02  0.7818608E-02  0.1130116E+00
         25   -1    0    0    0    0  0.00000000000E+00  0.00000000000E+00  0.99999998245E-14  0.12500000000E+03  0.12500000000E+03 0.  0.
        -11    1    3    3    0    0 -0.23388776628E+02 -0.45836334637E+01 -0.24957673612E+02  0.34509854249E+02  0.51100000000E-03 0. -1.
         23    2    1    0    0    0  0.64118174494E+01  0.58894022376E+01  0.27727080847E+02  0.95938212821E+02  0.91430592284E+02 0.  0.
         11    1    3    3    0    0  0.29800594078E+02  0.10473035701E+02  0.52684754459E+02  0.61428358572E+02  0.51100000000E-03 0.  1.
         22    1    1    0    0    0 -0.64118174494E+01 -0.58894022376E+01 -0.27727080847E+02  0.29061787179E+02  0.00000000000E+00 0.  1.
</event>
<event>
 5    1  0.1717510E-003  0.9118800E+02  0.7818608E-02  0.1130116E+00
         25   -1    0    0    0    0  0.00000000000E+00  0.00000000000E+00  0.99999998245E-14  0.12500000000E+03  0.12500000000E+03 0.  0.
        -11    1    3    3    0    0 -0.59656094622E+01 -0.20476128517E+02  0.31814541672E+02  0.38301767548E+02  0.51100000000E-03 0. -1.
         23    2    1    0    0    0 -0.25501076054E+02  0.41056606499E+01 -0.15343703654E+02  0.94956854840E+02  0.90078930444E+02 0.  0.
         11    1    3    3    0    0 -0.19535466592E+02  0.24581789166E+02 -0.47158245325E+02  0.56655087292E+02  0.51100000000E-03 0.  1.
         22    1    1    0    0    0  0.25501076054E+02 -0.41056606499E+01  0.15343703654E+02  0.30043145160E+02  0.00000000000E+00 0.  1.
</event>
<event>
 5    1  0.1717510E-003  0.9118800E+02  0.7818608E-02  0.1130116E+00
         25   -1    0    0    0    0  0.00000000000E+00  0.00000000000E+00  0.99999998245E-14  0.12500000000E+03  0.12500000000E+03 0.  0.
        -11    1    3    3    0    0 -0.22785359858E+02 -0.26509741525E+02  0.39617968365E+01  0.35180034878E+02  0.51100000000E-03 0.  1.
         23    2    1    0    0    0  0.25034210450E+02  0.66458776430E+01 -0.13310411982E+02  0.95878762910E+02  0.91349278746E+02 0.  0.
         11    1    3    3    0    0  0.47819570309E+02  0.33155619168E+02 -0.17272208819E+02  0.60698728032E+02  0.51100000000E-03 0. -1.
         22    1    1    0    0    0 -0.25034210450E+02 -0.66458776430E+01  0.13310411982E+02  0.29121237090E+02  0.00000000000E+00 0. -1.
</event>
<event>
 5    1  0.1717510E-003  0.9118800E+02  0.7818608E-02  0.1130116E+00
         25   -1    0    0    0    0  0.00000000000E+00  0.00000000000E+00  0.99999998245E-14  0.12500000000E+03  0.12500000000E+03 0.  0.
        -11    1    3    3    0    0 -0.35024212730E+02  0.88510153606E+01  0.25055852115E+02  0.43963981573E+02  0.51100000000E-03 0.  1.
         23    2    1    0    0    0  0.12889585670E+02  0.23604169193E+02  0.99531816304E+01  0.96323109537E+02  0.91955301013E+02 0.  0.
         11    1    3    3    0    0  0.47913798400E+02  0.14753153833E+02 -0.15102670485E+02  0.52359127964E+02  0.51100000000E-03 0. -1.
         22    1    1    0    0    0 -0.12889585670E+02 -0.23604169193E+02 -0.99531816304E+01  0.28676890463E+02  0.00000000000E+00 0. -1.
</event>
<event>
 5    1  0.1717510E-003  0.9118800E+02  0.7818608E-02  0.1130116E+00
         25   -1    0    0    0    0  0.00000000000E+00  0.00000000000E+00  0.99999998245E-14  0.12500000000E+03  0.12500000000E+03 0.  0.
        -11    1    3    3    0    0  0.56866997280E+01  0.45524249491E+02 -0.24329298801E+02  0.51929862565E+02  0.51100000000E-03 0.  1.
         23    2    1    0    0    0  0.82917228812E+01  0.24898882244E+02  0.13793460675E+02  0.95352629750E+02  0.90626472057E+02 0.  0.
         11    1    3    3    0    0  0.26050231532E+01 -0.20625367247E+02  0.38122759476E+02  0.43422767185E+02  0.51100000000E-03 0. -1.
         22    1    1    0    0    0 -0.82917228812E+01 -0.24898882244E+02 -0.13793460675E+02  0.29647370250E+02  0.00000000000E+00 0.  1.
</event>
<event>
 5    1  0.1717510E-003  0.9118800E+02  0.7818608E-02  0.1130116E+00
         25   -1    0    0    0    0  0.00000000000E+00  0.00000000000E+00  0.99999998245E-14  0.12500000000E+03  0.12500000000E+03 0.  0.
        -11    1    3    3    0    0  0.30492162658E+02 -0.25692326983E+02 -0.45299957499E+01  0.40129646287E+02  0.51100000000E-03 0. -1.
         23    2    1    0    0    0 -0.88270476720E+01  0.63364947148E+01 -0.27222840777E+02  0.95688722377E+02  0.91088860978E+02 0.  0.
         11    1    3    3    0    0 -0.39319210330E+02  0.32028821697E+02 -0.22692845028E+02  0.55559076090E+02  0.51100000000E-03 0.  1.
         22    1    1    0    0    0  0.88270476720E+01 -0.63364947148E+01  0.27222840777E+02  0.29311277623E+02  0.00000000000E+00 0.  1.
</event>
<event>
 5    1  0.1717510E-003  0.9118800E+02  0.7818608E-02  0.1130116E+00
         25   -1    0    0    0    0  0.00000000000E+00  0.00000000000E+00  0.99999998245E-14  0.12500000000E+03  0.12500000000E+03 0.  0.
        -11    1    3    3    0    0 -0.45615773183E+01 -0.93188902210E+01 -0.29665427990E+02  0.31427493070E+02  0.51100000000E-03 0.  1.
         23    2    1    0    0    0 -0.25720000708E+01  0.21529872863E+02  0.23561361885E+02  0.92979875332E+02  0.87292432851E+02 0.  0.
         11    1    3    3    0    0  0.19895772475E+01  0.30848763084E+02  0.53226789875E+02  0.61552382262E+02  0.51100000000E-03 0. -1.
         22    1    1    0    0    0  0.25720000708E+01 -0.21529872863E+02 -0.23561361885E+02  0.32020124668E+02  0.00000000000E+00 0. -1.
</event>
<event>
 5    1  0.1717510E-003  0.9118800E+02  0.7818608E-02  0.1130116E+00
         25   -1    0    0    0    0  0.00000000000E+00  0.00000000000E+00  0.99999998245E-14  0.12500000000E+03  0.12500000000E+03 0.  0.
        -11    1    3    3    0    0  0.17876084626E+01 -0.33144076285E+02  0.12001402051E+02  0.35295311137E+02  0.51100000000E-03 0.  1.
         23    2    1    0    0    0  0.15520966016E-01  0.27269416172E+02  0.10575806750E+02  0.95751598545E+02  0.91175104257E+02 0.  0.
         11    1    3    3    0    0 -0.17720874966E+01  0.60413492457E+02 -0.14255953002E+01  0.60456287408E+02  0.51100000000E-03 0. -1.
         22    1    1    0    0    0 -0.15520966016E-01 -0.27269416172E+02 -0.10575806750E+02  0.29248401455E+02  0.00000000000E+00 0. -1.
</event>
<event>
 5    1  0.1717510E-003  0.9118800E+02  0.7818608E-02  0.1130116E+00
         25   -1    0    0    0    0  0.00000000000E+00  0.00000000000E+00  0.99999998245E-14  0.12500000000E+03  0.12500000000E+03 0.  0.
        -11    1    3    3    0    0  0.31301275124E+02  0.23955160223E+02  0.28310083013E+02  0.48529169848E+02  0.51100000000E-03 0. -1.
         23    2    1    0    0    0  0.11640699649E+01  0.29221369741E+02 -0.66739972562E+01  0.95003571082E+02  0.90143733951E+02 0.  0.
         11    1    3    3    0    0 -0.30137205159E+02  0.52662095181E+01 -0.34984080269E+02  0.46474401234E+02  0.51100000000E-03 0.  1.
         22    1    1    0    0    0 -0.11640699649E+01 -0.29221369741E+02  0.66739972562E+01  0.29996428918E+02  0.00000000000E+00 0.  1.
</event>
<event>
 5    1  0.1717510E-003  0.9118800E+02  0.7818608E-02  0.1130116E+00
         25   -1    0    0    0    0  0.00000000000E+00  0.00000000000E+00  0.99999998245E-14  0.12500000000E+03  0.12500000000E+03 0.  0.
        -11    1    3    3    0    0 -0.31216023991E+02 -0.37819777127E+01  0.14412427576E+02  0.34589905726E+02  0.51100000000E-03 0.  1.
         23    2    1    0    0    0  0.24052997523E+02  0.69806363523E+01 -0.12511854690E+02  0.97003170153E+02  0.92875144889E+02 0.  0.
         11    1    3    3    0    0  0.55269021514E+02  0.10762614065E+02 -0.26924282265E+02  0.62413264427E+02  0.51100000000E-03 0. -1.
         22    1    1    0    0    0 -0.24052997523E+02 -0.69806363523E+01  0.12511854690E+02  0.27996829847E+02  0.00000000000E+00 0. -1.
</event>
<event>
 5    1  0.1717510E-003  0.9118800E+02  0.7818608E-02  0.1130116E+00
         25   -1    0    0    0    0  0.00000000000E+00  0.00000000000E+00  0.99999998245E-14  0.12500000000E+03  0.12500000000E+03 0.  0.
        -11    1    3    3    0    0 -0.28229007912E+02 -0.16430283349E+02  0.29319114159E+02  0.43891246895E+02  0.51100000000E-03 0. -1.
         23    2    1    0    0    0 -0.12500358501E+02 -0.21909034768E+02 -0.17971012297E+02  0.94028689887E+02  0.88781599850E+02 0.  0.
         11    1    3    3    0    0  0.15728649410E+02 -0.54787514181E+01 -0.47290126456E+02  0.50137442993E+02  0.51100000000E-03 0.  1.
         22    1    1    0    0    0  0.12500358501E+02  0.21909034768E+02  0.17971012297E+02  0.30971310113E+02  0.00000000000E+00 0.  1.
</event>
<event>
 5    1  0.1717510E-003  0.9118800E+02  0.7818608E-02  0.1130116E+00
         25   -1    0    0    0    0  0.00000000000E+00  0.00000000000E+00  0.99999998245E-14  0.12500000000E+03  0.12500000000E+03 0.  0.
        -11    1    3    3    0    0 -0.24410807888E+02 -0.19784183478E+02 -0.20077864685E+02  0.37288364247E+02  0.51100000000E-03 0. -1.
         23    2    1    0    0    0  0.26057291471E+01  0.38392445623E+01  0.27627475298E+02  0.96985592733E+02  0.92851484550E+02 0.  0.
         11    1    3    3    0    0  0.27016537035E+02  0.23623428040E+02  0.47705339983E+02  0.59697228486E+02  0.51100000000E-03 0.  1.
         22    1    1    0    0    0 -0.26057291471E+01 -0.38392445623E+01 -0.27627475298E+02  0.28014407267E+02  0.00000000000E+00 0.  1.
</event>
<event>
 5    1  0.1717510E-003  0.9118800E+02  0.7818608E-02  0.1130116E+00
         25   -1    0    0    0    0  0.00000000000E+00  0.00000000000E+00  0.99999998245E-14  0.12500000000E+03  0.12500000000E+03 0.  0.
        -11    1    3    3    0    0 -0.25224173080E+02  0.29930075398E+02  0.30110211423E+02  0.49383126198E+02  0.51100000000E-03 0. -1.
         23    2    1    0    0    0 -0.28014531227E+02 -0.68265217384E+01  0.13561353046E+01  0.96133852666E+02  0.91697672635E+02 0.  0.
         11    1    3    3    0    0 -0.27903581473E+01 -0.36756597136E+02 -0.28754076119E+02  0.46750726468E+02  0.51100000000E-03 0.  1.
         22    1    1    0    0    0  0.28014531227E+02  0.68265217384E+01 -0.13561353046E+01  0.28866147334E+02  0.00000000000E+00 0.  1.
</event>
<event>
 5    1  0.1717510E-003  0.9118800E+02  0.7818608E-02  0.1130116E+00
         25   -1    0    0    0    0  0.00000000000E+00  0.00000000000E+00  0.99999998245E-14  0.12500000000E+03  0.12500000000E+03 0.  0.
        -11    1    3    3    0    0 -0.32668376001E+02  0.34900385369E+01 -0.19089359726E+02  0.37997458001E+02  0.51100000000E-03 0.  1.
         23    2    1    0    0    0  0.23675725296E+02  0.10766968701E+02 -0.15044394956E+02  0.94953346228E+02  0.90074061511E+02 0.  0.
         11    1    3    3    0    0  0.56344101297E+02  0.72769301639E+01  0.40449647701E+01  0.56955888228E+02  0.51100000000E-03 0. -1.
         22    1    1    0    0    0 -0.23675725296E+02 -0.10766968701E+02  0.15044394956E+02  0.30046653772E+02  0.00000000000E+00 0. -1.
</event>
<event>
 5    1  0.1717510E-003  0.9118800E+02  0.7818608E-02  0.1130116E+00
         25   -1    0    0    0    0  0.00000000000E+00  0.00000000000E+00  0.99999998245E-14  0.12500000000E+03  0.12500000000E+03 0.  0.
        -11    1    3    3    0    0 -0.59437775544E+01 -0.38897411325E+02 -0.27180674033E+02  0.47823907625E+02  0.51100000000E-03 0. -1.
         23    2    1    0    0    0 -0.53477933628E+01 -0.33001590947E+02  0.13508215279E+02  0.88942049713E+02  0.81305057827E+02 0.  0.
         11    1    3    3    0    0  0.59598419158E+00  0.58958203779E+01  0.40688889312E+02  0.41118142088E+02  0.51100000000E-03 0.  1.
         22    1    1    0    0    0  0.53477933628E+01  0.33001590947E+02 -0.13508215279E+02  0.36057950287E+02  0.00000000000E+00 0.  1.
</event>
<event>
 5    1  0.1717510E-003  0.9118800E+02  0.7818608E-02  0.1130116E+00
         25   -1    0    0    0    0  0.00000000000E+00  0.00000000000E+00  0.99999998245E-14  0.12500000000E+03  0.12500000000E+03 0.  0.
        -11    1    3    3    0    0 -0.15104406381E+02  0.51928007929E+02  0.29703546816E+02  0.61700581791E+02  0.51100000000E-03 0. -1.
         23    2    1    0    0    0 -0.88038062499E+01  0.19810140099E+02  0.19106880018E+02  0.96103261097E+02  0.91655961476E+02 0.  0.
         11    1    3    3    0    0  0.63006001316E+01 -0.32117867830E+02 -0.10596666798E+02  0.34402679306E+02  0.51100000000E-03 0.  1.
         22    1    1    0    0    0  0.88038062499E+01 -0.19810140099E+02 -0.19106880018E+02  0.28896738903E+02  0.00000000000E+00 0. -1.
</event>
<event>
 5    1  0.1717510E-003  0.9118800E+02  0.7818608E-02  0.1130116E+00
         25   -1    0    0    0    0  0.00000000000E+00  0.00000000000E+00  0.99999998245E-14  0.12500000000E+03  0.12500000000E+03 0.  0.
        -11    1    3    3    0    0  0.14714986022E+02 -0.21765368718E+02 -0.37120260248E+02  0.45477200994E+02  0.51100000000E-03 0. -1.
         23    2    1    0    0    0 -0.30022030393E+01  0.21026242824E+02 -0.22533433431E+02  0.94034345920E+02  0.88789562901E+02 0.  0.
         11    1    3    3    0    0 -0.17717189061E+02  0.42791611542E+02  0.14586826817E+02  0.48557144927E+02  0.51100000000E-03 0.  1.
         22    1    1    0    0    0  0.30022030393E+01 -0.21026242824E+02  0.22533433431E+02  0.30965654080E+02  0.00000000000E+00 0.  1.
</event>
<event>
 5    1  0.1717510E-003  0.9118800E+02  0.7818608E-02  0.1130116E+00
         25   -1    0    0    0    0  0.00000000000E+00  0.00000000000E+00  0.99999998245E-14  0.12500000000E+03  0.12500000000E+03 0.  0.
        -11    1    3    3    0    0 -0.28185096533E+02 -0.30607905270E+02 -0.28158950673E+01  0.41703390712E+02  0.51100000000E-03 0.  1.
         23    2    1    0    0    0  0.84329344681E+01  0.57337715311E+01  0.23328191922E+02  0.99540324863E+02  0.96229315781E+02 0.  0.
         11    1    3    3    0    0  0.36618031001E+02  0.36341676801E+02  0.26144086990E+02  0.57836934151E+02  0.51100000000E-03 0. -1.
         22    1    1    0    0    0 -0.84329344681E+01 -0.57337715311E+01 -0.23328191922E+02  0.25459675137E+02  0.00000000000E+00 0. -1.
</event>
<event>
 5    1  0.1717510E-003  0.9118800E+02  0.7818608E-02  0.1130116E+00
         25   -1    0    0    0    0  0.00000000000E+00  0.00000000000E+00  0.99999998245E-14  0.12500000000E+03  0.12500000000E+03 0.  0.
        -11    1    3    3    0    0  0.89120663856E+01 -0.65884432101E+00 -0.34222786262E+02  0.35370299729E+02  0.51100000000E-03 0.  1.
         23    2    1    0    0    0  0.11968875006E+02 -0.37653536419E+01  0.26200245125E+02  0.95950306343E+02  0.91447124535E+02 0.  0.
         11    1    3    3    0    0  0.30568086205E+01 -0.31065093209E+01  0.60423031387E+02  0.60580006614E+02  0.51100000000E-03 0. -1.
         22    1    1    0    0    0 -0.11968875006E+02  0.37653536419E+01 -0.26200245125E+02  0.29049693657E+02  0.00000000000E+00 0. -1.
</event>
<event>
 5    1  0.1717510E-003  0.9118800E+02  0.7818608E-02  0.1130116E+00
         25   -1    0    0    0    0  0.00000000000E+00  0.00000000000E+00  0.99999998245E-14  0.12500000000E+03  0.12500000000E+03 0.  0.
        -11    1    3    3    0    0  0.30747929645E+02 -0.10612379267E+02 -0.25019808185E+02  0.41037160879E+02  0.51100000000E-03 0. -1.
         23    2    1    0    0    0 -0.19505285541E+02 -0.21119101334E+02 -0.74261036153E+01  0.95307919910E+02  0.90564783318E+02 0.  0.
         11    1    3    3    0    0 -0.50253215185E+02 -0.10506722066E+02  0.17593704570E+02  0.54270759031E+02  0.51100000000E-03 0.  1.
         22    1    1    0    0    0  0.19505285541E+02  0.21119101334E+02  0.74261036153E+01  0.29692080090E+02  0.00000000000E+00 0.  1.
</event>
<event>
 5    1  0.1717510E-003  0.9118800E+02  0.7818608E-02  0.1130116E+00
         25   -1    0    0    0    0  0.00000000000E+00  0.00000000000E+00  0.99999998245E-14  0.12500000000E+03  0.12500000000E+03 0.  0.
        -11    1    3    3    0    0  0.55303422838E+02 -0.21627649018E+02  0.92273024955E+01  0.60094649439E+02  0.51100000000E-03 0.  1.
         23    2    1    0    0    0  0.20075943242E+02 -0.18899910778E+02  0.10614549052E+02  0.95454801133E+02  0.90767286416E+02 0.  0.
         11    1    3    3    0    0 -0.35227479595E+02  0.27277382404E+01  0.13872465568E+01  0.35360151694E+02  0.51100000000E-03 0. -1.
         22    1    1    0    0    0 -0.20075943242E+02  0.18899910778E+02 -0.10614549052E+02  0.29545198867E+02  0.00000000000E+00 0.  1.
</event>
<event>
 5    1  0.1717510E-003  0.9118800E+02  0.7818608E-02  0.1130116E+00
         25   -1    0    0    0    0  0.00000000000E+00  0.00000000000E+00  0.99999998245E-14  0.12500000000E+03  0.12500000000E+03 0.  0.
        -11    1    3    3    0    0 -0.43056961789E+02 -0.85766042478E+01 -0.35396321967E+01  0.44045307301E+02  0.51100000000E-03 0. -1.
         23    2    1    0    0    0  0.63194311183E+01  0.71780087656E+01 -0.23533923507E+02  0.99597154192E+02  0.96303107676E+02 0.  0.
         11    1    3    3    0    0  0.49376392907E+02  0.15754613013E+02 -0.19994291310E+02  0.55551846891E+02  0.51100000000E-03 0.  1.
         22    1    1    0    0    0 -0.63194311183E+01 -0.71780087656E+01  0.23533923507E+02  0.25402845808E+02  0.00000000000E+00 0.  1.
</event>
<event>
 5    1  0.1717510E-003  0.9118800E+02  0.7818608E-02  0.1130116E+00
         25   -1    0    0    0    0  0.00000000000E+00  0.00000000000E+00  0.99999998245E-14  0.12500000000E+03  0.12500000000E+03 0.  0.
        -11    1    3    3    0    0 -0.55551676406E+02  0.27197805092E+02  0.59324387445E+00  0.61855163825E+02  0.51100000000E-03 0.  1.
         23    2    1    0    0    0 -0.24003621663E+02  0.15174672118E+02  0.58001026155E+01  0.96015767784E+02  0.91536560706E+02 0.  0.
         11    1    3    3    0    0  0.31548054743E+02 -0.12023132974E+02  0.52068587411E+01  0.34160603958E+02  0.51100000000E-03 0. -1.
         22    1    1    0    0    0  0.24003621663E+02 -0.15174672118E+02 -0.58001026155E+01  0.28984232216E+02  0.00000000000E+00 0.  1.
</event>
<event>
 5    1  0.1717510E-003  0.9118800E+02  0.7818608E-02  0.1130116E+00
         25   -1    0    0    0    0  0.00000000000E+00  0.00000000000E+00  0.99999998245E-14  0.12500000000E+03  0.12500000000E+03 0.  0.
        -11    1    3    3    0    0  0.15465429976E+02 -0.24299849548E+02  0.31134710558E+02  0.42415002230E+02  0.51100000000E-03 0.  1.
         23    2    1    0    0    0  0.21936343082E+02 -0.84198140593E+01 -0.18606080138E+02  0.95028636422E+02  0.90178484715E+02 0.  0.
         11    1    3    3    0    0  0.64709131065E+01  0.15880035489E+02 -0.49740790696E+02  0.52613634192E+02  0.51100000000E-03 0. -1.
         22    1    1    0    0    0 -0.21936343082E+02  0.84198140593E+01  0.18606080138E+02  0.29971363578E+02  0.00000000000E+00 0. -1.
</event>
<event>
 5    1  0.1717510E-003  0.9118800E+02  0.7818608E-02  0.1130116E+00
         25   -1    0    0    0    0  0.00000000000E+00  0.00000000000E+00  0.99999998245E-14  0.12500000000E+03  0.12500000000E+03 0.  0.
        -11    1    3    3    0    0  0.32628008748E+02 -0.32392097829E+02 -0.12798656507E+02  0.47724632689E+02  0.51100000000E-03 0.  1.
         23    2    1    0    0    0 -0.93293379696E+01 -0.96284604712E+01 -0.24678053396E+02  0.96915304570E+02  0.92756811839E+02 0.  0.
         11    1    3    3    0    0 -0.41957346718E+02  0.22763637358E+02 -0.11879396889E+02  0.49190671881E+02  0.51100000000E-03 0. -1.
         22    1    1    0    0    0  0.93293379696E+01  0.96284604712E+01  0.24678053396E+02  0.28084695430E+02  0.00000000000E+00 0.  1.
</event>
<event>
 5    1  0.1717510E-003  0.9118800E+02  0.7818608E-02  0.1130116E+00
         25   -1    0    0    0    0  0.00000000000E+00  0.00000000000E+00  0.99999998245E-14  0.12500000000E+03  0.12500000000E+03 0.  0.
        -11    1    3    3    0    0  0.46981711336E+01  0.54135167864E+02  0.47239206533E+01  0.54543603092E+02  0.51100000000E-03 0.  1.
         23    2    1    0    0    0  0.92681890452E+01  0.14063406613E+02  0.21038683868E+02  0.98049954497E+02  0.94273477841E+02 0.  0.
         11    1    3    3    0    0  0.45700179116E+01 -0.40071761252E+02  0.16314763214E+02  0.43506351404E+02  0.51100000000E-03 0. -1.
         22    1    1    0    0    0 -0.92681890452E+01 -0.14063406613E+02 -0.21038683868E+02  0.26950045503E+02  0.00000000000E+00 0.  1.
</event>
<event>
 5    1  0.1717510E-003  0.9118800E+02  0.7818608E-02  0.1130116E+00
         25   -1    0    0    0    0  0.00000000000E+00  0.00000000000E+00  0.99999998245E-14  0.12500000000E+03  0.12500000000E+03 0.  0.
        -11    1    3    3    0    0 -0.26959434461E+02  0.30084864256E+02  0.80261650596E+01  0.41186520727E+02  0.51100000000E-03 0.  1.
         23    2    1    0    0    0  0.66824294136E+01  0.13647111435E+01 -0.26712460770E+02  0.97430581077E+02  0.93448623688E+02 0.  0.
         11    1    3    3    0    0  0.33641863875E+02 -0.28720153113E+02 -0.34738625830E+02  0.56244060349E+02  0.51100000000E-03 0. -1.
         22    1    1    0    0    0 -0.66824294136E+01 -0.13647111435E+01  0.26712460770E+02  0.27569418923E+02  0.00000000000E+00 0. -1.
</event>
<event>
 5    1  0.1717510E-003  0.9118800E+02  0.7818608E-02  0.1130116E+00
         25   -1    0    0    0    0  0.00000000000E+00  0.00000000000E+00  0.99999998245E-14  0.12500000000E+03  0.12500000000E+03 0.  0.
        -11    1    3    3    0    0 -0.33427306173E+02 -0.22351338134E+02  0.39806779161E+02  0.56582212592E+02  0.51100000000E-03 0. -1.
         23    2    1    0    0    0 -0.84436576060E+01 -0.26265901689E+02  0.10041123175E+02  0.95639872277E+02  0.91021799967E+02 0.  0.
         11    1    3    3    0    0  0.24983648567E+02 -0.39145635543E+01 -0.29765655985E+02  0.39057659685E+02  0.51100000000E-03 0.  1.
         22    1    1    0    0    0  0.84436576060E+01  0.26265901689E+02 -0.10041123175E+02  0.29360127723E+02  0.00000000000E+00 0. -1.
</event>
<event>
 5    1  0.1717510E-003  0.9118800E+02  0.7818608E-02  0.1130116E+00
         25   -1    0    0    0    0  0.00000000000E+00  0.00000000000E+00  0.99999998245E-14  0.12500000000E+03  0.12500000000E+03 0.  0.
        -11    1    3    3    0    0  0.90701669228E+01 -0.24379263200E+02  0.40442617123E+02  0.48085566256E+02  0.51100000000E-03 0.  1.
         23    2    1    0    0    0  0.24283748623E+02 -0.16214079163E+02 -0.37778334419E+01  0.95557363641E+02  0.90908420458E+02 0.  0.
         11    1    3    3    0    0  0.15213581700E+02  0.81651840371E+01 -0.44220450565E+02  0.47471797385E+02  0.51100000000E-03 0. -1.
         22    1    1    0    0    0 -0.24283748623E+02  0.16214079163E+02  0.37778334419E+01  0.29442636359E+02  0.00000000000E+00 0.  1.
</event>
<event>
 5    1  0.1717510E-003  0.9118800E+02  0.7818608E-02  0.1130116E+00
         25   -1    0    0    0    0  0.00000000000E+00  0.00000000000E+00  0.99999998245E-14  0.12500000000E+03  0.12500000000E+03 0.  0.
        -11    1    3    3    0    0  0.49634431788E+02  0.73144411071E+01  0.32401080128E+02  0.59723595516E+02  0.51100000000E-03 0. -1.
         23    2    1    0    0    0  0.11975941155E+02  0.58304983341E+01  0.22766421767E+02  0.98623346735E+02  0.95030714423E+02 0.  0.
         11    1    3    3    0    0 -0.37658490633E+02 -0.14839427731E+01 -0.96346583609E+01  0.38899751219E+02  0.51100000000E-03 0.  1.
         22    1    1    0    0    0 -0.11975941155E+02 -0.58304983341E+01 -0.22766421767E+02  0.26376653265E+02  0.00000000000E+00 0. -1.
</event>
<event>
 5    1  0.1717510E-003  0.9118800E+02  0.7818608E-02  0.1130116E+00
         25   -1    0    0    0    0  0.00000000000E+00  0.00000000000E+00  0.99999998245E-14  0.12500000000E+03  0.12500000000E+03 0.  0.
        -11    1    3    3    0    0  0.28524848936E+02  0.21111116498E+02 -0.45588550949E+02  0.57772504053E+02  0.51100000000E-03 0.  1.
         23    2    1    0    0    0  0.14350404984E+02 -0.71255688005E+01 -0.24383767295E+02  0.95823366174E+02  0.91273443802E+02 0.  0.
         11    1    3    3    0    0 -0.14174443952E+02 -0.28236685299E+02  0.21204783655E+02  0.38050862121E+02  0.51100000000E-03 0. -1.
         22    1    1    0    0    0 -0.14350404984E+02  0.71255688005E+01  0.24383767295E+02  0.29176633826E+02  0.00000000000E+00 0.  1.
</event>
<event>
 5    1  0.1717510E-003  0.9118800E+02  0.7818608E-02  0.1130116E+00
         25   -1    0    0    0    0  0.00000000000E+00  0.00000000000E+00  0.99999998245E-14  0.12500000000E+03  0.12500000000E+03 0.  0.
        -11    1    3    3    0    0  0.18256621177E+02 -0.26478042137E+02 -0.23094846734E+02  0.39594985517E+02  0.51100000000E-03 0. -1.
         23    2    1    0    0    0 -0.27724117988E+02 -0.18062825544E+01  0.12773310122E+01  0.97187755405E+02  0.93123245493E+02 0.  0.
         11    1    3    3    0    0 -0.45980739165E+02  0.24671759582E+02  0.24372177746E+02  0.57592769888E+02  0.51100000000E-03 0.  1.
         22    1    1    0    0    0  0.27724117988E+02  0.18062825544E+01 -0.12773310122E+01  0.27812244595E+02  0.00000000000E+00 0.  1.
</event>
<event>
 5    1  0.1717510E-003  0.9118800E+02  0.7818608E-02  0.1130116E+00
         25   -1    0    0    0    0  0.00000000000E+00  0.00000000000E+00  0.99999998245E-14  0.12500000000E+03  0.12500000000E+03 0.  0.
        -11    1    3    3    0    0 -0.52734062098E+02  0.29287423320E+02  0.49375123732E+01  0.60522834524E+02  0.51100000000E-03 0. -1.
         23    2    1    0    0    0 -0.28008926919E+02  0.11721856762E+02  0.13100235667E+02  0.91931614983E+02  0.85778224193E+02 0.  0.
         11    1    3    3    0    0  0.24725135179E+02 -0.17565566557E+02  0.81627232940E+01  0.31408780459E+02  0.51100000000E-03 0.  1.
         22    1    1    0    0    0  0.28008926919E+02 -0.11721856762E+02 -0.13100235667E+02  0.33068385017E+02  0.00000000000E+00 0. -1.
</event>
<event>
 5    1  0.1717510E-003  0.9118800E+02  0.7818608E-02  0.1130116E+00
         25   -1    0    0    0    0  0.00000000000E+00  0.00000000000E+00  0.99999998245E-14  0.12500000000E+03  0.12500000000E+03 0.  0.
        -11    1    3    3    0    0  0.23613206927E+02  0.18669195868E+02  0.22097169502E+02  0.37341763697E+02  0.51100000000E-03 0.  1.
         23    2    1    0    0    0 -0.22233272896E+02 -0.15250785202E+02  0.12909661070E+02  0.95107455413E+02  0.90287672765E+02 0.  0.
         11    1    3    3    0    0 -0.45846479823E+02 -0.33919981070E+02 -0.91875084324E+01  0.57765691716E+02  0.51100000000E-03 0. -1.
         22    1    1    0    0    0  0.22233272896E+02  0.15250785202E+02 -0.12909661070E+02  0.29892544587E+02  0.00000000000E+00 0. -1.
</event>
<event>
 5    1  0.1717510E-003  0.9118800E+02  0.7818608E-02  0.1130116E+00
         25   -1    0    0    0    0  0.00000000000E+00  0.00000000000E+00  0.99999998245E-14  0.12500000000E+03  0.12500000000E+03 0.  0.
        -11    1    3    3    0    0  0.88474548937E+01  0.35645039269E+02  0.23335749054E+02  0.43513256219E+02  0.51100000000E-03 0. -1.
         23    2    1    0    0    0  0.19803498373E+02 -0.15633469599E+02  0.37270283869E+01  0.99495595281E+02  0.96171195377E+02 0.  0.
         11    1    3    3    0    0  0.10956043479E+02 -0.51278508868E+02 -0.19608720667E+02  0.55982339062E+02  0.51100000000E-03 0.  1.
         22    1    1    0    0    0 -0.19803498373E+02  0.15633469599E+02 -0.37270283869E+01  0.25504404719E+02  0.00000000000E+00 0.  1.
</event>
<event>
 5    1  0.1717510E-003  0.9118800E+02  0.7818608E-02  0.1130116E+00
         25   -1    0    0    0    0  0.00000000000E+00  0.00000000000E+00  0.99999998245E-14  0.12500000000E+03  0.12500000000E+03 0.  0.
        -11    1    3    3    0    0 -0.24034016955E+02 -0.31194459838E+02  0.57152499468E+01  0.39791863211E+02  0.51100000000E-03 0. -1.
         23    2    1    0    0    0 -0.17557831367E+02  0.23749718247E+02 -0.47009392174E+00  0.95461084187E+02  0.90775938700E+02 0.  0.
         11    1    3    3    0    0  0.64761855883E+01  0.54944178084E+02 -0.61853438685E+01  0.55669220977E+02  0.51100000000E-03 0.  1.
         22    1    1    0    0    0  0.17557831367E+02 -0.23749718247E+02  0.47009392174E+00  0.29538915813E+02  0.00000000000E+00 0.  1.
</event>
<event>
 5    1  0.1717510E-003  0.9118800E+02  0.7818608E-02  0.1130116E+00
         25   -1    0    0    0    0  0.00000000000E+00  0.00000000000E+00  0.99999998245E-14  0.12500000000E+03  0.12500000000E+03 0.  0.
        -11    1    3    3    0    0  0.21835274789E+02  0.22655628978E+02  0.26638307476E+02  0.41226886554E+02  0.51100000000E-03 0.  1.
         23    2    1    0    0    0  0.27687672640E+02 -0.16632131531E+02 -0.53924241833E+01  0.92253805502E+02  0.86246457177E+02 0.  0.
         11    1    3    3    0    0  0.58523978519E+01 -0.39287760510E+02 -0.32030731659E+02  0.51026918948E+02  0.51100000000E-03 0. -1.
         22    1    1    0    0    0 -0.27687672640E+02  0.16632131531E+02  0.53924241833E+01  0.32746194498E+02  0.00000000000E+00 0. -1.
</event>
<event>
 5    1  0.1717510E-003  0.9118800E+02  0.7818608E-02  0.1130116E+00
         25   -1    0    0    0    0  0.00000000000E+00  0.00000000000E+00  0.99999998245E-14  0.12500000000E+03  0.12500000000E+03 0.  0.
        -11    1    3    3    0    0  0.40641590135E+02 -0.39252748842E+02  0.12090910823E+02  0.57781547791E+02  0.51100000000E-03 0.  1.
         23    2    1    0    0    0  0.94248700479E+01 -0.28130036428E+02 -0.47514584201E+01  0.94954975753E+02  0.90076322851E+02 0.  0.
         11    1    3    3    0    0 -0.31216720088E+02  0.11122712414E+02 -0.16842369243E+02  0.37173427962E+02  0.51100000000E-03 0. -1.
         22    1    1    0    0    0 -0.94248700479E+01  0.28130036428E+02  0.47514584201E+01  0.30045024247E+02  0.00000000000E+00 0.  1.
</event>
<event>
 5    1  0.1717510E-003  0.9118800E+02  0.7818608E-02  0.1130116E+00
         25   -1    0    0    0    0  0.00000000000E+00  0.00000000000E+00  0.99999998245E-14  0.12500000000E+03  0.12500000000E+03 0.  0.
        -11    1    3    3    0    0 -0.25646266897E+02  0.20759936010E+02  0.11740271552E+02  0.35021992023E+02  0.51100000000E-03 0.  1.
         23    2    1    0    0    0  0.90910903593E+01 -0.11178092028E+01 -0.30039181175E+02  0.93595385260E+02  0.88169418252E+02 0.  0.
         11    1    3    3    0    0  0.34737357257E+02 -0.21877745213E+02 -0.41779452727E+02  0.58573393236E+02  0.51100000000E-03 0. -1.
         22    1    1    0    0    0 -0.90910903593E+01  0.11178092028E+01  0.30039181175E+02  0.31404614740E+02  0.00000000000E+00 0. -1.
</event>
<event>
 5    1  0.1717510E-003  0.9118800E+02  0.7818608E-02  0.1130116E+00
         25   -1    0    0    0    0  0.00000000000E+00  0.00000000000E+00  0.99999998245E-14  0.12500000000E+03  0.12500000000E+03 0.  0.
        -11    1    3    3    0    0 -0.18119287774E+01 -0.25463811988E+02 -0.42394844544E+02  0.49487489844E+02  0.51100000000E-03 0.  1.
         23    2    1    0    0    0 -0.26421225294E+02 -0.98305939354E+01 -0.58996067082E+01  0.96198488191E+02  0.91785739894E+02 0.  0.
         11    1    3    3    0    0 -0.24609296516E+02  0.15633218052E+02  0.36495237836E+02  0.46710998348E+02  0.51100000000E-03 0. -1.
         22    1    1    0    0    0  0.26421225294E+02  0.98305939354E+01  0.58996067082E+01  0.28801511809E+02  0.00000000000E+00 0. -1.
</event>
<event>
 5    1  0.1717510E-003  0.9118800E+02  0.7818608E-02  0.1130116E+00
         25   -1    0    0    0    0  0.00000000000E+00  0.00000000000E+00  0.99999998245E-14  0.12500000000E+03  0.12500000000E+03 0.  0.
        -11    1    3    3    0    0  0.76175690680E-01  0.60799472258E+02 -0.50639379460E+01  0.61010040955E+02  0.51100000000E-03 0.  1.
         23    2    1    0    0    0 -0.87437582193E+01  0.27281255469E+02 -0.62027918986E+01  0.95687974565E+02  0.91087834760E+02 0.  0.
         11    1    3    3    0    0 -0.88199339100E+01 -0.33518216789E+02 -0.11388539525E+01  0.34677933610E+02  0.51100000000E-03 0. -1.
         22    1    1    0    0    0  0.87437582193E+01 -0.27281255469E+02  0.62027918986E+01  0.29312025435E+02  0.00000000000E+00 0.  1.
</event>
<event>
 5    1  0.1717510E-003  0.9118800E+02  0.7818608E-02  0.1130116E+00
         25   -1    0    0    0    0  0.00000000000E+00  0.00000000000E+00  0.99999998245E-14  0.12500000000E+03  0.12500000000E+03 0.  0.
        -11    1    3    3    0    0 -0.44623664948E+02  0.25519375092E+01 -0.37999795799E+02  0.58666586227E+02  0.51100000000E-03 0. -1.
         23    2    1    0    0    0 -0.28488963239E+02  0.46116701277E+01 -0.46548574380E+01  0.95767206334E+02  0.91196499842E+02 0.  0.
         11    1    3    3    0    0  0.16134701710E+02  0.20597326185E+01  0.33344938361E+02  0.37100620107E+02  0.51100000000E-03 0.  1.
         22    1    1    0    0    0  0.28488963239E+02 -0.46116701277E+01  0.46548574380E+01  0.29232793666E+02  0.00000000000E+00 0. -1.
</event>
<event>
 5    1  0.1717510E-003  0.9118800E+02  0.7818608E-02  0.1130116E+00
         25   -1    0    0    0    0  0.00000000000E+00  0.00000000000E+00  0.99999998245E-14  0.12500000000E+03  0.12500000000E+03 0.  0.
        -11    1    3    3    0    0 -0.22758336518E+02 -0.41995701600E+02  0.88510458002E+01  0.48579026811E+02  0.51100000000E-03 0. -1.
         23    2    1    0    0    0  0.80938667742E+01 -0.90456999574E+01  0.25554082333E+02  0.96709604263E+02  0.92479192610E+02 0.  0.
         11    1    3    3    0    0  0.30852203292E+02  0.32950001642E+02  0.16703036532E+02  0.48130577452E+02  0.51100000000E-03 0.  1.
         22    1    1    0    0    0 -0.80938667742E+01  0.90456999574E+01 -0.25554082333E+02  0.28290395737E+02  0.00000000000E+00 0. -1.
</event>
<event>
 5    1  0.1717510E-003  0.9118800E+02  0.7818608E-02  0.1130116E+00
         25   -1    0    0    0    0  0.00000000000E+00  0.00000000000E+00  0.99999998245E-14  0.12500000000E+03  0.12500000000E+03 0.  0.
        -11    1    3    3    0    0  0.54328961176E+02  0.23201322889E+02 -0.17181907526E+02  0.61523616220E+02  0.51100000000E-03 0. -1.
         23    2    1    0    0    0  0.25543917959E+02  0.13305751868E+02 -0.58603288000E+00  0.96192393157E+02  0.91777438891E+02 0.  0.
         11    1    3    3    0    0 -0.28785043217E+02 -0.98955710214E+01  0.16595874646E+02  0.34668776938E+02  0.51100000000E-03 0.  1.
         22    1    1    0    0    0 -0.25543917959E+02 -0.13305751868E+02  0.58603288000E+00  0.28807606843E+02  0.00000000000E+00 0. -1.
</event>
<event>
 5    1  0.1717510E-003  0.9118800E+02  0.7818608E-02  0.1130116E+00
         25   -1    0    0    0    0  0.00000000000E+00  0.00000000000E+00  0.99999998245E-14  0.12500000000E+03  0.12500000000E+03 0.  0.
        -11    1    3    3    0    0 -0.29252253180E+02  0.24337506138E+02 -0.26061260417E+02  0.46121554786E+02  0.51100000000E-03 0. -1.
         23    2    1    0    0    0 -0.26417252025E+02 -0.15175173251E+01  0.14892039816E+02  0.94636421271E+02  0.89633170856E+02 0.  0.
         11    1    3    3    0    0  0.28350011549E+01 -0.25855023463E+02  0.40953300233E+02  0.48514866485E+02  0.51100000000E-03 0.  1.
         22    1    1    0    0    0  0.26417252025E+02  0.15175173251E+01 -0.14892039816E+02  0.30363578729E+02  0.00000000000E+00 0.  1.
</event>
<event>
 5    1  0.1717510E-003  0.9118800E+02  0.7818608E-02  0.1130116E+00
         25   -1    0    0    0    0  0.00000000000E+00  0.00000000000E+00  0.99999998245E-14  0.12500000000E+03  0.12500000000E+03 0.  0.
        -11    1    3    3    0    0 -0.46670177069E+02 -0.14174100608E+02  0.20333766054E+01  0.48817467943E+02  0.51100000000E-03 0. -1.
         23    2    1    0    0    0 -0.37416891543E+01 -0.23370187499E+02 -0.16161205376E+02  0.96340787508E+02  0.91979328531E+02 0.  0.
         11    1    3    3    0    0  0.42928487915E+02 -0.91960868914E+01 -0.18194581981E+02  0.47523319565E+02  0.51100000000E-03 0.  1.
         22    1    1    0    0    0  0.37416891543E+01  0.23370187499E+02  0.16161205376E+02  0.28659212492E+02  0.00000000000E+00 0. -1.
</event>
<event>
 5    1  0.1717510E-003  0.9118800E+02  0.7818608E-02  0.1130116E+00
         25   -1    0    0    0    0  0.00000000000E+00  0.00000000000E+00  0.99999998245E-14  0.12500000000E+03  0.12500000000E+03 0.  0.
        -11    1    3    3    0    0 -0.26846962484E+02 -0.10331076987E+02 -0.14573059051E+02  0.32246931585E+02  0.51100000000E-03 0. -1.
         23    2    1    0    0    0  0.24732781251E+02  0.65066552272E+01  0.16298977548E+02  0.94673382982E+02  0.89684701847E+02 0.  0.
         11    1    3    3    0    0  0.51579743735E+02  0.16837732214E+02  0.30872036599E+02  0.62426451396E+02  0.51100000000E-03 0.  1.
         22    1    1    0    0    0 -0.24732781251E+02 -0.65066552272E+01 -0.16298977548E+02  0.30326617018E+02  0.00000000000E+00 0.  1.
</event>
<event>
 5    1  0.1717510E-003  0.9118800E+02  0.7818608E-02  0.1130116E+00
         25   -1    0    0    0    0  0.00000000000E+00  0.00000000000E+00  0.99999998245E-14  0.12500000000E+03  0.12500000000E+03 0.  0.
        -11    1    3    3    0    0  0.18842119056E+02  0.32593402856E+01  0.36804039791E+02  0.41475126218E+02  0.51100000000E-03 0. -1.
         23    2    1    0    0    0 -0.24639763170E+02  0.13586911002E+02  0.47714682089E+01  0.96460746532E+02  0.92142208748E+02 0.  0.
         11    1    3    3    0    0 -0.43481882226E+02  0.10327570716E+02 -0.32032571582E+02  0.54985620314E+02  0.51100000000E-03 0.  1.
         22    1    1    0    0    0  0.24639763170E+02 -0.13586911002E+02 -0.47714682089E+01  0.28539253468E+02  0.00000000000E+00 0.  1.
</event>
<event>
 5    1  0.1717510E-003  0.9118800E+02  0.7818608E-02  0.1130116E+00
         25   -1    0    0    0    0  0.00000000000E+00  0.00000000000E+00  0.99999998245E-14  0.12500000000E+03  0.12500000000E+03 0.  0.
        -11    1    3    3    0    0  0.23369384659E+02  0.25674766442E+02  0.35354268695E+02  0.49550439821E+02  0.51100000000E-03 0.  1.
         23    2    1    0    0    0 -0.16826108179E+02  0.34060017222E+01  0.21380876513E+02  0.97579922599E+02  0.93648174835E+02 0.  0.
         11    1    3    3    0    0 -0.40195492839E+02 -0.22268764719E+02 -0.13973392182E+02  0.48029482779E+02  0.51100000000E-03 0. -1.
         22    1    1    0    0    0  0.16826108179E+02 -0.34060017222E+01 -0.21380876513E+02  0.27420077401E+02  0.00000000000E+00 0. -1.
</event>
<event>
 5    1  0.1717510E-003  0.9118800E+02  0.7818608E-02  0.1130116E+00
         25   -1    0    0    0    0  0.00000000000E+00  0.00000000000E+00  0.99999998245E-14  0.12500000000E+03  0.12500000000E+03 0.  0.
        -11    1    3    3    0    0 -0.72724776813E+01  0.23849354147E+02  0.41132921883E+02  0.48099874093E+02  0.51100000000E-03 0.  1.
         23    2    1    0    0    0 -0.56325424570E+01 -0.19380626017E+02  0.21190374319E+02  0.95736265394E+02  0.91154080262E+02 0.  0.
         11    1    3    3    0    0  0.16399352243E+01 -0.43229980164E+02 -0.19942547564E+02  0.47636391301E+02  0.51100000000E-03 0. -1.
         22    1    1    0    0    0  0.56325424570E+01  0.19380626017E+02 -0.21190374319E+02  0.29263734606E+02  0.00000000000E+00 0. -1.
</event>
<event>
 5    1  0.1717510E-003  0.9118800E+02  0.7818608E-02  0.1130116E+00
         25   -1    0    0    0    0  0.00000000000E+00  0.00000000000E+00  0.99999998245E-14  0.12500000000E+03  0.12500000000E+03 0.  0.
        -11    1    3    3    0    0  0.33745223903E+02 -0.73192280629E+01  0.46046877588E+02  0.57555418265E+02  0.51100000000E-03 0. -1.
         23    2    1    0    0    0  0.15328029465E+02  0.14210636182E+02  0.20979181577E+02  0.95385531786E+02  0.90671842082E+02 0.  0.
         11    1    3    3    0    0 -0.18417194439E+02  0.21529864245E+02 -0.25067696012E+02  0.37830113521E+02  0.51100000000E-03 0.  1.
         22    1    1    0    0    0 -0.15328029465E+02 -0.14210636182E+02 -0.20979181577E+02  0.29614468214E+02  0.00000000000E+00 0.  1.
</event>
<event>
 5    1  0.1717510E-003  0.9118800E+02  0.7818608E-02  0.1130116E+00
         25   -1    0    0    0    0  0.00000000000E+00  0.00000000000E+00  0.99999998245E-14  0.12500000000E+03  0.12500000000E+03 0.  0.
        -11    1    3    3    0    0  0.25951275923E+02  0.44586806543E+02  0.20561951785E+02  0.55535987442E+02  0.51100000000E-03 0. -1.
         23    2    1    0    0    0 -0.62589916530E+01  0.28002567675E+02  0.20166792097E+01  0.96235685860E+02  0.91836384211E+02 0.  0.
         11    1    3    3    0    0 -0.32210267576E+02 -0.16584238867E+02 -0.18545272575E+02  0.40699698418E+02  0.51100000000E-03 0.  1.
         22    1    1    0    0    0  0.62589916530E+01 -0.28002567675E+02 -0.20166792097E+01  0.28764314140E+02  0.00000000000E+00 0. -1.
</event>
<event>
 5    1  0.1717510E-003  0.9118800E+02  0.7818608E-02  0.1130116E+00
         25   -1    0    0    0    0  0.00000000000E+00  0.00000000000E+00  0.99999998245E-14  0.12500000000E+03  0.12500000000E+03 0.  0.
        -11    1    3    3    0    0  0.21035045421E+02  0.15000201957E+02 -0.29729156391E+02  0.39386570485E+02  0.51100000000E-03 0. -1.
         23    2    1    0    0    0  0.73979404423E+01 -0.29148608039E+02  0.10543739941E+01  0.94908762440E+02  0.90012169233E+02 0.  0.
         11    1    3    3    0    0 -0.13637104979E+02 -0.44148809995E+02  0.30783530385E+02  0.55522191955E+02  0.51100000000E-03 0.  1.
         22    1    1    0    0    0 -0.73979404423E+01  0.29148608039E+02 -0.10543739941E+01  0.30091237560E+02  0.00000000000E+00 0.  1.
</event>
<event>
 5    1  0.1717510E-003  0.9118800E+02  0.7818608E-02  0.1130116E+00
         25   -1    0    0    0    0  0.00000000000E+00  0.00000000000E+00  0.99999998245E-14  0.12500000000E+03  0.12500000000E+03 0.  0.
        -11    1    3    3    0    0  0.29039729912E+02 -0.24730446882E+02  0.10707757638E+02  0.39617634839E+02  0.51100000000E-03 0.  1.
         23    2    1    0    0    0  0.12968449351E+02  0.20880036590E+02 -0.16776112150E+02  0.95241059403E+02  0.90472453547E+02 0.  0.
         11    1    3    3    0    0 -0.16071280561E+02  0.45610483472E+02 -0.27483869789E+02  0.55623424564E+02  0.51100000000E-03 0. -1.
         22    1    1    0    0    0 -0.12968449351E+02 -0.20880036590E+02  0.16776112150E+02  0.29758940597E+02  0.00000000000E+00 0. -1.
</event>
<event>
 5    1  0.1717510E-003  0.9118800E+02  0.7818608E-02  0.1130116E+00
         25   -1    0    0    0    0  0.00000000000E+00  0.00000000000E+00  0.99999998245E-14  0.12500000000E+03  0.12500000000E+03 0.  0.
        -11    1    3    3    0    0 -0.53517289612E+02 -0.74815040015E+01 -0.10497477016E+02  0.55047890182E+02  0.51100000000E-03 0.  1.
         23    2    1    0    0    0 -0.16843190522E+02 -0.23342413533E+02 -0.61555254543E+00  0.96208677671E+02  0.91799615565E+02 0.  0.
         11    1    3    3    0    0  0.36674099090E+02 -0.15860909531E+02  0.98819244702E+01  0.41160787489E+02  0.51100000000E-03 0. -1.
         22    1    1    0    0    0  0.16843190522E+02  0.23342413533E+02  0.61555254543E+00  0.28791322329E+02  0.00000000000E+00 0.  1.
</event>
<event>
 5    1  0.1717510E-003  0.9118800E+02  0.7818608E-02  0.1130116E+00
         25   -1    0    0    0    0  0.00000000000E+00  0.00000000000E+00  0.99999998245E-14  0.12500000000E+03  0.12500000000E+03 0.  0.
        -11    1    3    3    0    0  0.15540741819E+02 -0.10349935446E+02 -0.32632067024E+02  0.37596377732E+02  0.51100000000E-03 0.  1.
         23    2    1    0    0    0  0.53187722805E+01 -0.10326856888E+02  0.25689155374E+02  0.96806631709E+02  0.92610247421E+02 0.  0.
         11    1    3    3    0    0 -0.10221969538E+02  0.23078558662E-01  0.58321222398E+02  0.59210253978E+02  0.51100000000E-03 0. -1.
         22    1    1    0    0    0 -0.53187722805E+01  0.10326856888E+02 -0.25689155374E+02  0.28193368291E+02  0.00000000000E+00 0. -1.
</event>
<event>
 5    1  0.1717510E-003  0.9118800E+02  0.7818608E-02  0.1130116E+00
         25   -1    0    0    0    0  0.00000000000E+00  0.00000000000E+00  0.99999998245E-14  0.12500000000E+03  0.12500000000E+03 0.  0.
        -11    1    3    3    0    0 -0.45683656024E+02  0.50473207281E+01 -0.20151378781E+02  0.50185156583E+02  0.51100000000E-03 0.  1.
         23    2    1    0    0    0 -0.19614259844E+02 -0.21444029582E+02  0.56029378177E+01  0.95403403809E+02  0.90696477066E+02 0.  0.
         11    1    3    3    0    0  0.26069396180E+02 -0.26491350310E+02  0.25754316599E+02  0.45218247226E+02  0.51100000000E-03 0. -1.
         22    1    1    0    0    0  0.19614259844E+02  0.21444029582E+02 -0.56029378177E+01  0.29596596191E+02  0.00000000000E+00 0.  1.
</event>
<event>
 5    1  0.1717510E-003  0.9118800E+02  0.7818608E-02  0.1130116E+00
         25   -1    0    0    0    0  0.00000000000E+00  0.00000000000E+00  0.99999998245E-14  0.12500000000E+03  0.12500000000E+03 0.  0.
        -11    1    3    3    0    0 -0.40527662824E+02  0.11623325934E+02 -0.35373882423E+02  0.55035485986E+02  0.51100000000E-03 0.  1.
         23    2    1    0    0    0 -0.15679765118E+01  0.16958856324E+02 -0.23238428746E+02  0.96188788141E+02  0.91772528762E+02 0.  0.
         11    1    3    3    0    0  0.38959686313E+02  0.53355303897E+01  0.12135453676E+02  0.41153302156E+02  0.51100000000E-03 0. -1.
         22    1    1    0    0    0  0.15679765118E+01 -0.16958856324E+02  0.23238428746E+02  0.28811211859E+02  0.00000000000E+00 0.  1.
</event>
<event>
 5    1  0.1717510E-003  0.9118800E+02  0.7818608E-02  0.1130116E+00
         25   -1    0    0    0    0  0.00000000000E+00  0.00000000000E+00  0.99999998245E-14  0.12500000000E+03  0.12500000000E+03 0.  0.
        -11    1    3    3    0    0 -0.25230776873E+02  0.16092052518E+02 -0.22894263660E+02  0.37678821169E+02  0.51100000000E-03 0.  1.
         23    2    1    0    0    0  0.43996042348E+01 -0.28762914163E+02 -0.54521351663E+00  0.95897439866E+02  0.91374832239E+02 0.  0.
         11    1    3    3    0    0  0.29630381108E+02 -0.44854966681E+02  0.22349050143E+02  0.58218618698E+02  0.51100000000E-03 0. -1.
         22    1    1    0    0    0 -0.43996042348E+01  0.28762914163E+02  0.54521351663E+00  0.29102560134E+02  0.00000000000E+00 0. -1.
</event>
<event>
 5    1  0.1717510E-003  0.9118800E+02  0.7818608E-02  0.1130116E+00
         25   -1    0    0    0    0  0.00000000000E+00  0.00000000000E+00  0.99999998245E-14  0.12500000000E+03  0.12500000000E+03 0.  0.
        -11    1    3    3    0    0 -0.29421339226E+02  0.16558117644E+02  0.12187811603E+02  0.35893303187E+02  0.51100000000E-03 0. -1.
         23    2    1    0    0    0  0.22954364890E+02 -0.13010028233E+02  0.11939575908E+02  0.96039385798E+02  0.91568807186E+02 0.  0.
         11    1    3    3    0    0  0.52375704116E+02 -0.29568145877E+02 -0.24823569463E+00  0.60146082611E+02  0.51100000000E-03 0.  1.
         22    1    1    0    0    0 -0.22954364890E+02  0.13010028233E+02 -0.11939575908E+02  0.28960614202E+02  0.00000000000E+00 0.  1.
</event>
<event>
 5    1  0.1717510E-003  0.9118800E+02  0.7818608E-02  0.1130116E+00
         25   -1    0    0    0    0  0.00000000000E+00  0.00000000000E+00  0.99999998245E-14  0.12500000000E+03  0.12500000000E+03 0.  0.
        -11    1    3    3    0    0 -0.10665465259E+01  0.15016435712E+02 -0.56440178121E+02  0.58413393752E+02  0.51100000000E-03 0. -1.
         23    2    1    0    0    0 -0.90072137364E+01  0.19619750205E+02 -0.21527833120E+02  0.94512099183E+02  0.89459626624E+02 0.  0.
         11    1    3    3    0    0 -0.79406672105E+01  0.46033144929E+01  0.34912345001E+02  0.36098705431E+02  0.51100000000E-03 0.  1.
         22    1    1    0    0    0  0.90072137364E+01 -0.19619750205E+02  0.21527833120E+02  0.30487900817E+02  0.00000000000E+00 0. -1.
</event>
<event>
 5    1  0.1717510E-003  0.9118800E+02  0.7818608E-02  0.1130116E+00
         25   -1    0    0    0    0  0.00000000000E+00  0.00000000000E+00  0.99999998245E-14  0.12500000000E+03  0.12500000000E+03 0.  0.
        -11    1    3    3    0    0 -0.13506919422E+02 -0.49228486923E+02 -0.11660371646E+02  0.52362630417E+02  0.51100000000E-03 0.  1.
         23    2    1    0    0    0 -0.12629714875E+02 -0.18383187283E+02  0.18880061059E+02  0.95778296113E+02  0.91211698965E+02 0.  0.
         11    1    3    3    0    0  0.87720454714E+00  0.30845299640E+02  0.30540432705E+02  0.43415665696E+02  0.51100000000E-03 0. -1.
         22    1    1    0    0    0  0.12629714875E+02  0.18383187283E+02 -0.18880061059E+02  0.29221703887E+02  0.00000000000E+00 0.  1.
</event>
<event>
 5    1  0.1717510E-003  0.9118800E+02  0.7818608E-02  0.1130116E+00
         25   -1    0    0    0    0  0.00000000000E+00  0.00000000000E+00  0.99999998245E-14  0.12500000000E+03  0.12500000000E+03 0.  0.
        -11    1    3    3    0    0 -0.31369320049E+02 -0.13910934778E+02  0.23269209520E+02  0.41460878653E+02  0.51100000000E-03 0. -1.
         23    2    1    0    0    0 -0.15222067430E+02  0.15712150219E+02 -0.19333474539E+02  0.95804688063E+02  0.91247860335E+02 0.  0.
         11    1    3    3    0    0  0.16147252619E+02  0.29623084997E+02 -0.42602684059E+02  0.54343809410E+02  0.51100000000E-03 0.  1.
         22    1    1    0    0    0  0.15222067430E+02 -0.15712150219E+02  0.19333474539E+02  0.29195311937E+02  0.00000000000E+00 0.  1.
</event>
<event>
 5    1  0.1717510E-003  0.9118800E+02  0.7818608E-02  0.1130116E+00
         25   -1    0    0    0    0  0.00000000000E+00  0.00000000000E+00  0.99999998245E-14  0.12500000000E+03  0.12500000000E+03 0.  0.
        -11    1    3    3    0    0 -0.74289321080E+01  0.27271824739E+02 -0.29043429633E+02  0.40527302674E+02  0.51100000000E-03 0.  1.
         23    2    1    0    0    0 -0.27171968689E+02  0.28778993231E+01  0.14395093478E+02  0.94116073708E+02  0.88904546718E+02 0.  0.
         11    1    3    3    0    0 -0.19743036581E+02 -0.24393925416E+02  0.43438523111E+02  0.53588771035E+02  0.51100000000E-03 0. -1.
         22    1    1    0    0    0  0.27171968689E+02 -0.28778993231E+01 -0.14395093478E+02  0.30883926292E+02  0.00000000000E+00 0.  1.
</event>
<event>
 5    1  0.1717510E-003  0.9118800E+02  0.7818608E-02  0.1130116E+00
         25   -1    0    0    0    0  0.00000000000E+00  0.00000000000E+00  0.99999998245E-14  0.12500000000E+03  0.12500000000E+03 0.  0.
        -11    1    3    3    0    0  0.31397418186E+02 -0.92501175648E+01  0.11716265263E+02  0.34765405444E+02  0.51100000000E-03 0. -1.
         23    2    1    0    0    0 -0.25017475485E+02 -0.10852487426E+01 -0.12871132834E+02  0.96844753510E+02  0.92661687754E+02 0.  0.
         11    1    3    3    0    0 -0.56414893671E+02  0.81648688222E+01 -0.24587398097E+02  0.62079348066E+02  0.51100000000E-03 0.  1.
         22    1    1    0    0    0  0.25017475485E+02  0.10852487426E+01  0.12871132834E+02  0.28155246490E+02  0.00000000000E+00 0.  1.
</event>
<event>
 5    1  0.1717510E-003  0.9118800E+02  0.7818608E-02  0.1130116E+00
         25   -1    0    0    0    0  0.00000000000E+00  0.00000000000E+00  0.99999998245E-14  0.12500000000E+03  0.12500000000E+03 0.  0.
        -11    1    3    3    0    0 -0.64561520334E+01 -0.28220853288E+02  0.34226948132E+02  0.44828366444E+02  0.51100000000E-03 0.  1.
         23    2    1    0    0    0  0.24414744926E+02  0.61153201940E+01  0.19058242796E+02  0.93429546577E+02  0.87933990266E+02 0.  0.
         11    1    3    3    0    0  0.30870896959E+02  0.34336173482E+02 -0.15168705335E+02  0.48601180132E+02  0.51100000000E-03 0. -1.
         22    1    1    0    0    0 -0.24414744926E+02 -0.61153201940E+01 -0.19058242796E+02  0.31570453423E+02  0.00000000000E+00 0. -1.
</event>
<event>
 5    1  0.1717510E-003  0.9118800E+02  0.7818608E-02  0.1130116E+00
         25   -1    0    0    0    0  0.00000000000E+00  0.00000000000E+00  0.99999998245E-14  0.12500000000E+03  0.12500000000E+03 0.  0.
        -11    1    3    3    0    0 -0.31718256479E+02  0.89136406478E+01  0.90318678794E+01  0.34162485585E+02  0.51100000000E-03 0.  1.
         23    2    1    0    0    0  0.20060967700E+02 -0.95006580196E+01 -0.18933689646E+02  0.95824847362E+02  0.91275472283E+02 0.  0.
         11    1    3    3    0    0  0.51779224179E+02 -0.18414298667E+02 -0.27965557525E+02  0.61662361777E+02  0.51100000000E-03 0. -1.
         22    1    1    0    0    0 -0.20060967700E+02  0.95006580196E+01  0.18933689646E+02  0.29175152638E+02  0.00000000000E+00 0. -1.
</event>
<event>
 5    1  0.1717510E-003  0.9118800E+02  0.7818608E-02  0.1130116E+00
         25   -1    0    0    0    0  0.00000000000E+00  0.00000000000E+00  0.99999998245E-14  0.12500000000E+03  0.12500000000E+03 0.  0.
        -11    1    3    3    0    0  0.14893778687E+01  0.36167531313E+02 -0.10211745522E+02  0.37611013209E+02  0.51100000000E-03 0. -1.
         23    2    1    0    0    0  0.17660044519E+02 -0.15271941988E+02 -0.22126887180E+02  0.92833114531E+02  0.87082022443E+02 0.  0.
         11    1    3    3    0    0  0.16170666650E+02 -0.51439473301E+02 -0.11915141659E+02  0.55222101322E+02  0.51100000000E-03 0.  1.
         22    1    1    0    0    0 -0.17660044519E+02  0.15271941988E+02  0.22126887180E+02  0.32166885469E+02  0.00000000000E+00 0.  1.
</event>
<event>
 5    1  0.1717510E-003  0.9118800E+02  0.7818608E-02  0.1130116E+00
         25   -1    0    0    0    0  0.00000000000E+00  0.00000000000E+00  0.99999998245E-14  0.12500000000E+03  0.12500000000E+03 0.  0.
        -11    1    3    3    0    0  0.36472654418E+02 -0.20151702251E+02  0.34044079938E+02  0.53808410151E+02  0.51100000000E-03 0. -1.
         23    2    1    0    0    0  0.19896176074E+02 -0.19738442369E+02 -0.52757943474E+01  0.96481621093E+02  0.92170522800E+02 0.  0.
         11    1    3    3    0    0 -0.16576478344E+02  0.41325988258E+00 -0.39319874285E+02  0.42673210942E+02  0.51100000000E-03 0.  1.
         22    1    1    0    0    0 -0.19896176074E+02  0.19738442369E+02  0.52757943474E+01  0.28518378907E+02  0.00000000000E+00 0. -1.
</event>
<event>
 5    1  0.1717510E-003  0.9118800E+02  0.7818608E-02  0.1130116E+00
         25   -1    0    0    0    0  0.00000000000E+00  0.00000000000E+00  0.99999998245E-14  0.12500000000E+03  0.12500000000E+03 0.  0.
        -11    1    3    3    0    0 -0.42909740457E+02 -0.41261606893E+02 -0.76379540114E+00  0.59534438884E+02  0.51100000000E-03 0.  1.
         23    2    1    0    0    0 -0.14712201951E+02 -0.19832384700E+02  0.12462470728E+02  0.97339820214E+02  0.93327139963E+02 0.  0.
         11    1    3    3    0    0  0.28197538506E+02  0.21429222193E+02  0.13226266129E+02  0.37805381331E+02  0.51100000000E-03 0. -1.
         22    1    1    0    0    0  0.14712201951E+02  0.19832384700E+02 -0.12462470728E+02  0.27660179786E+02  0.00000000000E+00 0.  1.
</event>
<event>
 5    1  0.1717510E-003  0.9118800E+02  0.7818608E-02  0.1130116E+00
         25   -1    0    0    0    0  0.00000000000E+00  0.00000000000E+00  0.99999998245E-14  0.12500000000E+03  0.12500000000E+03 0.  0.
        -11    1    3    3    0    0 -0.14089709522E+02 -0.23066443520E+02  0.22069532233E+02  0.34894770157E+02  0.51100000000E-03 0.  1.
         23    2    1    0    0    0 -0.77351739835E+01  0.27150233395E+02 -0.10268231270E+02  0.94959949012E+02  0.90083224037E+02 0.  0.
         11    1    3    3    0    0  0.63545355382E+01  0.50216676915E+02 -0.32337763502E+02  0.60065178855E+02  0.51100000000E-03 0. -1.
         22    1    1    0    0    0  0.77351739835E+01 -0.27150233395E+02  0.10268231270E+02  0.30040050988E+02  0.00000000000E+00 0. -1.
</event>
<event>
 5    1  0.1717510E-003  0.9118800E+02  0.7818608E-02  0.1130116E+00
         25   -1    0    0    0    0  0.00000000000E+00  0.00000000000E+00  0.99999998245E-14  0.12500000000E+03  0.12500000000E+03 0.  0.
        -11    1    3    3    0    0  0.34709864619E+02 -0.39922225757E+02 -0.15421877525E+02  0.55103476459E+02  0.51100000000E-03 0.  1.
         23    2    1    0    0    0  0.22186650339E+02 -0.13129366730E+02  0.13005010937E+02  0.96125131456E+02  0.91685783325E+02 0.  0.
         11    1    3    3    0    0 -0.12523214280E+02  0.26792859027E+02  0.28426888462E+02  0.41021654996E+02  0.51100000000E-03 0. -1.
         22    1    1    0    0    0 -0.22186650339E+02  0.13129366730E+02 -0.13005010937E+02  0.28874868544E+02  0.00000000000E+00 0. -1.
</event>
<event>
 5    1  0.1717510E-003  0.9118800E+02  0.7818608E-02  0.1130116E+00
         25   -1    0    0    0    0  0.00000000000E+00  0.00000000000E+00  0.99999998245E-14  0.12500000000E+03  0.12500000000E+03 0.  0.
        -11    1    3    3    0    0  0.21165678969E+01  0.35500186761E+02  0.10270152014E+02  0.37016471231E+02  0.51100000000E-03 0.  1.
         23    2    1    0    0    0 -0.22198244590E+02 -0.17718714207E+02 -0.89768669478E+00  0.96583090643E+02  0.92308031398E+02 0.  0.
         11    1    3    3    0    0 -0.24314812487E+02 -0.53218900967E+02 -0.11167838709E+02  0.59566619412E+02  0.51100000000E-03 0. -1.
         22    1    1    0    0    0  0.22198244590E+02  0.17718714207E+02  0.89768669478E+00  0.28416909357E+02  0.00000000000E+00 0. -1.
</event>
<event>
 5    1  0.1717510E-003  0.9118800E+02  0.7818608E-02  0.1130116E+00
         25   -1    0    0    0    0  0.00000000000E+00  0.00000000000E+00  0.99999998245E-14  0.12500000000E+03  0.12500000000E+03 0.  0.
        -11    1    3    3    0    0 -0.11075606525E+02 -0.43105916406E+02 -0.32654249155E+02  0.55200444538E+02  0.51100000000E-03 0. -1.
         23    2    1    0    0    0  0.44664576441E+01 -0.28594094761E+02  0.21426017093E+01  0.95979968278E+02  0.91487660749E+02 0.  0.
         11    1    3    3    0    0  0.15542064169E+02  0.14511821645E+02  0.34796850864E+02  0.40779523739E+02  0.51100000000E-03 0.  1.
         22    1    1    0    0    0 -0.44664576441E+01  0.28594094761E+02 -0.21426017093E+01  0.29020031722E+02  0.00000000000E+00 0. -1.
</event>
<event>
 5    1  0.1717510E-003  0.9118800E+02  0.7818608E-02  0.1130116E+00
         25   -1    0    0    0    0  0.00000000000E+00  0.00000000000E+00  0.99999998245E-14  0.12500000000E+03  0.12500000000E+03 0.  0.
        -11    1    3    3    0    0  0.27601098662E+02 -0.47941938142E+02 -0.36963251609E+01  0.55442879616E+02  0.51100000000E-03 0. -1.
         23    2    1    0    0    0  0.96321286468E+01 -0.17255935366E+02 -0.21991818799E+02  0.95433375206E+02  0.90737774943E+02 0.  0.
         11    1    3    3    0    0 -0.17968970015E+02  0.30686002777E+02 -0.18295493638E+02  0.39990495590E+02  0.51100000000E-03 0.  1.
         22    1    1    0    0    0 -0.96321286468E+01  0.17255935366E+02  0.21991818799E+02  0.29566624794E+02  0.00000000000E+00 0. -1.
</event>
<event>
 5    1  0.1717510E-003  0.9118800E+02  0.7818608E-02  0.1130116E+00
         25   -1    0    0    0    0  0.00000000000E+00  0.00000000000E+00  0.99999998245E-14  0.12500000000E+03  0.12500000000E+03 0.  0.
        -11    1    3    3    0    0  0.44240721301E+02 -0.96560089821E+01 -0.12171058081E+02  0.46889386707E+02  0.51100000000E-03 0.  1.
         23    2    1    0    0    0 -0.94098378037E+00 -0.42056855540E+01 -0.29202517731E+02  0.95481187637E+02  0.90803617270E+02 0.  0.
         11    1    3    3    0    0 -0.45181705082E+02  0.54503234282E+01 -0.17031459650E+02  0.48591800930E+02  0.51100000000E-03 0. -1.
         22    1    1    0    0    0  0.94098378037E+00  0.42056855540E+01  0.29202517731E+02  0.29518812363E+02  0.00000000000E+00 0. -1.
</event>
<event>
 5    1  0.1717510E-003  0.9118800E+02  0.7818608E-02  0.1130116E+00
         25   -1    0    0    0    0  0.00000000000E+00  0.00000000000E+00  0.99999998245E-14  0.12500000000E+03  0.12500000000E+03 0.  0.
        -11    1    3    3    0    0  0.13444620695E+02 -0.31929671106E+02 -0.27537193737E+02  0.44255607122E+02  0.51100000000E-03 0. -1.
         23    2    1    0    0    0  0.24482238736E+02  0.13887777789E+02 -0.53341781063E+01  0.96352070904E+02  0.91994661399E+02 0.  0.
         11    1    3    3    0    0  0.11037618041E+02  0.45817448895E+02  0.22203015631E+02  0.52096463782E+02  0.51100000000E-03 0.  1.
         22    1    1    0    0    0 -0.24482238736E+02 -0.13887777789E+02  0.53341781063E+01  0.28647929096E+02  0.00000000000E+00 0.  1.
</event>
<event>
 5    1  0.1717510E-003  0.9118800E+02  0.7818608E-02  0.1130116E+00
         25   -1    0    0    0    0  0.00000000000E+00  0.00000000000E+00  0.99999998245E-14  0.12500000000E+03  0.12500000000E+03 0.  0.
        -11    1    3    3    0    0  0.41202121602E+02  0.28075907347E+02  0.25238413740E+01  0.49922351441E+02  0.51100000000E-03 0. -1.
         23    2    1    0    0    0  0.24711977857E+02 -0.11542318477E+02  0.13998157894E+02  0.94342938989E+02  0.89222949667E+02 0.  0.
         11    1    3    3    0    0 -0.16490143746E+02 -0.39618225824E+02  0.11474316520E+02  0.44420587548E+02  0.51100000000E-03 0.  1.
         22    1    1    0    0    0 -0.24711977857E+02  0.11542318477E+02 -0.13998157894E+02  0.30657061011E+02  0.00000000000E+00 0. -1.
</event>
<event>
 5    1  0.1717510E-003  0.9118800E+02  0.7818608E-02  0.1130116E+00
         25   -1    0    0    0    0  0.00000000000E+00  0.00000000000E+00  0.99999998245E-14  0.12500000000E+03  0.12500000000E+03 0.  0.
        -11    1    3    3    0    0  0.96875339642E+01 -0.17694024166E+01 -0.33323871441E+02  0.34748518059E+02  0.51100000000E-03 0.  1.
         23    2    1    0    0    0  0.87259645856E+01  0.10352225173E+02  0.26203614915E+02  0.95505246931E+02  0.90836731187E+02 0.  0.
         11    1    3    3    0    0 -0.96156937867E+00  0.12121627590E+02  0.59527486356E+02  0.60756728872E+02  0.51100000000E-03 0. -1.
         22    1    1    0    0    0 -0.87259645856E+01 -0.10352225173E+02 -0.26203614915E+02  0.29494753069E+02  0.00000000000E+00 0. -1.
</event>
<event>
 5    1  0.1717510E-003  0.9118800E+02  0.7818608E-02  0.1130116E+00
         25   -1    0    0    0    0  0.00000000000E+00  0.00000000000E+00  0.99999998245E-14  0.12500000000E+03  0.12500000000E+03 0.  0.
        -11    1    3    3    0    0 -0.35356893248E+02  0.76266610902E+01 -0.34875550385E+01  0.36337843909E+02  0.51100000000E-03 0. -1.
         23    2    1    0    0    0  0.14736173319E+02  0.15746223656E+02 -0.25456888976E+02  0.91636073974E+02  0.85346461517E+02 0.  0.
         11    1    3    3    0    0  0.50093066568E+02  0.81195625662E+01 -0.21969333937E+02  0.55298230065E+02  0.51100000000E-03 0.  1.
         22    1    1    0    0    0 -0.14736173319E+02 -0.15746223656E+02  0.25456888976E+02  0.33363926026E+02  0.00000000000E+00 0.  1.
</event>
<event>
 5    1  0.1717510E-003  0.9118800E+02  0.7818608E-02  0.1130116E+00
         25   -1    0    0    0    0  0.00000000000E+00  0.00000000000E+00  0.99999998245E-14  0.12500000000E+03  0.12500000000E+03 0.  0.
        -11    1    3    3    0    0  0.30298245539E+02 -0.21113392971E+02 -0.33154861980E+01  0.37077641436E+02  0.51100000000E-03 0. -1.
         23    2    1    0    0    0  0.45124686414E+01  0.27884439573E+02  0.11667889716E+02  0.94437866665E+02  0.89355842933E+02 0.  0.
         11    1    3    3    0    0 -0.25785776898E+02  0.48997832544E+02  0.14983375914E+02  0.57360225229E+02  0.51100000000E-03 0.  1.
         22    1    1    0    0    0 -0.45124686414E+01 -0.27884439573E+02 -0.11667889716E+02  0.30562133335E+02  0.00000000000E+00 0.  1.
</event>
<event>
 5    1  0.1717510E-003  0.9118800E+02  0.7818608E-02  0.1130116E+00
         25   -1    0    0    0    0  0.00000000000E+00  0.00000000000E+00  0.99999998245E-14  0.12500000000E+03  0.12500000000E+03 0.  0.
        -11    1    3    3    0    0  0.84548313559E+01  0.74254824505E+01 -0.60780098904E+02  0.61812962928E+02  0.51100000000E-03 0.  1.
         23    2    1    0    0    0 -0.20608332232E+01  0.59143415374E+00 -0.28123171257E+02  0.96795220450E+02  0.92594843876E+02 0.  0.
         11    1    3    3    0    0 -0.10515664579E+02 -0.68340482968E+01  0.32656927647E+02  0.34982257521E+02  0.51100000000E-03 0. -1.
         22    1    1    0    0    0  0.20608332232E+01 -0.59143415374E+00  0.28123171257E+02  0.28204779550E+02  0.00000000000E+00 0.  1.
</event>
<event>
 5    1  0.1717510E-003  0.9118800E+02  0.7818608E-02  0.1130116E+00
         25   -1    0    0    0    0  0.00000000000E+00  0.00000000000E+00  0.99999998245E-14  0.12500000000E+03  0.12500000000E+03 0.  0.
        -11    1    3    3    0    0 -0.35677246742E+02  0.10696930436E+02  0.48709138838E+02  0.61317782595E+02  0.51100000000E-03 0.  1.
         23    2    1    0    0    0 -0.21085227125E+02 -0.19294446368E+01  0.20249966698E+02  0.95702035723E+02  0.91107128869E+02 0.  0.
         11    1    3    3    0    0  0.14592019617E+02 -0.12626375073E+02 -0.28459172140E+02  0.34384253127E+02  0.51100000000E-03 0. -1.
         22    1    1    0    0    0  0.21085227125E+02  0.19294446368E+01 -0.20249966698E+02  0.29297964277E+02  0.00000000000E+00 0.  1.
</event>
<event>
 5    1  0.1717510E-003  0.9118800E+02  0.7818608E-02  0.1130116E+00
         25   -1    0    0    0    0  0.00000000000E+00  0.00000000000E+00  0.99999998245E-14  0.12500000000E+03  0.12500000000E+03 0.  0.
        -11    1    3    3    0    0 -0.45476683486E+02 -0.35470387859E+02 -0.54776025525E+01  0.57933421147E+02  0.51100000000E-03 0.  1.
         23    2    1    0    0    0 -0.20968707197E+02 -0.15345948144E+02  0.14333244137E+02  0.95324645016E+02  0.90587864827E+02 0.  0.
         11    1    3    3    0    0  0.24507976289E+02  0.20124439715E+02  0.19810846689E+02  0.37391223869E+02  0.51100000000E-03 0. -1.
         22    1    1    0    0    0  0.20968707197E+02  0.15345948144E+02 -0.14333244137E+02  0.29675354984E+02  0.00000000000E+00 0.  1.
</event>
<event>
 5    1  0.1717510E-003  0.9118800E+02  0.7818608E-02  0.1130116E+00
         25   -1    0    0    0    0  0.00000000000E+00  0.00000000000E+00  0.99999998245E-14  0.12500000000E+03  0.12500000000E+03 0.  0.
        -11    1    3    3    0    0 -0.79112722868E+01 -0.47646678907E+02 -0.13043862184E+02  0.50029357191E+02  0.51100000000E-03 0. -1.
         23    2    1    0    0    0  0.21282755722E+01 -0.17518224886E+02  0.21653854145E+02  0.97066021418E+02  0.92959697475E+02 0.  0.
         11    1    3    3    0    0  0.10039547859E+02  0.30128454021E+02  0.34697716329E+02  0.47036664227E+02  0.51100000000E-03 0.  1.
         22    1    1    0    0    0 -0.21282755722E+01  0.17518224886E+02 -0.21653854145E+02  0.27933978582E+02  0.00000000000E+00 0. -1.
</event>
<event>
 5    1  0.1717510E-003  0.9118800E+02  0.7818608E-02  0.1130116E+00
         25   -1    0    0    0    0  0.00000000000E+00  0.00000000000E+00  0.99999998245E-14  0.12500000000E+03  0.12500000000E+03 0.  0.
        -11    1    3    3    0    0  0.35949879257E+02 -0.77695645504E+01  0.20730570707E+02  0.42219859237E+02  0.51100000000E-03 0.  1.
         23    2    1    0    0    0 -0.53682891685E+01 -0.29247472488E+02 -0.40821945512E+01  0.94985045596E+02  0.90118041474E+02 0.  0.
         11    1    3    3    0    0 -0.41318168426E+02 -0.21477907937E+02 -0.24812765258E+02  0.52765186359E+02  0.51100000000E-03 0. -1.
         22    1    1    0    0    0  0.53682891685E+01  0.29247472488E+02  0.40821945512E+01  0.30014954404E+02  0.00000000000E+00 0. -1.
</event>
<event>
 5    1  0.1717510E-003  0.9118800E+02  0.7818608E-02  0.1130116E+00
         25   -1    0    0    0    0  0.00000000000E+00  0.00000000000E+00  0.99999998245E-14  0.12500000000E+03  0.12500000000E+03 0.  0.
        -11    1    3    3    0    0 -0.54352411077E+02 -0.16966628170E+02 -0.19198332553E+02  0.60088493361E+02  0.51100000000E-03 0. -1.
         23    2    1    0    0    0 -0.29445130289E+02 -0.43283023137E+01  0.20283233195E+01  0.95169411770E+02  0.90373408382E+02 0.  0.
         11    1    3    3    0    0  0.24907280787E+02  0.12638325856E+02  0.21226655872E+02  0.35080918409E+02  0.51100000000E-03 0.  1.
         22    1    1    0    0    0  0.29445130289E+02  0.43283023137E+01 -0.20283233195E+01  0.29830588230E+02  0.00000000000E+00 0. -1.
</event>
<event>
 5    1  0.1717510E-003  0.9118800E+02  0.7818608E-02  0.1130116E+00
         25   -1    0    0    0    0  0.00000000000E+00  0.00000000000E+00  0.99999998245E-14  0.12500000000E+03  0.12500000000E+03 0.  0.
        -11    1    3    3    0    0  0.46444434231E+02 -0.25219837461E+01 -0.61815162992E+01  0.46921818135E+02  0.51100000000E-03 0. -1.
         23    2    1    0    0    0  0.12011327172E+02 -0.23762671145E+02  0.16864289843E+02  0.93482690592E+02  0.88009503169E+02 0.  0.
         11    1    3    3    0    0 -0.34433107060E+02 -0.21240687399E+02  0.23045806142E+02  0.46560872457E+02  0.51100000000E-03 0.  1.
         22    1    1    0    0    0 -0.12011327172E+02  0.23762671145E+02 -0.16864289843E+02  0.31517309408E+02  0.00000000000E+00 0.  1.
</event>
<event>
 5    1  0.1717510E-003  0.9118800E+02  0.7818608E-02  0.1130116E+00
         25   -1    0    0    0    0  0.00000000000E+00  0.00000000000E+00  0.99999998245E-14  0.12500000000E+03  0.12500000000E+03 0.  0.
        -11    1    3    3    0    0  0.35387306103E+02  0.20932843770E+00 -0.21499397063E+02  0.41406875347E+02  0.51100000000E-03 0. -1.
         23    2    1    0    0    0  0.10658422446E+02 -0.30093340792E+02  0.99125710506E+01  0.91571416513E+02  0.85251710413E+02 0.  0.
         11    1    3    3    0    0 -0.24728883657E+02 -0.30302669230E+02  0.31411968114E+02  0.50164541166E+02  0.51100000000E-03 0.  1.
         22    1    1    0    0    0 -0.10658422446E+02  0.30093340792E+02 -0.99125710506E+01  0.33428583487E+02  0.00000000000E+00 0.  1.
</event>
<event>
 5    1  0.1717510E-003  0.9118800E+02  0.7818608E-02  0.1130116E+00
         25   -1    0    0    0    0  0.00000000000E+00  0.00000000000E+00  0.99999998245E-14  0.12500000000E+03  0.12500000000E+03 0.  0.
        -11    1    3    3    0    0  0.34302621811E+02  0.26781806906E+02  0.22524441046E+02  0.49002913066E+02  0.51100000000E-03 0. -1.
         23    2    1    0    0    0  0.22172341043E+02 -0.16098004696E+02  0.13436944601E+02  0.94482628836E+02  0.89418438865E+02 0.  0.
         11    1    3    3    0    0 -0.12130280768E+02 -0.42879811603E+02 -0.90874964446E+01  0.45479715770E+02  0.51100000000E-03 0.  1.
         22    1    1    0    0    0 -0.22172341043E+02  0.16098004696E+02 -0.13436944601E+02  0.30517371164E+02  0.00000000000E+00 0. -1.
</event>
<event>
 5    1  0.1717510E-003  0.9118800E+02  0.7818608E-02  0.1130116E+00
         25   -1    0    0    0    0  0.00000000000E+00  0.00000000000E+00  0.99999998245E-14  0.12500000000E+03  0.12500000000E+03 0.  0.
        -11    1    3    3    0    0 -0.44794061519E+02  0.57359905515E+01  0.30202161076E+02  0.54328446222E+02  0.51100000000E-03 0. -1.
         23    2    1    0    0    0 -0.14607402622E+02 -0.18510512363E+02  0.19233483370E+02  0.94570702246E+02  0.89541473974E+02 0.  0.
         11    1    3    3    0    0  0.30186658897E+02 -0.24246502915E+02 -0.10968677706E+02  0.40242256024E+02  0.51100000000E-03 0.  1.
         22    1    1    0    0    0  0.14607402622E+02  0.18510512363E+02 -0.19233483370E+02  0.30429297754E+02  0.00000000000E+00 0. -1.
</event>
<event>
 5    1  0.1717510E-003  0.9118800E+02  0.7818608E-02  0.1130116E+00
         25   -1    0    0    0    0  0.00000000000E+00  0.00000000000E+00  0.99999998245E-14  0.12500000000E+03  0.12500000000E+03 0.  0.
        -11    1    3    3    0    0  0.41035710527E+02 -0.39537194455E+02  0.36228483580E+01  0.57098549144E+02  0.51100000000E-03 0.  1.
         23    2    1    0    0    0  0.18221625798E+02 -0.16004818253E+02 -0.16599436487E+02  0.95610832851E+02  0.90981911459E+02 0.  0.
         11    1    3    3    0    0 -0.22814084729E+02  0.23532376202E+02 -0.20222284845E+02  0.38512283707E+02  0.51100000000E-03 0. -1.
         22    1    1    0    0    0 -0.18221625798E+02  0.16004818253E+02  0.16599436487E+02  0.29389167149E+02  0.00000000000E+00 0.  1.
</event>
<event>
 5    1  0.1717510E-003  0.9118800E+02  0.7818608E-02  0.1130116E+00
         25   -1    0    0    0    0  0.00000000000E+00  0.00000000000E+00  0.99999998245E-14  0.12500000000E+03  0.12500000000E+03 0.  0.
        -11    1    3    3    0    0  0.12509465724E+02 -0.32224216952E+02 -0.29565467547E+02  0.45486303020E+02  0.51100000000E-03 0.  1.
         23    2    1    0    0    0  0.72392396696E+01 -0.17663952744E+02  0.19962782209E+02  0.97378731183E+02  0.93379241782E+02 0.  0.
         11    1    3    3    0    0 -0.52702260549E+01  0.14560264208E+02  0.49528249756E+02  0.51892428163E+02  0.51100000000E-03 0. -1.
         22    1    1    0    0    0 -0.72392396696E+01  0.17663952744E+02 -0.19962782209E+02  0.27621268817E+02  0.00000000000E+00 0. -1.
</event>
<event>
 5    1  0.1717510E-003  0.9118800E+02  0.7818608E-02  0.1130116E+00
         25   -1    0    0    0    0  0.00000000000E+00  0.00000000000E+00  0.99999998245E-14  0.12500000000E+03  0.12500000000E+03 0.  0.
        -11    1    3    3    0    0  0.56342583093E+02  0.93531008557E+00  0.26519601997E+02  0.62278814735E+02  0.51100000000E-03 0.  1.
         23    2    1    0    0    0  0.26074956920E+02 -0.32460889241E+01  0.12771602321E+02  0.95784348415E+02  0.91219992895E+02 0.  0.
         11    1    3    3    0    0 -0.30267626173E+02 -0.41813990097E+01 -0.13747999676E+02  0.33505533680E+02  0.51100000000E-03 0. -1.
         22    1    1    0    0    0 -0.26074956920E+02  0.32460889241E+01 -0.12771602321E+02  0.29215651585E+02  0.00000000000E+00 0.  1.
</event>
<event>
 5    1  0.1717510E-003  0.9118800E+02  0.7818608E-02  0.1130116E+00
         25   -1    0    0    0    0  0.00000000000E+00  0.00000000000E+00  0.99999998245E-14  0.12500000000E+03  0.12500000000E+03 0.  0.
        -11    1    3    3    0    0 -0.30920915158E+01 -0.11537746003E+02 -0.31635007822E+02  0.33815001596E+02  0.51100000000E-03 0. -1.
         23    2    1    0    0    0  0.10982674091E+02  0.21436695431E+02  0.17919351933E+02  0.94979103697E+02  0.90109799268E+02 0.  0.
         11    1    3    3    0    0  0.14074765606E+02  0.32974441434E+02  0.49554359755E+02  0.61164102100E+02  0.51100000000E-03 0.  1.
         22    1    1    0    0    0 -0.10982674091E+02 -0.21436695431E+02 -0.17919351933E+02  0.30020896303E+02  0.00000000000E+00 0.  1.
</event>
<event>
 5    1  0.1717510E-003  0.9118800E+02  0.7818608E-02  0.1130116E+00
         25   -1    0    0    0    0  0.00000000000E+00  0.00000000000E+00  0.99999998245E-14  0.12500000000E+03  0.12500000000E+03 0.  0.
        -11    1    3    3    0    0  0.82935864371E+01 -0.47701815320E+02 -0.88895550849E+01  0.49226730042E+02  0.51100000000E-03 0. -1.
         23    2    1    0    0    0  0.14184934003E+02 -0.43936638723E+01 -0.25094328801E+02  0.95841091021E+02  0.91297714950E+02 0.  0.
         11    1    3    3    0    0  0.58913475659E+01  0.43308151448E+02 -0.16204773716E+02  0.46614360978E+02  0.51100000000E-03 0.  1.
         22    1    1    0    0    0 -0.14184934003E+02  0.43936638723E+01  0.25094328801E+02  0.29158908979E+02  0.00000000000E+00 0.  1.
</event>
<event>
 5    1  0.1717510E-003  0.9118800E+02  0.7818608E-02  0.1130116E+00
         25   -1    0    0    0    0  0.00000000000E+00  0.00000000000E+00  0.99999998245E-14  0.12500000000E+03  0.12500000000E+03 0.  0.
        -11    1    3    3    0    0 -0.13419591605E+01 -0.67628238750E+01  0.35555218622E+02  0.36217540124E+02  0.51100000000E-03 0.  1.
         23    2    1    0    0    0  0.37617416834E+00 -0.23627858554E+02 -0.19837608313E+02  0.94146346887E+02  0.88947100693E+02 0.  0.
         11    1    3    3    0    0  0.17181333289E+01 -0.16865034679E+02 -0.55392826934E+02  0.57928806762E+02  0.51100000000E-03 0. -1.
         22    1    1    0    0    0 -0.37617416834E+00  0.23627858554E+02  0.19837608313E+02  0.30853653113E+02  0.00000000000E+00 0. -1.
</event>
<event>
 5    1  0.1717510E-003  0.9118800E+02  0.7818608E-02  0.1130116E+00
         25   -1    0    0    0    0  0.00000000000E+00  0.00000000000E+00  0.99999998245E-14  0.12500000000E+03  0.12500000000E+03 0.  0.
        -11    1    3    3    0    0  0.28730699510E+02 -0.48285186373E+02 -0.15050028022E+02  0.58167135576E+02  0.51100000000E-03 0. -1.
         23    2    1    0    0    0  0.15770507317E+02 -0.19296229460E+02  0.95257663025E+01  0.98320539809E+02  0.94631574817E+02 0.  0.
         11    1    3    3    0    0 -0.12960192193E+02  0.28988956913E+02  0.24575794324E+02  0.40153404233E+02  0.51100000000E-03 0.  1.
         22    1    1    0    0    0 -0.15770507317E+02  0.19296229460E+02 -0.95257663025E+01  0.26679460191E+02  0.00000000000E+00 0. -1.
</event>
<event>
 5    1  0.1717510E-003  0.9118800E+02  0.7818608E-02  0.1130116E+00
         25   -1    0    0    0    0  0.00000000000E+00  0.00000000000E+00  0.99999998245E-14  0.12500000000E+03  0.12500000000E+03 0.  0.
        -11    1    3    3    0    0 -0.17925448517E+02 -0.14324637892E+02 -0.23974051533E+02  0.33185420028E+02  0.51100000000E-03 0. -1.
         23    2    1    0    0    0  0.61602306522E+01  0.17276274031E+02  0.23562135178E+02  0.95140457133E+02  0.90333350891E+02 0.  0.
         11    1    3    3    0    0  0.24085679169E+02  0.31600911923E+02  0.47536186711E+02  0.61955037105E+02  0.51100000000E-03 0.  1.
         22    1    1    0    0    0 -0.61602306522E+01 -0.17276274031E+02 -0.23562135178E+02  0.29859542867E+02  0.00000000000E+00 0.  1.
</event>
<event>
 5    1  0.1717510E-003  0.9118800E+02  0.7818608E-02  0.1130116E+00
         25   -1    0    0    0    0  0.00000000000E+00  0.00000000000E+00  0.99999998245E-14  0.12500000000E+03  0.12500000000E+03 0.  0.
        -11    1    3    3    0    0 -0.56846025489E+00 -0.31661103584E+02 -0.40798052944E+02  0.51645229707E+02  0.51100000000E-03 0.  1.
         23    2    1    0    0    0  0.25083396143E+02 -0.11353097156E+02 -0.13115213405E+02  0.94502813248E+02  0.89446650647E+02 0.  0.
         11    1    3    3    0    0  0.25651856398E+02  0.20308006428E+02  0.27682839539E+02  0.42857583541E+02  0.51100000000E-03 0. -1.
         22    1    1    0    0    0 -0.25083396143E+02  0.11353097156E+02  0.13115213405E+02  0.30497186752E+02  0.00000000000E+00 0. -1.
</event>
<event>
 5    1  0.1717510E-003  0.9118800E+02  0.7818608E-02  0.1130116E+00
         25   -1    0    0    0    0  0.00000000000E+00  0.00000000000E+00  0.99999998245E-14  0.12500000000E+03  0.12500000000E+03 0.  0.
        -11    1    3    3    0    0  0.38045365086E+02  0.20813867073E+01  0.87225316805E+01  0.39087907776E+02  0.51100000000E-03 0.  1.
         23    2    1    0    0    0 -0.14283581228E+02  0.73593749271E+01  0.25989767633E+02  0.94444327636E+02  0.89364880736E+02 0.  0.
         11    1    3    3    0    0 -0.52328946314E+02  0.52779882198E+01  0.17267235953E+02  0.55356419860E+02  0.51100000000E-03 0. -1.
         22    1    1    0    0    0  0.14283581228E+02 -0.73593749271E+01 -0.25989767633E+02  0.30555672364E+02  0.00000000000E+00 0. -1.
</event>
<event>
 5    1  0.1717510E-003  0.9118800E+02  0.7818608E-02  0.1130116E+00
         25   -1    0    0    0    0  0.00000000000E+00  0.00000000000E+00  0.99999998245E-14  0.12500000000E+03  0.12500000000E+03 0.  0.
        -11    1    3    3    0    0 -0.20115422926E+02 -0.47240955548E+02 -0.87531387254E+01  0.52086039957E+02  0.51100000000E-03 0. -1.
         23    2    1    0    0    0 -0.29109039436E+02 -0.72368112437E+01  0.33008660583E+01  0.94823795292E+02  0.89894097821E+02 0.  0.
         11    1    3    3    0    0 -0.89936165095E+01  0.40004144305E+02  0.12054004784E+02  0.42737755335E+02  0.51100000000E-03 0.  1.
         22    1    1    0    0    0  0.29109039436E+02  0.72368112437E+01 -0.33008660583E+01  0.30176204708E+02  0.00000000000E+00 0. -1.
</event>
<event>
 5    1  0.1717510E-003  0.9118800E+02  0.7818608E-02  0.1130116E+00
         25   -1    0    0    0    0  0.00000000000E+00  0.00000000000E+00  0.99999998245E-14  0.12500000000E+03  0.12500000000E+03 0.  0.
        -11    1    3    3    0    0 -0.78264302209E+01  0.31809930367E+02  0.11279080947E+02  0.34645957155E+02  0.51100000000E-03 0. -1.
         23    2    1    0    0    0  0.15843527742E+02 -0.23133543525E+02  0.12063148387E+02  0.94476275517E+02  0.89409556979E+02 0.  0.
         11    1    3    3    0    0  0.23669957963E+02 -0.54943473891E+02  0.78406744003E+00  0.59830318362E+02  0.51100000000E-03 0.  1.
         22    1    1    0    0    0 -0.15843527742E+02  0.23133543525E+02 -0.12063148387E+02  0.30523724483E+02  0.00000000000E+00 0.  1.
</event>
<event>
 5    1  0.1717510E-003  0.9118800E+02  0.7818608E-02  0.1130116E+00
         25   -1    0    0    0    0  0.00000000000E+00  0.00000000000E+00  0.99999998245E-14  0.12500000000E+03  0.12500000000E+03 0.  0.
        -11    1    3    3    0    0 -0.92791650220E+01  0.47102471769E+02  0.18947497224E+02  0.51611562673E+02  0.51100000000E-03 0. -1.
         23    2    1    0    0    0 -0.60037503147E+00  0.25965389788E+02 -0.16821671527E+02  0.94056009469E+02  0.88820056109E+02 0.  0.
         11    1    3    3    0    0  0.86787899905E+01 -0.21137081981E+02 -0.35769168751E+02  0.42444446795E+02  0.51100000000E-03 0.  1.
         22    1    1    0    0    0  0.60037503147E+00 -0.25965389788E+02  0.16821671527E+02  0.30943990531E+02  0.00000000000E+00 0. -1.
</event>
<event>
 5    1  0.1717510E-003  0.9118800E+02  0.7818608E-02  0.1130116E+00
         25   -1    0    0    0    0  0.00000000000E+00  0.00000000000E+00  0.99999998245E-14  0.12500000000E+03  0.12500000000E+03 0.  0.
        -11    1    3    3    0    0 -0.19499217547E+02  0.21408907203E+02  0.24867561519E+02  0.38170098359E+02  0.51100000000E-03 0.  1.
         23    2    1    0    0    0 -0.13892334986E+02 -0.24905199501E+02 -0.81690454043E+01  0.95335218923E+02  0.90602454331E+02 0.  0.
         11    1    3    3    0    0  0.56068825615E+01 -0.46314106704E+02 -0.33036606923E+02  0.57165120564E+02  0.51100000000E-03 0. -1.
         22    1    1    0    0    0  0.13892334986E+02  0.24905199501E+02  0.81690454043E+01  0.29664781077E+02  0.00000000000E+00 0. -1.
</event>
<event>
 5    1  0.1717510E-003  0.9118800E+02  0.7818608E-02  0.1130116E+00
         25   -1    0    0    0    0  0.00000000000E+00  0.00000000000E+00  0.99999998245E-14  0.12500000000E+03  0.12500000000E+03 0.  0.
        -11    1    3    3    0    0 -0.31108670601E+02  0.23077991409E+02  0.19442375682E+02  0.43339924394E+02  0.51100000000E-03 0.  1.
         23    2    1    0    0    0 -0.10782313408E+02 -0.24861752763E+02  0.89815637455E+01  0.96451208078E+02  0.92129267986E+02 0.  0.
         11    1    3    3    0    0  0.20326357193E+02 -0.47939744172E+02 -0.10460811936E+02  0.53111283685E+02  0.51100000000E-03 0. -1.
         22    1    1    0    0    0  0.10782313408E+02  0.24861752763E+02 -0.89815637455E+01  0.28548791922E+02  0.00000000000E+00 0. -1.
</event>
<event>
 5    1  0.1717510E-003  0.9118800E+02  0.7818608E-02  0.1130116E+00
         25   -1    0    0    0    0  0.00000000000E+00  0.00000000000E+00  0.99999998245E-14  0.12500000000E+03  0.12500000000E+03 0.  0.
        -11    1    3    3    0    0  0.34023234555E+02  0.21464932639E+02  0.43736938789E+02  0.59424268087E+02  0.51100000000E-03 0.  1.
         23    2    1    0    0    0  0.12436182815E+02  0.23006658319E+02  0.30622112956E+02  0.84729927093E+02  0.74548519592E+02 0.  0.
         11    1    3    3    0    0 -0.21587051740E+02  0.15417256795E+01 -0.13114825832E+02  0.25305659007E+02  0.51100000000E-03 0. -1.
         22    1    1    0    0    0 -0.12436182815E+02 -0.23006658319E+02 -0.30622112956E+02  0.40270072907E+02  0.00000000000E+00 0.  1.
</event>
<event>
 5    1  0.1717510E-003  0.9118800E+02  0.7818608E-02  0.1130116E+00
         25   -1    0    0    0    0  0.00000000000E+00  0.00000000000E+00  0.99999998245E-14  0.12500000000E+03  0.12500000000E+03 0.  0.
        -11    1    3    3    0    0 -0.10678006420E+02 -0.20814974499E+02  0.31079358215E+02  0.38899993469E+02  0.51100000000E-03 0.  1.
         23    2    1    0    0    0 -0.20325388822E+01  0.29287543374E+02  0.93795436270E+01  0.94180083552E+02  0.88994499201E+02 0.  0.
         11    1    3    3    0    0  0.86454675381E+01  0.50102517873E+02 -0.21699814588E+02  0.55280090084E+02  0.51100000000E-03 0. -1.
         22    1    1    0    0    0  0.20325388822E+01 -0.29287543374E+02 -0.93795436270E+01  0.30819916448E+02  0.00000000000E+00 0. -1.
</event>
<event>
 5    1  0.1717510E-003  0.9118800E+02  0.7818608E-02  0.1130116E+00
         25   -1    0    0    0    0  0.00000000000E+00  0.00000000000E+00  0.99999998245E-14  0.12500000000E+03  0.12500000000E+03 0.  0.
        -11    1    3    3    0    0 -0.24021366772E+02  0.28684962010E+02 -0.10247120855E+02  0.38792481142E+02  0.51100000000E-03 0. -1.
         23    2    1    0    0    0  0.26187705525E+02  0.68224050830E+01  0.84353109674E+01  0.96654001995E+02  0.92404006941E+02 0.  0.
         11    1    3    3    0    0  0.50209072297E+02 -0.21862556927E+02  0.18682431822E+02  0.57861520853E+02  0.51100000000E-03 0.  1.
         22    1    1    0    0    0 -0.26187705525E+02 -0.68224050830E+01 -0.84353109674E+01  0.28345998005E+02  0.00000000000E+00 0.  1.
</event>
<event>
 5    1  0.1717510E-003  0.9118800E+02  0.7818608E-02  0.1130116E+00
         25   -1    0    0    0    0  0.00000000000E+00  0.00000000000E+00  0.99999998245E-14  0.12500000000E+03  0.12500000000E+03 0.  0.
        -11    1    3    3    0    0  0.40473308102E+02  0.25734585946E+02  0.10269866746E+02  0.49049237973E+02  0.51100000000E-03 0. -1.
         23    2    1    0    0    0  0.16816249743E+02  0.74276365362E+01 -0.24148707728E+02  0.94650105027E+02  0.89652251821E+02 0.  0.
         11    1    3    3    0    0 -0.23657058358E+02 -0.18306949410E+02 -0.34418574475E+02  0.45600867053E+02  0.51100000000E-03 0.  1.
         22    1    1    0    0    0 -0.16816249743E+02 -0.74276365362E+01  0.24148707728E+02  0.30349894973E+02  0.00000000000E+00 0.  1.
</event>
<event>
 5    1  0.1717510E-003  0.9118800E+02  0.7818608E-02  0.1130116E+00
         25   -1    0    0    0    0  0.00000000000E+00  0.00000000000E+00  0.99999998245E-14  0.12500000000E+03  0.12500000000E+03 0.  0.
        -11    1    3    3    0    0  0.32229161906E+02 -0.18808685341E+02 -0.50733027419E+01  0.37659313886E+02  0.51100000000E-03 0.  1.
         23    2    1    0    0    0 -0.19815360861E+02 -0.85843210518E+01  0.19306157791E+02  0.96033349821E+02  0.91560567141E+02 0.  0.
         11    1    3    3    0    0 -0.52044522767E+02  0.10224364289E+02  0.24379460533E+02  0.58374035934E+02  0.51100000000E-03 0. -1.
         22    1    1    0    0    0  0.19815360861E+02  0.85843210518E+01 -0.19306157791E+02  0.28966650179E+02  0.00000000000E+00 0. -1.
</event>
<event>
 5    1  0.1717510E-003  0.9118800E+02  0.7818608E-02  0.1130116E+00
         25   -1    0    0    0    0  0.00000000000E+00  0.00000000000E+00  0.99999998245E-14  0.12500000000E+03  0.12500000000E+03 0.  0.
        -11    1    3    3    0    0 -0.64263800138E+01  0.42902473018E+02 -0.19275671203E+02  0.47470749433E+02  0.51100000000E-03 0.  1.
         23    2    1    0    0    0  0.12942687865E+02 -0.13140700248E+00 -0.26780498367E+02  0.95255663905E+02  0.90492629403E+02 0.  0.
         11    1    3    3    0    0  0.19369067878E+02 -0.43033880020E+02 -0.75048271635E+01  0.47784914472E+02  0.51100000000E-03 0. -1.
         22    1    1    0    0    0 -0.12942687865E+02  0.13140700248E+00  0.26780498367E+02  0.29744336095E+02  0.00000000000E+00 0.  1.
</event>
<event>
 5    1  0.1717510E-003  0.9118800E+02  0.7818608E-02  0.1130116E+00
         25   -1    0    0    0    0  0.00000000000E+00  0.00000000000E+00  0.99999998245E-14  0.12500000000E+03  0.12500000000E+03 0.  0.
        -11    1    3    3    0    0  0.40921406910E+01 -0.33548947031E+02  0.22782022202E+01  0.33874292139E+02  0.51100000000E-03 0.  1.
         23    2    1    0    0    0 -0.16803782995E+02  0.19631146281E+02 -0.16875063390E+02  0.94137129238E+02  0.88934145914E+02 0.  0.
         11    1    3    3    0    0 -0.20895923686E+02  0.53180093312E+02 -0.19153265610E+02  0.60262837099E+02  0.51100000000E-03 0. -1.
         22    1    1    0    0    0  0.16803782995E+02 -0.19631146281E+02  0.16875063390E+02  0.30862870762E+02  0.00000000000E+00 0. -1.
</event>
<event>
 5    1  0.1717510E-003  0.9118800E+02  0.7818608E-02  0.1130116E+00
         25   -1    0    0    0    0  0.00000000000E+00  0.00000000000E+00  0.99999998245E-14  0.12500000000E+03  0.12500000000E+03 0.  0.
        -11    1    3    3    0    0 -0.28323027599E+02 -0.15005070011E+02 -0.11851328425E+02  0.34173088888E+02  0.51100000000E-03 0. -1.
         23    2    1    0    0    0  0.16664762118E+02  0.13322822299E+02 -0.28057359928E+02  0.89751917264E+02  0.82540773657E+02 0.  0.
         11    1    3    3    0    0  0.44987789717E+02  0.28327892310E+02 -0.16206031503E+02  0.55578828376E+02  0.51100000000E-03 0.  1.
         22    1    1    0    0    0 -0.16664762118E+02 -0.13322822299E+02  0.28057359928E+02  0.35248082736E+02  0.00000000000E+00 0.  1.
</event>
<event>
 5    1  0.1717510E-003  0.9118800E+02  0.7818608E-02  0.1130116E+00
         25   -1    0    0    0    0  0.00000000000E+00  0.00000000000E+00  0.99999998245E-14  0.12500000000E+03  0.12500000000E+03 0.  0.
        -11    1    3    3    0    0  0.28945048425E+01  0.35496145868E+02  0.86877865248E+01  0.36658316447E+02  0.51100000000E-03 0. -1.
         23    2    1    0    0    0 -0.22397108825E+02 -0.15775002043E+02 -0.84325247047E+01  0.96336632332E+02  0.91973681470E+02 0.  0.
         11    1    3    3    0    0 -0.25291613667E+02 -0.51271147911E+02 -0.17120311230E+02  0.59678315885E+02  0.51100000000E-03 0.  1.
         22    1    1    0    0    0  0.22397108825E+02  0.15775002043E+02  0.84325247047E+01  0.28663367668E+02  0.00000000000E+00 0.  1.
</event>
<event>
 5    1  0.1717510E-003  0.9118800E+02  0.7818608E-02  0.1130116E+00
         25   -1    0    0    0    0  0.00000000000E+00  0.00000000000E+00  0.99999998245E-14  0.12500000000E+03  0.12500000000E+03 0.  0.
        -11    1    3    3    0    0 -0.21998758064E+01 -0.91705582982E+01 -0.32874144279E+02  0.34200116307E+02  0.51100000000E-03 0.  1.
         23    2    1    0    0    0 -0.17720381730E+02 -0.22025270939E+02  0.19726324225E+02  0.90528963520E+02  0.83709264003E+02 0.  0.
         11    1    3    3    0    0 -0.15520505924E+02 -0.12854712641E+02  0.52600468504E+02  0.56328847213E+02  0.51100000000E-03 0. -1.
         22    1    1    0    0    0  0.17720381730E+02  0.22025270939E+02 -0.19726324225E+02  0.34471036480E+02  0.00000000000E+00 0. -1.
</event>
<event>
 5    1  0.1717510E-003  0.9118800E+02  0.7818608E-02  0.1130116E+00
         25   -1    0    0    0    0  0.00000000000E+00  0.00000000000E+00  0.99999998245E-14  0.12500000000E+03  0.12500000000E+03 0.  0.
        -11    1    3    3    0    0  0.53379864513E+02  0.32482078046E+02  0.12455053293E+01  0.62498372886E+02  0.51100000000E-03 0.  1.
         23    2    1    0    0    0  0.26554883644E+02  0.16131236114E+02  0.30123594099E+00  0.93927997055E+02  0.88639716063E+02 0.  0.
         11    1    3    3    0    0 -0.26824980868E+02 -0.16350841932E+02 -0.94426938834E+00  0.31429624169E+02  0.51100000000E-03 0. -1.
         22    1    1    0    0    0 -0.26554883644E+02 -0.16131236114E+02 -0.30123594099E+00  0.31072002945E+02  0.00000000000E+00 0.  1.
</event>
<event>
 5    1  0.1717510E-003  0.9118800E+02  0.7818608E-02  0.1130116E+00
         25   -1    0    0    0    0  0.00000000000E+00  0.00000000000E+00  0.99999998245E-14  0.12500000000E+03  0.12500000000E+03 0.  0.
        -11    1    3    3    0    0 -0.20582915442E+02 -0.48840712772E+02  0.25277430015E+02  0.58719844181E+02  0.51100000000E-03 0. -1.
         23    2    1    0    0    0 -0.20101326793E+02 -0.17984340097E+02  0.95808968850E+00  0.98010784312E+02  0.94221526617E+02 0.  0.
         11    1    3    3    0    0  0.48158864909E+00  0.30856372675E+02 -0.24319340327E+02  0.39290940132E+02  0.51100000000E-03 0.  1.
         22    1    1    0    0    0  0.20101326793E+02  0.17984340097E+02 -0.95808968850E+00  0.26989215688E+02  0.00000000000E+00 0. -1.
</event>
<event>
 5    1  0.1717510E-003  0.9118800E+02  0.7818608E-02  0.1130116E+00
         25   -1    0    0    0    0  0.00000000000E+00  0.00000000000E+00  0.99999998245E-14  0.12500000000E+03  0.12500000000E+03 0.  0.
        -11    1    3    3    0    0  0.17617557777E+01  0.42336513383E+02 -0.45789195603E+02  0.62386974467E+02  0.51100000000E-03 0.  1.
         23    2    1    0    0    0  0.33977832516E+01  0.19922214920E+02 -0.20690457459E+02  0.96077091982E+02  0.91620265201E+02 0.  0.
         11    1    3    3    0    0  0.16360274739E+01 -0.22414298463E+02  0.25098738144E+02  0.33690117515E+02  0.51100000000E-03 0. -1.
         22    1    1    0    0    0 -0.33977832516E+01 -0.19922214920E+02  0.20690457459E+02  0.28922908018E+02  0.00000000000E+00 0.  1.
</event>
<event>
 5    1  0.1717510E-003  0.9118800E+02  0.7818608E-02  0.1130116E+00
         25   -1    0    0    0    0  0.00000000000E+00  0.00000000000E+00  0.99999998245E-14  0.12500000000E+03  0.12500000000E+03 0.  0.
        -11    1    3    3    0    0 -0.57418875202E+02  0.59054290051E+01  0.10907113031E+02  0.58743224598E+02  0.51100000000E-03 0. -1.
         23    2    1    0    0    0 -0.16223121589E+02  0.15459751906E+02 -0.64218226294E+00  0.10258112400E+03  0.10010135364E+03 0.  0.
         11    1    3    3    0    0  0.41195753614E+02  0.95543229011E+01 -0.11549295294E+02  0.43837899401E+02  0.51100000000E-03 0.  1.
         22    1    1    0    0    0  0.16223121589E+02 -0.15459751906E+02  0.64218226294E+00  0.22418876001E+02  0.00000000000E+00 0. -1.
</event>
<event>
 5    1  0.1717510E-003  0.9118800E+02  0.7818608E-02  0.1130116E+00
         25   -1    0    0    0    0  0.00000000000E+00  0.00000000000E+00  0.99999998245E-14  0.12500000000E+03  0.12500000000E+03 0.  0.
        -11    1    3    3    0    0  0.22965243525E+02 -0.29117719185E+02 -0.29279387669E+02  0.47249619292E+02  0.51100000000E-03 0.  1.
         23    2    1    0    0    0 -0.17875248245E+02 -0.40021775336E+01 -0.22988793560E+02  0.95605671395E+02  0.90974819861E+02 0.  0.
         11    1    3    3    0    0 -0.40840491770E+02  0.25115541651E+02  0.62905941091E+01  0.48356052103E+02  0.51100000000E-03 0. -1.
         22    1    1    0    0    0  0.17875248245E+02  0.40021775336E+01  0.22988793560E+02  0.29394328605E+02  0.00000000000E+00 0.  1.
</event>
<event>
 5    1  0.1717510E-003  0.9118800E+02  0.7818608E-02  0.1130116E+00
         25   -1    0    0    0    0  0.00000000000E+00  0.00000000000E+00  0.99999998245E-14  0.12500000000E+03  0.12500000000E+03 0.  0.
        -11    1    3    3    0    0 -0.39557865065E+01  0.32389629209E+02 -0.15670290793E+02  0.36197988079E+02  0.51100000000E-03 0. -1.
         23    2    1    0    0    0  0.26635085960E+02 -0.37988865166E+01  0.16469167223E+02  0.93454908276E+02  0.87970035064E+02 0.  0.
         11    1    3    3    0    0  0.30590872466E+02 -0.36188515726E+02  0.32139458015E+02  0.57256920197E+02  0.51100000000E-03 0.  1.
         22    1    1    0    0    0 -0.26635085960E+02  0.37988865166E+01 -0.16469167223E+02  0.31545091724E+02  0.00000000000E+00 0.  1.
</event>
<event>
 5    1  0.1717510E-003  0.9118800E+02  0.7818608E-02  0.1130116E+00
         25   -1    0    0    0    0  0.00000000000E+00  0.00000000000E+00  0.99999998245E-14  0.12500000000E+03  0.12500000000E+03 0.  0.
        -11    1    3    3    0    0 -0.22393211414E+02  0.48594383920E+02 -0.19717094257E+02  0.57023099462E+02  0.51100000000E-03 0.  1.
         23    2    1    0    0    0 -0.21624041584E+02  0.18543447167E+02  0.51694740509E+01  0.96048625779E+02  0.91581419758E+02 0.  0.
         11    1    3    3    0    0  0.76916982985E+00 -0.30050936753E+02  0.24886568308E+02  0.39025526318E+02  0.51100000000E-03 0. -1.
         22    1    1    0    0    0  0.21624041584E+02 -0.18543447167E+02 -0.51694740509E+01  0.28951374221E+02  0.00000000000E+00 0.  1.
</event>
<event>
 5    1  0.1717510E-003  0.9118800E+02  0.7818608E-02  0.1130116E+00
         25   -1    0    0    0    0  0.00000000000E+00  0.00000000000E+00  0.99999998245E-14  0.12500000000E+03  0.12500000000E+03 0.  0.
        -11    1    3    3    0    0  0.41153534551E+02  0.21947636596E+02  0.64774448598E+01  0.47087890697E+02  0.51100000000E-03 0.  1.
         23    2    1    0    0    0 -0.37146141666E+01  0.29661010326E+02 -0.64609261536E+01  0.94417039732E+02  0.89326703359E+02 0.  0.
         11    1    3    3    0    0 -0.44868148717E+02  0.77133737305E+01 -0.12938371013E+02  0.47329149035E+02  0.51100000000E-03 0. -1.
         22    1    1    0    0    0  0.37146141666E+01 -0.29661010326E+02  0.64609261536E+01  0.30582960268E+02  0.00000000000E+00 0. -1.
</event>
<event>
 5    1  0.1717510E-003  0.9118800E+02  0.7818608E-02  0.1130116E+00
         25   -1    0    0    0    0  0.00000000000E+00  0.00000000000E+00  0.99999998245E-14  0.12500000000E+03  0.12500000000E+03 0.  0.
        -11    1    3    3    0    0 -0.46506907751E+02 -0.35448268657E+02  0.65846826045E+01  0.58845817733E+02  0.51100000000E-03 0.  1.
         23    2    1    0    0    0 -0.17855574253E+02 -0.17092065019E+02 -0.11897113141E+02  0.97568238853E+02  0.93632578269E+02 0.  0.
         11    1    3    3    0    0  0.28651333498E+02  0.18356203638E+02 -0.18481795745E+02  0.38722421121E+02  0.51100000000E-03 0. -1.
         22    1    1    0    0    0  0.17855574253E+02  0.17092065019E+02  0.11897113141E+02  0.27431761147E+02  0.00000000000E+00 0.  1.
</event>
<event>
 5    1  0.1717510E-003  0.9118800E+02  0.7818608E-02  0.1130116E+00
         25   -1    0    0    0    0  0.00000000000E+00  0.00000000000E+00  0.99999998245E-14  0.12500000000E+03  0.12500000000E+03 0.  0.
        -11    1    3    3    0    0 -0.17495050540E+02 -0.41524845452E+02 -0.23076361945E+02  0.50625172237E+02  0.51100000000E-03 0. -1.
         23    2    1    0    0    0 -0.12306320442E+02  0.43566471553E+01 -0.24954196047E+02  0.96837297757E+02  0.92651629448E+02 0.  0.
         11    1    3    3    0    0  0.51887300988E+01  0.45881492607E+02 -0.18778341023E+01  0.46212125520E+02  0.51100000000E-03 0.  1.
         22    1    1    0    0    0  0.12306320442E+02 -0.43566471553E+01  0.24954196047E+02  0.28162702243E+02  0.00000000000E+00 0. -1.
</event>
<event>
 5    1  0.1717510E-003  0.9118800E+02  0.7818608E-02  0.1130116E+00
         25   -1    0    0    0    0  0.00000000000E+00  0.00000000000E+00  0.99999998245E-14  0.12500000000E+03  0.12500000000E+03 0.  0.
        -11    1    3    3    0    0 -0.43735156813E+01  0.53579912317E+02 -0.21438239451E+02  0.57875147986E+02  0.51100000000E-03 0. -1.
         23    2    1    0    0    0  0.14732376712E+02  0.24230651242E+02 -0.67566973062E+01  0.95848321803E+02  0.91307614419E+02 0.  0.
         11    1    3    3    0    0  0.19105892393E+02 -0.29349261075E+02  0.14681542145E+02  0.37973173818E+02  0.51100000000E-03 0.  1.
         22    1    1    0    0    0 -0.14732376712E+02 -0.24230651242E+02  0.67566973062E+01  0.29151678197E+02  0.00000000000E+00 0. -1.
</event>
<event>
 5    1  0.1717510E-003  0.9118800E+02  0.7818608E-02  0.1130116E+00
         25   -1    0    0    0    0  0.00000000000E+00  0.00000000000E+00  0.99999998245E-14  0.12500000000E+03  0.12500000000E+03 0.  0.
        -11    1    3    3    0    0 -0.39600381088E+02  0.39644178314E+02  0.22501809742E+02  0.60383627735E+02  0.51100000000E-03 0.  1.
         23    2    1    0    0    0 -0.18007954398E+02  0.13139859117E+02  0.20638657537E+02  0.94620788289E+02  0.89611366870E+02 0.  0.
         11    1    3    3    0    0  0.21592426690E+02 -0.26504319197E+02 -0.18631522041E+01  0.34237160554E+02  0.51100000000E-03 0. -1.
         22    1    1    0    0    0  0.18007954398E+02 -0.13139859117E+02 -0.20638657537E+02  0.30379211711E+02  0.00000000000E+00 0.  1.
</event>
<event>
 5    1  0.1717510E-003  0.9118800E+02  0.7818608E-02  0.1130116E+00
         25   -1    0    0    0    0  0.00000000000E+00  0.00000000000E+00  0.99999998245E-14  0.12500000000E+03  0.12500000000E+03 0.  0.
        -11    1    3    3    0    0 -0.34646539700E+02 -0.57617789643E+01 -0.30791173691E+02  0.46708427372E+02  0.51100000000E-03 0. -1.
         23    2    1    0    0    0 -0.54500458870E+00  0.22946661698E+02 -0.23984820892E+02  0.91801838209E+02  0.85588898534E+02 0.  0.
         11    1    3    3    0    0  0.34101535112E+02  0.28708440662E+02  0.68063527990E+01  0.45093410837E+02  0.51100000000E-03 0.  1.
         22    1    1    0    0    0  0.54500458870E+00 -0.22946661698E+02  0.23984820892E+02  0.33198161791E+02  0.00000000000E+00 0. -1.
</event>
<event>
 5    1  0.1717510E-003  0.9118800E+02  0.7818608E-02  0.1130116E+00
         25   -1    0    0    0    0  0.00000000000E+00  0.00000000000E+00  0.99999998245E-14  0.12500000000E+03  0.12500000000E+03 0.  0.
        -11    1    3    3    0    0 -0.23641970781E+02 -0.10007649372E+02  0.55822802114E+02  0.61443315865E+02  0.51100000000E-03 0. -1.
         23    2    1    0    0    0 -0.57699404942E+01 -0.84118573558E+01  0.32907810954E+02  0.90547488055E+02  0.83736921450E+02 0.  0.
         11    1    3    3    0    0  0.17872030287E+02  0.15957920161E+01 -0.22914991160E+02  0.29104172190E+02  0.51100000000E-03 0.  1.
         22    1    1    0    0    0  0.57699404942E+01  0.84118573558E+01 -0.32907810954E+02  0.34452511945E+02  0.00000000000E+00 0. -1.
</event>
<event>
 5    1  0.1717510E-003  0.9118800E+02  0.7818608E-02  0.1130116E+00
         25   -1    0    0    0    0  0.00000000000E+00  0.00000000000E+00  0.99999998245E-14  0.12500000000E+03  0.12500000000E+03 0.  0.
        -11    1    3    3    0    0  0.46252663905E+02 -0.12744056969E+02  0.30513510848E+02  0.56857666597E+02  0.51100000000E-03 0.  1.
         23    2    1    0    0    0  0.27948370700E+02 -0.31198593852E+01 -0.34963992677E+01  0.96661514592E+02  0.92414169087E+02 0.  0.
         11    1    3    3    0    0 -0.18304293205E+02  0.96241975834E+01 -0.34009910116E+02  0.39803847995E+02  0.51100000000E-03 0. -1.
         22    1    1    0    0    0 -0.27948370700E+02  0.31198593852E+01  0.34963992677E+01  0.28338485408E+02  0.00000000000E+00 0.  1.
</event>
<event>
 5    1  0.1717510E-003  0.9118800E+02  0.7818608E-02  0.1130116E+00
         25   -1    0    0    0    0  0.00000000000E+00  0.00000000000E+00  0.99999998245E-14  0.12500000000E+03  0.12500000000E+03 0.  0.
        -11    1    3    3    0    0  0.78297919290E+01 -0.48675939571E+02 -0.19700526047E+02  0.53092028230E+02  0.51100000000E-03 0.  1.
         23    2    1    0    0    0 -0.18416869892E+00 -0.70000557128E+01 -0.27829580704E+02  0.96302957290E+02  0.91927902851E+02 0.  0.
         11    1    3    3    0    0 -0.80139606280E+01  0.41675883859E+02 -0.81290546570E+01  0.43210929060E+02  0.51100000000E-03 0. -1.
         22    1    1    0    0    0  0.18416869892E+00  0.70000557128E+01  0.27829580704E+02  0.28697042710E+02  0.00000000000E+00 0.  1.
</event>
<event>
 5    1  0.1717510E-003  0.9118800E+02  0.7818608E-02  0.1130116E+00
         25   -1    0    0    0    0  0.00000000000E+00  0.00000000000E+00  0.99999998245E-14  0.12500000000E+03  0.12500000000E+03 0.  0.
        -11    1    3    3    0    0  0.51121214290E+02 -0.15113993420E+02 -0.28843140036E+01  0.53386614569E+02  0.51100000000E-03 0.  1.
         23    2    1    0    0    0  0.19746473280E+02 -0.11294160562E+02  0.21801934111E+02  0.93491182174E+02  0.88021562946E+02 0.  0.
         11    1    3    3    0    0 -0.31374741010E+02  0.38198328576E+01  0.24686248115E+02  0.40104567605E+02  0.51100000000E-03 0. -1.
         22    1    1    0    0    0 -0.19746473280E+02  0.11294160562E+02 -0.21801934111E+02  0.31508817826E+02  0.00000000000E+00 0.  1.
</event>
<event>
 5    1  0.1717510E-003  0.9118800E+02  0.7818608E-02  0.1130116E+00
         25   -1    0    0    0    0  0.00000000000E+00  0.00000000000E+00  0.99999998245E-14  0.12500000000E+03  0.12500000000E+03 0.  0.
        -11    1    3    3    0    0  0.39945032234E+02  0.23580722952E+02 -0.29217139303E+01  0.46477871162E+02  0.51100000000E-03 0. -1.
         23    2    1    0    0    0 -0.61874154531E+01  0.28872321710E+02 -0.10765928378E+02  0.93570709764E+02  0.88134428239E+02 0.  0.
         11    1    3    3    0    0 -0.46132447688E+02  0.52915987572E+01 -0.78442144479E+01  0.47092838602E+02  0.51100000000E-03 0.  1.
         22    1    1    0    0    0  0.61874154531E+01 -0.28872321710E+02  0.10765928378E+02  0.31429290236E+02  0.00000000000E+00 0.  1.
</event>
<event>
 5    1  0.1717510E-003  0.9118800E+02  0.7818608E-02  0.1130116E+00
         25   -1    0    0    0    0  0.00000000000E+00  0.00000000000E+00  0.99999998245E-14  0.12500000000E+03  0.12500000000E+03 0.  0.
        -11    1    3    3    0    0  0.88777602689E+01 -0.24827823104E+01 -0.33006664915E+02  0.34269793761E+02  0.51100000000E-03 0.  1.
         23    2    1    0    0    0 -0.15232463971E+02  0.30675731155E+01  0.23997378569E+02  0.96411328438E+02  0.92075143821E+02 0.  0.
         11    1    3    3    0    0 -0.24110224240E+02  0.55503554259E+01  0.57004043484E+02  0.62141534677E+02  0.51100000000E-03 0. -1.
         22    1    1    0    0    0  0.15232463971E+02 -0.30675731155E+01 -0.23997378569E+02  0.28588671562E+02  0.00000000000E+00 0. -1.
</event>
<event>
 5    1  0.1717510E-003  0.9118800E+02  0.7818608E-02  0.1130116E+00
         25   -1    0    0    0    0  0.00000000000E+00  0.00000000000E+00  0.99999998245E-14  0.12500000000E+03  0.12500000000E+03 0.  0.
        -11    1    3    3    0    0 -0.56441695900E+01  0.43386845335E+02  0.62290156103E+01  0.44193615310E+02  0.51100000000E-03 0.  1.
         23    2    1    0    0    0 -0.28012425817E+02 -0.34382127768E+01  0.62802800475E+01  0.96087040540E+02  0.91633837282E+02 0.  0.
         11    1    3    3    0    0 -0.22368256227E+02 -0.46825058112E+02  0.51264437184E-01  0.51893425230E+02  0.51100000000E-03 0. -1.
         22    1    1    0    0    0  0.28012425817E+02  0.34382127768E+01 -0.62802800475E+01  0.28912959460E+02  0.00000000000E+00 0.  1.
</event>
<event>
 5    1  0.1717510E-003  0.9118800E+02  0.7818608E-02  0.1130116E+00
         25   -1    0    0    0    0  0.00000000000E+00  0.00000000000E+00  0.99999998245E-14  0.12500000000E+03  0.12500000000E+03 0.  0.
        -11    1    3    3    0    0  0.28168557930E+02 -0.13198780368E+02 -0.67132260123E+01  0.31823621146E+02  0.51100000000E-03 0.  1.
         23    2    1    0    0    0 -0.26377621851E+02  0.15924823193E+02  0.12151743564E+01  0.94164053818E+02  0.88971981289E+02 0.  0.
         11    1    3    3    0    0 -0.54546179781E+02  0.29123603561E+02  0.79284003687E+01  0.62340432672E+02  0.51100000000E-03 0. -1.
         22    1    1    0    0    0  0.26377621851E+02 -0.15924823193E+02 -0.12151743564E+01  0.30835946182E+02  0.00000000000E+00 0. -1.
</event>
<event>
 5    1  0.1717510E-003  0.9118800E+02  0.7818608E-02  0.1130116E+00
         25   -1    0    0    0    0  0.00000000000E+00  0.00000000000E+00  0.99999998245E-14  0.12500000000E+03  0.12500000000E+03 0.  0.
        -11    1    3    3    0    0 -0.30389649875E+00 -0.33169083683E+02  0.48725334182E+02  0.58944369171E+02  0.51100000000E-03 0.  1.
         23    2    1    0    0    0  0.10285565752E+02 -0.56521455142E+01  0.26973135882E+02  0.95584193516E+02  0.90945304327E+02 0.  0.
         11    1    3    3    0    0  0.10589462250E+02  0.27516938169E+02 -0.21752198300E+02  0.36639824346E+02  0.51100000000E-03 0. -1.
         22    1    1    0    0    0 -0.10285565752E+02  0.56521455142E+01 -0.26973135882E+02  0.29415806484E+02  0.00000000000E+00 0.  1.
</event>
<event>
 5    1  0.1717510E-003  0.9118800E+02  0.7818608E-02  0.1130116E+00
         25   -1    0    0    0    0  0.00000000000E+00  0.00000000000E+00  0.99999998245E-14  0.12500000000E+03  0.12500000000E+03 0.  0.
        -11    1    3    3    0    0  0.13126830169E+02 -0.27965346913E+02 -0.22313789998E+02  0.38108785373E+02  0.51100000000E-03 0. -1.
         23    2    1    0    0    0  0.65208461338E+01  0.56850780505E+01  0.26137499829E+02  0.97468010532E+02  0.93498677173E+02 0.  0.
         11    1    3    3    0    0 -0.66059840351E+01  0.33650424964E+02  0.48451289827E+02  0.59359225159E+02  0.51100000000E-03 0.  1.
         22    1    1    0    0    0 -0.65208461338E+01 -0.56850780505E+01 -0.26137499829E+02  0.27531989468E+02  0.00000000000E+00 0.  1.
</event>
<event>
 5    1  0.1717510E-003  0.9118800E+02  0.7818608E-02  0.1130116E+00
         25   -1    0    0    0    0  0.00000000000E+00  0.00000000000E+00  0.99999998245E-14  0.12500000000E+03  0.12500000000E+03 0.  0.
        -11    1    3    3    0    0 -0.23293557269E+02  0.15803303183E+02  0.36805181738E+02  0.46335252290E+02  0.51100000000E-03 0.  1.
         23    2    1    0    0    0 -0.25031051508E+02  0.12008743313E+02 -0.11593769698E+02  0.94913807962E+02  0.90019175682E+02 0.  0.
         11    1    3    3    0    0 -0.17374942392E+01 -0.37945598702E+01 -0.48398951436E+02  0.48578555672E+02  0.51100000000E-03 0. -1.
         22    1    1    0    0    0  0.25031051508E+02 -0.12008743313E+02  0.11593769698E+02  0.30086192038E+02  0.00000000000E+00 0.  1.
</event>
<event>
 5    1  0.1717510E-003  0.9118800E+02  0.7818608E-02  0.1130116E+00
         25   -1    0    0    0    0  0.00000000000E+00  0.00000000000E+00  0.99999998245E-14  0.12500000000E+03  0.12500000000E+03 0.  0.
        -11    1    3    3    0    0 -0.52872473644E+01  0.34502469241E+02  0.13505675990E+02  0.37426977605E+02  0.51100000000E-03 0.  1.
         23    2    1    0    0    0  0.97178582591E+00 -0.22303520776E+02  0.20105188330E+02  0.94956531417E+02  0.90078481638E+02 0.  0.
         11    1    3    3    0    0  0.62590331904E+01 -0.56805990018E+02  0.65995123402E+01  0.57529553812E+02  0.51100000000E-03 0. -1.
         22    1    1    0    0    0 -0.97178582591E+00  0.22303520776E+02 -0.20105188330E+02  0.30043468583E+02  0.00000000000E+00 0. -1.
</event>
<event>
 5    1  0.1717510E-003  0.9118800E+02  0.7818608E-02  0.1130116E+00
         25   -1    0    0    0    0  0.00000000000E+00  0.00000000000E+00  0.99999998245E-14  0.12500000000E+03  0.12500000000E+03 0.  0.
        -11    1    3    3    0    0 -0.30133304831E+02 -0.28087032304E+02 -0.34779207819E+02  0.53911879400E+02  0.51100000000E-03 0.  1.
         23    2    1    0    0    0  0.43292857759E+01 -0.41437750706E+01 -0.27934261402E+02  0.96430146181E+02  0.92100686997E+02 0.  0.
         11    1    3    3    0    0  0.34462590607E+02  0.23943257234E+02  0.68449464168E+01  0.42518266781E+02  0.51100000000E-03 0. -1.
         22    1    1    0    0    0 -0.43292857759E+01  0.41437750706E+01  0.27934261402E+02  0.28569853819E+02  0.00000000000E+00 0.  1.
</event>
<event>
 5    1  0.1717510E-003  0.9118800E+02  0.7818608E-02  0.1130116E+00
         25   -1    0    0    0    0  0.00000000000E+00  0.00000000000E+00  0.99999998245E-14  0.12500000000E+03  0.12500000000E+03 0.  0.
        -11    1    3    3    0    0 -0.52025982022E+02 -0.43584065544E+01 -0.80231034723E+01  0.52821100922E+02  0.51100000000E-03 0.  1.
         23    2    1    0    0    0 -0.13038960869E+02 -0.23392185554E+02 -0.10398653856E+02  0.96271253986E+02  0.91884783814E+02 0.  0.
         11    1    3    3    0    0  0.38987021153E+02 -0.19033778999E+02 -0.23755503837E+01  0.43450153064E+02  0.51100000000E-03 0. -1.
         22    1    1    0    0    0  0.13038960869E+02  0.23392185554E+02  0.10398653856E+02  0.28728746014E+02  0.00000000000E+00 0. -1.
</event>
<event>
 5    1  0.1717510E-003  0.9118800E+02  0.7818608E-02  0.1130116E+00
         25   -1    0    0    0    0  0.00000000000E+00  0.00000000000E+00  0.99999998245E-14  0.12500000000E+03  0.12500000000E+03 0.  0.
        -11    1    3    3    0    0  0.26043779052E+02  0.15678347888E+02  0.53729951167E+02  0.61733270385E+02  0.51100000000E-03 0.  1.
         23    2    1    0    0    0  0.15223419883E+02  0.79962856890E+01  0.42626011973E+02  0.79036209965E+02  0.64296597819E+02 0.  0.
         11    1    3    3    0    0 -0.10820359169E+02 -0.76820621989E+01 -0.11103939195E+02  0.17302939579E+02  0.51100000000E-03 0. -1.
         22    1    1    0    0    0 -0.15223419883E+02 -0.79962856890E+01 -0.42626011973E+02  0.45963790035E+02  0.00000000000E+00 0.  1.
</event>
<event>
 5    1  0.1717510E-003  0.9118800E+02  0.7818608E-02  0.1130116E+00
         25   -1    0    0    0    0  0.00000000000E+00  0.00000000000E+00  0.99999998245E-14  0.12500000000E+03  0.12500000000E+03 0.  0.
        -11    1    3    3    0    0  0.54337529292E+02 -0.20226796096E+02  0.11599437414E+02  0.59128988816E+02  0.51100000000E-03 0. -1.
         23    2    1    0    0    0  0.19399968627E+02 -0.13549008855E+02  0.17998315242E+02  0.95269985280E+02  0.90512409757E+02 0.  0.
         11    1    3    3    0    0 -0.34937560665E+02  0.66777872406E+01  0.63988778288E+01  0.36140996463E+02  0.51100000000E-03 0.  1.
         22    1    1    0    0    0 -0.19399968627E+02  0.13549008855E+02 -0.17998315242E+02  0.29730014720E+02  0.00000000000E+00 0. -1.
</event>
<event>
 5    1  0.1717510E-003  0.9118800E+02  0.7818608E-02  0.1130116E+00
         25   -1    0    0    0    0  0.00000000000E+00  0.00000000000E+00  0.99999998245E-14  0.12500000000E+03  0.12500000000E+03 0.  0.
        -11    1    3    3    0    0  0.27857620585E+02  0.19132252815E+02  0.22885113666E+02  0.40814440461E+02  0.51100000000E-03 0. -1.
         23    2    1    0    0    0  0.80745839625E+01 -0.27882286754E+02  0.14658814708E+02  0.92480749248E+02  0.86574749853E+02 0.  0.
         11    1    3    3    0    0 -0.19783036622E+02 -0.47014539569E+02 -0.82262989583E+01  0.51666308787E+02  0.51100000000E-03 0.  1.
         22    1    1    0    0    0 -0.80745839625E+01  0.27882286754E+02 -0.14658814708E+02  0.32519250752E+02  0.00000000000E+00 0.  1.
</event>
<event>
 5    1  0.1717510E-003  0.9118800E+02  0.7818608E-02  0.1130116E+00
         25   -1    0    0    0    0  0.00000000000E+00  0.00000000000E+00  0.99999998245E-14  0.12500000000E+03  0.12500000000E+03 0.  0.
        -11    1    3    3    0    0 -0.36329630294E+02  0.38482325652E+02 -0.32881460340E+02  0.62305070895E+02  0.51100000000E-03 0.  1.
         23    2    1    0    0    0 -0.17494041199E+02  0.16243280733E+02 -0.18466966529E+02  0.94818639872E+02  0.89886928793E+02 0.  0.
         11    1    3    3    0    0  0.18835589095E+02 -0.22239044919E+02  0.14414493811E+02  0.32513568976E+02  0.51100000000E-03 0. -1.
         22    1    1    0    0    0  0.17494041199E+02 -0.16243280733E+02  0.18466966529E+02  0.30181360128E+02  0.00000000000E+00 0.  1.
</event>
<event>
 5    1  0.1717510E-003  0.9118800E+02  0.7818608E-02  0.1130116E+00
         25   -1    0    0    0    0  0.00000000000E+00  0.00000000000E+00  0.99999998245E-14  0.12500000000E+03  0.12500000000E+03 0.  0.
        -11    1    3    3    0    0 -0.55403951582E+01 -0.13267961148E+02 -0.34437132669E+02  0.37318237877E+02  0.51100000000E-03 0. -1.
         23    2    1    0    0    0 -0.17711792497E+01 -0.57758308254E+01  0.25986175167E+02  0.98320820899E+02  0.94631946111E+02 0.  0.
         11    1    3    3    0    0  0.37692159085E+01  0.74921303224E+01  0.60423307836E+02  0.61002583023E+02  0.51100000000E-03 0.  1.
         22    1    1    0    0    0  0.17711792497E+01  0.57758308254E+01 -0.25986175167E+02  0.26679179101E+02  0.00000000000E+00 0.  1.
</event>
<event>
 5    1  0.1717510E-003  0.9118800E+02  0.7818608E-02  0.1130116E+00
         25   -1    0    0    0    0  0.00000000000E+00  0.00000000000E+00  0.99999998245E-14  0.12500000000E+03  0.12500000000E+03 0.  0.
        -11    1    3    3    0    0  0.29198623356E+02  0.35853947968E+02  0.95405758387E+00  0.46249058552E+02  0.51100000000E-03 0.  1.
         23    2    1    0    0    0  0.38817738842E+02  0.18953731297E+01  0.13725766887E+02  0.83783426091E+02  0.72944201434E+02 0.  0.
         11    1    3    3    0    0  0.96191154861E+01 -0.33958574839E+02  0.12771709303E+02  0.37534367539E+02  0.51100000000E-03 0. -1.
         22    1    1    0    0    0 -0.38817738842E+02 -0.18953731297E+01 -0.13725766887E+02  0.41216573909E+02  0.00000000000E+00 0.  1.
</event>
<event>
 5    1  0.1717510E-003  0.9118800E+02  0.7818608E-02  0.1130116E+00
         25   -1    0    0    0    0  0.00000000000E+00  0.00000000000E+00  0.99999998245E-14  0.12500000000E+03  0.12500000000E+03 0.  0.
        -11    1    3    3    0    0 -0.43324696942E+02 -0.23417492310E+02 -0.71282848293E+01  0.49761639403E+02  0.51100000000E-03 0.  1.
         23    2    1    0    0    0 -0.15052336240E+02 -0.98284661136E+01  0.24700601188E+02  0.94450183774E+02  0.89373071691E+02 0.  0.
         11    1    3    3    0    0  0.28272360702E+02  0.13589026197E+02  0.31828886017E+02  0.44688544371E+02  0.51100000000E-03 0. -1.
         22    1    1    0    0    0  0.15052336240E+02  0.98284661136E+01 -0.24700601188E+02  0.30549816226E+02  0.00000000000E+00 0.  1.
</event>
<event>
 5    1  0.1717510E-003  0.9118800E+02  0.7818608E-02  0.1130116E+00
         25   -1    0    0    0    0  0.00000000000E+00  0.00000000000E+00  0.99999998245E-14  0.12500000000E+03  0.12500000000E+03 0.  0.
        -11    1    3    3    0    0 -0.46438386873E+02 -0.26881011463E+02 -0.16698559543E+02  0.56195679939E+02  0.51100000000E-03 0. -1.
         23    2    1    0    0    0 -0.31141667330E+02  0.84014659400E-01 -0.20920706230E+02  0.87483517599E+02  0.79030876244E+02 0.  0.
         11    1    3    3    0    0  0.15296719544E+02  0.26965026123E+02 -0.42221466873E+01  0.31287837661E+02  0.51100000000E-03 0.  1.
         22    1    1    0    0    0  0.31141667330E+02 -0.84014659400E-01  0.20920706230E+02  0.37516482401E+02  0.00000000000E+00 0. -1.
</event>
<event>
 5    1  0.1717510E-003  0.9118800E+02  0.7818608E-02  0.1130116E+00
         25   -1    0    0    0    0  0.00000000000E+00  0.00000000000E+00  0.99999998245E-14  0.12500000000E+03  0.12500000000E+03 0.  0.
        -11    1    3    3    0    0 -0.31773418030E+02  0.25591790166E+01 -0.84460073751E+01  0.32976272248E+02  0.51100000000E-03 0.  1.
         23    2    1    0    0    0  0.26985857400E+02 -0.13309199557E+02 -0.80917882199E+01  0.93841560870E+02  0.88517739564E+02 0.  0.
         11    1    3    3    0    0  0.58759275429E+02 -0.15868378573E+02  0.35421915523E+00  0.60865288622E+02  0.51100000000E-03 0. -1.
         22    1    1    0    0    0 -0.26985857400E+02  0.13309199557E+02  0.80917882199E+01  0.31158439130E+02  0.00000000000E+00 0. -1.
</event>
<event>
 5    1  0.1717510E-003  0.9118800E+02  0.7818608E-02  0.1130116E+00
         25   -1    0    0    0    0  0.00000000000E+00  0.00000000000E+00  0.99999998245E-14  0.12500000000E+03  0.12500000000E+03 0.  0.
        -11    1    3    3    0    0 -0.44737499321E+02  0.10072472318E+01  0.41856620417E+02  0.61273445027E+02  0.51100000000E-03 0. -1.
         23    2    1    0    0    0 -0.15214828515E+02  0.57101558172E+00  0.26209141160E+02  0.94689339402E+02  0.89706938698E+02 0.  0.
         11    1    3    3    0    0  0.29522670805E+02 -0.43623165005E+00 -0.15647479257E+02  0.33415894375E+02  0.51100000000E-03 0.  1.
         22    1    1    0    0    0  0.15214828515E+02 -0.57101558172E+00 -0.26209141160E+02  0.30310660598E+02  0.00000000000E+00 0. -1.
</event>
<event>
 5    1  0.1717510E-003  0.9118800E+02  0.7818608E-02  0.1130116E+00
         25   -1    0    0    0    0  0.00000000000E+00  0.00000000000E+00  0.99999998245E-14  0.12500000000E+03  0.12500000000E+03 0.  0.
        -11    1    3    3    0    0  0.38159517662E+02 -0.29956037736E+02  0.32779381626E+02  0.58549131890E+02  0.51100000000E-03 0.  1.
         23    2    1    0    0    0  0.25768708856E+02 -0.43152623730E+00  0.15287762584E+02  0.95034548963E+02  0.90186679952E+02 0.  0.
         11    1    3    3    0    0 -0.12390808805E+02  0.29524511498E+02 -0.17491619042E+02  0.36485417073E+02  0.51100000000E-03 0. -1.
         22    1    1    0    0    0 -0.25768708856E+02  0.43152623730E+00 -0.15287762584E+02  0.29965451037E+02  0.00000000000E+00 0.  1.
</event>
<event>
 5    1  0.1717510E-003  0.9118800E+02  0.7818608E-02  0.1130116E+00
         25   -1    0    0    0    0  0.00000000000E+00  0.00000000000E+00  0.99999998245E-14  0.12500000000E+03  0.12500000000E+03 0.  0.
        -11    1    3    3    0    0 -0.26357356652E+02  0.12674470214E+02 -0.99958732081E+01  0.30907441278E+02  0.51100000000E-03 0. -1.
         23    2    1    0    0    0  0.26651403545E+02  0.17982844959E+02  0.14724918487E+02  0.89637544652E+02  0.82367385311E+02 0.  0.
         11    1    3    3    0    0  0.53008760197E+02  0.53083747450E+01  0.24720791695E+02  0.58730103374E+02  0.51100000000E-03 0.  1.
         22    1    1    0    0    0 -0.26651403545E+02 -0.17982844959E+02 -0.14724918487E+02  0.35362455348E+02  0.00000000000E+00 0.  1.
</event>
<event>
 5    1  0.1717510E-003  0.9118800E+02  0.7818608E-02  0.1130116E+00
         25   -1    0    0    0    0  0.00000000000E+00  0.00000000000E+00  0.99999998245E-14  0.12500000000E+03  0.12500000000E+03 0.  0.
        -11    1    3    3    0    0  0.34653427308E+02 -0.43873139678E+02  0.51092094734E+01  0.56141040524E+02  0.51100000000E-03 0.  1.
         23    2    1    0    0    0  0.11075268373E+02 -0.17891921012E+02  0.21544247751E+02  0.94884604964E+02  0.89978615465E+02 0.  0.
         11    1    3    3    0    0 -0.23578158935E+02  0.25981218665E+02  0.16435038277E+02  0.38743564440E+02  0.51100000000E-03 0. -1.
         22    1    1    0    0    0 -0.11075268373E+02  0.17891921012E+02 -0.21544247751E+02  0.30115395036E+02  0.00000000000E+00 0.  1.
</event>
<event>
 5    1  0.1717510E-003  0.9118800E+02  0.7818608E-02  0.1130116E+00
         25   -1    0    0    0    0  0.00000000000E+00  0.00000000000E+00  0.99999998245E-14  0.12500000000E+03  0.12500000000E+03 0.  0.
        -11    1    3    3    0    0  0.15652908659E+02  0.46801576000E+02  0.19658663775E+01  0.49388922811E+02  0.51100000000E-03 0. -1.
         23    2    1    0    0    0  0.21615318150E+02  0.54415384788E+01 -0.18605517884E+02  0.95965578782E+02  0.91467998204E+02 0.  0.
         11    1    3    3    0    0  0.59624094910E+01 -0.41360037522E+02 -0.20571384261E+02  0.46576655971E+02  0.51100000000E-03 0.  1.
         22    1    1    0    0    0 -0.21615318150E+02 -0.54415384788E+01  0.18605517884E+02  0.29034421218E+02  0.00000000000E+00 0. -1.
</event>
<event>
 5    1  0.1717510E-003  0.9118800E+02  0.7818608E-02  0.1130116E+00
         25   -1    0    0    0    0  0.00000000000E+00  0.00000000000E+00  0.99999998245E-14  0.12500000000E+03  0.12500000000E+03 0.  0.
        -11    1    3    3    0    0 -0.43484176681E+02  0.22213849936E+02  0.28245519245E+02  0.56410443255E+02  0.51100000000E-03 0.  1.
         23    2    1    0    0    0 -0.19533758118E+02  0.19977338296E+02 -0.41426944509E+01  0.96754227415E+02  0.92539488078E+02 0.  0.
         11    1    3    3    0    0  0.23950418562E+02 -0.22365116405E+01 -0.32388213696E+02  0.40343784160E+02  0.51100000000E-03 0. -1.
         22    1    1    0    0    0  0.19533758118E+02 -0.19977338296E+02  0.41426944509E+01  0.28245772585E+02  0.00000000000E+00 0.  1.
</event>
<event>
 5    1  0.1717510E-003  0.9118800E+02  0.7818608E-02  0.1130116E+00
         25   -1    0    0    0    0  0.00000000000E+00  0.00000000000E+00  0.99999998245E-14  0.12500000000E+03  0.12500000000E+03 0.  0.
        -11    1    3    3    0    0  0.51680230616E+01  0.15303441441E+02  0.30648238159E+02  0.34644166678E+02  0.51100000000E-03 0.  1.
         23    2    1    0    0    0 -0.16583249580E+02 -0.16107890685E+02 -0.17424165351E+02  0.96050563958E+02  0.91584065151E+02 0.  0.
         11    1    3    3    0    0 -0.21751272642E+02 -0.31411332126E+02 -0.48072403510E+02  0.61406397280E+02  0.51100000000E-03 0. -1.
         22    1    1    0    0    0  0.16583249580E+02  0.16107890685E+02  0.17424165351E+02  0.28949436042E+02  0.00000000000E+00 0. -1.
</event>
<event>
 5    1  0.1717510E-003  0.9118800E+02  0.7818608E-02  0.1130116E+00
         25   -1    0    0    0    0  0.00000000000E+00  0.00000000000E+00  0.99999998245E-14  0.12500000000E+03  0.12500000000E+03 0.  0.
        -11    1    3    3    0    0 -0.56611751929E+02  0.15275377267E+02 -0.15160812306E+02  0.60564658318E+02  0.51100000000E-03 0.  1.
         23    2    1    0    0    0 -0.30332645125E+02 -0.31530534306E+01 -0.63320937596E+01  0.93853467005E+02  0.88534551173E+02 0.  0.
         11    1    3    3    0    0  0.26279106804E+02 -0.18428430698E+02  0.88287185466E+01  0.33288808688E+02  0.51100000000E-03 0. -1.
         22    1    1    0    0    0  0.30332645125E+02  0.31530534306E+01  0.63320937596E+01  0.31146532995E+02  0.00000000000E+00 0.  1.
</event>
<event>
 5    1  0.1717510E-003  0.9118800E+02  0.7818608E-02  0.1130116E+00
         25   -1    0    0    0    0  0.00000000000E+00  0.00000000000E+00  0.99999998245E-14  0.12500000000E+03  0.12500000000E+03 0.  0.
        -11    1    3    3    0    0 -0.39049384583E+01 -0.43785694257E+02  0.97692072829E+01  0.45031910654E+02  0.51100000000E-03 0.  1.
         23    2    1    0    0    0  0.29605651649E+02 -0.87410648618E+01  0.31214822020E+01  0.93973487537E+02  0.88703843683E+02 0.  0.
         11    1    3    3    0    0  0.33510590108E+02  0.35044629395E+02 -0.66477250809E+01  0.48941576883E+02  0.51100000000E-03 0. -1.
         22    1    1    0    0    0 -0.29605651649E+02  0.87410648618E+01 -0.31214822020E+01  0.31026512463E+02  0.00000000000E+00 0. -1.
</event>
<event>
 5    1  0.1717510E-003  0.9118800E+02  0.7818608E-02  0.1130116E+00
         25   -1    0    0    0    0  0.00000000000E+00  0.00000000000E+00  0.99999998245E-14  0.12500000000E+03  0.12500000000E+03 0.  0.
        -11    1    3    3    0    0  0.14878878187E+02 -0.26729881433E+02  0.18840860359E+02  0.35928339745E+02  0.51100000000E-03 0. -1.
         23    2    1    0    0    0  0.17987711247E+02  0.27350129137E+02  0.45570913482E+01  0.91949214816E+02  0.85803867651E+02 0.  0.
         11    1    3    3    0    0  0.31088330604E+01  0.54080010570E+02 -0.14283769011E+02  0.56020875071E+02  0.51100000000E-03 0.  1.
         22    1    1    0    0    0 -0.17987711247E+02 -0.27350129137E+02 -0.45570913482E+01  0.33050785184E+02  0.00000000000E+00 0. -1.
</event>
<event>
 5    1  0.1717510E-003  0.9118800E+02  0.7818608E-02  0.1130116E+00
         25   -1    0    0    0    0  0.00000000000E+00  0.00000000000E+00  0.99999998245E-14  0.12500000000E+03  0.12500000000E+03 0.  0.
        -11    1    3    3    0    0  0.10935440971E+02 -0.13308978768E+02  0.58469470815E+02  0.60954013836E+02  0.51100000000E-03 0.  1.
         23    2    1    0    0    0 -0.38463369517E+01 -0.72411395302E+01  0.32802202854E+02  0.91188568180E+02  0.84688500076E+02 0.  0.
         11    1    3    3    0    0 -0.14781777923E+02  0.60678392378E+01 -0.25667267961E+02  0.30234554344E+02  0.51100000000E-03 0. -1.
         22    1    1    0    0    0  0.38463369517E+01  0.72411395302E+01 -0.32802202854E+02  0.33811431820E+02  0.00000000000E+00 0.  1.
</event>
<event>
 5    1  0.1717510E-003  0.9118800E+02  0.7818608E-02  0.1130116E+00
         25   -1    0    0    0    0  0.00000000000E+00  0.00000000000E+00  0.99999998245E-14  0.12500000000E+03  0.12500000000E+03 0.  0.
        -11    1    3    3    0    0 -0.27932090952E+02  0.21723642170E+02  0.38749550324E+02  0.52475193993E+02  0.51100000000E-03 0.  1.
         23    2    1    0    0    0 -0.22430807891E+02  0.18626902413E+02 -0.38949763993E+01  0.95584468775E+02  0.90945682655E+02 0.  0.
         11    1    3    3    0    0  0.55012830611E+01 -0.30967397573E+01 -0.42644526723E+02  0.43109274781E+02  0.51100000000E-03 0. -1.
         22    1    1    0    0    0  0.22430807891E+02 -0.18626902413E+02  0.38949763993E+01  0.29415531225E+02  0.00000000000E+00 0.  1.
</event>
<event>
 5    1  0.1717510E-003  0.9118800E+02  0.7818608E-02  0.1130116E+00
         25   -1    0    0    0    0  0.00000000000E+00  0.00000000000E+00  0.99999998245E-14  0.12500000000E+03  0.12500000000E+03 0.  0.
        -11    1    3    3    0    0  0.42756914984E+01 -0.13533515547E+02 -0.33270613906E+02  0.36171415935E+02  0.51100000000E-03 0.  1.
         23    2    1    0    0    0  0.10285965346E+01 -0.14275471127E+02  0.25885479270E+02  0.95421204829E+02  0.90721007529E+02 0.  0.
         11    1    3    3    0    0 -0.32470949638E+01 -0.74195558040E+00  0.59156093176E+02  0.59249788893E+02  0.51100000000E-03 0. -1.
         22    1    1    0    0    0 -0.10285965346E+01  0.14275471127E+02 -0.25885479270E+02  0.29578795171E+02  0.00000000000E+00 0. -1.
</event>
<event>
 5    1  0.1717510E-003  0.9118800E+02  0.7818608E-02  0.1130116E+00
         25   -1    0    0    0    0  0.00000000000E+00  0.00000000000E+00  0.99999998245E-14  0.12500000000E+03  0.12500000000E+03 0.  0.
        -11    1    3    3    0    0 -0.31331965218E+02 -0.80659656450E+01  0.31282650410E+02  0.45003956084E+02  0.51100000000E-03 0.  1.
         23    2    1    0    0    0  0.15420703883E+02 -0.15744282798E+02  0.23080685531E+02  0.93087641992E+02  0.87446615131E+02 0.  0.
         11    1    3    3    0    0  0.46752669101E+02 -0.76783171530E+01 -0.82019648795E+01  0.48083685908E+02  0.51100000000E-03 0. -1.
         22    1    1    0    0    0 -0.15420703883E+02  0.15744282798E+02 -0.23080685531E+02  0.31912358008E+02  0.00000000000E+00 0. -1.
</event>
<event>
 5    1  0.1717510E-003  0.9118800E+02  0.7818608E-02  0.1130116E+00
         25   -1    0    0    0    0  0.00000000000E+00  0.00000000000E+00  0.99999998245E-14  0.12500000000E+03  0.12500000000E+03 0.  0.
        -11    1    3    3    0    0  0.29837541051E+02  0.12321565840E+02  0.83563853693E+01  0.33345599671E+02  0.51100000000E-03 0. -1.
         23    2    1    0    0    0 -0.28868732423E+02 -0.38209234862E+01  0.98778425138E+01  0.94249797712E+02  0.89092364589E+02 0.  0.
         11    1    3    3    0    0 -0.58706273474E+02 -0.16142489326E+02  0.15214571444E+01  0.60904198041E+02  0.51100000000E-03 0.  1.
         22    1    1    0    0    0  0.28868732423E+02  0.38209234862E+01 -0.98778425138E+01  0.30750202288E+02  0.00000000000E+00 0.  1.
</event>
<event>
 5    1  0.1717510E-003  0.9118800E+02  0.7818608E-02  0.1130116E+00
         25   -1    0    0    0    0  0.00000000000E+00  0.00000000000E+00  0.99999998245E-14  0.12500000000E+03  0.12500000000E+03 0.  0.
        -11    1    3    3    0    0 -0.94318581696E+01  0.23786309665E+02 -0.54050059951E+02  0.59800982073E+02  0.51100000000E-03 0.  1.
         23    2    1    0    0    0 -0.13207711998E+02  0.15087690856E+01 -0.25807763092E+02  0.95969659385E+02  0.91473574579E+02 0.  0.
         11    1    3    3    0    0 -0.37758538283E+01 -0.22277540579E+02  0.28242296859E+02  0.36168677312E+02  0.51100000000E-03 0. -1.
         22    1    1    0    0    0  0.13207711998E+02 -0.15087690856E+01  0.25807763092E+02  0.29030340615E+02  0.00000000000E+00 0.  1.
</event>
<event>
 5    1  0.1717510E-003  0.9118800E+02  0.7818608E-02  0.1130116E+00
         25   -1    0    0    0    0  0.00000000000E+00  0.00000000000E+00  0.99999998245E-14  0.12500000000E+03  0.12500000000E+03 0.  0.
        -11    1    3    3    0    0 -0.12960645903E+01 -0.45846722884E+02  0.57967484484E+01  0.46229904558E+02  0.51100000000E-03 0.  1.
         23    2    1    0    0    0 -0.17543919574E+02 -0.21334971196E+01  0.23050156705E+02  0.95954335123E+02  0.91452631350E+02 0.  0.
         11    1    3    3    0    0 -0.16247854984E+02  0.43713225764E+02  0.17253408257E+02  0.49724430565E+02  0.51100000000E-03 0. -1.
         22    1    1    0    0    0  0.17543919574E+02  0.21334971196E+01 -0.23050156705E+02  0.29045664877E+02  0.00000000000E+00 0. -1.
</event>
<event>
 5    1  0.1717510E-003  0.9118800E+02  0.7818608E-02  0.1130116E+00
         25   -1    0    0    0    0  0.00000000000E+00  0.00000000000E+00  0.99999998245E-14  0.12500000000E+03  0.12500000000E+03 0.  0.
        -11    1    3    3    0    0 -0.57664014330E+01  0.45225936315E+02 -0.25646190417E+02  0.52310264616E+02  0.51100000000E-03 0.  1.
         23    2    1    0    0    0 -0.21161940530E+02  0.20149141831E+02  0.56186139186E+01  0.95244589300E+02  0.90477330449E+02 0.  0.
         11    1    3    3    0    0 -0.15395539097E+02 -0.25076794484E+02  0.31264804336E+02  0.42934324684E+02  0.51100000000E-03 0. -1.
         22    1    1    0    0    0  0.21161940530E+02 -0.20149141831E+02 -0.56186139186E+01  0.29755410700E+02  0.00000000000E+00 0.  1.
</event>
<event>
 5    1  0.1717510E-003  0.9118800E+02  0.7818608E-02  0.1130116E+00
         25   -1    0    0    0    0  0.00000000000E+00  0.00000000000E+00  0.99999998245E-14  0.12500000000E+03  0.12500000000E+03 0.  0.
        -11    1    3    3    0    0  0.30315277329E+02  0.29643220089E+02 -0.36559969532E+01  0.42557054065E+02  0.51100000000E-03 0.  1.
         23    2    1    0    0    0 -0.15612307662E+02  0.58968616022E+01 -0.21971858146E+02  0.97408702864E+02  0.93419354076E+02 0.  0.
         11    1    3    3    0    0 -0.45927584991E+02 -0.23746358487E+02 -0.18315861192E+02  0.54851648799E+02  0.51100000000E-03 0. -1.
         22    1    1    0    0    0  0.15612307662E+02 -0.58968616022E+01  0.21971858146E+02  0.27591297136E+02  0.00000000000E+00 0. -1.
</event>
<event>
 5    1  0.1717510E-003  0.9118800E+02  0.7818608E-02  0.1130116E+00
         25   -1    0    0    0    0  0.00000000000E+00  0.00000000000E+00  0.99999998245E-14  0.12500000000E+03  0.12500000000E+03 0.  0.
        -11    1    3    3    0    0  0.19402122764E+02  0.31327354542E+02 -0.58923268855E+01  0.37317087597E+02  0.51100000000E-03 0.  1.
         23    2    1    0    0    0 -0.21209221327E+02 -0.36831445054E+01  0.18865892823E+02  0.96376259246E+02  0.92027522033E+02 0.  0.
         11    1    3    3    0    0 -0.40611344091E+02 -0.35010499047E+02  0.24758219709E+02  0.59059171649E+02  0.51100000000E-03 0. -1.
         22    1    1    0    0    0  0.21209221327E+02  0.36831445054E+01 -0.18865892823E+02  0.28623740754E+02  0.00000000000E+00 0. -1.
</event>
<event>
 5    1  0.1717510E-003  0.9118800E+02  0.7818608E-02  0.1130116E+00
         25   -1    0    0    0    0  0.00000000000E+00  0.00000000000E+00  0.99999998245E-14  0.12500000000E+03  0.12500000000E+03 0.  0.
        -11    1    3    3    0    0 -0.32558046373E+02  0.16693081543E+02  0.13703290018E+02  0.39070007840E+02  0.51100000000E-03 0.  1.
         23    2    1    0    0    0  0.10368440692E+02  0.14492197815E+02 -0.23217362615E+02  0.95732709612E+02  0.91149204072E+02 0.  0.
         11    1    3    3    0    0  0.42926487065E+02 -0.22008837288E+01 -0.36920652633E+02  0.56662701771E+02  0.51100000000E-03 0. -1.
         22    1    1    0    0    0 -0.10368440692E+02 -0.14492197815E+02  0.23217362615E+02  0.29267290388E+02  0.00000000000E+00 0. -1.
</event>
<event>
 5    1  0.1717510E-003  0.9118800E+02  0.7818608E-02  0.1130116E+00
         25   -1    0    0    0    0  0.00000000000E+00  0.00000000000E+00  0.99999998245E-14  0.12500000000E+03  0.12500000000E+03 0.  0.
        -11    1    3    3    0    0  0.40096765005E+01  0.24142187174E+02  0.21535837311E+02  0.32599309749E+02  0.51100000000E-03 0.  1.
         23    2    1    0    0    0 -0.62243867070E+01 -0.21537950363E+02 -0.19829629334E+02  0.95069405364E+02  0.90234978479E+02 0.  0.
         11    1    3    3    0    0 -0.10234063207E+02 -0.45680137538E+02 -0.41365466644E+02  0.62470095615E+02  0.51100000000E-03 0. -1.
         22    1    1    0    0    0  0.62243867070E+01  0.21537950363E+02  0.19829629334E+02  0.29930594636E+02  0.00000000000E+00 0. -1.
</event>
<event>
 5    1  0.1717510E-003  0.9118800E+02  0.7818608E-02  0.1130116E+00
         25   -1    0    0    0    0  0.00000000000E+00  0.00000000000E+00  0.99999998245E-14  0.12500000000E+03  0.12500000000E+03 0.  0.
        -11    1    3    3    0    0 -0.16468296193E+02 -0.39953939628E+02  0.31363426763E+02  0.53396503723E+02  0.51100000000E-03 0.  1.
         23    2    1    0    0    0 -0.27727698838E+02 -0.57104730231E+01  0.13095187190E+02  0.93808355084E+02  0.88470835708E+02 0.  0.
         11    1    3    3    0    0 -0.11259402645E+02  0.34243466605E+02 -0.18268239572E+02  0.40411851361E+02  0.51100000000E-03 0. -1.
         22    1    1    0    0    0  0.27727698838E+02  0.57104730231E+01 -0.13095187190E+02  0.31191644916E+02  0.00000000000E+00 0.  1.
</event>
<event>
 5    1  0.1717510E-003  0.9118800E+02  0.7818608E-02  0.1130116E+00
         25   -1    0    0    0    0  0.00000000000E+00  0.00000000000E+00  0.99999998245E-14  0.12500000000E+03  0.12500000000E+03 0.  0.
        -11    1    3    3    0    0  0.43888769092E+02 -0.26058967254E+02  0.13548430853E+02  0.52809599559E+02  0.51100000000E-03 0.  1.
         23    2    1    0    0    0  0.19101600725E+02  0.65690432469E+01  0.22512073785E+02  0.94754059023E+02  0.89797075430E+02 0.  0.
         11    1    3    3    0    0 -0.24787168367E+02  0.32628010501E+02  0.89636429320E+01  0.41944459464E+02  0.51100000000E-03 0. -1.
         22    1    1    0    0    0 -0.19101600725E+02 -0.65690432469E+01 -0.22512073785E+02  0.30245940977E+02  0.00000000000E+00 0.  1.
</event>
<event>
 5    1  0.1717510E-003  0.9118800E+02  0.7818608E-02  0.1130116E+00
         25   -1    0    0    0    0  0.00000000000E+00  0.00000000000E+00  0.99999998245E-14  0.12500000000E+03  0.12500000000E+03 0.  0.
        -11    1    3    3    0    0  0.47220821117E+01 -0.22322503616E+02  0.32893290140E+02  0.40031996748E+02  0.51100000000E-03 0.  1.
         23    2    1    0    0    0 -0.19836417043E+02 -0.19528768103E+02 -0.14596465589E+02  0.93568916143E+02  0.88131884332E+02 0.  0.
         11    1    3    3    0    0 -0.24558499155E+02  0.27937355130E+01 -0.47489755729E+02  0.53536919395E+02  0.51100000000E-03 0. -1.
         22    1    1    0    0    0  0.19836417043E+02  0.19528768103E+02  0.14596465589E+02  0.31431083857E+02  0.00000000000E+00 0. -1.
</event>
<event>
 5    1  0.1717510E-003  0.9118800E+02  0.7818608E-02  0.1130116E+00
         25   -1    0    0    0    0  0.00000000000E+00  0.00000000000E+00  0.99999998245E-14  0.12500000000E+03  0.12500000000E+03 0.  0.
        -11    1    3    3    0    0 -0.19792420437E+02 -0.51032269375E+02  0.17407804157E+02  0.57437479664E+02  0.51100000000E-03 0.  1.
         23    2    1    0    0    0 -0.63322593256E+01 -0.13344624575E+02  0.22815666963E+02  0.97820390507E+02  0.93968599153E+02 0.  0.
         11    1    3    3    0    0  0.13460161111E+02  0.37687644801E+02  0.54078628064E+01  0.40382910843E+02  0.51100000000E-03 0. -1.
         22    1    1    0    0    0  0.63322593256E+01  0.13344624575E+02 -0.22815666963E+02  0.27179609493E+02  0.00000000000E+00 0.  1.
</event>
<event>
 5    1  0.1717510E-003  0.9118800E+02  0.7818608E-02  0.1130116E+00
         25   -1    0    0    0    0  0.00000000000E+00  0.00000000000E+00  0.99999998245E-14  0.12500000000E+03  0.12500000000E+03 0.  0.
        -11    1    3    3    0    0  0.32734195165E+02 -0.79316159143E+01 -0.92313106235E+01  0.34923561677E+02  0.51100000000E-03 0. -1.
         23    2    1    0    0    0 -0.19294094935E+02  0.21957811769E+02  0.79908271085E+00  0.95758828166E+02  0.91185015444E+02 0.  0.
         11    1    3    3    0    0 -0.52028290101E+02  0.29889427683E+02  0.10030393334E+02  0.60835266489E+02  0.51100000000E-03 0.  1.
         22    1    1    0    0    0  0.19294094935E+02 -0.21957811769E+02 -0.79908271085E+00  0.29241171834E+02  0.00000000000E+00 0.  1.
</event>
<event>
 5    1  0.1717510E-003  0.9118800E+02  0.7818608E-02  0.1130116E+00
         25   -1    0    0    0    0  0.00000000000E+00  0.00000000000E+00  0.99999998245E-14  0.12500000000E+03  0.12500000000E+03 0.  0.
        -11    1    3    3    0    0  0.13693378278E+02 -0.32844570050E+02  0.39524831431E+01  0.35803582414E+02  0.51100000000E-03 0.  1.
         23    2    1    0    0    0 -0.18989601790E+02  0.56002488304E+01 -0.24317076607E+02  0.93642576990E+02  0.88236297789E+02 0.  0.
         11    1    3    3    0    0 -0.32682980068E+02  0.38444818880E+02 -0.28269559750E+02  0.57838994576E+02  0.51100000000E-03 0. -1.
         22    1    1    0    0    0  0.18989601790E+02 -0.56002488304E+01  0.24317076607E+02  0.31357423010E+02  0.00000000000E+00 0. -1.
</event>
<event>
 5    1  0.1717510E-003  0.9118800E+02  0.7818608E-02  0.1130116E+00
         25   -1    0    0    0    0  0.00000000000E+00  0.00000000000E+00  0.99999998245E-14  0.12500000000E+03  0.12500000000E+03 0.  0.
        -11    1    3    3    0    0 -0.25247577553E+02  0.53751380313E+02  0.19265500717E+02  0.62432448102E+02  0.51100000000E-03 0.  1.
         23    2    1    0    0    0 -0.12327612723E+02  0.22266525919E+02  0.70593303317E+01  0.98587836956E+02  0.94983994646E+02 0.  0.
         11    1    3    3    0    0  0.12919964830E+02 -0.31484854394E+02 -0.12206170386E+02  0.36155388854E+02  0.51100000000E-03 0. -1.
         22    1    1    0    0    0  0.12327612723E+02 -0.22266525919E+02 -0.70593303317E+01  0.26412163044E+02  0.00000000000E+00 0.  1.
</event>
<event>
 5    1  0.1717510E-003  0.9118800E+02  0.7818608E-02  0.1130116E+00
         25   -1    0    0    0    0  0.00000000000E+00  0.00000000000E+00  0.99999998245E-14  0.12500000000E+03  0.12500000000E+03 0.  0.
        -11    1    3    3    0    0  0.16594847769E+02  0.16268720063E+02  0.29312716964E+02  0.37407159757E+02  0.51100000000E-03 0.  1.
         23    2    1    0    0    0 -0.25805309371E+02  0.11515467514E+02 -0.96028872784E+01  0.95154808966E+02  0.90353208252E+02 0.  0.
         11    1    3    3    0    0 -0.42400157140E+02 -0.47532525485E+01 -0.38915604243E+02  0.57747649209E+02  0.51100000000E-03 0. -1.
         22    1    1    0    0    0  0.25805309371E+02 -0.11515467514E+02  0.96028872784E+01  0.29845191034E+02  0.00000000000E+00 0. -1.
</event>
<event>
 5    1  0.1717510E-003  0.9118800E+02  0.7818608E-02  0.1130116E+00
         25   -1    0    0    0    0  0.00000000000E+00  0.00000000000E+00  0.99999998245E-14  0.12500000000E+03  0.12500000000E+03 0.  0.
        -11    1    3    3    0    0  0.13146136946E+02  0.58022009676E+02 -0.13238397796E+02  0.60947762058E+02  0.51100000000E-03 0.  1.
         23    2    1    0    0    0  0.15654833630E+02  0.24636273297E+02 -0.61802308776E+01  0.95163528499E+02  0.90365270567E+02 0.  0.
         11    1    3    3    0    0  0.25086966839E+01 -0.33385736379E+02  0.70581669186E+01  0.34215766441E+02  0.51100000000E-03 0. -1.
         22    1    1    0    0    0 -0.15654833630E+02 -0.24636273297E+02  0.61802308776E+01  0.29836471501E+02  0.00000000000E+00 0.  1.
</event>
<event>
 5    1  0.1717510E-003  0.9118800E+02  0.7818608E-02  0.1130116E+00
         25   -1    0    0    0    0  0.00000000000E+00  0.00000000000E+00  0.99999998245E-14  0.12500000000E+03  0.12500000000E+03 0.  0.
        -11    1    3    3    0    0  0.22315307464E+01  0.23845505319E+02 -0.43371547721E+02  0.49544717229E+02  0.51100000000E-03 0.  1.
         23    2    1    0    0    0  0.26569656443E+02  0.81199076947E+01 -0.64513212308E+01  0.96478094557E+02  0.92165740051E+02 0.  0.
         11    1    3    3    0    0  0.24338125697E+02 -0.15725597624E+02  0.36920226490E+02  0.46933377328E+02  0.51100000000E-03 0. -1.
         22    1    1    0    0    0 -0.26569656443E+02 -0.81199076947E+01  0.64513212308E+01  0.28521905443E+02  0.00000000000E+00 0. -1.
</event>
<event>
 5    1  0.1717510E-003  0.9118800E+02  0.7818608E-02  0.1130116E+00
         25   -1    0    0    0    0  0.00000000000E+00  0.00000000000E+00  0.99999998245E-14  0.12500000000E+03  0.12500000000E+03 0.  0.
        -11    1    3    3    0    0  0.40588690866E+02 -0.25338243212E+02 -0.39108396065E+02  0.61797532623E+02  0.51100000000E-03 0.  1.
         23    2    1    0    0    0  0.17590166518E+02 -0.65033540484E+01 -0.21982545664E+02  0.96104673633E+02  0.91657887866E+02 0.  0.
         11    1    3    3    0    0 -0.22998524348E+02  0.18834889164E+02  0.17125850401E+02  0.34307141009E+02  0.51100000000E-03 0. -1.
         22    1    1    0    0    0 -0.17590166518E+02  0.65033540484E+01  0.21982545664E+02  0.28895326367E+02  0.00000000000E+00 0.  1.
</event>
<event>
 5    1  0.1717510E-003  0.9118800E+02  0.7818608E-02  0.1130116E+00
         25   -1    0    0    0    0  0.00000000000E+00  0.00000000000E+00  0.99999998245E-14  0.12500000000E+03  0.12500000000E+03 0.  0.
        -11    1    3    3    0    0 -0.51083776627E+02 -0.15441095785E+02 -0.18073423242E+02  0.56343839960E+02  0.51100000000E-03 0.  1.
         23    2    1    0    0    0 -0.89700817975E+01 -0.16823828193E+02 -0.18431334635E+02  0.98481748569E+02  0.94844278384E+02 0.  0.
         11    1    3    3    0    0  0.42113694829E+02 -0.13827324080E+01 -0.35791139247E+00  0.42137908609E+02  0.51100000000E-03 0. -1.
         22    1    1    0    0    0  0.89700817975E+01  0.16823828193E+02  0.18431334635E+02  0.26518251431E+02  0.00000000000E+00 0.  1.
</event>
<event>
 5    1  0.1717510E-003  0.9118800E+02  0.7818608E-02  0.1130116E+00
         25   -1    0    0    0    0  0.00000000000E+00  0.00000000000E+00  0.99999998245E-14  0.12500000000E+03  0.12500000000E+03 0.  0.
        -11    1    3    3    0    0  0.34099941027E+02  0.97901789717E+01 -0.21682870021E+02  0.41578846003E+02  0.51100000000E-03 0. -1.
         23    2    1    0    0    0 -0.19234769189E+02 -0.41967734335E+00 -0.21856106379E+02  0.95882275829E+02  0.91354085608E+02 0.  0.
         11    1    3    3    0    0 -0.53334710216E+02 -0.10209856315E+02 -0.17323635864E+00  0.54303429826E+02  0.51100000000E-03 0.  1.
         22    1    1    0    0    0  0.19234769189E+02  0.41967734335E+00  0.21856106379E+02  0.29117724171E+02  0.00000000000E+00 0.  1.
</event>
<event>
 5    1  0.1717510E-003  0.9118800E+02  0.7818608E-02  0.1130116E+00
         25   -1    0    0    0    0  0.00000000000E+00  0.00000000000E+00  0.99999998245E-14  0.12500000000E+03  0.12500000000E+03 0.  0.
        -11    1    3    3    0    0  0.17614860933E+02 -0.48462397136E+01 -0.39910421186E+02  0.43893178109E+02  0.51100000000E-03 0. -1.
         23    2    1    0    0    0  0.46772421558E+00 -0.29661826495E+02  0.16993092756E+01  0.95285855742E+02  0.90534324626E+02 0.  0.
         11    1    3    3    0    0 -0.17147136717E+02 -0.24815586782E+02  0.41609730461E+02  0.51392677633E+02  0.51100000000E-03 0.  1.
         22    1    1    0    0    0 -0.46772421558E+00  0.29661826495E+02 -0.16993092756E+01  0.29714144258E+02  0.00000000000E+00 0. -1.
</event>
<event>
 5    1  0.1717510E-003  0.9118800E+02  0.7818608E-02  0.1130116E+00
         25   -1    0    0    0    0  0.00000000000E+00  0.00000000000E+00  0.99999998245E-14  0.12500000000E+03  0.12500000000E+03 0.  0.
        -11    1    3    3    0    0 -0.22472969024E+02  0.82426319237E+01 -0.28885600230E+02  0.37514706698E+02  0.51100000000E-03 0. -1.
         23    2    1    0    0    0  0.21375861828E+01 -0.26071819542E+02  0.11934712860E+02  0.96246801570E+02  0.91851512739E+02 0.  0.
         11    1    3    3    0    0  0.24610555207E+02 -0.34314451466E+02  0.40820313089E+02  0.58732094871E+02  0.51100000000E-03 0.  1.
         22    1    1    0    0    0 -0.21375861828E+01  0.26071819542E+02 -0.11934712860E+02  0.28753198430E+02  0.00000000000E+00 0.  1.
</event>
<event>
 5    1  0.1717510E-003  0.9118800E+02  0.7818608E-02  0.1130116E+00
         25   -1    0    0    0    0  0.00000000000E+00  0.00000000000E+00  0.99999998245E-14  0.12500000000E+03  0.12500000000E+03 0.  0.
        -11    1    3    3    0    0  0.43595102750E+02  0.31344571835E+02 -0.31535731611E+02  0.62269716041E+02  0.51100000000E-03 0.  1.
         23    2    1    0    0    0  0.18457613015E+02  0.17760667705E+02 -0.16099692426E+02  0.94745663257E+02  0.89785387532E+02 0.  0.
         11    1    3    3    0    0 -0.25137489735E+02 -0.13583904130E+02  0.15436039185E+02  0.32475947216E+02  0.51100000000E-03 0. -1.
         22    1    1    0    0    0 -0.18457613015E+02 -0.17760667705E+02  0.16099692426E+02  0.30254336743E+02  0.00000000000E+00 0.  1.
</event>
<event>
 5    1  0.1717510E-003  0.9118800E+02  0.7818608E-02  0.1130116E+00
         25   -1    0    0    0    0  0.00000000000E+00  0.00000000000E+00  0.99999998245E-14  0.12500000000E+03  0.12500000000E+03 0.  0.
        -11    1    3    3    0    0  0.32834687160E+02  0.24638972512E+02 -0.14469632422E+02  0.43526611515E+02  0.51100000000E-03 0.  1.
         23    2    1    0    0    0  0.59067248203E-01  0.17355517464E+02  0.24506616335E+02  0.94970152854E+02  0.90097381835E+02 0.  0.
         11    1    3    3    0    0 -0.32775619912E+02 -0.72834550477E+01  0.38976248757E+02  0.51443541339E+02  0.51100000000E-03 0. -1.
         22    1    1    0    0    0 -0.59067248203E-01 -0.17355517464E+02 -0.24506616335E+02  0.30029847146E+02  0.00000000000E+00 0. -1.
</event>
<event>
 5    1  0.1717510E-003  0.9118800E+02  0.7818608E-02  0.1130116E+00
         25   -1    0    0    0    0  0.00000000000E+00  0.00000000000E+00  0.99999998245E-14  0.12500000000E+03  0.12500000000E+03 0.  0.
        -11    1    3    3    0    0  0.29520499130E+02  0.52926480437E+02  0.13714095519E+02  0.62134922681E+02  0.51100000000E-03 0.  1.
         23    2    1    0    0    0  0.11750902780E+02  0.30560333572E+02  0.61424540704E+01  0.91687127921E+02  0.85421203341E+02 0.  0.
         11    1    3    3    0    0 -0.17769596350E+02 -0.22366146866E+02 -0.75716414491E+01  0.29552205240E+02  0.51100000000E-03 0. -1.
         22    1    1    0    0    0 -0.11750902780E+02 -0.30560333572E+02 -0.61424540704E+01  0.33312872079E+02  0.00000000000E+00 0.  1.
</event>
<event>
 5    1  0.1717510E-003  0.9118800E+02  0.7818608E-02  0.1130116E+00
         25   -1    0    0    0    0  0.00000000000E+00  0.00000000000E+00  0.99999998245E-14  0.12500000000E+03  0.12500000000E+03 0.  0.
        -11    1    3    3    0    0  0.13128284971E+02  0.84082869557E+01  0.49194071178E+02  0.51605307819E+02  0.51100000000E-03 0.  1.
         23    2    1    0    0    0  0.48082924172E+00  0.27271647088E+02  0.11964157206E+02  0.95215524358E+02  0.90437166527E+02 0.  0.
         11    1    3    3    0    0 -0.12647455729E+02  0.18863360132E+02 -0.37229913972E+02  0.43610216538E+02  0.51100000000E-03 0. -1.
         22    1    1    0    0    0 -0.48082924172E+00 -0.27271647088E+02 -0.11964157206E+02  0.29784475642E+02  0.00000000000E+00 0.  1.
</event>
<event>
 5    1  0.1717510E-003  0.9118800E+02  0.7818608E-02  0.1130116E+00
         25   -1    0    0    0    0  0.00000000000E+00  0.00000000000E+00  0.99999998245E-14  0.12500000000E+03  0.12500000000E+03 0.  0.
        -11    1    3    3    0    0 -0.18842728284E+02 -0.42931901888E+02  0.31268595546E+02  0.56355316312E+02  0.51100000000E-03 0.  1.
         23    2    1    0    0    0 -0.44594079133E+01 -0.32822912448E+02  0.40701696081E+00  0.91873038725E+02  0.85692821643E+02 0.  0.
         11    1    3    3    0    0  0.14383320371E+02  0.10108989440E+02 -0.30861578585E+02  0.35517722413E+02  0.51100000000E-03 0. -1.
         22    1    1    0    0    0  0.44594079133E+01  0.32822912448E+02 -0.40701696081E+00  0.33126961275E+02  0.00000000000E+00 0.  1.
</event>
<event>
 5    1  0.1717510E-003  0.9118800E+02  0.7818608E-02  0.1130116E+00
         25   -1    0    0    0    0  0.00000000000E+00  0.00000000000E+00  0.99999998245E-14  0.12500000000E+03  0.12500000000E+03 0.  0.
        -11    1    3    3    0    0 -0.11130146515E+02 -0.17002581674E+02  0.29577738657E+02  0.35886077653E+02  0.51100000000E-03 0. -1.
         23    2    1    0    0    0  0.18908572551E+02 -0.65134549604E+01 -0.21229717480E+02  0.95833921832E+02  0.91287898748E+02 0.  0.
         11    1    3    3    0    0  0.30038719066E+02  0.10489126713E+02 -0.50807456137E+02  0.59947844179E+02  0.51100000000E-03 0.  1.
         22    1    1    0    0    0 -0.18908572551E+02  0.65134549604E+01  0.21229717480E+02  0.29166078168E+02  0.00000000000E+00 0.  1.
</event>
<event>
 5    1  0.1717510E-003  0.9118800E+02  0.7818608E-02  0.1130116E+00
         25   -1    0    0    0    0  0.00000000000E+00  0.00000000000E+00  0.99999998245E-14  0.12500000000E+03  0.12500000000E+03 0.  0.
        -11    1    3    3    0    0 -0.36362702291E+02 -0.15048081934E+02  0.34048160721E+02  0.52038141171E+02  0.51100000000E-03 0.  1.
         23    2    1    0    0    0 -0.14095521719E+02 -0.26067612665E+02 -0.14075566606E+01  0.95332081664E+02  0.90598125897E+02 0.  0.
         11    1    3    3    0    0  0.22267180572E+02 -0.11019530732E+02 -0.35455717381E+02  0.43293940493E+02  0.51100000000E-03 0. -1.
         22    1    1    0    0    0  0.14095521719E+02  0.26067612665E+02  0.14075566606E+01  0.29667918336E+02  0.00000000000E+00 0. -1.
</event>
<event>
 5    1  0.1717510E-003  0.9118800E+02  0.7818608E-02  0.1130116E+00
         25   -1    0    0    0    0  0.00000000000E+00  0.00000000000E+00  0.99999998245E-14  0.12500000000E+03  0.12500000000E+03 0.  0.
        -11    1    3    3    0    0 -0.23091243885E+02 -0.24895839488E+02 -0.10304428469E+02  0.35485061847E+02  0.51100000000E-03 0. -1.
         23    2    1    0    0    0 -0.26614629900E+02  0.16880411962E+02 -0.29714124141E+02  0.81684690856E+02  0.69254405738E+02 0.  0.
         11    1    3    3    0    0 -0.35233860150E+01  0.41776251450E+02 -0.19409695672E+02  0.46199629009E+02  0.51100000000E-03 0.  1.
         22    1    1    0    0    0  0.26614629900E+02 -0.16880411962E+02  0.29714124141E+02  0.43315309144E+02  0.00000000000E+00 0.  1.
</event>
<event>
 5    1  0.1717510E-003  0.9118800E+02  0.7818608E-02  0.1130116E+00
         25   -1    0    0    0    0  0.00000000000E+00  0.00000000000E+00  0.99999998245E-14  0.12500000000E+03  0.12500000000E+03 0.  0.
        -11    1    3    3    0    0 -0.33106577339E+02  0.26738889650E+02  0.44596606500E+02  0.61643093647E+02  0.51100000000E-03 0.  1.
         23    2    1    0    0    0 -0.13173347889E+02  0.72825056565E+01  0.25409907339E+02  0.95466368760E+02  0.90783215353E+02 0.  0.
         11    1    3    3    0    0  0.19933229450E+02 -0.19456383994E+02 -0.19186699161E+02  0.33823275113E+02  0.51100000000E-03 0. -1.
         22    1    1    0    0    0  0.13173347889E+02 -0.72825056565E+01 -0.25409907339E+02  0.29533631240E+02  0.00000000000E+00 0.  1.
</event>
<event>
 5    1  0.1717510E-003  0.9118800E+02  0.7818608E-02  0.1130116E+00
         25   -1    0    0    0    0  0.00000000000E+00  0.00000000000E+00  0.99999998245E-14  0.12500000000E+03  0.12500000000E+03 0.  0.
        -11    1    3    3    0    0 -0.12152160180E+02  0.33050863898E+02 -0.18769125495E+02  0.39903817782E+02  0.51100000000E-03 0. -1.
         23    2    1    0    0    0 -0.12158098335E+02  0.36652108986E+01  0.27496535151E+02  0.94712831572E+02  0.89739667333E+02 0.  0.
         11    1    3    3    0    0 -0.59381550363E-02 -0.29385652999E+02  0.46265660646E+02  0.54809013791E+02  0.51100000000E-03 0.  1.
         22    1    1    0    0    0  0.12158098335E+02 -0.36652108986E+01 -0.27496535151E+02  0.30287168428E+02  0.00000000000E+00 0.  1.
</event>
<event>
 5    1  0.1717510E-003  0.9118800E+02  0.7818608E-02  0.1130116E+00
         25   -1    0    0    0    0  0.00000000000E+00  0.00000000000E+00  0.99999998245E-14  0.12500000000E+03  0.12500000000E+03 0.  0.
        -11    1    3    3    0    0  0.13794663290E+02 -0.41968119845E+02  0.29396807792E+02  0.53064000294E+02  0.51100000000E-03 0.  1.
         23    2    1    0    0    0 -0.25896223365E+01  0.21022680804E+01  0.24430280162E+02  0.10034306865E+03  0.97266475015E+02 0.  0.
         11    1    3    3    0    0 -0.16384285626E+02  0.44070387925E+02 -0.49665276299E+01  0.47279068353E+02  0.51100000000E-03 0. -1.
         22    1    1    0    0    0  0.25896223365E+01 -0.21022680804E+01 -0.24430280162E+02  0.24656931353E+02  0.00000000000E+00 0.  1.
</event>
<event>
 5    1  0.1717510E-003  0.9118800E+02  0.7818608E-02  0.1130116E+00
         25   -1    0    0    0    0  0.00000000000E+00  0.00000000000E+00  0.99999998245E-14  0.12500000000E+03  0.12500000000E+03 0.  0.
        -11    1    3    3    0    0  0.42759065008E+02 -0.93417267155E+00  0.19980576817E+02  0.47206289508E+02  0.51100000000E-03 0.  1.
         23    2    1    0    0    0  0.17187651949E+02 -0.97204168173E+01 -0.20917728883E+02  0.96234512619E+02  0.91834787280E+02 0.  0.
         11    1    3    3    0    0 -0.25571413059E+02 -0.87862441457E+01 -0.40898305700E+02  0.49028223111E+02  0.51100000000E-03 0. -1.
         22    1    1    0    0    0 -0.17187651949E+02  0.97204168173E+01  0.20917728883E+02  0.28765487381E+02  0.00000000000E+00 0. -1.
</event>
<event>
 5    1  0.1717510E-003  0.9118800E+02  0.7818608E-02  0.1130116E+00
         25   -1    0    0    0    0  0.00000000000E+00  0.00000000000E+00  0.99999998245E-14  0.12500000000E+03  0.12500000000E+03 0.  0.
        -11    1    3    3    0    0 -0.20019592149E+02 -0.35031740318E+01  0.48413441804E+02  0.52506358145E+02  0.51100000000E-03 0.  1.
         23    2    1    0    0    0  0.99190544994E+01 -0.18053626157E+02  0.20338299061E+02  0.96052332248E+02  0.91586478598E+02 0.  0.
         11    1    3    3    0    0  0.29938646649E+02 -0.14550452126E+02 -0.28075142743E+02  0.43545974102E+02  0.51100000000E-03 0. -1.
         22    1    1    0    0    0 -0.99190544994E+01  0.18053626157E+02 -0.20338299061E+02  0.28947667752E+02  0.00000000000E+00 0.  1.
</event>
<event>
 5    1  0.1717510E-003  0.9118800E+02  0.7818608E-02  0.1130116E+00
         25   -1    0    0    0    0  0.00000000000E+00  0.00000000000E+00  0.99999998245E-14  0.12500000000E+03  0.12500000000E+03 0.  0.
        -11    1    3    3    0    0 -0.33380851942E+02 -0.26376080701E+02 -0.29162048006E+02  0.51579103848E+02  0.51100000000E-03 0.  1.
         23    2    1    0    0    0  0.65409132968E+01 -0.27304191690E+01 -0.25961494637E+02  0.98088330795E+02  0.94324348388E+02 0.  0.
         11    1    3    3    0    0  0.39921765239E+02  0.23645661533E+02  0.32005533691E+01  0.46509226947E+02  0.51100000000E-03 0. -1.
         22    1    1    0    0    0 -0.65409132968E+01  0.27304191690E+01  0.25961494637E+02  0.26911669205E+02  0.00000000000E+00 0.  1.
</event>
<event>
 5    1  0.1717510E-003  0.9118800E+02  0.7818608E-02  0.1130116E+00
         25   -1    0    0    0    0  0.00000000000E+00  0.00000000000E+00  0.99999998245E-14  0.12500000000E+03  0.12500000000E+03 0.  0.
        -11    1    3    3    0    0  0.12106055583E+02  0.29597799597E+02 -0.45991333151E+02  0.56015971365E+02  0.51100000000E-03 0.  1.
         23    2    1    0    0    0  0.10338219692E+02 -0.84104722223E+01 -0.13129483095E+02  0.10629176236E+03  0.10463240697E+03 0.  0.
         11    1    3    3    0    0 -0.17678358910E+01 -0.38008271819E+02  0.32861850056E+02  0.50275790991E+02  0.51100000000E-03 0. -1.
         22    1    1    0    0    0 -0.10338219692E+02  0.84104722223E+01  0.13129483095E+02  0.18708237644E+02  0.00000000000E+00 0.  1.
</event>
<event>
 5    1  0.1717510E-003  0.9118800E+02  0.7818608E-02  0.1130116E+00
         25   -1    0    0    0    0  0.00000000000E+00  0.00000000000E+00  0.99999998245E-14  0.12500000000E+03  0.12500000000E+03 0.  0.
        -11    1    3    3    0    0  0.32669707071E+02 -0.22770587768E+02 -0.38646426194E+02  0.55491942526E+02  0.51100000000E-03 0. -1.
         23    2    1    0    0    0  0.17442681242E+01 -0.26225621074E+02 -0.13790395997E+02  0.95318344154E+02  0.90579170003E+02 0.  0.
         11    1    3    3    0    0 -0.30925438947E+02 -0.34550333060E+01  0.24856030197E+02  0.39826401628E+02  0.51100000000E-03 0.  1.
         22    1    1    0    0    0 -0.17442681242E+01  0.26225621074E+02  0.13790395997E+02  0.29681655846E+02  0.00000000000E+00 0. -1.
</event>
<event>
 5    1  0.1717510E-003  0.9118800E+02  0.7818608E-02  0.1130116E+00
         25   -1    0    0    0    0  0.00000000000E+00  0.00000000000E+00  0.99999998245E-14  0.12500000000E+03  0.12500000000E+03 0.  0.
        -11    1    3    3    0    0  0.99830489529E+01 -0.39733923830E+02 -0.84020138763E+00  0.40977456094E+02  0.51100000000E-03 0.  1.
         23    2    1    0    0    0  0.10224268019E+02  0.17918688099E+02 -0.13941710580E+02  0.10010047523E+03  0.96954209854E+02 0.  0.
         11    1    3    3    0    0  0.24121906616E+00  0.57652611928E+02 -0.13101509193E+02  0.59123019139E+02  0.51100000000E-03 0. -1.
         22    1    1    0    0    0 -0.10224268019E+02 -0.17918688099E+02  0.13941710580E+02  0.24899524767E+02  0.00000000000E+00 0. -1.
</event>
<event>
 5    1  0.1717510E-003  0.9118800E+02  0.7818608E-02  0.1130116E+00
         25   -1    0    0    0    0  0.00000000000E+00  0.00000000000E+00  0.99999998245E-14  0.12500000000E+03  0.12500000000E+03 0.  0.
        -11    1    3    3    0    0  0.41456742058E+01 -0.27247422688E+02 -0.20200498731E+02  0.34171169236E+02  0.51100000000E-03 0. -1.
         23    2    1    0    0    0 -0.68891056991E+01  0.16657562173E+02  0.22341053048E+02  0.96293610360E+02  0.91915192378E+02 0.  0.
         11    1    3    3    0    0 -0.11034779905E+02  0.43904984861E+02  0.42541551778E+02  0.62122441124E+02  0.51100000000E-03 0.  1.
         22    1    1    0    0    0  0.68891056991E+01 -0.16657562173E+02 -0.22341053048E+02  0.28706389640E+02  0.00000000000E+00 0.  1.
</event>
<event>
 5    1  0.1717510E-003  0.9118800E+02  0.7818608E-02  0.1130116E+00
         25   -1    0    0    0    0  0.00000000000E+00  0.00000000000E+00  0.99999998245E-14  0.12500000000E+03  0.12500000000E+03 0.  0.
        -11    1    3    3    0    0  0.40675323474E+02  0.18662383385E+02 -0.70452902834E+00  0.44757824509E+02  0.51100000000E-03 0. -1.
         23    2    1    0    0    0  0.17429724548E+02 -0.25153601685E+02 -0.14432931705E+01  0.94363713170E+02  0.89252049234E+02 0.  0.
         11    1    3    3    0    0 -0.23245598926E+02 -0.43815985070E+02 -0.73876414212E+00  0.49605888661E+02  0.51100000000E-03 0.  1.
         22    1    1    0    0    0 -0.17429724548E+02  0.25153601685E+02  0.14432931705E+01  0.30636286830E+02  0.00000000000E+00 0.  1.
</event>
<event>
 5    1  0.1717510E-003  0.9118800E+02  0.7818608E-02  0.1130116E+00
         25   -1    0    0    0    0  0.00000000000E+00  0.00000000000E+00  0.99999998245E-14  0.12500000000E+03  0.12500000000E+03 0.  0.
        -11    1    3    3    0    0  0.16553733183E+02  0.14998331208E+02 -0.19652262127E+02  0.29752099561E+02  0.51100000000E-03 0.  1.
         23    2    1    0    0    0 -0.30410201359E+01 -0.28923622154E+02  0.17969411529E+02  0.90813402148E+02  0.84132933724E+02 0.  0.
         11    1    3    3    0    0 -0.19594753319E+02 -0.43921953362E+02  0.37621673656E+02  0.61061302587E+02  0.51100000000E-03 0. -1.
         22    1    1    0    0    0  0.30410201359E+01  0.28923622154E+02 -0.17969411529E+02  0.34186597852E+02  0.00000000000E+00 0. -1.
</event>
<event>
 5    1  0.1717510E-003  0.9118800E+02  0.7818608E-02  0.1130116E+00
         25   -1    0    0    0    0  0.00000000000E+00  0.00000000000E+00  0.99999998245E-14  0.12500000000E+03  0.12500000000E+03 0.  0.
        -11    1    3    3    0    0 -0.55368520362E+01 -0.43750149626E+02 -0.30067985815E+02  0.53374301813E+02  0.51100000000E-03 0.  1.
         23    2    1    0    0    0  0.20697568174E+02 -0.18599554117E+02 -0.74033436245E+01  0.96205169935E+02  0.91794839091E+02 0.  0.
         11    1    3    3    0    0  0.26234420210E+02  0.25150595509E+02  0.22664642191E+02  0.42830868122E+02  0.51100000000E-03 0. -1.
         22    1    1    0    0    0 -0.20697568174E+02  0.18599554117E+02  0.74033436245E+01  0.28794830065E+02  0.00000000000E+00 0.  1.
</event>
<event>
 5    1  0.1717510E-003  0.9118800E+02  0.7818608E-02  0.1130116E+00
         25   -1    0    0    0    0  0.00000000000E+00  0.00000000000E+00  0.99999998245E-14  0.12500000000E+03  0.12500000000E+03 0.  0.
        -11    1    3    3    0    0 -0.26881758461E+02  0.31876667992E+02 -0.50182825524E+01  0.41999214996E+02  0.51100000000E-03 0. -1.
         23    2    1    0    0    0  0.20380196320E+02  0.11381873985E+02 -0.18461596734E+02  0.95238783435E+02  0.90469308933E+02 0.  0.
         11    1    3    3    0    0  0.47261954781E+02 -0.20494794008E+02 -0.13443314182E+02  0.53239568439E+02  0.51100000000E-03 0.  1.
         22    1    1    0    0    0 -0.20380196320E+02 -0.11381873985E+02  0.18461596734E+02  0.29761216565E+02  0.00000000000E+00 0.  1.
</event>
<event>
 5    1  0.1717510E-003  0.9118800E+02  0.7818608E-02  0.1130116E+00
         25   -1    0    0    0    0  0.00000000000E+00  0.00000000000E+00  0.99999998245E-14  0.12500000000E+03  0.12500000000E+03 0.  0.
        -11    1    3    3    0    0 -0.26605333829E+02 -0.22967687956E+02  0.11482631234E+02  0.36975793413E+02  0.51100000000E-03 0. -1.
         23    2    1    0    0    0  0.76703906440E+01  0.24457776144E+02  0.14467040619E+02  0.95566804950E+02  0.90921401427E+02 0.  0.
         11    1    3    3    0    0  0.34275724473E+02  0.47425464101E+02  0.29844093855E+01  0.58591011537E+02  0.51100000000E-03 0.  1.
         22    1    1    0    0    0 -0.76703906440E+01 -0.24457776144E+02 -0.14467040619E+02  0.29433195050E+02  0.00000000000E+00 0.  1.
</event>
<event>
 5    1  0.1717510E-003  0.9118800E+02  0.7818608E-02  0.1130116E+00
         25   -1    0    0    0    0  0.00000000000E+00  0.00000000000E+00  0.99999998245E-14  0.12500000000E+03  0.12500000000E+03 0.  0.
        -11    1    3    3    0    0 -0.51653517664E+01 -0.35718997611E+02  0.37123875793E+02  0.51775571492E+02  0.51100000000E-03 0.  1.
         23    2    1    0    0    0 -0.10729105859E+02  0.54663655508E+01  0.28276555590E+02  0.94266330175E+02  0.89115557249E+02 0.  0.
         11    1    3    3    0    0 -0.55637540923E+01  0.41185363162E+02 -0.88473202027E+01  0.42490758683E+02  0.51100000000E-03 0. -1.
         22    1    1    0    0    0  0.10729105859E+02 -0.54663655508E+01 -0.28276555590E+02  0.30733669825E+02  0.00000000000E+00 0.  1.
</event>
<event>
 5    1  0.1717510E-003  0.9118800E+02  0.7818608E-02  0.1130116E+00
         25   -1    0    0    0    0  0.00000000000E+00  0.00000000000E+00  0.99999998245E-14  0.12500000000E+03  0.12500000000E+03 0.  0.
        -11    1    3    3    0    0  0.20914494860E+02  0.38998420062E+01 -0.31869744349E+02  0.38318474240E+02  0.51100000000E-03 0.  1.
         23    2    1    0    0    0  0.15126283757E+02 -0.13404357456E+02  0.21959021412E+02  0.95155739572E+02  0.90354495699E+02 0.  0.
         11    1    3    3    0    0 -0.57882111032E+01 -0.17304199463E+02  0.53828765761E+02  0.56837265332E+02  0.51100000000E-03 0. -1.
         22    1    1    0    0    0 -0.15126283757E+02  0.13404357456E+02 -0.21959021412E+02  0.29844260428E+02  0.00000000000E+00 0. -1.
</event>
<event>
 5    1  0.1717510E-003  0.9118800E+02  0.7818608E-02  0.1130116E+00
         25   -1    0    0    0    0  0.00000000000E+00  0.00000000000E+00  0.99999998245E-14  0.12500000000E+03  0.12500000000E+03 0.  0.
        -11    1    3    3    0    0  0.18231928776E+02 -0.44397675787E+02 -0.19179826033E+02  0.51685806263E+02  0.51100000000E-03 0. -1.
         23    2    1    0    0    0  0.22283155094E+02  0.54099796949E-01 -0.18029037222E+02  0.96336641668E+02  0.91973694157E+02 0.  0.
         11    1    3    3    0    0  0.40512263176E+01  0.44451775584E+02  0.11507888104E+01  0.44650835405E+02  0.51100000000E-03 0.  1.
         22    1    1    0    0    0 -0.22283155094E+02 -0.54099796949E-01  0.18029037222E+02  0.28663358332E+02  0.00000000000E+00 0. -1.
</event>
<event>
 5    1  0.1717510E-003  0.9118800E+02  0.7818608E-02  0.1130116E+00
         25   -1    0    0    0    0  0.00000000000E+00  0.00000000000E+00  0.99999998245E-14  0.12500000000E+03  0.12500000000E+03 0.  0.
        -11    1    3    3    0    0 -0.31171297346E+02  0.40139561087E+02  0.19605242475E+01  0.50859392427E+02  0.51100000000E-03 0. -1.
         23    2    1    0    0    0 -0.12640272732E+02  0.84091244143E+01 -0.24525747733E+02  0.96155552181E+02  0.91727248106E+02 0.  0.
         11    1    3    3    0    0  0.18531024615E+02 -0.31730436672E+02 -0.26486271980E+02  0.45296159753E+02  0.51100000000E-03 0.  1.
         22    1    1    0    0    0  0.12640272732E+02 -0.84091244143E+01  0.24525747733E+02  0.28844447819E+02  0.00000000000E+00 0. -1.
</event>
<event>
 5    1  0.1717510E-003  0.9118800E+02  0.7818608E-02  0.1130116E+00
         25   -1    0    0    0    0  0.00000000000E+00  0.00000000000E+00  0.99999998245E-14  0.12500000000E+03  0.12500000000E+03 0.  0.
        -11    1    3    3    0    0 -0.45460843419E+02 -0.34718650646E+02 -0.49196324096E+01  0.57413202056E+02  0.51100000000E-03 0.  1.
         23    2    1    0    0    0 -0.17184667196E+02 -0.20768846386E+02  0.14447142131E+02  0.94416055150E+02  0.89325325566E+02 0.  0.
         11    1    3    3    0    0  0.28276176223E+02  0.13949804260E+02  0.19366774541E+02  0.37002853093E+02  0.51100000000E-03 0. -1.
         22    1    1    0    0    0  0.17184667196E+02  0.20768846386E+02 -0.14447142131E+02  0.30583944850E+02  0.00000000000E+00 0.  1.
</event>
<event>
 5    1  0.1717510E-003  0.9118800E+02  0.7818608E-02  0.1130116E+00
         25   -1    0    0    0    0  0.00000000000E+00  0.00000000000E+00  0.99999998245E-14  0.12500000000E+03  0.12500000000E+03 0.  0.
        -11    1    3    3    0    0 -0.31727042154E+02 -0.36624054083E+02 -0.10502032648E+02  0.49580431940E+02  0.51100000000E-03 0.  1.
         23    2    1    0    0    0 -0.26458262734E+02  0.32061038459E+01  0.12156728400E+02  0.95706573874E+02  0.91113355050E+02 0.  0.
         11    1    3    3    0    0  0.52687794200E+01  0.39830157929E+02  0.22658761048E+02  0.46126141934E+02  0.51100000000E-03 0. -1.
         22    1    1    0    0    0  0.26458262734E+02 -0.32061038459E+01 -0.12156728400E+02  0.29293426126E+02  0.00000000000E+00 0.  1.
</event>
<event>
 5    1  0.1717510E-003  0.9118800E+02  0.7818608E-02  0.1130116E+00
         25   -1    0    0    0    0  0.00000000000E+00  0.00000000000E+00  0.99999998245E-14  0.12500000000E+03  0.12500000000E+03 0.  0.
        -11    1    3    3    0    0 -0.28709337352E+02 -0.48567205322E+02 -0.26395356444E+01  0.56479789595E+02  0.51100000000E-03 0. -1.
         23    2    1    0    0    0 -0.14101367839E+02 -0.18853412409E+02  0.17883177077E+02  0.95434686595E+02  0.90739581488E+02 0.  0.
         11    1    3    3    0    0  0.14607969512E+02  0.29713792914E+02  0.20522712721E+02  0.38954897000E+02  0.51100000000E-03 0.  1.
         22    1    1    0    0    0  0.14101367839E+02  0.18853412409E+02 -0.17883177077E+02  0.29565313405E+02  0.00000000000E+00 0. -1.
</event>
<event>
 5    1  0.1717510E-003  0.9118800E+02  0.7818608E-02  0.1130116E+00
         25   -1    0    0    0    0  0.00000000000E+00  0.00000000000E+00  0.99999998245E-14  0.12500000000E+03  0.12500000000E+03 0.  0.
        -11    1    3    3    0    0  0.33992886531E+02  0.26544283032E+02 -0.44634047360E+02  0.62067007987E+02  0.51100000000E-03 0.  1.
         23    2    1    0    0    0  0.20423386837E+02  0.97342112607E+01 -0.20347644534E+02  0.94571456873E+02  0.89542527428E+02 0.  0.
         11    1    3    3    0    0 -0.13569499695E+02 -0.16810071771E+02  0.24286402826E+02  0.32504448886E+02  0.51100000000E-03 0. -1.
         22    1    1    0    0    0 -0.20423386837E+02 -0.97342112607E+01  0.20347644534E+02  0.30428543127E+02  0.00000000000E+00 0.  1.
</event>
<event>
 5    1  0.1717510E-003  0.9118800E+02  0.7818608E-02  0.1130116E+00
         25   -1    0    0    0    0  0.00000000000E+00  0.00000000000E+00  0.99999998245E-14  0.12500000000E+03  0.12500000000E+03 0.  0.
        -11    1    3    3    0    0 -0.34101861170E+01 -0.89666394971E+01  0.53650396468E+02  0.54501330577E+02  0.51100000000E-03 0.  1.
         23    2    1    0    0    0  0.14710649457E+02 -0.14113594691E+02  0.45721317720E+02  0.74939679819E+02  0.55766656299E+02 0.  0.
         11    1    3    3    0    0  0.18120835574E+02 -0.51469551942E+01 -0.79290787483E+01  0.20438349242E+02  0.51100000000E-03 0. -1.
         22    1    1    0    0    0 -0.14710649457E+02  0.14113594691E+02 -0.45721317720E+02  0.50060320181E+02  0.00000000000E+00 0.  1.
</event>
<event>
 5    1  0.1717510E-003  0.9118800E+02  0.7818608E-02  0.1130116E+00
         25   -1    0    0    0    0  0.00000000000E+00  0.00000000000E+00  0.99999998245E-14  0.12500000000E+03  0.12500000000E+03 0.  0.
        -11    1    3    3    0    0  0.31705701510E+01  0.42583901113E+02 -0.39407074747E+02  0.58106442754E+02  0.51100000000E-03 0. -1.
         23    2    1    0    0    0  0.17195557093E+02  0.14283821583E+02 -0.18494005128E+02  0.95987193028E+02  0.91497531425E+02 0.  0.
         11    1    3    3    0    0  0.14024986942E+02 -0.28300079530E+02  0.20913069620E+02  0.37880750274E+02  0.51100000000E-03 0.  1.
         22    1    1    0    0    0 -0.17195557093E+02 -0.14283821583E+02  0.18494005128E+02  0.29012806972E+02  0.00000000000E+00 0. -1.
</event>
<event>
 5    1  0.1717510E-003  0.9118800E+02  0.7818608E-02  0.1130116E+00
         25   -1    0    0    0    0  0.00000000000E+00  0.00000000000E+00  0.99999998245E-14  0.12500000000E+03  0.12500000000E+03 0.  0.
        -11    1    3    3    0    0 -0.26299151077E+02 -0.63134057194E+01 -0.21732019608E+02  0.34695606575E+02  0.51100000000E-03 0.  1.
         23    2    1    0    0    0  0.22150742096E+02  0.12931869197E+02  0.11889197803E+02  0.96729137956E+02  0.92505591663E+02 0.  0.
         11    1    3    3    0    0  0.48449893172E+02  0.19245274917E+02  0.33621217411E+02  0.62033531380E+02  0.51100000000E-03 0. -1.
         22    1    1    0    0    0 -0.22150742096E+02 -0.12931869197E+02 -0.11889197803E+02  0.28270862044E+02  0.00000000000E+00 0. -1.
</event>
<event>
 5    1  0.1717510E-003  0.9118800E+02  0.7818608E-02  0.1130116E+00
         25   -1    0    0    0    0  0.00000000000E+00  0.00000000000E+00  0.99999998245E-14  0.12500000000E+03  0.12500000000E+03 0.  0.
        -11    1    3    3    0    0  0.25211521981E+02 -0.22247283974E+02 -0.88393355345E+01  0.34766310385E+02  0.51100000000E-03 0. -1.
         23    2    1    0    0    0 -0.27270213877E+02  0.89971766009E+01 -0.32878737529E+01  0.96096300141E+02  0.91646467664E+02 0.  0.
         11    1    3    3    0    0 -0.52481735859E+02  0.31244460575E+02  0.55514617816E+01  0.61329989756E+02  0.51100000000E-03 0.  1.
         22    1    1    0    0    0  0.27270213877E+02 -0.89971766009E+01  0.32878737529E+01  0.28903699859E+02  0.00000000000E+00 0.  1.
</event>
<event>
 5    1  0.1717510E-003  0.9118800E+02  0.7818608E-02  0.1130116E+00
         25   -1    0    0    0    0  0.00000000000E+00  0.00000000000E+00  0.99999998245E-14  0.12500000000E+03  0.12500000000E+03 0.  0.
        -11    1    3    3    0    0  0.18608828337E+01 -0.22791745812E+02  0.35084970272E+02  0.41879370832E+02  0.51100000000E-03 0.  1.
         23    2    1    0    0    0 -0.32389367445E+02  0.13343085706E+01  0.85344060629E+01  0.91478550304E+02  0.85115436767E+02 0.  0.
         11    1    3    3    0    0 -0.34250250279E+02  0.24126054382E+02 -0.26550564209E+02  0.49599179472E+02  0.51100000000E-03 0. -1.
         22    1    1    0    0    0  0.32389367445E+02 -0.13343085706E+01 -0.85344060629E+01  0.33521449696E+02  0.00000000000E+00 0. -1.
</event>
<event>
 5    1  0.1717510E-003  0.9118800E+02  0.7818608E-02  0.1130116E+00
         25   -1    0    0    0    0  0.00000000000E+00  0.00000000000E+00  0.99999998245E-14  0.12500000000E+03  0.12500000000E+03 0.  0.
        -11    1    3    3    0    0 -0.84847121865E+01  0.26985041010E+02  0.19518564987E+02  0.34367967042E+02  0.51100000000E-03 0.  1.
         23    2    1    0    0    0  0.55352868960E+00 -0.28793104339E+02 -0.46558294039E+01  0.95827650096E+02  0.91279310492E+02 0.  0.
         11    1    3    3    0    0  0.90382408761E+01 -0.55778145349E+02 -0.24174394391E+02  0.61459683054E+02  0.51100000000E-03 0. -1.
         22    1    1    0    0    0 -0.55352868960E+00  0.28793104339E+02  0.46558294039E+01  0.29172349904E+02  0.00000000000E+00 0. -1.
</event>
<event>
 5    1  0.1717510E-003  0.9118800E+02  0.7818608E-02  0.1130116E+00
         25   -1    0    0    0    0  0.00000000000E+00  0.00000000000E+00  0.99999998245E-14  0.12500000000E+03  0.12500000000E+03 0.  0.
        -11    1    3    3    0    0 -0.30853723575E+02 -0.47665848256E+02  0.22346427807E+02  0.61019244378E+02  0.51100000000E-03 0.  1.
         23    2    1    0    0    0 -0.18510331219E+02 -0.15422755948E+02  0.15878372350E+02  0.96144905626E+02  0.91712738518E+02 0.  0.
         11    1    3    3    0    0  0.12343392355E+02  0.32243092308E+02 -0.64680554575E+01  0.35125661248E+02  0.51100000000E-03 0. -1.
         22    1    1    0    0    0  0.18510331219E+02  0.15422755948E+02 -0.15878372350E+02  0.28855094374E+02  0.00000000000E+00 0.  1.
</event>
<event>
 5    1  0.1717510E-003  0.9118800E+02  0.7818608E-02  0.1130116E+00
         25   -1    0    0    0    0  0.00000000000E+00  0.00000000000E+00  0.99999998245E-14  0.12500000000E+03  0.12500000000E+03 0.  0.
        -11    1    3    3    0    0  0.20490466976E+02  0.27369341730E+02 -0.68408140290E+01  0.34867418035E+02  0.51100000000E-03 0. -1.
         23    2    1    0    0    0 -0.26185495300E+02 -0.89065725225E+01 -0.13254471875E+02  0.94329358942E+02  0.89203922199E+02 0.  0.
         11    1    3    3    0    0 -0.46675962275E+02 -0.36275914253E+02 -0.64136578464E+01  0.59461940907E+02  0.51100000000E-03 0.  1.
         22    1    1    0    0    0  0.26185495300E+02  0.89065725225E+01  0.13254471875E+02  0.30670641058E+02  0.00000000000E+00 0.  1.
</event>
<event>
 5    1  0.1717510E-003  0.9118800E+02  0.7818608E-02  0.1130116E+00
         25   -1    0    0    0    0  0.00000000000E+00  0.00000000000E+00  0.99999998245E-14  0.12500000000E+03  0.12500000000E+03 0.  0.
        -11    1    3    3    0    0 -0.34681719428E+02  0.19350018219E+02  0.18424235737E+02  0.43780101991E+02  0.51100000000E-03 0.  1.
         23    2    1    0    0    0 -0.91451197070E+01  0.11543601333E+02 -0.25713975391E+02  0.95367307301E+02  0.90646714365E+02 0.  0.
         11    1    3    3    0    0  0.25536599721E+02 -0.78064168860E+01 -0.44138211128E+02  0.51587205310E+02  0.51100000000E-03 0. -1.
         22    1    1    0    0    0  0.91451197070E+01 -0.11543601333E+02  0.25713975391E+02  0.29632692699E+02  0.00000000000E+00 0.  1.
</event>
<event>
 5    1  0.1717510E-003  0.9118800E+02  0.7818608E-02  0.1130116E+00
         25   -1    0    0    0    0  0.00000000000E+00  0.00000000000E+00  0.99999998245E-14  0.12500000000E+03  0.12500000000E+03 0.  0.
        -11    1    3    3    0    0 -0.28534809737E+02 -0.51977646727E+01  0.21540325036E+02  0.36128073949E+02  0.51100000000E-03 0.  1.
         23    2    1    0    0    0  0.24643429213E+02  0.14247966117E+02  0.50977051956E+00  0.96529611737E+02  0.92235583884E+02 0.  0.
         11    1    3    3    0    0  0.53178238950E+02  0.19445730790E+02 -0.21030554517E+02  0.60401537789E+02  0.51100000000E-03 0. -1.
         22    1    1    0    0    0 -0.24643429213E+02 -0.14247966117E+02 -0.50977051956E+00  0.28470388263E+02  0.00000000000E+00 0. -1.
</event>
<event>
 5    1  0.1717510E-003  0.9118800E+02  0.7818608E-02  0.1130116E+00
         25   -1    0    0    0    0  0.00000000000E+00  0.00000000000E+00  0.99999998245E-14  0.12500000000E+03  0.12500000000E+03 0.  0.
        -11    1    3    3    0    0 -0.41695102446E+02  0.79551058359E+01 -0.35259825289E+02  0.55181704908E+02  0.51100000000E-03 0. -1.
         23    2    1    0    0    0 -0.11174354079E+02 -0.15375924713E+02 -0.22238475438E+02  0.95745341574E+02  0.91166525619E+02 0.  0.
         11    1    3    3    0    0  0.30520748367E+02 -0.23331030549E+02  0.13021349851E+02  0.40563636666E+02  0.51100000000E-03 0.  1.
         22    1    1    0    0    0  0.11174354079E+02  0.15375924713E+02  0.22238475438E+02  0.29254658426E+02  0.00000000000E+00 0. -1.
</event>
<event>
 5    1  0.1717510E-003  0.9118800E+02  0.7818608E-02  0.1130116E+00
         25   -1    0    0    0    0  0.00000000000E+00  0.00000000000E+00  0.99999998245E-14  0.12500000000E+03  0.12500000000E+03 0.  0.
        -11    1    3    3    0    0 -0.22157795180E+02  0.17787041023E+02 -0.42452395670E+02  0.51083780341E+02  0.51100000000E-03 0.  1.
         23    2    1    0    0    0  0.10063350272E+01 -0.16492880311E+02 -0.22682288607E+02  0.96937319665E+02  0.92786474856E+02 0.  0.
         11    1    3    3    0    0  0.23164130207E+02 -0.34279921334E+02  0.19770107063E+02  0.45853539323E+02  0.51100000000E-03 0. -1.
         22    1    1    0    0    0 -0.10063350272E+01  0.16492880311E+02  0.22682288607E+02  0.28062680335E+02  0.00000000000E+00 0.  1.
</event>
<event>
 5    1  0.1717510E-003  0.9118800E+02  0.7818608E-02  0.1130116E+00
         25   -1    0    0    0    0  0.00000000000E+00  0.00000000000E+00  0.99999998245E-14  0.12500000000E+03  0.12500000000E+03 0.  0.
        -11    1    3    3    0    0 -0.37083252620E+02 -0.20608034187E+02  0.10008269972E+02  0.43589266638E+02  0.51100000000E-03 0. -1.
         23    2    1    0    0    0  0.14639313513E+02 -0.24866375959E+02  0.48056892367E+01  0.95746952252E+02  0.91168734022E+02 0.  0.
         11    1    3    3    0    0  0.51722566133E+02 -0.42583417717E+01 -0.52025807350E+01  0.52157685614E+02  0.51100000000E-03 0.  1.
         22    1    1    0    0    0 -0.14639313513E+02  0.24866375959E+02 -0.48056892367E+01  0.29253047748E+02  0.00000000000E+00 0.  1.
</event>
<event>
 5    1  0.1717510E-003  0.9118800E+02  0.7818608E-02  0.1130116E+00
         25   -1    0    0    0    0  0.00000000000E+00  0.00000000000E+00  0.99999998245E-14  0.12500000000E+03  0.12500000000E+03 0.  0.
        -11    1    3    3    0    0  0.73881662766E+01  0.97046379619E+01  0.34319271157E+02  0.36422209871E+02  0.51100000000E-03 0. -1.
         23    2    1    0    0    0  0.19161585361E+02 -0.14950924511E+02 -0.17532402996E+02  0.95031989520E+02  0.90183132459E+02 0.  0.
         11    1    3    3    0    0  0.11773419085E+02 -0.24655562473E+02 -0.51851674153E+02  0.58609779649E+02  0.51100000000E-03 0.  1.
         22    1    1    0    0    0 -0.19161585361E+02  0.14950924511E+02  0.17532402996E+02  0.29968010480E+02  0.00000000000E+00 0.  1.
</event>
<event>
 5    1  0.1717510E-003  0.9118800E+02  0.7818608E-02  0.1130116E+00
         25   -1    0    0    0    0  0.00000000000E+00  0.00000000000E+00  0.99999998245E-14  0.12500000000E+03  0.12500000000E+03 0.  0.
        -11    1    3    3    0    0  0.15696681295E+02  0.11650531693E+02  0.31784192305E+02  0.37314281088E+02  0.51100000000E-03 0.  1.
         23    2    1    0    0    0  0.94575735660E-01 -0.22635392352E+02 -0.15349277387E+02  0.97650955267E+02  0.93742940090E+02 0.  0.
         11    1    3    3    0    0 -0.15602105560E+02 -0.34285924045E+02 -0.47133469692E+02  0.60336674179E+02  0.51100000000E-03 0. -1.
         22    1    1    0    0    0 -0.94575735660E-01  0.22635392352E+02  0.15349277387E+02  0.27349044733E+02  0.00000000000E+00 0. -1.
</event>
<event>
 5    1  0.1717510E-003  0.9118800E+02  0.7818608E-02  0.1130116E+00
         25   -1    0    0    0    0  0.00000000000E+00  0.00000000000E+00  0.99999998245E-14  0.12500000000E+03  0.12500000000E+03 0.  0.
        -11    1    3    3    0    0 -0.87492098385E+01  0.58264826820E+02  0.39094343896E+01  0.59047628188E+02  0.51100000000E-03 0.  1.
         23    2    1    0    0    0 -0.46194757984E+01  0.26474924535E+02 -0.12838550479E+02  0.95215951179E+02  0.90437756466E+02 0.  0.
         11    1    3    3    0    0  0.41297340401E+01 -0.31789902285E+02 -0.16747984869E+02  0.36168322991E+02  0.51100000000E-03 0. -1.
         22    1    1    0    0    0  0.46194757984E+01 -0.26474924535E+02  0.12838550479E+02  0.29784048821E+02  0.00000000000E+00 0.  1.
</event>
<event>
 5    1  0.1717510E-003  0.9118800E+02  0.7818608E-02  0.1130116E+00
         25   -1    0    0    0    0  0.00000000000E+00  0.00000000000E+00  0.99999998245E-14  0.12500000000E+03  0.12500000000E+03 0.  0.
        -11    1    3    3    0    0 -0.22172146876E+02 -0.18071929560E+02 -0.36372341139E+02  0.46272518143E+02  0.51100000000E-03 0. -1.
         23    2    1    0    0    0  0.49657621616E+00 -0.26215651512E+02  0.86971572887E+01  0.97374875258E+02  0.93374079993E+02 0.  0.
         11    1    3    3    0    0  0.22668723092E+02 -0.81437219520E+01  0.45069498428E+02  0.51102357115E+02  0.51100000000E-03 0.  1.
         22    1    1    0    0    0 -0.49657621616E+00  0.26215651512E+02 -0.86971572887E+01  0.27625124742E+02  0.00000000000E+00 0.  1.
</event>
<event>
 5    1  0.1717510E-003  0.9118800E+02  0.7818608E-02  0.1130116E+00
         25   -1    0    0    0    0  0.00000000000E+00  0.00000000000E+00  0.99999998245E-14  0.12500000000E+03  0.12500000000E+03 0.  0.
        -11    1    3    3    0    0 -0.68898057724E+01 -0.23898896976E+02  0.31904008863E+02  0.40453584292E+02  0.51100000000E-03 0. -1.
         23    2    1    0    0    0 -0.20652232449E+02  0.20959559029E+02  0.33397513698E+01  0.95386291029E+02  0.90672888767E+02 0.  0.
         11    1    3    3    0    0 -0.13762426676E+02  0.44858456004E+02 -0.28564257493E+02  0.54932706738E+02  0.51100000000E-03 0.  1.
         22    1    1    0    0    0  0.20652232449E+02 -0.20959559029E+02 -0.33397513698E+01  0.29613708971E+02  0.00000000000E+00 0.  1.
</event>
<event>
 5    1  0.1717510E-003  0.9118800E+02  0.7818608E-02  0.1130116E+00
         25   -1    0    0    0    0  0.00000000000E+00  0.00000000000E+00  0.99999998245E-14  0.12500000000E+03  0.12500000000E+03 0.  0.
        -11    1    3    3    0    0  0.46837006786E+02  0.21510194653E+02 -0.19063737890E+02  0.54952886924E+02  0.51100000000E-03 0. -1.
         23    2    1    0    0    0  0.27165811907E+02 -0.11048003638E+02 -0.71456081471E+01  0.94815576256E+02  0.89882668319E+02 0.  0.
         11    1    3    3    0    0 -0.19671194880E+02 -0.32558198291E+02  0.11918129743E+02  0.39862689332E+02  0.51100000000E-03 0.  1.
         22    1    1    0    0    0 -0.27165811907E+02  0.11048003638E+02  0.71456081471E+01  0.30184423744E+02  0.00000000000E+00 0.  1.
</event>
<event>
 5    1  0.1717510E-003  0.9118800E+02  0.7818608E-02  0.1130116E+00
         25   -1    0    0    0    0  0.00000000000E+00  0.00000000000E+00  0.99999998245E-14  0.12500000000E+03  0.12500000000E+03 0.  0.
        -11    1    3    3    0    0  0.40482145677E+01 -0.48849218765E+02 -0.67404161116E+01  0.49477948874E+02  0.51100000000E-03 0. -1.
         23    2    1    0    0    0  0.29473566746E+02 -0.16339262979E+02 -0.60891862988E+01  0.90754696071E+02  0.84045666264E+02 0.  0.
         11    1    3    3    0    0  0.25425352178E+02  0.32509955787E+02  0.65122981277E+00  0.41276747197E+02  0.51100000000E-03 0.  1.
         22    1    1    0    0    0 -0.29473566746E+02  0.16339262979E+02  0.60891862988E+01  0.34245303929E+02  0.00000000000E+00 0. -1.
</event>
<event>
 5    1  0.1717510E-003  0.9118800E+02  0.7818608E-02  0.1130116E+00
         25   -1    0    0    0    0  0.00000000000E+00  0.00000000000E+00  0.99999998245E-14  0.12500000000E+03  0.12500000000E+03 0.  0.
        -11    1    3    3    0    0 -0.15029158141E+02  0.33948231594E+02  0.32711038656E+02  0.49481007194E+02  0.51100000000E-03 0. -1.
         23    2    1    0    0    0 -0.28740794553E+02  0.37204343956E+01  0.90791739057E-01  0.96019262487E+02  0.91541332860E+02 0.  0.
         11    1    3    3    0    0 -0.13711636412E+02 -0.30227797198E+02 -0.32620246917E+02  0.46538255293E+02  0.51100000000E-03 0.  1.
         22    1    1    0    0    0  0.28740794553E+02 -0.37204343956E+01 -0.90791739057E-01  0.28980737513E+02  0.00000000000E+00 0.  1.
</event>
<event>
 5    1  0.1717510E-003  0.9118800E+02  0.7818608E-02  0.1130116E+00
         25   -1    0    0    0    0  0.00000000000E+00  0.00000000000E+00  0.99999998245E-14  0.12500000000E+03  0.12500000000E+03 0.  0.
        -11    1    3    3    0    0  0.45398705420E+02  0.34606513886E+02  0.21764278091E+02  0.61092856033E+02  0.51100000000E-03 0. -1.
         23    2    1    0    0    0  0.26630912634E+02  0.18691270473E+02  0.24549330662E+01  0.92371855769E+02  0.86417382176E+02 0.  0.
         11    1    3    3    0    0 -0.18767792786E+02 -0.15915243413E+02 -0.19309345025E+02  0.31278999736E+02  0.51100000000E-03 0.  1.
         22    1    1    0    0    0 -0.26630912634E+02 -0.18691270473E+02 -0.24549330662E+01  0.32628144231E+02  0.00000000000E+00 0. -1.
</event>
<event>
 5    1  0.1717510E-003  0.9118800E+02  0.7818608E-02  0.1130116E+00
         25   -1    0    0    0    0  0.00000000000E+00  0.00000000000E+00  0.99999998245E-14  0.12500000000E+03  0.12500000000E+03 0.  0.
        -11    1    3    3    0    0 -0.17673030767E+02 -0.33677219667E+02  0.16669069015E+02  0.41525281493E+02  0.51100000000E-03 0. -1.
         23    2    1    0    0    0  0.12101822556E+01 -0.60763863547E+01 -0.27434699772E+02  0.96874393094E+02  0.92701662733E+02 0.  0.
         11    1    3    3    0    0  0.18883213022E+02  0.27600833312E+02 -0.44103768787E+02  0.55349111602E+02  0.51100000000E-03 0.  1.
         22    1    1    0    0    0 -0.12101822556E+01  0.60763863547E+01  0.27434699772E+02  0.28125606906E+02  0.00000000000E+00 0.  1.
</event>
<event>
 5    1  0.1717510E-003  0.9118800E+02  0.7818608E-02  0.1130116E+00
         25   -1    0    0    0    0  0.00000000000E+00  0.00000000000E+00  0.99999998245E-14  0.12500000000E+03  0.12500000000E+03 0.  0.
        -11    1    3    3    0    0  0.29061217883E+02  0.23522741230E+02  0.85092513591E+01  0.38344244663E+02  0.51100000000E-03 0.  1.
         23    2    1    0    0    0 -0.83857347797E+01 -0.16614595174E+02  0.23284905583E+02  0.95191408141E+02  0.90403827547E+02 0.  0.
         11    1    3    3    0    0 -0.37446952663E+02 -0.40137336405E+02  0.14775654224E+02  0.56847163477E+02  0.51100000000E-03 0. -1.
         22    1    1    0    0    0  0.83857347797E+01  0.16614595174E+02 -0.23284905583E+02  0.29808591859E+02  0.00000000000E+00 0. -1.
</event>
<event>
 5    1  0.1717510E-003  0.9118800E+02  0.7818608E-02  0.1130116E+00
         25   -1    0    0    0    0  0.00000000000E+00  0.00000000000E+00  0.99999998245E-14  0.12500000000E+03  0.12500000000E+03 0.  0.
        -11    1    3    3    0    0  0.10865569148E+01  0.14159952014E+02 -0.30120904409E+02  0.33300956888E+02  0.51100000000E-03 0. -1.
         23    2    1    0    0    0 -0.83914209397E+01 -0.19528404296E+02  0.20913188630E+02  0.95181616771E+02  0.90390288155E+02 0.  0.
         11    1    3    3    0    0 -0.94779778544E+01 -0.33688356309E+02  0.51034093039E+02  0.61880659883E+02  0.51100000000E-03 0.  1.
         22    1    1    0    0    0  0.83914209397E+01  0.19528404296E+02 -0.20913188630E+02  0.29818383229E+02  0.00000000000E+00 0.  1.
</event>
<event>
 5    1  0.1717510E-003  0.9118800E+02  0.7818608E-02  0.1130116E+00
         25   -1    0    0    0    0  0.00000000000E+00  0.00000000000E+00  0.99999998245E-14  0.12500000000E+03  0.12500000000E+03 0.  0.
        -11    1    3    3    0    0  0.70512970798E+00  0.35885771593E+02  0.26568285049E+01  0.35990895358E+02  0.51100000000E-03 0. -1.
         23    2    1    0    0    0 -0.17451610644E+02 -0.22127422630E+02  0.89621923546E+00  0.96804525979E+02  0.92607405184E+02 0.  0.
         11    1    3    3    0    0 -0.18156740352E+02 -0.58013194223E+02 -0.17606092694E+01  0.60813630622E+02  0.51100000000E-03 0.  1.
         22    1    1    0    0    0  0.17451610644E+02  0.22127422630E+02 -0.89621923546E+00  0.28195474021E+02  0.00000000000E+00 0.  1.
</event>
<event>
 4    1  0.1717510E-003  0.9118800E+02  0.7818608E-02  0.1130116E+00
         25   -1    0    0    0    0  0.00000000000E+00  0.00000000000E+00  0.99999998245E-14  0.12500000000E+03  0.12500000000E+03 0.  0.
        -11    1    1    0    0    0 -0.50851121495E+01  0.37344902955E+01 -0.65745751984E+01  0.91120701622E+01  0.51100000000E-03 0. -1.
         11    1    1    0    0    0  0.29633567804E+02 -0.22714065582E+02  0.50069917867E+02  0.62458576605E+02  0.51100000000E-03 0.  1.
         22    1    1    0    0    0 -0.24548455654E+02  0.18979575286E+02 -0.43495342668E+02  0.53429353233E+02  0.00000000000E+00 0.  1.
</event>
<event>
 5    1  0.1717510E-003  0.9118800E+02  0.7818608E-02  0.1130116E+00
         25   -1    0    0    0    0  0.00000000000E+00  0.00000000000E+00  0.99999998245E-14  0.12500000000E+03  0.12500000000E+03 0.  0.
        -11    1    3    3    0    0  0.27117182844E+02  0.18770156881E+02  0.59713960929E+01  0.33515936004E+02  0.51100000000E-03 0.  1.
         23    2    1    0    0    0 -0.22795146785E+02 -0.16646318685E+02 -0.66410539750E+01  0.96003064979E+02  0.91519212435E+02 0.  0.
         11    1    3    3    0    0 -0.49912329629E+02 -0.35416475565E+02 -0.12612450068E+02  0.62487128974E+02  0.51100000000E-03 0. -1.
         22    1    1    0    0    0  0.22795146785E+02  0.16646318685E+02  0.66410539750E+01  0.28996935021E+02  0.00000000000E+00 0. -1.
</event>
<event>
 5    1  0.1717510E-003  0.9118800E+02  0.7818608E-02  0.1130116E+00
         25   -1    0    0    0    0  0.00000000000E+00  0.00000000000E+00  0.99999998245E-14  0.12500000000E+03  0.12500000000E+03 0.  0.
        -11    1    3    3    0    0 -0.30362590835E+02 -0.52833984305E+02  0.25820472111E+01  0.60991669824E+02  0.51100000000E-03 0.  1.
         23    2    1    0    0    0 -0.12414968154E+02 -0.34729883352E+02  0.84750759210E+01  0.87156597090E+02  0.78512096346E+02 0.  0.
         11    1    3    3    0    0  0.17947622682E+02  0.18104100953E+02  0.58930287099E+01  0.26164927267E+02  0.51100000000E-03 0. -1.
         22    1    1    0    0    0  0.12414968154E+02  0.34729883352E+02 -0.84750759210E+01  0.37843402910E+02  0.00000000000E+00 0.  1.
</event>
<event>
 5    1  0.1717510E-003  0.9118800E+02  0.7818608E-02  0.1130116E+00
         25   -1    0    0    0    0  0.00000000000E+00  0.00000000000E+00  0.99999998245E-14  0.12500000000E+03  0.12500000000E+03 0.  0.
        -11    1    3    3    0    0 -0.16698909291E+01 -0.43417108637E+02 -0.10511940583E+02  0.44702737647E+02  0.51100000000E-03 0. -1.
         23    2    1    0    0    0  0.19809579043E+02 -0.81743793289E+01  0.19731337680E+02  0.95869850911E+02  0.91337082983E+02 0.  0.
         11    1    3    3    0    0  0.21479469972E+02  0.35242729308E+02  0.30243278263E+02  0.51167113264E+02  0.51100000000E-03 0.  1.
         22    1    1    0    0    0 -0.19809579043E+02  0.81743793289E+01 -0.19731337680E+02  0.29130149089E+02  0.00000000000E+00 0.  1.
</event>
<event>
 5    1  0.1717510E-003  0.9118800E+02  0.7818608E-02  0.1130116E+00
         25   -1    0    0    0    0  0.00000000000E+00  0.00000000000E+00  0.99999998245E-14  0.12500000000E+03  0.12500000000E+03 0.  0.
        -11    1    3    3    0    0 -0.38990768212E+02  0.12081823187E+02 -0.91873029716E+01  0.41840853163E+02  0.51100000000E-03 0. -1.
         23    2    1    0    0    0 -0.56717679853E+01 -0.28650111030E+02  0.22992051454E+01  0.95703512865E+02  0.91109155502E+02 0.  0.
         11    1    3    3    0    0  0.33319000226E+02 -0.40731934218E+02  0.11486508117E+02  0.53862659702E+02  0.51100000000E-03 0.  1.
         22    1    1    0    0    0  0.56717679853E+01  0.28650111030E+02 -0.22992051454E+01  0.29296487135E+02  0.00000000000E+00 0.  1.
</event>
<event>
 5    1  0.1717510E-003  0.9118800E+02  0.7818608E-02  0.1130116E+00
         25   -1    0    0    0    0  0.00000000000E+00  0.00000000000E+00  0.99999998245E-14  0.12500000000E+03  0.12500000000E+03 0.  0.
        -11    1    3    3    0    0 -0.37660937654E+02 -0.52754866730E+01 -0.28138914898E+02  0.47307245919E+02  0.51100000000E-03 0.  1.
         23    2    1    0    0    0 -0.14812479840E+02  0.25265936787E+02  0.15934641145E+01  0.95668851904E+02  0.91061588917E+02 0.  0.
         11    1    3    3    0    0  0.22848457814E+02  0.30541423460E+02  0.29732379012E+02  0.48361605985E+02  0.51100000000E-03 0. -1.
         22    1    1    0    0    0  0.14812479840E+02 -0.25265936787E+02 -0.15934641145E+01  0.29331148096E+02  0.00000000000E+00 0.  1.
</event>
<event>
 5    1  0.1717510E-003  0.9118800E+02  0.7818608E-02  0.1130116E+00
         25   -1    0    0    0    0  0.00000000000E+00  0.00000000000E+00  0.99999998245E-14  0.12500000000E+03  0.12500000000E+03 0.  0.
        -11    1    3    3    0    0 -0.18976143403E+02  0.17454972061E+02  0.33023135253E+02  0.41896271079E+02  0.51100000000E-03 0. -1.
         23    2    1    0    0    0 -0.48195872006E+01  0.24929891236E+02 -0.17016186040E+02  0.94434030603E+02  0.89350476500E+02 0.  0.
         11    1    3    3    0    0  0.14156556202E+02  0.74749191753E+01 -0.50039321292E+02  0.52537759525E+02  0.51100000000E-03 0.  1.
         22    1    1    0    0    0  0.48195872006E+01 -0.24929891236E+02  0.17016186040E+02  0.30565969397E+02  0.00000000000E+00 0.  1.
</event>
<event>
 5    1  0.1717510E-003  0.9118800E+02  0.7818608E-02  0.1130116E+00
         25   -1    0    0    0    0  0.00000000000E+00  0.00000000000E+00  0.99999998245E-14  0.12500000000E+03  0.12500000000E+03 0.  0.
        -11    1    3    3    0    0  0.40823390261E+00 -0.28012787363E+01  0.38303970935E+02  0.38408436666E+02  0.51100000000E-03 0. -1.
         23    2    1    0    0    0  0.21743106183E+02 -0.11976891016E+02 -0.14611003587E+02  0.96195659863E+02  0.91781888005E+02 0.  0.
         11    1    3    3    0    0  0.21334872281E+02 -0.91756122802E+01 -0.52914974522E+02  0.57787223197E+02  0.51100000000E-03 0.  1.
         22    1    1    0    0    0 -0.21743106183E+02  0.11976891016E+02  0.14611003587E+02  0.28804340137E+02  0.00000000000E+00 0.  1.
</event>
<event>
 5    1  0.1717510E-003  0.9118800E+02  0.7818608E-02  0.1130116E+00
         25   -1    0    0    0    0  0.00000000000E+00  0.00000000000E+00  0.99999998245E-14  0.12500000000E+03  0.12500000000E+03 0.  0.
        -11    1    3    3    0    0 -0.44331313414E+02  0.33541997951E+02 -0.24313424776E+02  0.60675148126E+02  0.51100000000E-03 0. -1.
         23    2    1    0    0    0 -0.98655372847E+01  0.19779250092E+02 -0.58002877613E+01  0.10214850337E+03  0.99559659715E+02 0.  0.
         11    1    3    3    0    0  0.34465776129E+02 -0.13762747859E+02  0.18513137015E+02  0.41473355244E+02  0.51100000000E-03 0.  1.
         22    1    1    0    0    0  0.98655372847E+01 -0.19779250092E+02  0.58002877613E+01  0.22851496630E+02  0.00000000000E+00 0. -1.
</event>
<event>
 5    1  0.1717510E-003  0.9118800E+02  0.7818608E-02  0.1130116E+00
         25   -1    0    0    0    0  0.00000000000E+00  0.00000000000E+00  0.99999998245E-14  0.12500000000E+03  0.12500000000E+03 0.  0.
        -11    1    3    3    0    0  0.15867554265E+02  0.44711710060E+02 -0.14378185939E+02  0.49574676257E+02  0.51100000000E-03 0.  1.
         23    2    1    0    0    0  0.29948354843E+02  0.47758139816E+01  0.10813654417E+01  0.94653967175E+02  0.89657636562E+02 0.  0.
         11    1    3    3    0    0  0.14080800578E+02 -0.39935896079E+02  0.15459551381E+02  0.45079290918E+02  0.51100000000E-03 0. -1.
         22    1    1    0    0    0 -0.29948354843E+02 -0.47758139816E+01 -0.10813654417E+01  0.30346032825E+02  0.00000000000E+00 0. -1.
</event>
<event>
 5    1  0.1717510E-003  0.9118800E+02  0.7818608E-02  0.1130116E+00
         25   -1    0    0    0    0  0.00000000000E+00  0.00000000000E+00  0.99999998245E-14  0.12500000000E+03  0.12500000000E+03 0.  0.
        -11    1    3    3    0    0  0.29368914683E+02 -0.30087141973E+02  0.25228133126E+00  0.42045605096E+02  0.51100000000E-03 0.  1.
         23    2    1    0    0    0 -0.20446132230E+01  0.42248571759E+01  0.28264442345E+02  0.96348498076E+02  0.91989806604E+02 0.  0.
         11    1    3    3    0    0 -0.31413527906E+02  0.34311999149E+02  0.28012161014E+02  0.54302892980E+02  0.51100000000E-03 0. -1.
         22    1    1    0    0    0  0.20446132230E+01 -0.42248571759E+01 -0.28264442345E+02  0.28651501924E+02  0.00000000000E+00 0.  1.
</event>
<event>
 5    1  0.1717510E-003  0.9118800E+02  0.7818608E-02  0.1130116E+00
         25   -1    0    0    0    0  0.00000000000E+00  0.00000000000E+00  0.99999998245E-14  0.12500000000E+03  0.12500000000E+03 0.  0.
        -11    1    3    3    0    0  0.35495116985E+02  0.11510124850E+02 -0.16868366284E+02  0.40950312394E+02  0.51100000000E-03 0.  1.
         23    2    1    0    0    0 -0.82892694099E+01  0.27793906801E+02  0.93590043109E+01  0.94523710786E+02  0.89475849794E+02 0.  0.
         11    1    3    3    0    0 -0.43784386395E+02  0.16283781951E+02  0.26227370595E+02  0.53573398391E+02  0.51100000000E-03 0. -1.
         22    1    1    0    0    0  0.82892694099E+01 -0.27793906801E+02 -0.93590043109E+01  0.30476289214E+02  0.00000000000E+00 0.  1.
</event>
<event>
 5    1  0.1717510E-003  0.9118800E+02  0.7818608E-02  0.1130116E+00
         25   -1    0    0    0    0  0.00000000000E+00  0.00000000000E+00  0.99999998245E-14  0.12500000000E+03  0.12500000000E+03 0.  0.
        -11    1    3    3    0    0  0.59473666312E+00 -0.64201825794E+01 -0.39391445954E+02  0.39915641929E+02  0.51100000000E-03 0. -1.
         23    2    1    0    0    0  0.51654094019E+01 -0.27583532032E+02  0.11075141674E+02  0.94830620545E+02  0.89903588005E+02 0.  0.
         11    1    3    3    0    0  0.45706727388E+01 -0.21163349452E+02  0.50466587627E+02  0.54914978615E+02  0.51100000000E-03 0.  1.
         22    1    1    0    0    0 -0.51654094019E+01  0.27583532032E+02 -0.11075141674E+02  0.30169379455E+02  0.00000000000E+00 0.  1.
</event>
<event>
 5    1  0.1717510E-003  0.9118800E+02  0.7818608E-02  0.1130116E+00
         25   -1    0    0    0    0  0.00000000000E+00  0.00000000000E+00  0.99999998245E-14  0.12500000000E+03  0.12500000000E+03 0.  0.
        -11    1    3    3    0    0 -0.19361275806E+02 -0.16905097014E+02 -0.75048800151E+01  0.26776193348E+02  0.51100000000E-03 0.  1.
         23    2    1    0    0    0  0.20553592916E+02  0.24784119063E+02 -0.21649360519E+02  0.86200547036E+02  0.76974909931E+02 0.  0.
         11    1    3    3    0    0  0.39914868722E+02  0.41689216077E+02 -0.14144480504E+02  0.59424353688E+02  0.51100000000E-03 0. -1.
         22    1    1    0    0    0 -0.20553592916E+02 -0.24784119063E+02  0.21649360519E+02  0.38799452964E+02  0.00000000000E+00 0. -1.
</event>
<event>
 5    1  0.1717510E-003  0.9118800E+02  0.7818608E-02  0.1130116E+00
         25   -1    0    0    0    0  0.00000000000E+00  0.00000000000E+00  0.99999998245E-14  0.12500000000E+03  0.12500000000E+03 0.  0.
        -11    1    3    3    0    0 -0.15836198386E+02 -0.11464064484E+02  0.28725896746E+02  0.34747476138E+02  0.51100000000E-03 0. -1.
         23    2    1    0    0    0  0.27345960659E+02  0.79429887776E+01 -0.88395880542E+01  0.95183377923E+02  0.90392723606E+02 0.  0.
         11    1    3    3    0    0  0.43182159045E+02  0.19407053262E+02 -0.37565484800E+02  0.60435901786E+02  0.51100000000E-03 0.  1.
         22    1    1    0    0    0 -0.27345960659E+02 -0.79429887776E+01  0.88395880542E+01  0.29816622077E+02  0.00000000000E+00 0.  1.
</event>
<event>
 5    1  0.1717510E-003  0.9118800E+02  0.7818608E-02  0.1130116E+00
         25   -1    0    0    0    0  0.00000000000E+00  0.00000000000E+00  0.99999998245E-14  0.12500000000E+03  0.12500000000E+03 0.  0.
        -11    1    3    3    0    0 -0.67351991607E+01 -0.52425068501E+02  0.18358873160E+02  0.55953542685E+02  0.51100000000E-03 0. -1.
         23    2    1    0    0    0 -0.18634713713E+02 -0.23432164730E+02 -0.44741110437E+01  0.94728948338E+02  0.89762113860E+02 0.  0.
         11    1    3    3    0    0 -0.11899514552E+02  0.28992903771E+02 -0.22832984203E+02  0.38775405653E+02  0.51100000000E-03 0.  1.
         22    1    1    0    0    0  0.18634713713E+02  0.23432164730E+02  0.44741110437E+01  0.30271051662E+02  0.00000000000E+00 0. -1.
</event>
<event>
 5    1  0.1717510E-003  0.9118800E+02  0.7818608E-02  0.1130116E+00
         25   -1    0    0    0    0  0.00000000000E+00  0.00000000000E+00  0.99999998245E-14  0.12500000000E+03  0.12500000000E+03 0.  0.
        -11    1    3    3    0    0 -0.15569076822E+02 -0.55487259658E+02 -0.12916835428E+02  0.59059942221E+02  0.51100000000E-03 0. -1.
         23    2    1    0    0    0 -0.96378913820E+01 -0.20372045113E+02 -0.19406594338E+02  0.95259033705E+02  0.90497284082E+02 0.  0.
         11    1    3    3    0    0  0.59311854405E+01  0.35115214545E+02 -0.64897589099E+01  0.36199091483E+02  0.51100000000E-03 0.  1.
         22    1    1    0    0    0  0.96378913820E+01  0.20372045113E+02  0.19406594338E+02  0.29740966295E+02  0.00000000000E+00 0. -1.
</event>
<event>
 5    1  0.1717510E-003  0.9118800E+02  0.7818608E-02  0.1130116E+00
         25   -1    0    0    0    0  0.00000000000E+00  0.00000000000E+00  0.99999998245E-14  0.12500000000E+03  0.12500000000E+03 0.  0.
        -11    1    3    3    0    0  0.42274050379E+01 -0.25718766463E+02 -0.46812728765E+02  0.53579450132E+02  0.51100000000E-03 0.  1.
         23    2    1    0    0    0 -0.12888304645E+02 -0.23247710523E+02 -0.62222970195E+01  0.97700157118E+02  0.93808524556E+02 0.  0.
         11    1    3    3    0    0 -0.17115709682E+02  0.24710559391E+01  0.40590431746E+02  0.44120706986E+02  0.51100000000E-03 0. -1.
         22    1    1    0    0    0  0.12888304645E+02  0.23247710523E+02  0.62222970195E+01  0.27299842882E+02  0.00000000000E+00 0.  1.
</event>
<event>
 5    1  0.1717510E-003  0.9118800E+02  0.7818608E-02  0.1130116E+00
         25   -1    0    0    0    0  0.00000000000E+00  0.00000000000E+00  0.99999998245E-14  0.12500000000E+03  0.12500000000E+03 0.  0.
        -11    1    3    3    0    0  0.31141042480E+02 -0.33026444135E+01 -0.52719835729E+02  0.61319271574E+02  0.51100000000E-03 0.  1.
         23    2    1    0    0    0  0.21895729517E+02 -0.30441515282E+01 -0.20460745243E+02  0.94878049109E+02  0.89969507485E+02 0.  0.
         11    1    3    3    0    0 -0.92453129633E+01  0.25849288530E+00  0.32259090486E+02  0.33558777534E+02  0.51100000000E-03 0. -1.
         22    1    1    0    0    0 -0.21895729517E+02  0.30441515282E+01  0.20460745243E+02  0.30121950891E+02  0.00000000000E+00 0.  1.
</event>
<event>
 5    1  0.1717510E-003  0.9118800E+02  0.7818608E-02  0.1130116E+00
         25   -1    0    0    0    0  0.00000000000E+00  0.00000000000E+00  0.99999998245E-14  0.12500000000E+03  0.12500000000E+03 0.  0.
        -11    1    3    3    0    0 -0.17451513977E+02 -0.52748251781E+01 -0.43094033451E+02  0.46791824500E+02  0.51100000000E-03 0.  1.
         23    2    1    0    0    0  0.12590319916E+02 -0.24774054633E+02 -0.10269736599E+02  0.95373366233E+02  0.90655069126E+02 0.  0.
         11    1    3    3    0    0  0.30041833894E+02 -0.19499229455E+02  0.32824296851E+02  0.48581541732E+02  0.51100000000E-03 0. -1.
         22    1    1    0    0    0 -0.12590319916E+02  0.24774054633E+02  0.10269736599E+02  0.29626633767E+02  0.00000000000E+00 0. -1.
</event>
<event>
 5    1  0.1717510E-003  0.9118800E+02  0.7818608E-02  0.1130116E+00
         25   -1    0    0    0    0  0.00000000000E+00  0.00000000000E+00  0.99999998245E-14  0.12500000000E+03  0.12500000000E+03 0.  0.
        -11    1    3    3    0    0 -0.13278843100E+02 -0.20901338694E+02 -0.44646785270E+02  0.51054177777E+02  0.51100000000E-03 0. -1.
         23    2    1    0    0    0  0.62264339741E+01  0.14152254011E+02 -0.24713010044E+02  0.95848882713E+02  0.91308382300E+02 0.  0.
         11    1    3    3    0    0  0.19505277074E+02  0.35053592705E+02  0.19933775226E+02  0.44794704936E+02  0.51100000000E-03 0.  1.
         22    1    1    0    0    0 -0.62264339741E+01 -0.14152254011E+02  0.24713010044E+02  0.29151117287E+02  0.00000000000E+00 0.  1.
</event>
<event>
 5    1  0.1717510E-003  0.9118800E+02  0.7818608E-02  0.1130116E+00
         25   -1    0    0    0    0  0.00000000000E+00  0.00000000000E+00  0.99999998245E-14  0.12500000000E+03  0.12500000000E+03 0.  0.
        -11    1    3    3    0    0 -0.23336173144E+02  0.24432344102E+02  0.17519962219E+02  0.38058711115E+02  0.51100000000E-03 0.  1.
         23    2    1    0    0    0 -0.91373327844E+01 -0.80442879063E+01 -0.27245983832E+02  0.95157998504E+02  0.90357620741E+02 0.  0.
         11    1    3    3    0    0  0.14198840360E+02 -0.32476632008E+02 -0.44765946051E+02  0.57099287389E+02  0.51100000000E-03 0. -1.
         22    1    1    0    0    0  0.91373327844E+01  0.80442879063E+01  0.27245983832E+02  0.29842001496E+02  0.00000000000E+00 0. -1.
</event>
<event>
 5    1  0.1717510E-003  0.9118800E+02  0.7818608E-02  0.1130116E+00
         25   -1    0    0    0    0  0.00000000000E+00  0.00000000000E+00  0.99999998245E-14  0.12500000000E+03  0.12500000000E+03 0.  0.
        -11    1    3    3    0    0 -0.16931960806E+02 -0.35307553487E+02  0.37249673589E+02  0.54044914773E+02  0.51100000000E-03 0.  1.
         23    2    1    0    0    0 -0.23387947827E+02 -0.18024854557E+02  0.15772175814E+00  0.95471770092E+02  0.90790652178E+02 0.  0.
         11    1    3    3    0    0 -0.64559870208E+01  0.17282698930E+02 -0.37091951831E+02  0.41426855319E+02  0.51100000000E-03 0. -1.
         22    1    1    0    0    0  0.23387947827E+02  0.18024854557E+02 -0.15772175814E+00  0.29528229908E+02  0.00000000000E+00 0.  1.
</event>
<event>
 5    1  0.1717510E-003  0.9118800E+02  0.7818608E-02  0.1130116E+00
         25   -1    0    0    0    0  0.00000000000E+00  0.00000000000E+00  0.99999998245E-14  0.12500000000E+03  0.12500000000E+03 0.  0.
        -11    1    3    3    0    0  0.17054812960E+01 -0.31097799648E+02  0.37621443141E+02  0.48840094120E+02  0.51100000000E-03 0.  1.
         23    2    1    0    0    0  0.25690872948E+02 -0.14936368615E+02  0.13212842343E+01  0.95253372422E+02  0.90489464058E+02 0.  0.
         11    1    3    3    0    0  0.23985391652E+02  0.16161431034E+02 -0.36300158907E+02  0.46413278301E+02  0.51100000000E-03 0. -1.
         22    1    1    0    0    0 -0.25690872948E+02  0.14936368615E+02 -0.13212842343E+01  0.29746627578E+02  0.00000000000E+00 0.  1.
</event>
<event>
 5    1  0.1717510E-003  0.9118800E+02  0.7818608E-02  0.1130116E+00
         25   -1    0    0    0    0  0.00000000000E+00  0.00000000000E+00  0.99999998245E-14  0.12500000000E+03  0.12500000000E+03 0.  0.
        -11    1    3    3    0    0  0.25197820901E+02  0.11556414895E+02 -0.41887566360E+02  0.50229962365E+02  0.51100000000E-03 0. -1.
         23    2    1    0    0    0  0.29676421412E+02  0.15493558219E+02 -0.10442868898E+01  0.91506256267E+02  0.85156115851E+02 0.  0.
         11    1    3    3    0    0  0.44786005119E+01  0.39371433236E+01  0.40843279471E+02  0.41276293902E+02  0.51100000000E-03 0.  1.
         22    1    1    0    0    0 -0.29676421412E+02 -0.15493558219E+02  0.10442868898E+01  0.33493743733E+02  0.00000000000E+00 0.  1.
</event>
<event>
 5    1  0.1717510E-003  0.9118800E+02  0.7818608E-02  0.1130116E+00
         25   -1    0    0    0    0  0.00000000000E+00  0.00000000000E+00  0.99999998245E-14  0.12500000000E+03  0.12500000000E+03 0.  0.
        -11    1    3    3    0    0  0.29487312612E+02  0.26527847822E+02  0.20514953916E+02  0.44655253325E+02  0.51100000000E-03 0. -1.
         23    2    1    0    0    0  0.84064514184E+01 -0.13223690853E+02  0.30468370452E+02  0.90738417678E+02  0.84021452138E+02 0.  0.
         11    1    3    3    0    0 -0.21080861193E+02 -0.39751538676E+02  0.99534165364E+01  0.46083164352E+02  0.51100000000E-03 0.  1.
         22    1    1    0    0    0 -0.84064514184E+01  0.13223690853E+02 -0.30468370452E+02  0.34261582322E+02  0.00000000000E+00 0. -1.
</event>
<event>
 5    1  0.1717510E-003  0.9118800E+02  0.7818608E-02  0.1130116E+00
         25   -1    0    0    0    0  0.00000000000E+00  0.00000000000E+00  0.99999998245E-14  0.12500000000E+03  0.12500000000E+03 0.  0.
        -11    1    3    3    0    0  0.52824014298E+02 -0.13248384709E+02 -0.16992298433E+02  0.57049403066E+02  0.51100000000E-03 0.  1.
         23    2    1    0    0    0  0.15395831738E+02  0.99400243489E+01 -0.15326133909E+02  0.10111012559E+03  0.98247297145E+02 0.  0.
         11    1    3    3    0    0 -0.37428182560E+02  0.23188409058E+02  0.16661645237E+01  0.44060722519E+02  0.51100000000E-03 0. -1.
         22    1    1    0    0    0 -0.15395831738E+02 -0.99400243489E+01  0.15326133909E+02  0.23889874415E+02  0.00000000000E+00 0. -1.
</event>
<event>
 5    1  0.1717510E-003  0.9118800E+02  0.7818608E-02  0.1130116E+00
         25   -1    0    0    0    0  0.00000000000E+00  0.00000000000E+00  0.99999998245E-14  0.12500000000E+03  0.12500000000E+03 0.  0.
        -11    1    3    3    0    0 -0.74267414660E+00  0.14818218789E+02  0.36855157613E+02  0.39729508126E+02  0.51100000000E-03 0.  1.
         23    2    1    0    0    0 -0.27483265082E+02 -0.24678550528E+01 -0.93688342548E+01  0.95859045599E+02  0.91322294100E+02 0.  0.
         11    1    3    3    0    0 -0.26740590935E+02 -0.17286073842E+02 -0.46223991868E+02  0.56129537473E+02  0.51100000000E-03 0. -1.
         22    1    1    0    0    0  0.27483265082E+02  0.24678550528E+01  0.93688342548E+01  0.29140954401E+02  0.00000000000E+00 0. -1.
</event>
<event>
 5    1  0.1717510E-003  0.9118800E+02  0.7818608E-02  0.1130116E+00
         25   -1    0    0    0    0  0.00000000000E+00  0.00000000000E+00  0.99999998245E-14  0.12500000000E+03  0.12500000000E+03 0.  0.
        -11    1    3    3    0    0  0.14825645479E+02 -0.19457160080E+02 -0.78919114391E-01  0.24461951490E+02  0.51100000000E-03 0.  1.
         23    2    1    0    0    0  0.25652816440E+02  0.23550832581E+02 -0.30878545520E+02  0.78457618453E+02  0.63161733774E+02 0.  0.
         11    1    3    3    0    0  0.10827170962E+02  0.43007992661E+02 -0.30799626406E+02  0.53995666963E+02  0.51100000000E-03 0. -1.
         22    1    1    0    0    0 -0.25652816440E+02 -0.23550832581E+02  0.30878545520E+02  0.46542381547E+02  0.00000000000E+00 0. -1.
</event>
<event>
 5    1  0.1717510E-003  0.9118800E+02  0.7818608E-02  0.1130116E+00
         25   -1    0    0    0    0  0.00000000000E+00  0.00000000000E+00  0.99999998245E-14  0.12500000000E+03  0.12500000000E+03 0.  0.
        -11    1    3    3    0    0  0.35571060073E+02 -0.79095179576E+01 -0.20240911441E+02  0.41683993154E+02  0.51100000000E-03 0.  1.
         23    2    1    0    0    0 -0.17107419828E+02 -0.18976395990E+02 -0.13981916987E+02  0.95875072179E+02  0.91344228305E+02 0.  0.
         11    1    3    3    0    0 -0.52678479901E+02 -0.11066878033E+02  0.62589944535E+01  0.54191079025E+02  0.51100000000E-03 0. -1.
         22    1    1    0    0    0  0.17107419828E+02  0.18976395990E+02  0.13981916987E+02  0.29124927821E+02  0.00000000000E+00 0. -1.
</event>
<event>
 5    1  0.1717510E-003  0.9118800E+02  0.7818608E-02  0.1130116E+00
         25   -1    0    0    0    0  0.00000000000E+00  0.00000000000E+00  0.99999998245E-14  0.12500000000E+03  0.12500000000E+03 0.  0.
        -11    1    3    3    0    0 -0.35855496225E+02  0.29860787326E+02  0.99326909643E+00  0.46671938175E+02  0.51100000000E-03 0.  1.
         23    2    1    0    0    0  0.83175931670E+01  0.21248843717E+02 -0.18409405768E+02  0.95681031120E+02  0.91078305760E+02 0.  0.
         11    1    3    3    0    0  0.44173089392E+02 -0.86119436081E+01 -0.19402674865E+02  0.49009092945E+02  0.51100000000E-03 0. -1.
         22    1    1    0    0    0 -0.83175931670E+01 -0.21248843717E+02  0.18409405768E+02  0.29318968880E+02  0.00000000000E+00 0. -1.
</event>
<event>
 5    1  0.1717510E-003  0.9118800E+02  0.7818608E-02  0.1130116E+00
         25   -1    0    0    0    0  0.00000000000E+00  0.00000000000E+00  0.99999998245E-14  0.12500000000E+03  0.12500000000E+03 0.  0.
        -11    1    3    3    0    0 -0.32831702064E+02  0.14065158061E+02 -0.88637417294E+01  0.36801022396E+02  0.51100000000E-03 0.  1.
         23    2    1    0    0    0  0.23610709716E+02  0.15433069944E+02  0.79202513706E+01  0.95701951550E+02  0.91107013382E+02 0.  0.
         11    1    3    3    0    0  0.56442411780E+02  0.13679118836E+01  0.16783993100E+02  0.58900929154E+02  0.51100000000E-03 0. -1.
         22    1    1    0    0    0 -0.23610709716E+02 -0.15433069944E+02 -0.79202513706E+01  0.29298048450E+02  0.00000000000E+00 0. -1.
</event>
<event>
 5    1  0.1717510E-003  0.9118800E+02  0.7818608E-02  0.1130116E+00
         25   -1    0    0    0    0  0.00000000000E+00  0.00000000000E+00  0.99999998245E-14  0.12500000000E+03  0.12500000000E+03 0.  0.
        -11    1    3    3    0    0 -0.43713167582E+02 -0.23572339099E+02  0.23951148452E+02  0.55137588840E+02  0.51100000000E-03 0. -1.
         23    2    1    0    0    0 -0.51275907378E+01 -0.14253367529E+02  0.26026092530E+02  0.94886744363E+02  0.89981587509E+02 0.  0.
         11    1    3    3    0    0  0.38585576845E+02  0.93189715708E+01  0.20749440783E+01  0.39749155523E+02  0.51100000000E-03 0.  1.
         22    1    1    0    0    0  0.51275907378E+01  0.14253367529E+02 -0.26026092530E+02  0.30113255637E+02  0.00000000000E+00 0. -1.
</event>
<event>
 5    1  0.1717510E-003  0.9118800E+02  0.7818608E-02  0.1130116E+00
         25   -1    0    0    0    0  0.00000000000E+00  0.00000000000E+00  0.99999998245E-14  0.12500000000E+03  0.12500000000E+03 0.  0.
        -11    1    3    3    0    0 -0.37475978247E+02  0.35423407893E+02 -0.66043968558E+01  0.51989276110E+02  0.51100000000E-03 0.  1.
         23    2    1    0    0    0 -0.23230964078E+02 -0.41843521258E+01  0.12586413559E+02  0.98249218685E+02  0.94537318934E+02 0.  0.
         11    1    3    3    0    0  0.14245014169E+02 -0.39607760019E+02  0.19190810415E+02  0.46259942575E+02  0.51100000000E-03 0. -1.
         22    1    1    0    0    0  0.23230964078E+02  0.41843521258E+01 -0.12586413559E+02  0.26750781315E+02  0.00000000000E+00 0.  1.
</event>
<event>
 5    1  0.1717510E-003  0.9118800E+02  0.7818608E-02  0.1130116E+00
         25   -1    0    0    0    0  0.00000000000E+00  0.00000000000E+00  0.99999998245E-14  0.12500000000E+03  0.12500000000E+03 0.  0.
        -11    1    3    3    0    0 -0.17961759775E+02  0.97887563179E+01  0.45626159970E+02  0.50001910347E+02  0.51100000000E-03 0.  1.
         23    2    1    0    0    0 -0.23421665589E+02 -0.18009969149E+02  0.14506269172E+02  0.92085485679E+02  0.86002159390E+02 0.  0.
         11    1    3    3    0    0 -0.54599058145E+01 -0.27798725467E+02 -0.31119890799E+02  0.42083575332E+02  0.51100000000E-03 0. -1.
         22    1    1    0    0    0  0.23421665589E+02  0.18009969149E+02 -0.14506269172E+02  0.32914514321E+02  0.00000000000E+00 0. -1.
</event>
<event>
 5    1  0.1717510E-003  0.9118800E+02  0.7818608E-02  0.1130116E+00
         25   -1    0    0    0    0  0.00000000000E+00  0.00000000000E+00  0.99999998245E-14  0.12500000000E+03  0.12500000000E+03 0.  0.
        -11    1    3    3    0    0 -0.53797579968E+02  0.57119038938E+01  0.13289714446E+01  0.54116278714E+02  0.51100000000E-03 0.  1.
         23    2    1    0    0    0 -0.20875155329E+02 -0.19771291016E+02 -0.35325321772E+01  0.96031830537E+02  0.91558492967E+02 0.  0.
         11    1    3    3    0    0  0.32922424639E+02 -0.25483194909E+02 -0.48615036218E+01  0.41915551823E+02  0.51100000000E-03 0. -1.
         22    1    1    0    0    0  0.20875155329E+02  0.19771291016E+02  0.35325321772E+01  0.28968169463E+02  0.00000000000E+00 0. -1.
</event>
<event>
 5    1  0.1717510E-003  0.9118800E+02  0.7818608E-02  0.1130116E+00
         25   -1    0    0    0    0  0.00000000000E+00  0.00000000000E+00  0.99999998245E-14  0.12500000000E+03  0.12500000000E+03 0.  0.
        -11    1    3    3    0    0 -0.40903907572E+02 -0.74973720762E+01 -0.13254084135E+01  0.41606453231E+02  0.51100000000E-03 0. -1.
         23    2    1    0    0    0  0.75700595161E+01 -0.15253609978E+02 -0.23912306098E+02  0.95643964822E+02  0.91027420075E+02 0.  0.
         11    1    3    3    0    0  0.48473967089E+02 -0.77562379013E+01 -0.22586897685E+02  0.54037511591E+02  0.51100000000E-03 0.  1.
         22    1    1    0    0    0 -0.75700595161E+01  0.15253609978E+02  0.23912306098E+02  0.29356035178E+02  0.00000000000E+00 0. -1.
</event>
<event>
 5    1  0.1717510E-003  0.9118800E+02  0.7818608E-02  0.1130116E+00
         25   -1    0    0    0    0  0.00000000000E+00  0.00000000000E+00  0.99999998245E-14  0.12500000000E+03  0.12500000000E+03 0.  0.
        -11    1    3    3    0    0  0.53770516021E+01 -0.22214225486E+02 -0.34405423341E+02  0.41305177077E+02  0.51100000000E-03 0. -1.
         23    2    1    0    0    0 -0.19555588727E+02 -0.25458920793E+02  0.91694150260E+01  0.91613537619E+02  0.85313447971E+02 0.  0.
         11    1    3    3    0    0 -0.24932640329E+02 -0.32446953073E+01  0.43574838367E+02  0.50308360542E+02  0.51100000000E-03 0.  1.
         22    1    1    0    0    0  0.19555588727E+02  0.25458920793E+02 -0.91694150260E+01  0.33386462381E+02  0.00000000000E+00 0.  1.
</event>
<event>
 5    1  0.1717510E-003  0.9118800E+02  0.7818608E-02  0.1130116E+00
         25   -1    0    0    0    0  0.00000000000E+00  0.00000000000E+00  0.99999998245E-14  0.12500000000E+03  0.12500000000E+03 0.  0.
        -11    1    3    3    0    0 -0.56287901302E+02  0.94932804835E+01  0.56444990367E+01  0.57361228866E+02  0.51100000000E-03 0.  1.
         23    2    1    0    0    0 -0.23983247440E+02  0.49049310590E+01 -0.15298551093E+02  0.96133060917E+02  0.91696593336E+02 0.  0.
         11    1    3    3    0    0  0.32304653863E+02 -0.45883494245E+01 -0.20943050130E+02  0.38771832052E+02  0.51100000000E-03 0. -1.
         22    1    1    0    0    0  0.23983247440E+02 -0.49049310590E+01  0.15298551093E+02  0.28866939083E+02  0.00000000000E+00 0.  1.
</event>
<event>
 5    1  0.1717510E-003  0.9118800E+02  0.7818608E-02  0.1130116E+00
         25   -1    0    0    0    0  0.00000000000E+00  0.00000000000E+00  0.99999998245E-14  0.12500000000E+03  0.12500000000E+03 0.  0.
        -11    1    3    3    0    0 -0.17127086500E+01  0.34825684891E+02 -0.22857993630E+02  0.41692320302E+02  0.51100000000E-03 0.  1.
         23    2    1    0    0    0 -0.87123272346E+01  0.12364354389E+02  0.25432840675E+02  0.95409270200E+02  0.90704561903E+02 0.  0.
         11    1    3    3    0    0 -0.69996185846E+01 -0.22461330503E+02  0.48290834305E+02  0.53716949899E+02  0.51100000000E-03 0. -1.
         22    1    1    0    0    0  0.87123272346E+01 -0.12364354389E+02 -0.25432840675E+02  0.29590729800E+02  0.00000000000E+00 0. -1.
</event>
<event>
 5    1  0.1717510E-003  0.9118800E+02  0.7818608E-02  0.1130116E+00
         25   -1    0    0    0    0  0.00000000000E+00  0.00000000000E+00  0.99999998245E-14  0.12500000000E+03  0.12500000000E+03 0.  0.
        -11    1    3    3    0    0 -0.57192285240E+02  0.18208223002E+01  0.23305282517E+02  0.61785184941E+02  0.51100000000E-03 0. -1.
         23    2    1    0    0    0 -0.26001849525E+02 -0.54722344368E+01  0.12885292079E+02  0.95469130044E+02  0.90787017304E+02 0.  0.
         11    1    3    3    0    0  0.31190435715E+02 -0.72930567370E+01 -0.10419990438E+02  0.33683945102E+02  0.51100000000E-03 0.  1.
         22    1    1    0    0    0  0.26001849525E+02  0.54722344368E+01 -0.12885292079E+02  0.29530869956E+02  0.00000000000E+00 0. -1.
</event>
<event>
 5    1  0.1717510E-003  0.9118800E+02  0.7818608E-02  0.1130116E+00
         25   -1    0    0    0    0  0.00000000000E+00  0.00000000000E+00  0.99999998245E-14  0.12500000000E+03  0.12500000000E+03 0.  0.
        -11    1    3    3    0    0  0.35888594718E+02 -0.32648340908E+02  0.22467012429E+02  0.53466550689E+02  0.51100000000E-03 0.  1.
         23    2    1    0    0    0 -0.14947582511E+01 -0.19083104112E+02  0.25229654235E+02  0.93330857012E+02  0.87793588906E+02 0.  0.
         11    1    3    3    0    0 -0.37383352969E+02  0.13565236796E+02  0.27626418065E+01  0.39864306322E+02  0.51100000000E-03 0. -1.
         22    1    1    0    0    0  0.14947582511E+01  0.19083104112E+02 -0.25229654235E+02  0.31669142988E+02  0.00000000000E+00 0.  1.
</event>
<event>
 5    1  0.1717510E-003  0.9118800E+02  0.7818608E-02  0.1130116E+00
         25   -1    0    0    0    0  0.00000000000E+00  0.00000000000E+00  0.99999998245E-14  0.12500000000E+03  0.12500000000E+03 0.  0.
        -11    1    3    3    0    0 -0.37127947169E+02 -0.44227055341E+02 -0.18143828354E+02  0.60528632833E+02  0.51100000000E-03 0.  1.
         23    2    1    0    0    0 -0.25706162841E+02 -0.13651791928E+02 -0.10561188781E+02  0.94036845456E+02  0.88793081734E+02 0.  0.
         11    1    3    3    0    0  0.11421784327E+02  0.30575263413E+02  0.75826395728E+01  0.33508212622E+02  0.51100000000E-03 0. -1.
         22    1    1    0    0    0  0.25706162841E+02  0.13651791928E+02  0.10561188781E+02  0.30963154544E+02  0.00000000000E+00 0.  1.
</event>
<event>
 5    1  0.1717510E-003  0.9118800E+02  0.7818608E-02  0.1130116E+00
         25   -1    0    0    0    0  0.00000000000E+00  0.00000000000E+00  0.99999998245E-14  0.12500000000E+03  0.12500000000E+03 0.  0.
        -11    1    3    3    0    0  0.43894731360E+02  0.40256123737E+02  0.16252696068E+02  0.61736966796E+02  0.51100000000E-03 0. -1.
         23    2    1    0    0    0  0.23811688725E+02  0.13634240708E+02  0.10725730789E+02  0.95539342496E+02  0.90883637823E+02 0.  0.
         11    1    3    3    0    0 -0.20083042634E+02 -0.26621883029E+02 -0.55269652797E+01  0.33802375699E+02  0.51100000000E-03 0.  1.
         22    1    1    0    0    0 -0.23811688725E+02 -0.13634240708E+02 -0.10725730789E+02  0.29460657504E+02  0.00000000000E+00 0. -1.
</event>
<event>
 5    1  0.1717510E-003  0.9118800E+02  0.7818608E-02  0.1130116E+00
         25   -1    0    0    0    0  0.00000000000E+00  0.00000000000E+00  0.99999998245E-14  0.12500000000E+03  0.12500000000E+03 0.  0.
        -11    1    3    3    0    0  0.34247368039E+02 -0.13935279379E+02 -0.15838438472E+02  0.40223505100E+02  0.51100000000E-03 0.  1.
         23    2    1    0    0    0 -0.16845084426E+02 -0.24007573772E+02  0.28105412872E+01  0.95537827472E+02  0.90881554059E+02 0.  0.
         11    1    3    3    0    0 -0.51092452465E+02 -0.10072294393E+02  0.18648979760E+02  0.55314322373E+02  0.51100000000E-03 0. -1.
         22    1    1    0    0    0  0.16845084426E+02  0.24007573772E+02 -0.28105412872E+01  0.29462172528E+02  0.00000000000E+00 0. -1.
</event>
<event>
 5    1  0.1717510E-003  0.9118800E+02  0.7818608E-02  0.1130116E+00
         25   -1    0    0    0    0  0.00000000000E+00  0.00000000000E+00  0.99999998245E-14  0.12500000000E+03  0.12500000000E+03 0.  0.
        -11    1    3    3    0    0 -0.37611317728E+02  0.17241385257E+02  0.40495865310E+02  0.57894660326E+02  0.51100000000E-03 0. -1.
         23    2    1    0    0    0 -0.55798170216E+01  0.26212302394E+01  0.29618331405E+02  0.94746888405E+02  0.89787093178E+02 0.  0.
         11    1    3    3    0    0  0.32031500706E+02 -0.14620155018E+02 -0.10877533905E+02  0.36852228079E+02  0.51100000000E-03 0.  1.
         22    1    1    0    0    0  0.55798170216E+01 -0.26212302394E+01 -0.29618331405E+02  0.30253111595E+02  0.00000000000E+00 0. -1.
</event>
<event>
 5    1  0.1717510E-003  0.9118800E+02  0.7818608E-02  0.1130116E+00
         25   -1    0    0    0    0  0.00000000000E+00  0.00000000000E+00  0.99999998245E-14  0.12500000000E+03  0.12500000000E+03 0.  0.
        -11    1    3    3    0    0 -0.92945205547E+01 -0.41096902854E+01  0.36150513251E+02  0.37551794566E+02  0.51100000000E-03 0.  1.
         23    2    1    0    0    0 -0.20365306857E+02 -0.14202901086E+01 -0.20932598073E+02  0.95760700941E+02  0.91187582681E+02 0.  0.
         11    1    3    3    0    0 -0.11070786302E+02  0.26894001767E+01 -0.57083111324E+02  0.58208906375E+02  0.51100000000E-03 0. -1.
         22    1    1    0    0    0  0.20365306857E+02  0.14202901086E+01  0.20932598073E+02  0.29239299059E+02  0.00000000000E+00 0. -1.
</event>
<event>
 5    1  0.1717510E-003  0.9118800E+02  0.7818608E-02  0.1130116E+00
         25   -1    0    0    0    0  0.00000000000E+00  0.00000000000E+00  0.99999998245E-14  0.12500000000E+03  0.12500000000E+03 0.  0.
        -11    1    3    3    0    0  0.52740924541E+02  0.10599365653E+02 -0.10299067597E+02  0.54772460847E+02  0.51100000000E-03 0. -1.
         23    2    1    0    0    0  0.22679875869E+02 -0.14842389057E+02 -0.14294644699E+02  0.94356727502E+02  0.89242265073E+02 0.  0.
         11    1    3    3    0    0 -0.30061048672E+02 -0.25441754710E+02 -0.39955771020E+01  0.39584266654E+02  0.51100000000E-03 0.  1.
         22    1    1    0    0    0 -0.22679875869E+02  0.14842389057E+02  0.14294644699E+02  0.30643272498E+02  0.00000000000E+00 0. -1.
</event>
<event>
 5    1  0.1717510E-003  0.9118800E+02  0.7818608E-02  0.1130116E+00
         25   -1    0    0    0    0  0.00000000000E+00  0.00000000000E+00  0.99999998245E-14  0.12500000000E+03  0.12500000000E+03 0.  0.
        -11    1    3    3    0    0 -0.92880994357E+01 -0.15429545852E+02  0.49378423697E+02  0.52560140824E+02  0.51100000000E-03 0. -1.
         23    2    1    0    0    0  0.16669909393E+02 -0.18979051040E+02  0.15590402968E+02  0.95315813600E+02  0.90575677750E+02 0.  0.
         11    1    3    3    0    0  0.25958008829E+02 -0.35495051872E+01 -0.33788020729E+02  0.42755672776E+02  0.51100000000E-03 0.  1.
         22    1    1    0    0    0 -0.16669909393E+02  0.18979051040E+02 -0.15590402968E+02  0.29684186400E+02  0.00000000000E+00 0. -1.
</event>
<event>
 5    1  0.1717510E-003  0.9118800E+02  0.7818608E-02  0.1130116E+00
         25   -1    0    0    0    0  0.00000000000E+00  0.00000000000E+00  0.99999998245E-14  0.12500000000E+03  0.12500000000E+03 0.  0.
        -11    1    3    3    0    0  0.58869297372E+02 -0.54159292112E+01 -0.41343709215E+01  0.59262293961E+02  0.51100000000E-03 0.  1.
         23    2    1    0    0    0  0.25421825078E+02 -0.72041609639E+01 -0.15174143999E+02  0.94529952879E+02  0.89484569729E+02 0.  0.
         11    1    3    3    0    0 -0.33447472294E+02 -0.17882317527E+01 -0.11039773077E+02  0.35267658918E+02  0.51100000000E-03 0. -1.
         22    1    1    0    0    0 -0.25421825078E+02  0.72041609639E+01  0.15174143999E+02  0.30470047121E+02  0.00000000000E+00 0.  1.
</event>
<event>
 5    1  0.1717510E-003  0.9118800E+02  0.7818608E-02  0.1130116E+00
         25   -1    0    0    0    0  0.00000000000E+00  0.00000000000E+00  0.99999998245E-14  0.12500000000E+03  0.12500000000E+03 0.  0.
        -11    1    3    3    0    0 -0.24160468553E+02  0.22521876372E+02  0.12967639552E+02  0.35484120841E+02  0.51100000000E-03 0. -1.
         23    2    1    0    0    0  0.43821207405E+01 -0.29119840748E+02  0.21340983267E+01  0.95475053209E+02  0.90795172240E+02 0.  0.
         11    1    3    3    0    0  0.28542589293E+02 -0.51641717120E+02 -0.10833541226E+02  0.59990932368E+02  0.51100000000E-03 0.  1.
         22    1    1    0    0    0 -0.43821207405E+01  0.29119840748E+02 -0.21340983267E+01  0.29524946791E+02  0.00000000000E+00 0.  1.
</event>
<event>
 5    1  0.1717510E-003  0.9118800E+02  0.7818608E-02  0.1130116E+00
         25   -1    0    0    0    0  0.00000000000E+00  0.00000000000E+00  0.99999998245E-14  0.12500000000E+03  0.12500000000E+03 0.  0.
        -11    1    3    3    0    0  0.20619394239E+02 -0.30282335055E+02 -0.94698091373E+01  0.37839880028E+02  0.51100000000E-03 0.  1.
         23    2    1    0    0    0 -0.13538106766E+02  0.13949940311E+02 -0.22541628617E+02  0.95234143886E+02  0.90462898314E+02 0.  0.
         11    1    3    3    0    0 -0.34157501006E+02  0.44232275366E+02 -0.13071819480E+02  0.57394263858E+02  0.51100000000E-03 0. -1.
         22    1    1    0    0    0  0.13538106766E+02 -0.13949940311E+02  0.22541628617E+02  0.29765856114E+02  0.00000000000E+00 0. -1.
</event>
<event>
 5    1  0.1717510E-003  0.9118800E+02  0.7818608E-02  0.1130116E+00
         25   -1    0    0    0    0  0.00000000000E+00  0.00000000000E+00  0.99999998245E-14  0.12500000000E+03  0.12500000000E+03 0.  0.
        -11    1    3    3    0    0  0.25322389459E+02 -0.20422376758E+02  0.15083190910E+02  0.35858046916E+02  0.51100000000E-03 0. -1.
         23    2    1    0    0    0 -0.16597094340E+02  0.21312532585E+02 -0.32639821188E+01  0.97790788968E+02  0.93929213997E+02 0.  0.
         11    1    3    3    0    0 -0.41919483799E+02  0.41734909342E+02 -0.18347173029E+02  0.61932742053E+02  0.51100000000E-03 0.  1.
         22    1    1    0    0    0  0.16597094340E+02 -0.21312532585E+02  0.32639821188E+01  0.27209211032E+02  0.00000000000E+00 0.  1.
</event>
<event>
 5    1  0.1717510E-003  0.9118800E+02  0.7818608E-02  0.1130116E+00
         25   -1    0    0    0    0  0.00000000000E+00  0.00000000000E+00  0.99999998245E-14  0.12500000000E+03  0.12500000000E+03 0.  0.
        -11    1    3    3    0    0 -0.49971233862E+02  0.37443807922E+02  0.12521790810E+01  0.62455831739E+02  0.51100000000E-03 0. -1.
         23    2    1    0    0    0 -0.23670715678E+02  0.17493047558E+02 -0.10572804801E+01  0.95547880626E+02  0.90895380282E+02 0.  0.
         11    1    3    3    0    0  0.26300518184E+02 -0.19950760365E+02 -0.23094595611E+01  0.33092048888E+02  0.51100000000E-03 0.  1.
         22    1    1    0    0    0  0.23670715678E+02 -0.17493047558E+02  0.10572804801E+01  0.29452119374E+02  0.00000000000E+00 0. -1.
</event>
<event>
 5    1  0.1717510E-003  0.9118800E+02  0.7818608E-02  0.1130116E+00
         25   -1    0    0    0    0  0.00000000000E+00  0.00000000000E+00  0.99999998245E-14  0.12500000000E+03  0.12500000000E+03 0.  0.
        -11    1    3    3    0    0  0.29842992093E+02  0.21092543175E+02 -0.24366279188E+02  0.43922831379E+02  0.51100000000E-03 0.  1.
         23    2    1    0    0    0 -0.65963178680E+01 -0.13999778036E+02 -0.26227995936E+02  0.94546544280E+02  0.89507743073E+02 0.  0.
         11    1    3    3    0    0 -0.36439309961E+02 -0.35092321211E+02 -0.18617167479E+01  0.50623712901E+02  0.51100000000E-03 0. -1.
         22    1    1    0    0    0  0.65963178680E+01  0.13999778036E+02  0.26227995936E+02  0.30453455720E+02  0.00000000000E+00 0. -1.
</event>
<event>
 5    1  0.1717510E-003  0.9118800E+02  0.7818608E-02  0.1130116E+00
         25   -1    0    0    0    0  0.00000000000E+00  0.00000000000E+00  0.99999998245E-14  0.12500000000E+03  0.12500000000E+03 0.  0.
        -11    1    3    3    0    0  0.34595191070E+02 -0.33924739513E+02 -0.26216489083E+02  0.55091011030E+02  0.51100000000E-03 0.  1.
         23    2    1    0    0    0  0.21649269745E+02 -0.18862683228E+02 -0.37372215457E+02  0.77870665322E+02  0.61989243668E+02 0.  0.
         11    1    3    3    0    0 -0.12945921325E+02  0.15062056285E+02 -0.11155726374E+02  0.22779654292E+02  0.51100000000E-03 0. -1.
         22    1    1    0    0    0 -0.21649269745E+02  0.18862683228E+02  0.37372215457E+02  0.47129334678E+02  0.00000000000E+00 0.  1.
</event>
<event>
 5    1  0.1717510E-003  0.9118800E+02  0.7818608E-02  0.1130116E+00
         25   -1    0    0    0    0  0.00000000000E+00  0.00000000000E+00  0.99999998245E-14  0.12500000000E+03  0.12500000000E+03 0.  0.
        -11    1    3    3    0    0 -0.74549638478E+01  0.40323282414E+02 -0.65150430809E+00  0.41011803774E+02  0.51100000000E-03 0. -1.
         23    2    1    0    0    0 -0.28257867211E+01 -0.14009036953E+02  0.20929896443E+02  0.99656386365E+02  0.96379959490E+02 0.  0.
         11    1    3    3    0    0  0.46291771266E+01 -0.54332319367E+02  0.21581400751E+02  0.58644582592E+02  0.51100000000E-03 0.  1.
         22    1    1    0    0    0  0.28257867211E+01  0.14009036953E+02 -0.20929896443E+02  0.25343613635E+02  0.00000000000E+00 0.  1.
</event>
<event>
 5    1  0.1717510E-003  0.9118800E+02  0.7818608E-02  0.1130116E+00
         25   -1    0    0    0    0  0.00000000000E+00  0.00000000000E+00  0.99999998245E-14  0.12500000000E+03  0.12500000000E+03 0.  0.
        -11    1    3    3    0    0 -0.14788637420E+02  0.20496772300E+02  0.20800581874E+02  0.32733555841E+02  0.51100000000E-03 0. -1.
         23    2    1    0    0    0  0.21812001822E+02 -0.12540903249E+02 -0.16804856106E+02  0.94743746654E+02  0.89782719181E+02 0.  0.
         11    1    3    3    0    0  0.36600639243E+02 -0.33037675550E+02 -0.37605437980E+02  0.62010190812E+02  0.51100000000E-03 0.  1.
         22    1    1    0    0    0 -0.21812001822E+02  0.12540903249E+02  0.16804856106E+02  0.30256253346E+02  0.00000000000E+00 0.  1.
</event>
<event>
 5    1  0.1717510E-003  0.9118800E+02  0.7818608E-02  0.1130116E+00
         25   -1    0    0    0    0  0.00000000000E+00  0.00000000000E+00  0.99999998245E-14  0.12500000000E+03  0.12500000000E+03 0.  0.
        -11    1    3    3    0    0 -0.23292459216E+02  0.24890002529E+02 -0.31043365908E+02  0.46105763733E+02  0.51100000000E-03 0. -1.
         23    2    1    0    0    0 -0.27046787623E+02  0.42103666096E+01  0.12842195263E+02  0.94764625240E+02  0.89811782691E+02 0.  0.
         11    1    3    3    0    0 -0.37543284068E+01 -0.20679635920E+02  0.43885561172E+02  0.48658861507E+02  0.51100000000E-03 0.  1.
         22    1    1    0    0    0  0.27046787623E+02 -0.42103666096E+01 -0.12842195263E+02  0.30235374760E+02  0.00000000000E+00 0.  1.
</event>
<event>
 5    1  0.1717510E-003  0.9118800E+02  0.7818608E-02  0.1130116E+00
         25   -1    0    0    0    0  0.00000000000E+00  0.00000000000E+00  0.99999998245E-14  0.12500000000E+03  0.12500000000E+03 0.  0.
        -11    1    3    3    0    0  0.27583945311E+02 -0.15989904331E+02  0.70429495067E+01  0.32652017050E+02  0.51100000000E-03 0. -1.
         23    2    1    0    0    0 -0.28566448705E+02  0.86032600393E+01  0.85320734396E+01  0.93970105509E+02  0.88699077658E+02 0.  0.
         11    1    3    3    0    0 -0.56150394016E+02  0.24593164371E+02  0.14891239329E+01  0.61318088459E+02  0.51100000000E-03 0.  1.
         22    1    1    0    0    0  0.28566448705E+02 -0.86032600393E+01 -0.85320734396E+01  0.31029894491E+02  0.00000000000E+00 0.  1.
</event>
<event>
 5    1  0.1717510E-003  0.9118800E+02  0.7818608E-02  0.1130116E+00
         25   -1    0    0    0    0  0.00000000000E+00  0.00000000000E+00  0.99999998245E-14  0.12500000000E+03  0.12500000000E+03 0.  0.
        -11    1    3    3    0    0 -0.22885164334E+02 -0.29726828175E+02 -0.27024172242E+02  0.46235494434E+02  0.51100000000E-03 0.  1.
         23    2    1    0    0    0 -0.18588823567E+02  0.18003399263E+02 -0.12132923374E+02  0.96418982239E+02  0.92085533933E+02 0.  0.
         11    1    3    3    0    0  0.42963407667E+01  0.47730227437E+02  0.14891248868E+02  0.50183487805E+02  0.51100000000E-03 0. -1.
         22    1    1    0    0    0  0.18588823567E+02 -0.18003399263E+02  0.12132923374E+02  0.28581017761E+02  0.00000000000E+00 0. -1.
</event>
<event>
 5    1  0.1717510E-003  0.9118800E+02  0.7818608E-02  0.1130116E+00
         25   -1    0    0    0    0  0.00000000000E+00  0.00000000000E+00  0.99999998245E-14  0.12500000000E+03  0.12500000000E+03 0.  0.
        -11    1    3    3    0    0 -0.32327990664E+02  0.14802144152E+02 -0.50660793163E+01  0.35914726948E+02  0.51100000000E-03 0.  1.
         23    2    1    0    0    0  0.15117092560E+02 -0.13465585713E+01  0.26010356534E+02  0.94885578961E+02  0.89979968550E+02 0.  0.
         11    1    3    3    0    0  0.47445083224E+02 -0.16148702723E+02  0.31076435851E+02  0.58970852013E+02  0.51100000000E-03 0. -1.
         22    1    1    0    0    0 -0.15117092560E+02  0.13465585713E+01 -0.26010356534E+02  0.30114421039E+02  0.00000000000E+00 0.  1.
</event>
<event>
 5    1  0.1717510E-003  0.9118800E+02  0.7818608E-02  0.1130116E+00
         25   -1    0    0    0    0  0.00000000000E+00  0.00000000000E+00  0.99999998245E-14  0.12500000000E+03  0.12500000000E+03 0.  0.
        -11    1    3    3    0    0  0.22275862379E+02  0.57463513625E+01  0.26192881433E+02  0.34861176640E+02  0.51100000000E-03 0. -1.
         23    2    1    0    0    0 -0.89368120601E+01 -0.15633211423E+02 -0.22281465449E+02  0.96351656038E+02  0.91994097688E+02 0.  0.
         11    1    3    3    0    0 -0.31212674439E+02 -0.21379562786E+02 -0.48474346883E+02  0.61490479397E+02  0.51100000000E-03 0.  1.
         22    1    1    0    0    0  0.89368120601E+01  0.15633211423E+02  0.22281465449E+02  0.28648343962E+02  0.00000000000E+00 0.  1.
</event>
<event>
 5    1  0.1717510E-003  0.9118800E+02  0.7818608E-02  0.1130116E+00
         25   -1    0    0    0    0  0.00000000000E+00  0.00000000000E+00  0.99999998245E-14  0.12500000000E+03  0.12500000000E+03 0.  0.
        -11    1    3    3    0    0 -0.32737497805E+02 -0.24690433850E+02  0.20978589529E+02  0.46059336786E+02  0.51100000000E-03 0. -1.
         23    2    1    0    0    0  0.15253729992E+01  0.16231195288E+02  0.19677123224E+02  0.99446768470E+02  0.96107711020E+02 0.  0.
         11    1    3    3    0    0  0.34262870804E+02  0.40921629138E+02 -0.13014663055E+01  0.53387431684E+02  0.51100000000E-03 0.  1.
         22    1    1    0    0    0 -0.15253729992E+01 -0.16231195288E+02 -0.19677123224E+02  0.25553231530E+02  0.00000000000E+00 0.  1.
</event>
<event>
 5    1  0.1717510E-003  0.9118800E+02  0.7818608E-02  0.1130116E+00
         25   -1    0    0    0    0  0.00000000000E+00  0.00000000000E+00  0.99999998245E-14  0.12500000000E+03  0.12500000000E+03 0.  0.
        -11    1    3    3    0    0 -0.10553544999E+02  0.53051646276E+02  0.18946943562E+02  0.57313533787E+02  0.51100000000E-03 0.  1.
         23    2    1    0    0    0 -0.15931850986E+01  0.26883471715E+02 -0.89721261442E+01  0.96614117280E+02  0.92350036925E+02 0.  0.
         11    1    3    3    0    0  0.89603599002E+01 -0.26168174560E+02 -0.27919069706E+02  0.39300583493E+02  0.51100000000E-03 0. -1.
         22    1    1    0    0    0  0.15931850986E+01 -0.26883471715E+02  0.89721261442E+01  0.28385882720E+02  0.00000000000E+00 0.  1.
</event>
<event>
 5    1  0.1717510E-003  0.9118800E+02  0.7818608E-02  0.1130116E+00
         25   -1    0    0    0    0  0.00000000000E+00  0.00000000000E+00  0.99999998245E-14  0.12500000000E+03  0.12500000000E+03 0.  0.
        -11    1    3    3    0    0 -0.45658108954E+02 -0.11411625250E+02 -0.13211523752E+02  0.48881821408E+02  0.51100000000E-03 0.  1.
         23    2    1    0    0    0 -0.29282602475E+01  0.21147961951E+01 -0.28526394973E+02  0.96245830195E+02  0.91850190793E+02 0.  0.
         11    1    3    3    0    0  0.42729848706E+02  0.13526421445E+02 -0.15314871221E+02  0.47364008787E+02  0.51100000000E-03 0. -1.
         22    1    1    0    0    0  0.29282602475E+01 -0.21147961951E+01  0.28526394973E+02  0.28754169805E+02  0.00000000000E+00 0. -1.
</event>
<event>
 5    1  0.1717510E-003  0.9118800E+02  0.7818608E-02  0.1130116E+00
         25   -1    0    0    0    0  0.00000000000E+00  0.00000000000E+00  0.99999998245E-14  0.12500000000E+03  0.12500000000E+03 0.  0.
        -11    1    3    3    0    0  0.19283796977E+02  0.46568455671E+01 -0.53176448502E+02  0.56756371554E+02  0.51100000000E-03 0.  1.
         23    2    1    0    0    0 -0.35446582532E+00  0.18635097436E+02 -0.24430984853E+02  0.94271096288E+02  0.89122242296E+02 0.  0.
         11    1    3    3    0    0 -0.19638262802E+02  0.13978251869E+02  0.28745463649E+02  0.37514724734E+02  0.51100000000E-03 0. -1.
         22    1    1    0    0    0  0.35446582532E+00 -0.18635097436E+02  0.24430984853E+02  0.30728903712E+02  0.00000000000E+00 0.  1.
</event>
<event>
 5    1  0.1717510E-003  0.9118800E+02  0.7818608E-02  0.1130116E+00
         25   -1    0    0    0    0  0.00000000000E+00  0.00000000000E+00  0.99999998245E-14  0.12500000000E+03  0.12500000000E+03 0.  0.
        -11    1    3    3    0    0  0.38775988265E+02  0.27482690519E+01  0.13327284661E+02  0.41094364156E+02  0.51100000000E-03 0. -1.
         23    2    1    0    0    0 -0.13295942102E+02  0.15886074401E+02  0.21184811324E+02  0.95369852058E+02  0.90650223467E+02 0.  0.
         11    1    3    3    0    0 -0.52071930367E+02  0.13137805349E+02  0.78575266625E+01  0.54275487902E+02  0.51100000000E-03 0.  1.
         22    1    1    0    0    0  0.13295942102E+02 -0.15886074401E+02 -0.21184811324E+02  0.29630147942E+02  0.00000000000E+00 0.  1.
</event>
<event>
 5    1  0.1717510E-003  0.9118800E+02  0.7818608E-02  0.1130116E+00
         25   -1    0    0    0    0  0.00000000000E+00  0.00000000000E+00  0.99999998245E-14  0.12500000000E+03  0.12500000000E+03 0.  0.
        -11    1    3    3    0    0  0.37093671898E+02  0.30645041017E+02  0.39233061389E+02  0.62082945646E+02  0.51100000000E-03 0. -1.
         23    2    1    0    0    0  0.18044786376E+02  0.19067095840E+02  0.16121302232E+02  0.94193103941E+02  0.89012785516E+02 0.  0.
         11    1    3    3    0    0 -0.19048885522E+02 -0.11577945177E+02 -0.23111759157E+02  0.32110158295E+02  0.51100000000E-03 0.  1.
         22    1    1    0    0    0 -0.18044786376E+02 -0.19067095840E+02 -0.16121302232E+02  0.30806896059E+02  0.00000000000E+00 0. -1.
</event>
<event>
 5    1  0.1717510E-003  0.9118800E+02  0.7818608E-02  0.1130116E+00
         25   -1    0    0    0    0  0.00000000000E+00  0.00000000000E+00  0.99999998245E-14  0.12500000000E+03  0.12500000000E+03 0.  0.
        -11    1    3    3    0    0 -0.45487748428E+02  0.11771566757E+02 -0.41060244703E+02  0.62399108458E+02  0.51100000000E-03 0. -1.
         23    2    1    0    0    0 -0.22615344425E+02  0.64932568184E+01 -0.17330527873E+02  0.95777348102E+02  0.91210399766E+02 0.  0.
         11    1    3    3    0    0  0.22872404003E+02 -0.52783099383E+01  0.23729716830E+02  0.33378239645E+02  0.51100000000E-03 0.  1.
         22    1    1    0    0    0  0.22615344425E+02 -0.64932568184E+01  0.17330527873E+02  0.29222651898E+02  0.00000000000E+00 0. -1.
</event>
<event>
 5    1  0.1717510E-003  0.9118800E+02  0.7818608E-02  0.1130116E+00
         25   -1    0    0    0    0  0.00000000000E+00  0.00000000000E+00  0.99999998245E-14  0.12500000000E+03  0.12500000000E+03 0.  0.
        -11    1    3    3    0    0 -0.21299595637E+02 -0.23925534101E+02 -0.14487999824E+02  0.35156878352E+02  0.51100000000E-03 0.  1.
         23    2    1    0    0    0  0.26904008004E+02  0.10657777856E+02 -0.75361760295E+00  0.96052084445E+02  0.91586140388E+02 0.  0.
         11    1    3    3    0    0  0.48203603641E+02  0.34583311956E+02  0.13734382221E+02  0.60895206093E+02  0.51100000000E-03 0. -1.
         22    1    1    0    0    0 -0.26904008004E+02 -0.10657777856E+02  0.75361760295E+00  0.28947915555E+02  0.00000000000E+00 0. -1.
</event>
<event>
 5    1  0.1717510E-003  0.9118800E+02  0.7818608E-02  0.1130116E+00
         25   -1    0    0    0    0  0.00000000000E+00  0.00000000000E+00  0.99999998245E-14  0.12500000000E+03  0.12500000000E+03 0.  0.
        -11    1    3    3    0    0  0.11049568885E+02  0.88423140775E+01 -0.41378982195E+02  0.43732135307E+02  0.51100000000E-03 0. -1.
         23    2    1    0    0    0 -0.27683412947E+02 -0.45941701324E+01 -0.10578619773E+02  0.95010252620E+02  0.90152998591E+02 0.  0.
         11    1    3    3    0    0 -0.38732981832E+02 -0.13436484210E+02  0.30800362422E+02  0.51278117313E+02  0.51100000000E-03 0.  1.
         22    1    1    0    0    0  0.27683412947E+02  0.45941701324E+01  0.10578619773E+02  0.29989747380E+02  0.00000000000E+00 0. -1.
</event>
<event>
 5    1  0.1717510E-003  0.9118800E+02  0.7818608E-02  0.1130116E+00
         25   -1    0    0    0    0  0.00000000000E+00  0.00000000000E+00  0.99999998245E-14  0.12500000000E+03  0.12500000000E+03 0.  0.
        -11    1    3    3    0    0 -0.82432445951E+01 -0.37855560338E+02 -0.15124681382E+02  0.41590269500E+02  0.51100000000E-03 0.  1.
         23    2    1    0    0    0 -0.21436346946E+02  0.32374431880E+01  0.18656845663E+02  0.96397973868E+02  0.92057012047E+02 0.  0.
         11    1    3    3    0    0 -0.13193102350E+02  0.41093003526E+02  0.33781527044E+02  0.54807704368E+02  0.51100000000E-03 0. -1.
         22    1    1    0    0    0  0.21436346946E+02 -0.32374431880E+01 -0.18656845663E+02  0.28602026132E+02  0.00000000000E+00 0. -1.
</event>
<event>
 5    1  0.1717510E-003  0.9118800E+02  0.7818608E-02  0.1130116E+00
         25   -1    0    0    0    0  0.00000000000E+00  0.00000000000E+00  0.99999998245E-14  0.12500000000E+03  0.12500000000E+03 0.  0.
        -11    1    3    3    0    0  0.13139908605E+02 -0.10912331393E+02 -0.28558042027E+02  0.33276086598E+02  0.51100000000E-03 0.  1.
         23    2    1    0    0    0 -0.22027322628E+02  0.41710518628E+00  0.20645401008E+02  0.94807128297E+02  0.89870918957E+02 0.  0.
         11    1    3    3    0    0 -0.35167231233E+02  0.11329436579E+02  0.49203443035E+02  0.61531041699E+02  0.51100000000E-03 0. -1.
         22    1    1    0    0    0  0.22027322628E+02 -0.41710518628E+00 -0.20645401008E+02  0.30192871703E+02  0.00000000000E+00 0. -1.
</event>
<event>
 5    1  0.1717510E-003  0.9118800E+02  0.7818608E-02  0.1130116E+00
         25   -1    0    0    0    0  0.00000000000E+00  0.00000000000E+00  0.99999998245E-14  0.12500000000E+03  0.12500000000E+03 0.  0.
        -11    1    3    3    0    0 -0.98801183915E+01 -0.79359899808E+01  0.30303161517E+02  0.32846282508E+02  0.51100000000E-03 0.  1.
         23    2    1    0    0    0  0.17034927125E+02 -0.19400118768E+01 -0.25024979869E+02  0.94665168441E+02  0.89673251922E+02 0.  0.
         11    1    3    3    0    0  0.26915045517E+02  0.59959781040E+01 -0.55328141386E+02  0.61818885934E+02  0.51100000000E-03 0. -1.
         22    1    1    0    0    0 -0.17034927125E+02  0.19400118768E+01  0.25024979869E+02  0.30334831559E+02  0.00000000000E+00 0. -1.
</event>
<event>
 5    1  0.1717510E-003  0.9118800E+02  0.7818608E-02  0.1130116E+00
         25   -1    0    0    0    0  0.00000000000E+00  0.00000000000E+00  0.99999998245E-14  0.12500000000E+03  0.12500000000E+03 0.  0.
        -11    1    3    3    0    0  0.62801312832E+01 -0.97175678090E+01  0.54284177481E+02  0.55503541311E+02  0.51100000000E-03 0. -1.
         23    2    1    0    0    0  0.12637157927E+02  0.13957467787E+02  0.21915113056E+02  0.96107425734E+02  0.91661641014E+02 0.  0.
         11    1    3    3    0    0  0.63570266436E+01  0.23675035596E+02 -0.32369064425E+02  0.40603884423E+02  0.51100000000E-03 0.  1.
         22    1    1    0    0    0 -0.12637157927E+02 -0.13957467787E+02 -0.21915113056E+02  0.28892574266E+02  0.00000000000E+00 0. -1.
</event>
<event>
 5    1  0.1717510E-003  0.9118800E+02  0.7818608E-02  0.1130116E+00
         25   -1    0    0    0    0  0.00000000000E+00  0.00000000000E+00  0.99999998245E-14  0.12500000000E+03  0.12500000000E+03 0.  0.
        -11    1    3    3    0    0 -0.38115104685E+01  0.14945952756E+02 -0.38112871678E+02  0.41115691696E+02  0.51100000000E-03 0.  1.
         23    2    1    0    0    0  0.46542432003E+01 -0.23974519103E+02  0.52760189207E+01  0.10001448576E+03  0.96843282890E+02 0.  0.
         11    1    3    3    0    0  0.84657536688E+01 -0.38920471859E+02  0.43388890599E+02  0.58898794067E+02  0.51100000000E-03 0. -1.
         22    1    1    0    0    0 -0.46542432003E+01  0.23974519103E+02 -0.52760189207E+01  0.24985514236E+02  0.00000000000E+00 0. -1.
</event>
<event>
 5    1  0.1717510E-003  0.9118800E+02  0.7818608E-02  0.1130116E+00
         25   -1    0    0    0    0  0.00000000000E+00  0.00000000000E+00  0.99999998245E-14  0.12500000000E+03  0.12500000000E+03 0.  0.
        -11    1    3    3    0    0 -0.54399784475E+02 -0.27846931803E+02  0.98509481779E+01  0.61901771720E+02  0.51100000000E-03 0.  1.
         23    2    1    0    0    0 -0.21151785439E+02 -0.17646366092E+02  0.45065042770E+01  0.97087622023E+02  0.92988738596E+02 0.  0.
         11    1    3    3    0    0  0.33247999036E+02  0.10200565711E+02 -0.53444439010E+01  0.35185850303E+02  0.51100000000E-03 0. -1.
         22    1    1    0    0    0  0.21151785439E+02  0.17646366092E+02 -0.45065042770E+01  0.27912377977E+02  0.00000000000E+00 0.  1.
</event>
<event>
 5    1  0.1717510E-003  0.9118800E+02  0.7818608E-02  0.1130116E+00
         25   -1    0    0    0    0  0.00000000000E+00  0.00000000000E+00  0.99999998245E-14  0.12500000000E+03  0.12500000000E+03 0.  0.
        -11    1    3    3    0    0 -0.30780050995E+02 -0.16451839906E+02 -0.10147361148E+02  0.36346162302E+02  0.51100000000E-03 0. -1.
         23    2    1    0    0    0  0.82683877292E+01  0.27797501496E+02 -0.48169435778E+01  0.95601526051E+02  0.90969123953E+02 0.  0.
         11    1    3    3    0    0  0.39048438724E+02  0.44249341402E+02  0.53304175706E+01  0.59255363749E+02  0.51100000000E-03 0.  1.
         22    1    1    0    0    0 -0.82683877292E+01 -0.27797501496E+02  0.48169435778E+01  0.29398473949E+02  0.00000000000E+00 0.  1.
</event>
<event>
 5    1  0.1717510E-003  0.9118800E+02  0.7818608E-02  0.1130116E+00
         25   -1    0    0    0    0  0.00000000000E+00  0.00000000000E+00  0.99999998245E-14  0.12500000000E+03  0.12500000000E+03 0.  0.
        -11    1    3    3    0    0  0.43305392094E+02  0.33806394667E+02 -0.30012931408E+01  0.55020333202E+02  0.51100000000E-03 0.  1.
         23    2    1    0    0    0  0.29779118539E+02 -0.27616700582E+01 -0.72097531220E+01  0.94236332102E+02  0.89073469818E+02 0.  0.
         11    1    3    3    0    0 -0.13526273555E+02 -0.36568064726E+02 -0.42084599812E+01  0.39215998900E+02  0.51100000000E-03 0. -1.
         22    1    1    0    0    0 -0.29779118539E+02  0.27616700582E+01  0.72097531220E+01  0.30763667898E+02  0.00000000000E+00 0. -1.
</event>
<event>
 5    1  0.1717510E-003  0.9118800E+02  0.7818608E-02  0.1130116E+00
         25   -1    0    0    0    0  0.00000000000E+00  0.00000000000E+00  0.99999998245E-14  0.12500000000E+03  0.12500000000E+03 0.  0.
        -11    1    3    3    0    0 -0.16887841952E+02  0.48474812334E+02 -0.24572467360E+02  0.56910568342E+02  0.51100000000E-03 0. -1.
         23    2    1    0    0    0 -0.24006617387E+02  0.12969716154E+02 -0.10227367525E+02  0.95860160228E+02  0.91323819767E+02 0.  0.
         11    1    3    3    0    0 -0.71187754347E+01 -0.35505096181E+02  0.14345099835E+02  0.38949591885E+02  0.51100000000E-03 0.  1.
         22    1    1    0    0    0  0.24006617387E+02 -0.12969716154E+02  0.10227367525E+02  0.29139839772E+02  0.00000000000E+00 0. -1.
</event>
<event>
 5    1  0.1717510E-003  0.9118800E+02  0.7818608E-02  0.1130116E+00
         25   -1    0    0    0    0  0.00000000000E+00  0.00000000000E+00  0.99999998245E-14  0.12500000000E+03  0.12500000000E+03 0.  0.
        -11    1    3    3    0    0 -0.33055356286E+02  0.15849875657E+02 -0.64982923539E+01  0.37230403453E+02  0.51100000000E-03 0. -1.
         23    2    1    0    0    0  0.16233340126E+02 -0.44446343619E+01  0.21704017823E+02  0.97534740200E+02  0.93587846700E+02 0.  0.
         11    1    3    3    0    0  0.49288696411E+02 -0.20294510019E+02  0.28202310177E+02  0.60304336746E+02  0.51100000000E-03 0.  1.
         22    1    1    0    0    0 -0.16233340126E+02  0.44446343619E+01 -0.21704017823E+02  0.27465259800E+02  0.00000000000E+00 0.  1.
</event>
<event>
 5    1  0.1717510E-003  0.9118800E+02  0.7818608E-02  0.1130116E+00
         25   -1    0    0    0    0  0.00000000000E+00  0.00000000000E+00  0.99999998245E-14  0.12500000000E+03  0.12500000000E+03 0.  0.
        -11    1    3    3    0    0  0.33602188743E+01 -0.32751745406E+02 -0.10537283637E+02  0.34568804502E+02  0.51100000000E-03 0.  1.
         23    2    1    0    0    0 -0.31637553517E+01  0.28162712139E+02 -0.44980422487E+00  0.96656569954E+02  0.92407480696E+02 0.  0.
         11    1    3    3    0    0 -0.65239742260E+01  0.60914457544E+02  0.10087479412E+02  0.62087765452E+02  0.51100000000E-03 0. -1.
         22    1    1    0    0    0  0.31637553517E+01 -0.28162712139E+02  0.44980422487E+00  0.28343430046E+02  0.00000000000E+00 0. -1.
</event>
<event>
 5    1  0.1717510E-003  0.9118800E+02  0.7818608E-02  0.1130116E+00
         25   -1    0    0    0    0  0.00000000000E+00  0.00000000000E+00  0.99999998245E-14  0.12500000000E+03  0.12500000000E+03 0.  0.
        -11    1    3    3    0    0 -0.72593112948E+01  0.12575473418E+02  0.99040292700E+01  0.17576402596E+02  0.51100000000E-03 0. -1.
         23    2    1    0    0    0 -0.56769843362E+01 -0.14071951714E+02 -0.44395571275E+02  0.78082895176E+02  0.62415733546E+02 0.  0.
         11    1    3    3    0    0  0.15823269587E+01 -0.26647425133E+02 -0.54299600545E+02  0.60506492581E+02  0.51100000000E-03 0.  1.
         22    1    1    0    0    0  0.56769843362E+01  0.14071951714E+02  0.44395571275E+02  0.46917104824E+02  0.00000000000E+00 0.  1.
</event>
<event>
 5    1  0.1717510E-003  0.9118800E+02  0.7818608E-02  0.1130116E+00
         25   -1    0    0    0    0  0.00000000000E+00  0.00000000000E+00  0.99999998245E-14  0.12500000000E+03  0.12500000000E+03 0.  0.
        -11    1    3    3    0    0  0.16182260584E+02 -0.25917056295E+02  0.45858307811E+02  0.55104843346E+02  0.51100000000E-03 0. -1.
         23    2    1    0    0    0  0.19174389148E+00  0.69240172881E+01  0.28726870271E+02  0.95449841680E+02  0.90760456258E+02 0.  0.
         11    1    3    3    0    0 -0.15990516693E+02  0.32841073583E+02 -0.17131437539E+02  0.40344998335E+02  0.51100000000E-03 0.  1.
         22    1    1    0    0    0 -0.19174389148E+00 -0.69240172881E+01 -0.28726870271E+02  0.29550158320E+02  0.00000000000E+00 0. -1.
</event>
<event>
 5    1  0.1717510E-003  0.9118800E+02  0.7818608E-02  0.1130116E+00
         25   -1    0    0    0    0  0.00000000000E+00  0.00000000000E+00  0.99999998245E-14  0.12500000000E+03  0.12500000000E+03 0.  0.
        -11    1    3    3    0    0  0.30661745467E+02  0.43411761594E+02  0.88132171801E+01  0.53873894207E+02  0.51100000000E-03 0.  1.
         23    2    1    0    0    0  0.28064643187E+02  0.20545529263E+01  0.94452180608E+01  0.95317386753E+02  0.90577848773E+02 0.  0.
         11    1    3    3    0    0 -0.25971022796E+01 -0.41357208667E+02  0.63200088070E+00  0.41443492546E+02  0.51100000000E-03 0. -1.
         22    1    1    0    0    0 -0.28064643187E+02 -0.20545529263E+01 -0.94452180608E+01  0.29682613247E+02  0.00000000000E+00 0.  1.
</event>
<event>
 5    1  0.1717510E-003  0.9118800E+02  0.7818608E-02  0.1130116E+00
         25   -1    0    0    0    0  0.00000000000E+00  0.00000000000E+00  0.99999998245E-14  0.12500000000E+03  0.12500000000E+03 0.  0.
        -11    1    3    3    0    0 -0.58645674875E+02 -0.14183046248E+02  0.23145006399E+01  0.60380716259E+02  0.51100000000E-03 0. -1.
         23    2    1    0    0    0 -0.24286599045E+02 -0.12742675017E+02  0.10331473478E+02  0.95692082912E+02  0.91093472478E+02 0.  0.
         11    1    3    3    0    0  0.34359075830E+02  0.14403712307E+01  0.80169728382E+01  0.35311366653E+02  0.51100000000E-03 0.  1.
         22    1    1    0    0    0  0.24286599045E+02  0.12742675017E+02 -0.10331473478E+02  0.29307917088E+02  0.00000000000E+00 0. -1.
</event>
<event>
 5    1  0.1717510E-003  0.9118800E+02  0.7818608E-02  0.1130116E+00
         25   -1    0    0    0    0  0.00000000000E+00  0.00000000000E+00  0.99999998245E-14  0.12500000000E+03  0.12500000000E+03 0.  0.
        -11    1    3    3    0    0  0.47716919367E+01 -0.95435435602E+01 -0.37075763414E+02  0.38580571543E+02  0.51100000000E-03 0. -1.
         23    2    1    0    0    0 -0.31108857630E+02  0.12285854119E+01  0.33396658726E+01  0.93688279937E+02  0.88301019158E+02 0.  0.
         11    1    3    3    0    0 -0.35880549566E+02  0.10772128972E+02  0.40415429287E+02  0.55107708394E+02  0.51100000000E-03 0.  1.
         22    1    1    0    0    0  0.31108857630E+02 -0.12285854119E+01 -0.33396658726E+01  0.31311720063E+02  0.00000000000E+00 0.  1.
</event>
<event>
 5    1  0.1717510E-003  0.9118800E+02  0.7818608E-02  0.1130116E+00
         25   -1    0    0    0    0  0.00000000000E+00  0.00000000000E+00  0.99999998245E-14  0.12500000000E+03  0.12500000000E+03 0.  0.
        -11    1    3    3    0    0  0.29718624770E+02 -0.43063019645E+02  0.16836643588E+02  0.54964469312E+02  0.51100000000E-03 0. -1.
         23    2    1    0    0    0 -0.69827641865E+01 -0.24360051730E+02  0.13489035583E+02  0.96292419173E+02  0.91913572411E+02 0.  0.
         11    1    3    3    0    0 -0.36701388956E+02  0.18702967915E+02 -0.33476080046E+01  0.41327949862E+02  0.51100000000E-03 0.  1.
         22    1    1    0    0    0  0.69827641865E+01  0.24360051730E+02 -0.13489035583E+02  0.28707580827E+02  0.00000000000E+00 0. -1.
</event>
<event>
 5    1  0.1717510E-003  0.9118800E+02  0.7818608E-02  0.1130116E+00
         25   -1    0    0    0    0  0.00000000000E+00  0.00000000000E+00  0.99999998245E-14  0.12500000000E+03  0.12500000000E+03 0.  0.
        -11    1    3    3    0    0  0.35953311477E+02 -0.24370532182E+02  0.14747161986E+02  0.45869840112E+02  0.51100000000E-03 0. -1.
         23    2    1    0    0    0 -0.22551705563E+01  0.20248398677E+01  0.30074535216E+02  0.94773133818E+02  0.89823624145E+02 0.  0.
         11    1    3    3    0    0 -0.38208482033E+02  0.26395372050E+02  0.15327373230E+02  0.48903293706E+02  0.51100000000E-03 0.  1.
         22    1    1    0    0    0  0.22551705563E+01 -0.20248398677E+01 -0.30074535216E+02  0.30226866182E+02  0.00000000000E+00 0.  1.
</event>
<event>
 5    1  0.1717510E-003  0.9118800E+02  0.7818608E-02  0.1130116E+00
         25   -1    0    0    0    0  0.00000000000E+00  0.00000000000E+00  0.99999998245E-14  0.12500000000E+03  0.12500000000E+03 0.  0.
        -11    1    3    3    0    0 -0.20525788844E+02 -0.49792626532E+02 -0.28278899896E+02  0.60830172153E+02  0.51100000000E-03 0.  1.
         23    2    1    0    0    0 -0.33748857015E+00 -0.27412885557E+02 -0.12166797549E+02  0.95006481439E+02  0.90147769577E+02 0.  0.
         11    1    3    3    0    0  0.20188300274E+02  0.22379740975E+02  0.16112102347E+02  0.34176309285E+02  0.51100000000E-03 0. -1.
         22    1    1    0    0    0  0.33748857015E+00  0.27412885557E+02  0.12166797549E+02  0.29993518561E+02  0.00000000000E+00 0.  1.
</event>
<event>
 5    1  0.1717510E-003  0.9118800E+02  0.7818608E-02  0.1130116E+00
         25   -1    0    0    0    0  0.00000000000E+00  0.00000000000E+00  0.99999998245E-14  0.12500000000E+03  0.12500000000E+03 0.  0.
        -11    1    3    3    0    0 -0.25751595494E+02 -0.23562571366E+02  0.13391804703E+02  0.37385557015E+02  0.51100000000E-03 0.  1.
         23    2    1    0    0    0  0.14387977018E+02  0.19938748071E+02  0.14247276986E+02  0.96582532505E+02  0.92307275587E+02 0.  0.
         11    1    3    3    0    0  0.40139572512E+02  0.43501319436E+02  0.85547228257E+00  0.59196975490E+02  0.51100000000E-03 0. -1.
         22    1    1    0    0    0 -0.14387977018E+02 -0.19938748071E+02 -0.14247276986E+02  0.28417467495E+02  0.00000000000E+00 0. -1.
</event>
<event>
 5    1  0.1717510E-003  0.9118800E+02  0.7818608E-02  0.1130116E+00
         25   -1    0    0    0    0  0.00000000000E+00  0.00000000000E+00  0.99999998245E-14  0.12500000000E+03  0.12500000000E+03 0.  0.
        -11    1    3    3    0    0 -0.67968509390E+01 -0.16205475915E+02 -0.52255963681E+02  0.55131663977E+02  0.51100000000E-03 0. -1.
         23    2    1    0    0    0 -0.13879584758E+02  0.11239805259E+02 -0.23183426820E+02  0.95734877850E+02  0.91152177498E+02 0.  0.
         11    1    3    3    0    0 -0.70827338187E+01  0.27445281174E+02  0.29072536861E+02  0.40603213873E+02  0.51100000000E-03 0.  1.
         22    1    1    0    0    0  0.13879584758E+02 -0.11239805259E+02  0.23183426820E+02  0.29265122150E+02  0.00000000000E+00 0. -1.
</event>
<event>
 5    1  0.1717510E-003  0.9118800E+02  0.7818608E-02  0.1130116E+00
         25   -1    0    0    0    0  0.00000000000E+00  0.00000000000E+00  0.99999998245E-14  0.12500000000E+03  0.12500000000E+03 0.  0.
        -11    1    3    3    0    0  0.41901332879E+02 -0.15712234506E+02  0.42394776287E+02  0.61643434905E+02  0.51100000000E-03 0.  1.
         23    2    1    0    0    0  0.20208202470E+02 -0.12690689654E+02  0.14621284670E+02  0.97014164004E+02  0.92889940258E+02 0.  0.
         11    1    3    3    0    0 -0.21693130409E+02  0.30215448518E+01 -0.27773491616E+02  0.35370729100E+02  0.51100000000E-03 0. -1.
         22    1    1    0    0    0 -0.20208202470E+02  0.12690689654E+02 -0.14621284670E+02  0.27985835996E+02  0.00000000000E+00 0.  1.
</event>
<event>
 5    1  0.1717510E-003  0.9118800E+02  0.7818608E-02  0.1130116E+00
         25   -1    0    0    0    0  0.00000000000E+00  0.00000000000E+00  0.99999998245E-14  0.12500000000E+03  0.12500000000E+03 0.  0.
        -11    1    3    3    0    0  0.28614564050E+02 -0.32635048212E+02  0.18328732166E+01  0.43441904563E+02  0.51100000000E-03 0. -1.
         23    2    1    0    0    0  0.42854013751E+01  0.25167030535E+01 -0.28634289827E+02  0.95937635796E+02  0.91429803396E+02 0.  0.
         11    1    3    3    0    0 -0.24329162675E+02  0.35151751266E+02 -0.30467163044E+02  0.52495731233E+02  0.51100000000E-03 0.  1.
         22    1    1    0    0    0 -0.42854013751E+01 -0.25167030535E+01  0.28634289827E+02  0.29062364204E+02  0.00000000000E+00 0.  1.
</event>
<event>
 5    1  0.1717510E-003  0.9118800E+02  0.7818608E-02  0.1130116E+00
         25   -1    0    0    0    0  0.00000000000E+00  0.00000000000E+00  0.99999998245E-14  0.12500000000E+03  0.12500000000E+03 0.  0.
        -11    1    3    3    0    0 -0.33688041559E+02  0.33905006869E+02 -0.51642466095E+01  0.48073933459E+02  0.51100000000E-03 0.  1.
         23    2    1    0    0    0 -0.26162670817E+02 -0.12984350640E+02 -0.54569267530E+00  0.95787391655E+02  0.91224162993E+02 0.  0.
         11    1    3    3    0    0  0.75253707425E+01 -0.46889357509E+02  0.46185539342E+01  0.47713458197E+02  0.51100000000E-03 0. -1.
         22    1    1    0    0    0  0.26162670817E+02  0.12984350640E+02  0.54569267530E+00  0.29212608345E+02  0.00000000000E+00 0.  1.
</event>
<event>
 5    1  0.1717510E-003  0.9118800E+02  0.7818608E-02  0.1130116E+00
         25   -1    0    0    0    0  0.00000000000E+00  0.00000000000E+00  0.99999998245E-14  0.12500000000E+03  0.12500000000E+03 0.  0.
        -11    1    3    3    0    0  0.38307445337E+02 -0.23266231513E+02  0.17732630027E+02  0.48199834699E+02  0.51100000000E-03 0. -1.
         23    2    1    0    0    0 -0.17257990084E+01  0.44600868836E+01  0.26836579674E+02  0.97740638933E+02  0.93862451135E+02 0.  0.
         11    1    3    3    0    0 -0.40033244346E+02  0.27726318397E+02  0.91039496469E+01  0.49540804234E+02  0.51100000000E-03 0.  1.
         22    1    1    0    0    0  0.17257990084E+01 -0.44600868836E+01 -0.26836579674E+02  0.27259361067E+02  0.00000000000E+00 0. -1.
</event>
<event>
 5    1  0.1717510E-003  0.9118800E+02  0.7818608E-02  0.1130116E+00
         25   -1    0    0    0    0  0.00000000000E+00  0.00000000000E+00  0.99999998245E-14  0.12500000000E+03  0.12500000000E+03 0.  0.
        -11    1    3    3    0    0  0.13316019544E+02 -0.21373904642E+02 -0.53321625711E+02  0.58969110091E+02  0.51100000000E-03 0.  1.
         23    2    1    0    0    0  0.10190867620E+02  0.42960757661E+01 -0.26783820861E+02  0.96022713900E+02  0.91546045654E+02 0.  0.
         11    1    3    3    0    0 -0.31251519233E+01  0.25669980408E+02  0.26537804850E+02  0.37053603809E+02  0.51100000000E-03 0. -1.
         22    1    1    0    0    0 -0.10190867620E+02 -0.42960757661E+01  0.26783820861E+02  0.28977286100E+02  0.00000000000E+00 0.  1.
</event>
<event>
 5    1  0.1717510E-003  0.9118800E+02  0.7818608E-02  0.1130116E+00
         25   -1    0    0    0    0  0.00000000000E+00  0.00000000000E+00  0.99999998245E-14  0.12500000000E+03  0.12500000000E+03 0.  0.
        -11    1    3    3    0    0 -0.24019174384E+02  0.32611591067E+02  0.12282774698E+02  0.42323789582E+02  0.51100000000E-03 0.  1.
         23    2    1    0    0    0  0.23334459151E+02  0.14656333688E+02  0.16056681797E+02  0.93107647761E+02  0.87475207574E+02 0.  0.
         11    1    3    3    0    0  0.47353633535E+02 -0.17955257379E+02  0.37739070993E+01  0.50783858179E+02  0.51100000000E-03 0. -1.
         22    1    1    0    0    0 -0.23334459151E+02 -0.14656333688E+02 -0.16056681797E+02  0.31892352239E+02  0.00000000000E+00 0. -1.
</event>
<event>
 5    1  0.1717510E-003  0.9118800E+02  0.7818608E-02  0.1130116E+00
         25   -1    0    0    0    0  0.00000000000E+00  0.00000000000E+00  0.99999998245E-14  0.12500000000E+03  0.12500000000E+03 0.  0.
        -11    1    3    3    0    0  0.27741111209E+02  0.87759089438E+01  0.18465378491E+02  0.34460934868E+02  0.51100000000E-03 0.  1.
         23    2    1    0    0    0 -0.28529673295E+02  0.77536829706E+01 -0.42098716749E+01  0.95137232589E+02  0.90328888774E+02 0.  0.
         11    1    3    3    0    0 -0.56270784504E+02 -0.10222259732E+01 -0.22675250166E+02  0.60676297720E+02  0.51100000000E-03 0. -1.
         22    1    1    0    0    0  0.28529673295E+02 -0.77536829706E+01  0.42098716749E+01  0.29862767411E+02  0.00000000000E+00 0. -1.
</event>
<event>
 5    1  0.1717510E-003  0.9118800E+02  0.7818608E-02  0.1130116E+00
         25   -1    0    0    0    0  0.00000000000E+00  0.00000000000E+00  0.99999998245E-14  0.12500000000E+03  0.12500000000E+03 0.  0.
        -11    1    3    3    0    0 -0.23196403355E+02 -0.25177430944E+02 -0.46055937550E+02  0.57385760790E+02  0.51100000000E-03 0. -1.
         23    2    1    0    0    0 -0.25628301538E+02 -0.82479248210E+01 -0.11941043219E+02  0.95547892830E+02  0.90895397065E+02 0.  0.
         11    1    3    3    0    0 -0.24318981836E+01  0.16929506123E+02  0.34114894332E+02  0.38162132040E+02  0.51100000000E-03 0.  1.
         22    1    1    0    0    0  0.25628301538E+02  0.82479248210E+01  0.11941043219E+02  0.29452107170E+02  0.00000000000E+00 0. -1.
</event>
<event>
 5    1  0.1717510E-003  0.9118800E+02  0.7818608E-02  0.1130116E+00
         25   -1    0    0    0    0  0.00000000000E+00  0.00000000000E+00  0.99999998245E-14  0.12500000000E+03  0.12500000000E+03 0.  0.
        -11    1    3    3    0    0 -0.54693293596E+02 -0.14955524210E+02  0.26111089623E+02  0.62424458911E+02  0.51100000000E-03 0. -1.
         23    2    1    0    0    0 -0.26397795318E+02 -0.54181325132E+01  0.10955760543E+02  0.95909994041E+02  0.91392004630E+02 0.  0.
         11    1    3    3    0    0  0.28295498278E+02  0.95373916968E+01 -0.15155329080E+02  0.33485535130E+02  0.51100000000E-03 0.  1.
         22    1    1    0    0    0  0.26397795318E+02  0.54181325132E+01 -0.10955760543E+02  0.29090005959E+02  0.00000000000E+00 0. -1.
</event>
<event>
 5    1  0.1717510E-003  0.9118800E+02  0.7818608E-02  0.1130116E+00
         25   -1    0    0    0    0  0.00000000000E+00  0.00000000000E+00  0.99999998245E-14  0.12500000000E+03  0.12500000000E+03 0.  0.
        -11    1    3    3    0    0 -0.74245652852E+01 -0.27782923470E+02 -0.29539682405E+02  0.41226300381E+02  0.51100000000E-03 0.  1.
         23    2    1    0    0    0  0.29233152572E+02 -0.10573427541E+02  0.38014510656E+01  0.93681864528E+02  0.88291936959E+02 0.  0.
         11    1    3    3    0    0  0.36657717857E+02  0.17209495930E+02  0.33341133470E+02  0.52455564147E+02  0.51100000000E-03 0. -1.
         22    1    1    0    0    0 -0.29233152572E+02  0.10573427541E+02 -0.38014510656E+01  0.31318135472E+02  0.00000000000E+00 0.  1.
</event>
<event>
 5    1  0.1717510E-003  0.9118800E+02  0.7818608E-02  0.1130116E+00
         25   -1    0    0    0    0  0.00000000000E+00  0.00000000000E+00  0.99999998245E-14  0.12500000000E+03  0.12500000000E+03 0.  0.
        -11    1    3    3    0    0 -0.81810660472E+01 -0.32437338007E+02 -0.41442021303E+01  0.33708828965E+02  0.51100000000E-03 0.  1.
         23    2    1    0    0    0  0.63764481305E+01  0.26269285979E+02  0.10598863047E+02  0.95964325830E+02  0.91466285906E+02 0.  0.
         11    1    3    3    0    0  0.14557514178E+02  0.58706623986E+02  0.14743065177E+02  0.62255496865E+02  0.51100000000E-03 0. -1.
         22    1    1    0    0    0 -0.63764481305E+01 -0.26269285979E+02 -0.10598863047E+02  0.29035674170E+02  0.00000000000E+00 0. -1.
</event>
<event>
 5    1  0.1717510E-003  0.9118800E+02  0.7818608E-02  0.1130116E+00
         25   -1    0    0    0    0  0.00000000000E+00  0.00000000000E+00  0.99999998245E-14  0.12500000000E+03  0.12500000000E+03 0.  0.
        -11    1    3    3    0    0  0.11189329571E+02 -0.15508443322E+02  0.35129612371E+02  0.39997532126E+02  0.51100000000E-03 0. -1.
         23    2    1    0    0    0  0.86168308816E+00 -0.22791457923E+02 -0.18833974389E+02  0.95421094623E+02  0.90720855682E+02 0.  0.
         11    1    3    3    0    0 -0.10327646483E+02 -0.72830146011E+01 -0.53963586760E+02  0.55423562497E+02  0.51100000000E-03 0.  1.
         22    1    1    0    0    0 -0.86168308816E+00  0.22791457923E+02  0.18833974389E+02  0.29578905377E+02  0.00000000000E+00 0.  1.
</event>
<event>
 5    1  0.1717510E-003  0.9118800E+02  0.7818608E-02  0.1130116E+00
         25   -1    0    0    0    0  0.00000000000E+00  0.00000000000E+00  0.99999998245E-14  0.12500000000E+03  0.12500000000E+03 0.  0.
        -11    1    3    3    0    0 -0.41609139926E+01  0.16138338685E+02 -0.59124844900E+02  0.61428873223E+02  0.51100000000E-03 0. -1.
         23    2    1    0    0    0 -0.71746934137E+01  0.13196452428E+02 -0.24838771516E+02  0.95972648197E+02  0.91477658744E+02 0.  0.
         11    1    3    3    0    0 -0.30137794212E+01 -0.29418862565E+01  0.34286073384E+02  0.34543774975E+02  0.51100000000E-03 0.  1.
         22    1    1    0    0    0  0.71746934137E+01 -0.13196452428E+02  0.24838771516E+02  0.29027351803E+02  0.00000000000E+00 0. -1.
</event>
<event>
 5    1  0.1717510E-003  0.9118800E+02  0.7818608E-02  0.1130116E+00
         25   -1    0    0    0    0  0.00000000000E+00  0.00000000000E+00  0.99999998245E-14  0.12500000000E+03  0.12500000000E+03 0.  0.
        -11    1    3    3    0    0  0.14852227205E+02  0.18515447897E+02 -0.22719450977E+02  0.32857022335E+02  0.51100000000E-03 0.  1.
         23    2    1    0    0    0  0.21433821800E+01 -0.10164633115E+02  0.29472194064E+02  0.93750614782E+02  0.88389217078E+02 0.  0.
         11    1    3    3    0    0 -0.12708845025E+02 -0.28680081012E+02  0.52191645041E+02  0.60893592447E+02  0.51100000000E-03 0. -1.
         22    1    1    0    0    0 -0.21433821800E+01  0.10164633115E+02 -0.29472194064E+02  0.31249385218E+02  0.00000000000E+00 0. -1.
</event>
<event>
 5    1  0.1717510E-003  0.9118800E+02  0.7818608E-02  0.1130116E+00
         25   -1    0    0    0    0  0.00000000000E+00  0.00000000000E+00  0.99999998245E-14  0.12500000000E+03  0.12500000000E+03 0.  0.
        -11    1    3    3    0    0  0.71656894309E+01 -0.37212164318E+02 -0.47235732805E+02  0.60558292018E+02  0.51100000000E-03 0. -1.
         23    2    1    0    0    0  0.12983464444E+01 -0.25775307660E+02 -0.15267026593E+02  0.95014431980E+02  0.90158793221E+02 0.  0.
         11    1    3    3    0    0 -0.58673429865E+01  0.11436856657E+02  0.31968706213E+02  0.34456139962E+02  0.51100000000E-03 0.  1.
         22    1    1    0    0    0 -0.12983464444E+01  0.25775307660E+02  0.15267026593E+02  0.29985568020E+02  0.00000000000E+00 0. -1.
</event>
<event>
 5    1  0.1717510E-003  0.9118800E+02  0.7818608E-02  0.1130116E+00
         25   -1    0    0    0    0  0.00000000000E+00  0.00000000000E+00  0.99999998245E-14  0.12500000000E+03  0.12500000000E+03 0.  0.
        -11    1    3    3    0    0 -0.32532184048E+02  0.36285472107E+02 -0.35584571243E+02  0.60342689663E+02  0.51100000000E-03 0. -1.
         23    2    1    0    0    0 -0.13003189599E+02  0.86628118313E+01 -0.24501005829E+02  0.95940981861E+02  0.91434377918E+02 0.  0.
         11    1    3    3    0    0  0.19528994448E+02 -0.27622660275E+02  0.11083565414E+02  0.35598292198E+02  0.51100000000E-03 0.  1.
         22    1    1    0    0    0  0.13003189599E+02 -0.86628118313E+01  0.24501005829E+02  0.29059018139E+02  0.00000000000E+00 0. -1.
</event>
<event>
 5    1  0.1717510E-003  0.9118800E+02  0.7818608E-02  0.1130116E+00
         25   -1    0    0    0    0  0.00000000000E+00  0.00000000000E+00  0.99999998245E-14  0.12500000000E+03  0.12500000000E+03 0.  0.
        -11    1    3    3    0    0  0.20847956889E+02  0.37174109332E+02  0.32033354782E+02  0.53316859715E+02  0.51100000000E-03 0. -1.
         23    2    1    0    0    0 -0.63150233784E+01  0.62016799594E+01  0.29062099640E+02  0.94619973830E+02  0.89610230764E+02 0.  0.
         11    1    3    3    0    0 -0.27162980268E+02 -0.30972429372E+02 -0.29712551417E+01  0.41303114115E+02  0.51100000000E-03 0.  1.
         22    1    1    0    0    0  0.63150233784E+01 -0.62016799594E+01 -0.29062099640E+02  0.30380026170E+02  0.00000000000E+00 0. -1.
</event>
<event>
 5    1  0.1717510E-003  0.9118800E+02  0.7818608E-02  0.1130116E+00
         25   -1    0    0    0    0  0.00000000000E+00  0.00000000000E+00  0.99999998245E-14  0.12500000000E+03  0.12500000000E+03 0.  0.
        -11    1    3    3    0    0  0.31404659975E+02 -0.42052770992E+01  0.34858256035E+02  0.47106634752E+02  0.51100000000E-03 0.  1.
         23    2    1    0    0    0  0.16781604758E+02  0.24763697871E+02 -0.47719404688E+00  0.95081933474E+02  0.90252331651E+02 0.  0.
         11    1    3    3    0    0 -0.14623055217E+02  0.28968974970E+02 -0.35335450081E+02  0.47975298722E+02  0.51100000000E-03 0. -1.
         22    1    1    0    0    0 -0.16781604758E+02 -0.24763697871E+02  0.47719404688E+00  0.29918066526E+02  0.00000000000E+00 0.  1.
</event>
<event>
 5    1  0.1717510E-003  0.9118800E+02  0.7818608E-02  0.1130116E+00
         25   -1    0    0    0    0  0.00000000000E+00  0.00000000000E+00  0.99999998245E-14  0.12500000000E+03  0.12500000000E+03 0.  0.
        -11    1    3    3    0    0  0.74102752830E+01 -0.26883316634E+02  0.21969113679E+02  0.35500237311E+02  0.51100000000E-03 0.  1.
         23    2    1    0    0    0  0.69994343910E+01  0.28522447136E+02  0.16843370852E+02  0.91144111087E+02  0.84622856084E+02 0.  0.
         11    1    3    3    0    0 -0.41084089205E+00  0.55405763769E+02 -0.51257428275E+01  0.55643873777E+02  0.51100000000E-03 0. -1.
         22    1    1    0    0    0 -0.69994343910E+01 -0.28522447136E+02 -0.16843370852E+02  0.33855888913E+02  0.00000000000E+00 0. -1.
</event>
<event>
 5    1  0.1717510E-003  0.9118800E+02  0.7818608E-02  0.1130116E+00
         25   -1    0    0    0    0  0.00000000000E+00  0.00000000000E+00  0.99999998245E-14  0.12500000000E+03  0.12500000000E+03 0.  0.
        -11    1    3    3    0    0  0.58254225867E+01 -0.15350470262E+02  0.39044982267E+02  0.42356618445E+02  0.51100000000E-03 0.  1.
         23    2    1    0    0    0  0.24829961972E+02  0.48440555654E+01 -0.92641053475E+01  0.98059036140E+02  0.94285518692E+02 0.  0.
         11    1    3    3    0    0  0.19004539385E+02  0.20194525828E+02 -0.48309087615E+02  0.55702417695E+02  0.51100000000E-03 0. -1.
         22    1    1    0    0    0 -0.24829961972E+02 -0.48440555654E+01  0.92641053475E+01  0.26940963860E+02  0.00000000000E+00 0. -1.
</event>
<event>
 5    1  0.1717510E-003  0.9118800E+02  0.7818608E-02  0.1130116E+00
         25   -1    0    0    0    0  0.00000000000E+00  0.00000000000E+00  0.99999998245E-14  0.12500000000E+03  0.12500000000E+03 0.  0.
        -11    1    3    3    0    0  0.27813747862E+02 -0.40454270039E+02 -0.26001564091E+02  0.55553882582E+02  0.51100000000E-03 0.  1.
         23    2    1    0    0    0  0.24874982281E+02 -0.59264307302E+01  0.88443656733E+00  0.99413488852E+02  0.96064416997E+02 0.  0.
         11    1    3    3    0    0 -0.29387655811E+01  0.34527839309E+02  0.26886000658E+02  0.43859606270E+02  0.51100000000E-03 0. -1.
         22    1    1    0    0    0 -0.24874982281E+02  0.59264307302E+01 -0.88443656733E+00  0.25586511148E+02  0.00000000000E+00 0.  1.
</event>
<event>
 5    1  0.1717510E-003  0.9118800E+02  0.7818608E-02  0.1130116E+00
         25   -1    0    0    0    0  0.00000000000E+00  0.00000000000E+00  0.99999998245E-14  0.12500000000E+03  0.12500000000E+03 0.  0.
        -11    1    3    3    0    0  0.21117958558E+02  0.37705532541E+02 -0.44993309718E+02  0.62386483131E+02  0.51100000000E-03 0. -1.
         23    2    1    0    0    0  0.78470052180E+01  0.19143255535E+02 -0.20121782950E+02  0.96139544833E+02  0.91705431727E+02 0.  0.
         11    1    3    3    0    0 -0.13270953340E+02 -0.18562277006E+02  0.24871526768E+02  0.33753061702E+02  0.51100000000E-03 0.  1.
         22    1    1    0    0    0 -0.78470052180E+01 -0.19143255535E+02  0.20121782950E+02  0.28860455167E+02  0.00000000000E+00 0. -1.
</event>
<event>
 5    1  0.1717510E-003  0.9118800E+02  0.7818608E-02  0.1130116E+00
         25   -1    0    0    0    0  0.00000000000E+00  0.00000000000E+00  0.99999998245E-14  0.12500000000E+03  0.12500000000E+03 0.  0.
        -11    1    3    3    0    0  0.27549985064E+02  0.51182888265E+02  0.16079272201E+02  0.60309474570E+02  0.51100000000E-03 0. -1.
         23    2    1    0    0    0  0.18760597937E+01  0.26895601945E+02  0.10391611930E+02  0.96105734084E+02  0.91659334064E+02 0.  0.
         11    1    3    3    0    0 -0.25673925270E+02 -0.24287286320E+02 -0.56876602715E+01  0.35796259514E+02  0.51100000000E-03 0.  1.
         22    1    1    0    0    0 -0.18760597937E+01 -0.26895601945E+02 -0.10391611930E+02  0.28894265916E+02  0.00000000000E+00 0. -1.
</event>
<event>
 5    1  0.1717510E-003  0.9118800E+02  0.7818608E-02  0.1130116E+00
         25   -1    0    0    0    0  0.00000000000E+00  0.00000000000E+00  0.99999998245E-14  0.12500000000E+03  0.12500000000E+03 0.  0.
        -11    1    3    3    0    0  0.28870044439E+02 -0.10963278605E+02  0.39736161731E+02  0.50325296750E+02  0.51100000000E-03 0. -1.
         23    2    1    0    0    0  0.26208456594E+02 -0.13500074593E+02 -0.49015703740E+01  0.95114207336E+02  0.90297020072E+02 0.  0.
         11    1    3    3    0    0 -0.26615878448E+01 -0.25367959880E+01 -0.44637732105E+02  0.44788910586E+02  0.51100000000E-03 0.  1.
         22    1    1    0    0    0 -0.26208456594E+02  0.13500074593E+02  0.49015703740E+01  0.29885792664E+02  0.00000000000E+00 0.  1.
</event>
<event>
 5    1  0.1717510E-003  0.9118800E+02  0.7818608E-02  0.1130116E+00
         25   -1    0    0    0    0  0.00000000000E+00  0.00000000000E+00  0.99999998245E-14  0.12500000000E+03  0.12500000000E+03 0.  0.
        -11    1    3    3    0    0  0.56052552750E+01 -0.10475104895E+02 -0.44169261937E+02  0.45739156196E+02  0.51100000000E-03 0. -1.
         23    2    1    0    0    0 -0.29527025089E+02 -0.27183389574E+01 -0.17029757984E+02  0.90805742671E+02  0.84121552932E+02 0.  0.
         11    1    3    3    0    0 -0.35132280364E+02  0.77567659375E+01  0.27139503953E+02  0.45066586474E+02  0.51100000000E-03 0.  1.
         22    1    1    0    0    0  0.29527025089E+02  0.27183389574E+01  0.17029757984E+02  0.34194257329E+02  0.00000000000E+00 0.  1.
</event>
<event>
 5    1  0.1717510E-003  0.9118800E+02  0.7818608E-02  0.1130116E+00
         25   -1    0    0    0    0  0.00000000000E+00  0.00000000000E+00  0.99999998245E-14  0.12500000000E+03  0.12500000000E+03 0.  0.
        -11    1    3    3    0    0 -0.28652126488E+02  0.48576119434E+01  0.46283024776E+02  0.54650335121E+02  0.51100000000E-03 0. -1.
         23    2    1    0    0    0 -0.27285184290E+02  0.79326544413E+01  0.49051817839E+01  0.96164794147E+02  0.91739841600E+02 0.  0.
         11    1    3    3    0    0  0.13669421980E+01  0.30750424979E+01 -0.41377842992E+02  0.41514459027E+02  0.51100000000E-03 0.  1.
         22    1    1    0    0    0  0.27285184290E+02 -0.79326544413E+01 -0.49051817839E+01  0.28835205853E+02  0.00000000000E+00 0.  1.
</event>
<event>
 5    1  0.1717510E-003  0.9118800E+02  0.7818608E-02  0.1130116E+00
         25   -1    0    0    0    0  0.00000000000E+00  0.00000000000E+00  0.99999998245E-14  0.12500000000E+03  0.12500000000E+03 0.  0.
        -11    1    3    3    0    0 -0.11305338433E+02  0.43453155177E+02  0.77513825451E+01  0.45563925462E+02  0.51100000000E-03 0.  1.
         23    2    1    0    0    0  0.25763188142E+02  0.88194709804E+01  0.90314603115E+01  0.96310416403E+02  0.91938044904E+02 0.  0.
         11    1    3    3    0    0  0.37068526575E+02 -0.34633684196E+02  0.12800777664E+01  0.50746490941E+02  0.51100000000E-03 0. -1.
         22    1    1    0    0    0 -0.25763188142E+02 -0.88194709804E+01 -0.90314603115E+01  0.28689583597E+02  0.00000000000E+00 0. -1.
</event>
<event>
 5    1  0.1717510E-003  0.9118800E+02  0.7818608E-02  0.1130116E+00
         25   -1    0    0    0    0  0.00000000000E+00  0.00000000000E+00  0.99999998245E-14  0.12500000000E+03  0.12500000000E+03 0.  0.
        -11    1    3    3    0    0 -0.20259406563E+02 -0.26874762356E+02 -0.23311597753E+01  0.33736192911E+02  0.51100000000E-03 0.  1.
         23    2    1    0    0    0  0.66446497782E+01  0.28088127988E+02  0.60721692237E+01  0.95504821689E+02  0.90836146011E+02 0.  0.
         11    1    3    3    0    0  0.26904056341E+02  0.54962890344E+02  0.84033289990E+01  0.61768628778E+02  0.51100000000E-03 0. -1.
         22    1    1    0    0    0 -0.66446497782E+01 -0.28088127988E+02 -0.60721692237E+01  0.29495178311E+02  0.00000000000E+00 0. -1.
</event>
<event>
 5    1  0.1717510E-003  0.9118800E+02  0.7818608E-02  0.1130116E+00
         25   -1    0    0    0    0  0.00000000000E+00  0.00000000000E+00  0.99999998245E-14  0.12500000000E+03  0.12500000000E+03 0.  0.
        -11    1    3    3    0    0  0.29445909994E+02  0.36764013872E+02 -0.58970074061E+01  0.47470296270E+02  0.51100000000E-03 0.  1.
         23    2    1    0    0    0 -0.10663885230E+02  0.24253978981E+02  0.15168006687E+02  0.94470631002E+02  0.89401665255E+02 0.  0.
         11    1    3    3    0    0 -0.40109795224E+02 -0.12510034891E+02  0.21065014093E+02  0.47000334731E+02  0.51100000000E-03 0. -1.
         22    1    1    0    0    0  0.10663885230E+02 -0.24253978981E+02 -0.15168006687E+02  0.30529368998E+02  0.00000000000E+00 0. -1.
</event>
<event>
 5    1  0.1717510E-003  0.9118800E+02  0.7818608E-02  0.1130116E+00
         25   -1    0    0    0    0  0.00000000000E+00  0.00000000000E+00  0.99999998245E-14  0.12500000000E+03  0.12500000000E+03 0.  0.
        -11    1    3    3    0    0 -0.10399225817E+02 -0.60557113000E+02 -0.83003277270E+01  0.62001639278E+02  0.51100000000E-03 0. -1.
         23    2    1    0    0    0 -0.98685813720E+01 -0.24891648318E+02 -0.32429797558E+01  0.98027792601E+02  0.94244088144E+02 0.  0.
         11    1    3    3    0    0  0.53064444480E+00  0.35665464682E+02  0.50573479712E+01  0.36026153323E+02  0.51100000000E-03 0.  1.
         22    1    1    0    0    0  0.98685813720E+01  0.24891648318E+02  0.32429797558E+01  0.26972207399E+02  0.00000000000E+00 0. -1.
</event>
<event>
 5    1  0.1717510E-003  0.9118800E+02  0.7818608E-02  0.1130116E+00
         25   -1    0    0    0    0  0.00000000000E+00  0.00000000000E+00  0.99999998245E-14  0.12500000000E+03  0.12500000000E+03 0.  0.
        -11    1    3    3    0    0  0.27864456199E+02  0.12217745340E+02  0.48852063781E+02  0.57551936166E+02  0.51100000000E-03 0.  1.
         23    2    1    0    0    0 -0.73774996125E+00  0.16963790962E+02  0.23101672911E+02  0.96329426757E+02  0.91963887962E+02 0.  0.
         11    1    3    3    0    0 -0.28602206161E+02  0.47460456223E+01 -0.25750390870E+02  0.38777490591E+02  0.51100000000E-03 0. -1.
         22    1    1    0    0    0  0.73774996125E+00 -0.16963790962E+02 -0.23101672911E+02  0.28670573243E+02  0.00000000000E+00 0.  1.
</event>
<event>
 5    1  0.1717510E-003  0.9118800E+02  0.7818608E-02  0.1130116E+00
         25   -1    0    0    0    0  0.00000000000E+00  0.00000000000E+00  0.99999998245E-14  0.12500000000E+03  0.12500000000E+03 0.  0.
        -11    1    3    3    0    0 -0.10176932214E+02  0.11421657645E+02 -0.67956888635E+01  0.16739342880E+02  0.51100000000E-03 0. -1.
         23    2    1    0    0    0  0.53673369294E+01 -0.43764938500E+02  0.15509030452E+02  0.78259138078E+02  0.62767702838E+02 0.  0.
         11    1    3    3    0    0  0.15544269144E+02 -0.55186596145E+02  0.22304719316E+02  0.61519795199E+02  0.51100000000E-03 0.  1.
         22    1    1    0    0    0 -0.53673369294E+01  0.43764938500E+02 -0.15509030452E+02  0.46740861922E+02  0.00000000000E+00 0.  1.
</event>
<event>
 5    1  0.1717510E-003  0.9118800E+02  0.7818608E-02  0.1130116E+00
         25   -1    0    0    0    0  0.00000000000E+00  0.00000000000E+00  0.99999998245E-14  0.12500000000E+03  0.12500000000E+03 0.  0.
        -11    1    3    3    0    0 -0.12141069609E+02 -0.14146523964E+02  0.33618887578E+02  0.38441635160E+02  0.51100000000E-03 0. -1.
         23    2    1    0    0    0 -0.27265903023E+01  0.72166459302E+01 -0.23563362078E+02  0.10020592197E+03  0.97090063813E+02 0.  0.
         11    1    3    3    0    0  0.94144793069E+01  0.21363169894E+02 -0.57182249656E+02  0.61764286805E+02  0.51100000000E-03 0.  1.
         22    1    1    0    0    0  0.27265903023E+01 -0.72166459302E+01  0.23563362078E+02  0.24794078035E+02  0.00000000000E+00 0.  1.
</event>
<event>
 5    1  0.1717510E-003  0.9118800E+02  0.7818608E-02  0.1130116E+00
         25   -1    0    0    0    0  0.00000000000E+00  0.00000000000E+00  0.99999998245E-14  0.12500000000E+03  0.12500000000E+03 0.  0.
        -11    1    3    3    0    0  0.16658322257E+02  0.20802384594E+02  0.45257441959E+02  0.52521185803E+02  0.51100000000E-03 0.  1.
         23    2    1    0    0    0  0.85280368411E+01  0.32782205220E+02  0.11541221208E+02  0.89214525595E+02  0.81722893969E+02 0.  0.
         11    1    3    3    0    0 -0.81302854155E+01  0.11979820625E+02 -0.33716220751E+02  0.36693339792E+02  0.51100000000E-03 0. -1.
         22    1    1    0    0    0 -0.85280368411E+01 -0.32782205220E+02 -0.11541221208E+02  0.35785474405E+02  0.00000000000E+00 0.  1.
</event>
<event>
 5    1  0.1717510E-003  0.9118800E+02  0.7818608E-02  0.1130116E+00
         25   -1    0    0    0    0  0.00000000000E+00  0.00000000000E+00  0.99999998245E-14  0.12500000000E+03  0.12500000000E+03 0.  0.
        -11    1    3    3    0    0 -0.39139330311E+02  0.10600894460E+01  0.29616741743E+02  0.49093404431E+02  0.51100000000E-03 0.  1.
         23    2    1    0    0    0  0.11864813282E+01  0.23400976550E+02  0.13661263010E+02  0.97877250352E+02  0.94044205499E+02 0.  0.
         11    1    3    3    0    0  0.40325811639E+02  0.22340887104E+02 -0.15955478733E+02  0.48783845921E+02  0.51100000000E-03 0. -1.
         22    1    1    0    0    0 -0.11864813282E+01 -0.23400976550E+02 -0.13661263010E+02  0.27122749648E+02  0.00000000000E+00 0. -1.
</event>
<event>
 5    1  0.1717510E-003  0.9118800E+02  0.7818608E-02  0.1130116E+00
         25   -1    0    0    0    0  0.00000000000E+00  0.00000000000E+00  0.99999998245E-14  0.12500000000E+03  0.12500000000E+03 0.  0.
        -11    1    3    3    0    0  0.24532996696E+02  0.77669743390E+01  0.39185929815E+02  0.46879962809E+02  0.51100000000E-03 0.  1.
         23    2    1    0    0    0  0.36741775528E+02  0.15654452329E+02  0.41061410303E+01  0.84851770390E+02  0.74752542416E+02 0.  0.
         11    1    3    3    0    0  0.12208778832E+02  0.78874779896E+01 -0.35079788784E+02  0.37971807582E+02  0.51100000000E-03 0. -1.
         22    1    1    0    0    0 -0.36741775528E+02 -0.15654452329E+02 -0.41061410303E+01  0.40148229610E+02  0.00000000000E+00 0.  1.
</event>
<event>
 5    1  0.1717510E-003  0.9118800E+02  0.7818608E-02  0.1130116E+00
         25   -1    0    0    0    0  0.00000000000E+00  0.00000000000E+00  0.99999998245E-14  0.12500000000E+03  0.12500000000E+03 0.  0.
        -11    1    3    3    0    0  0.42114885803E+02  0.12642483988E+02  0.13838870179E+02  0.46097834393E+02  0.51100000000E-03 0.  1.
         23    2    1    0    0    0  0.17730309238E+02  0.23442580081E+02  0.34385586366E+02  0.79764096380E+02  0.65696454205E+02 0.  0.
         11    1    3    3    0    0 -0.24384576565E+02  0.10800096093E+02  0.20546716187E+02  0.33666261988E+02  0.51100000000E-03 0. -1.
         22    1    1    0    0    0 -0.17730309238E+02 -0.23442580081E+02 -0.34385586366E+02  0.45235903620E+02  0.00000000000E+00 0.  1.
</event>
<event>
 5    1  0.1717510E-003  0.9118800E+02  0.7818608E-02  0.1130116E+00
         25   -1    0    0    0    0  0.00000000000E+00  0.00000000000E+00  0.99999998245E-14  0.12500000000E+03  0.12500000000E+03 0.  0.
        -11    1    3    3    0    0 -0.12090576125E+02  0.29025334216E+02 -0.15320016198E+02  0.34976491447E+02  0.51100000000E-03 0.  1.
         23    2    1    0    0    0  0.63386355888E+01 -0.28026940854E+02 -0.40564824642E+01  0.95980303849E+02  0.91488119240E+02 0.  0.
         11    1    3    3    0    0  0.18429211714E+02 -0.57052275070E+02  0.11263533734E+02  0.61003812401E+02  0.51100000000E-03 0. -1.
         22    1    1    0    0    0 -0.63386355888E+01  0.28026940854E+02  0.40564824642E+01  0.29019696151E+02  0.00000000000E+00 0. -1.
</event>
<event>
 5    1  0.1717510E-003  0.9118800E+02  0.7818608E-02  0.1130116E+00
         25   -1    0    0    0    0  0.00000000000E+00  0.00000000000E+00  0.99999998245E-14  0.12500000000E+03  0.12500000000E+03 0.  0.
        -11    1    3    3    0    0  0.15923035925E+02  0.23003006358E+02  0.25531136829E+02  0.37875062015E+02  0.51100000000E-03 0. -1.
         23    2    1    0    0    0  0.70149099250E+01 -0.88767513738E+01 -0.24585415024E+02  0.97936217779E+02  0.94122550139E+02 0.  0.
         11    1    3    3    0    0 -0.89081259997E+01 -0.31879757732E+02 -0.50116551853E+02  0.60061155764E+02  0.51100000000E-03 0.  1.
         22    1    1    0    0    0 -0.70149099250E+01  0.88767513738E+01  0.24585415024E+02  0.27063782221E+02  0.00000000000E+00 0.  1.
</event>
<event>
 5    1  0.1717510E-003  0.9118800E+02  0.7818608E-02  0.1130116E+00
         25   -1    0    0    0    0  0.00000000000E+00  0.00000000000E+00  0.99999998245E-14  0.12500000000E+03  0.12500000000E+03 0.  0.
        -11    1    3    3    0    0  0.17417717551E+02  0.17872126596E+02  0.30952721093E+02  0.39760039450E+02  0.51100000000E-03 0.  1.
         23    2    1    0    0    0 -0.20142789094E+02  0.12397584897E+02 -0.13142102133E+02  0.97941786603E+02  0.94129945558E+02 0.  0.
         11    1    3    3    0    0 -0.37560506645E+02 -0.54745416990E+01 -0.44094823226E+02  0.58181747153E+02  0.51100000000E-03 0. -1.
         22    1    1    0    0    0  0.20142789094E+02 -0.12397584897E+02  0.13142102133E+02  0.27058213397E+02  0.00000000000E+00 0. -1.
</event>
<event>
 5    1  0.1717510E-003  0.9118800E+02  0.7818608E-02  0.1130116E+00
         25   -1    0    0    0    0  0.00000000000E+00  0.00000000000E+00  0.99999998245E-14  0.12500000000E+03  0.12500000000E+03 0.  0.
        -11    1    3    3    0    0  0.85293842555E+01 -0.26611691550E+02  0.24740882273E+02  0.37323501695E+02  0.51100000000E-03 0.  1.
         23    2    1    0    0    0 -0.28303221875E+02  0.13064648146E+01 -0.97973109292E+01  0.95020565044E+02  0.90167295962E+02 0.  0.
         11    1    3    3    0    0 -0.36832606131E+02  0.27918156365E+02 -0.34538193202E+02  0.57697063349E+02  0.51100000000E-03 0. -1.
         22    1    1    0    0    0  0.28303221875E+02 -0.13064648146E+01  0.97973109292E+01  0.29979434956E+02  0.00000000000E+00 0. -1.
</event>
<event>
 5    1  0.1717510E-003  0.9118800E+02  0.7818608E-02  0.1130116E+00
         25   -1    0    0    0    0  0.00000000000E+00  0.00000000000E+00  0.99999998245E-14  0.12500000000E+03  0.12500000000E+03 0.  0.
        -11    1    3    3    0    0 -0.15792351674E+02  0.20607517174E+02 -0.50833277519E+02  0.57079683242E+02  0.51100000000E-03 0. -1.
         23    2    1    0    0    0 -0.23685143948E+02  0.11834429521E+02 -0.15527149191E+02  0.94305829089E+02  0.89170944104E+02 0.  0.
         11    1    3    3    0    0 -0.78927922731E+01 -0.87730876536E+01  0.35306128328E+02  0.37226145847E+02  0.51100000000E-03 0.  1.
         22    1    1    0    0    0  0.23685143948E+02 -0.11834429521E+02  0.15527149191E+02  0.30694170911E+02  0.00000000000E+00 0. -1.
</event>
<event>
 5    1  0.1717510E-003  0.9118800E+02  0.7818608E-02  0.1130116E+00
         25   -1    0    0    0    0  0.00000000000E+00  0.00000000000E+00  0.99999998245E-14  0.12500000000E+03  0.12500000000E+03 0.  0.
        -11    1    3    3    0    0 -0.20480219275E+02 -0.35179106416E+02  0.46250111114E+02  0.61612350127E+02  0.51100000000E-03 0.  1.
         23    2    1    0    0    0 -0.59936145264E+01 -0.89469281936E+01  0.23213660771E+02  0.99410060853E+02  0.96059956346E+02 0.  0.
         11    1    3    3    0    0  0.14486604749E+02  0.26232178222E+02 -0.23036450344E+02  0.37797710726E+02  0.51100000000E-03 0. -1.
         22    1    1    0    0    0  0.59936145264E+01  0.89469281936E+01 -0.23213660771E+02  0.25589939147E+02  0.00000000000E+00 0.  1.
</event>
<event>
 5    1  0.1717510E-003  0.9118800E+02  0.7818608E-02  0.1130116E+00
         25   -1    0    0    0    0  0.00000000000E+00  0.00000000000E+00  0.99999998245E-14  0.12500000000E+03  0.12500000000E+03 0.  0.
        -11    1    3    3    0    0  0.10074787103E+02  0.54320140905E+02  0.16524374787E+02  0.57664842022E+02  0.51100000000E-03 0. -1.
         23    2    1    0    0    0  0.17665250455E+02  0.26591193817E+02 -0.37680605655E+01  0.92854223564E+02  0.87112317677E+02 0.  0.
         11    1    3    3    0    0  0.75904633514E+01 -0.27728947088E+02 -0.20292435353E+02  0.35189381542E+02  0.51100000000E-03 0.  1.
         22    1    1    0    0    0 -0.17665250455E+02 -0.26591193817E+02  0.37680605655E+01  0.32145776436E+02  0.00000000000E+00 0. -1.
</event>
<event>
 5    1  0.1717510E-003  0.9118800E+02  0.7818608E-02  0.1130116E+00
         25   -1    0    0    0    0  0.00000000000E+00  0.00000000000E+00  0.99999998245E-14  0.12500000000E+03  0.12500000000E+03 0.  0.
        -11    1    3    3    0    0  0.16249653725E+02  0.36277441580E+02  0.16804673861E+02  0.43156703739E+02  0.51100000000E-03 0.  1.
         23    2    1    0    0    0 -0.68433121470E+01 -0.11845465177E+02  0.24355903299E+02  0.97065147362E+02  0.92958522150E+02 0.  0.
         11    1    3    3    0    0 -0.23092965872E+02 -0.48122906758E+02  0.75512294383E+01  0.53908443623E+02  0.51100000000E-03 0. -1.
         22    1    1    0    0    0  0.68433121470E+01  0.11845465177E+02 -0.24355903299E+02  0.27934852638E+02  0.00000000000E+00 0. -1.
</event>
<event>
 5    1  0.1717510E-003  0.9118800E+02  0.7818608E-02  0.1130116E+00
         25   -1    0    0    0    0  0.00000000000E+00  0.00000000000E+00  0.99999998245E-14  0.12500000000E+03  0.12500000000E+03 0.  0.
        -11    1    3    3    0    0  0.42986330799E+02 -0.25978431658E+01  0.39189651212E+02  0.58227160218E+02  0.51100000000E-03 0. -1.
         23    2    1    0    0    0  0.13529414964E+02 -0.73798974501E+01  0.32819766674E+02  0.88741965853E+02  0.80996860824E+02 0.  0.
         11    1    3    3    0    0 -0.29456915835E+02 -0.47820542843E+01 -0.63698845375E+01  0.30514805635E+02  0.51100000000E-03 0.  1.
         22    1    1    0    0    0 -0.13529414964E+02  0.73798974501E+01 -0.32819766674E+02  0.36258034147E+02  0.00000000000E+00 0. -1.
</event>
<event>
 5    1  0.1717510E-003  0.9118800E+02  0.7818608E-02  0.1130116E+00
         25   -1    0    0    0    0  0.00000000000E+00  0.00000000000E+00  0.99999998245E-14  0.12500000000E+03  0.12500000000E+03 0.  0.
        -11    1    3    3    0    0  0.31589321990E+02 -0.93752759280E+01 -0.31744444041E+02  0.45754680528E+02  0.51100000000E-03 0.  1.
         23    2    1    0    0    0  0.17057705856E+02 -0.33500710219E+01  0.19215900896E+02  0.99087857051E+02  0.95639762980E+02 0.  0.
         11    1    3    3    0    0 -0.14531616134E+02  0.60252049062E+01  0.50960344938E+02  0.53333176523E+02  0.51100000000E-03 0. -1.
         22    1    1    0    0    0 -0.17057705856E+02  0.33500710219E+01 -0.19215900896E+02  0.25912142949E+02  0.00000000000E+00 0. -1.
</event>
<event>
 5    1  0.1717510E-003  0.9118800E+02  0.7818608E-02  0.1130116E+00
         25   -1    0    0    0    0  0.00000000000E+00  0.00000000000E+00  0.99999998245E-14  0.12500000000E+03  0.12500000000E+03 0.  0.
        -11    1    3    3    0    0 -0.26847700190E+02  0.20986965133E+02 -0.10811164831E+02  0.35750985948E+02  0.51100000000E-03 0. -1.
         23    2    1    0    0    0  0.77715591599E+01 -0.26410195622E+02 -0.13148166398E+02  0.94491479154E+02  0.89430810064E+02 0.  0.
         11    1    3    3    0    0  0.34619259350E+02 -0.47397160754E+02 -0.23370015674E+01  0.58740493206E+02  0.51100000000E-03 0.  1.
         22    1    1    0    0    0 -0.77715591599E+01  0.26410195622E+02  0.13148166398E+02  0.30508520846E+02  0.00000000000E+00 0.  1.
</event>
<event>
 5    1  0.1717510E-003  0.9118800E+02  0.7818608E-02  0.1130116E+00
         25   -1    0    0    0    0  0.00000000000E+00  0.00000000000E+00  0.99999998245E-14  0.12500000000E+03  0.12500000000E+03 0.  0.
        -11    1    3    3    0    0  0.49983563838E+01 -0.11804839107E+01 -0.56286353490E+02  0.56520179567E+02  0.51100000000E-03 0.  1.
         23    2    1    0    0    0 -0.14929105664E+02  0.79730753607E+01 -0.21568554542E+02  0.97583751685E+02  0.93653285694E+02 0.  0.
         11    1    3    3    0    0 -0.19927462048E+02  0.91535592714E+01  0.34717798948E+02  0.41063572118E+02  0.51100000000E-03 0. -1.
         22    1    1    0    0    0  0.14929105664E+02 -0.79730753607E+01  0.21568554542E+02  0.27416248315E+02  0.00000000000E+00 0.  1.
</event>
<event>
 5    1  0.1717510E-003  0.9118800E+02  0.7818608E-02  0.1130116E+00
         25   -1    0    0    0    0  0.00000000000E+00  0.00000000000E+00  0.99999998245E-14  0.12500000000E+03  0.12500000000E+03 0.  0.
        -11    1    3    3    0    0  0.20301662092E+02 -0.48093986949E+02  0.54008964040E-01  0.52203371362E+02  0.51100000000E-03 0.  1.
         23    2    1    0    0    0 -0.13675554792E+02 -0.23223852385E+02 -0.11240684100E+02  0.95798611377E+02  0.91239535533E+02 0.  0.
         11    1    3    3    0    0 -0.33977216883E+02  0.24870134563E+02 -0.11294693064E+02  0.43595240015E+02  0.51100000000E-03 0. -1.
         22    1    1    0    0    0  0.13675554792E+02  0.23223852385E+02  0.11240684100E+02  0.29201388623E+02  0.00000000000E+00 0.  1.
</event>
<event>
 5    1  0.1717510E-003  0.9118800E+02  0.7818608E-02  0.1130116E+00
         25   -1    0    0    0    0  0.00000000000E+00  0.00000000000E+00  0.99999998245E-14  0.12500000000E+03  0.12500000000E+03 0.  0.
        -11    1    3    3    0    0 -0.36326969744E+00 -0.60042662776E+00 -0.55850784446E+02  0.55855193138E+02  0.51100000000E-03 0. -1.
         23    2    1    0    0    0  0.53379069229E+01  0.18715865951E+02 -0.19280876035E+02  0.97604214388E+02  0.93680593493E+02 0.  0.
         11    1    3    3    0    0  0.57011766203E+01  0.19316292579E+02  0.36569908412E+02  0.41749021250E+02  0.51100000000E-03 0.  1.
         22    1    1    0    0    0 -0.53379069229E+01 -0.18715865951E+02  0.19280876035E+02  0.27395785612E+02  0.00000000000E+00 0. -1.
</event>
<event>
 5    1  0.1717510E-003  0.9118800E+02  0.7818608E-02  0.1130116E+00
         25   -1    0    0    0    0  0.00000000000E+00  0.00000000000E+00  0.99999998245E-14  0.12500000000E+03  0.12500000000E+03 0.  0.
        -11    1    3    3    0    0 -0.41267244125E+02 -0.20020201154E+02  0.30188297853E+02  0.54910174098E+02  0.51100000000E-03 0. -1.
         23    2    1    0    0    0 -0.28242343816E+01 -0.24122345591E+02  0.83221262296E+01  0.99326635561E+02  0.95951336052E+02 0.  0.
         11    1    3    3    0    0  0.38443009744E+02 -0.41021444370E+01 -0.21866171624E+02  0.44416461463E+02  0.51100000000E-03 0.  1.
         22    1    1    0    0    0  0.28242343816E+01  0.24122345591E+02 -0.83221262296E+01  0.25673364439E+02  0.00000000000E+00 0. -1.
</event>
<event>
 5    1  0.1717510E-003  0.9118800E+02  0.7818608E-02  0.1130116E+00
         25   -1    0    0    0    0  0.00000000000E+00  0.00000000000E+00  0.99999998245E-14  0.12500000000E+03  0.12500000000E+03 0.  0.
        -11    1    3    3    0    0  0.13690459692E+02 -0.42182407337E+02  0.41285077768E+01  0.44540192546E+02  0.51100000000E-03 0. -1.
         23    2    1    0    0    0 -0.25262271003E+01 -0.28751157136E+01  0.30292866528E+02  0.94466315712E+02  0.89395631482E+02 0.  0.
         11    1    3    3    0    0 -0.16216686792E+02  0.39307291624E+02  0.26164358751E+02  0.49926123166E+02  0.51100000000E-03 0.  1.
         22    1    1    0    0    0  0.25262271003E+01  0.28751157136E+01 -0.30292866528E+02  0.30533684288E+02  0.00000000000E+00 0. -1.
</event>
<event>
 5    1  0.1717510E-003  0.9118800E+02  0.7818608E-02  0.1130116E+00
         25   -1    0    0    0    0  0.00000000000E+00  0.00000000000E+00  0.99999998245E-14  0.12500000000E+03  0.12500000000E+03 0.  0.
        -11    1    3    3    0    0  0.46312391113E+02 -0.39919719825E+01  0.11095166473E+02  0.47789916617E+02  0.51100000000E-03 0.  1.
         23    2    1    0    0    0  0.15945413751E+02 -0.15034430649E+01 -0.25176689394E+02  0.95160726390E+02  0.90361394398E+02 0.  0.
         11    1    3    3    0    0 -0.30366977362E+02  0.24885289176E+01 -0.36271855867E+02  0.47370809773E+02  0.51100000000E-03 0. -1.
         22    1    1    0    0    0 -0.15945413751E+02  0.15034430649E+01  0.25176689394E+02  0.29839273610E+02  0.00000000000E+00 0.  1.
</event>
<event>
 5    1  0.1717510E-003  0.9118800E+02  0.7818608E-02  0.1130116E+00
         25   -1    0    0    0    0  0.00000000000E+00  0.00000000000E+00  0.99999998245E-14  0.12500000000E+03  0.12500000000E+03 0.  0.
        -11    1    3    3    0    0  0.35038878753E+02 -0.10159120471E+02  0.81991857656E+01  0.37391942989E+02  0.51100000000E-03 0. -1.
         23    2    1    0    0    0 -0.17337755392E+02  0.62751223913E+01  0.24204905727E+02  0.94572177464E+02  0.89543533356E+02 0.  0.
         11    1    3    3    0    0 -0.52376634145E+02  0.16434242862E+02  0.16005719962E+02  0.57180234474E+02  0.51100000000E-03 0.  1.
         22    1    1    0    0    0  0.17337755392E+02 -0.62751223913E+01 -0.24204905727E+02  0.30427822536E+02  0.00000000000E+00 0.  1.
</event>
<event>
 5    1  0.1717510E-003  0.9118800E+02  0.7818608E-02  0.1130116E+00
         25   -1    0    0    0    0  0.00000000000E+00  0.00000000000E+00  0.99999998245E-14  0.12500000000E+03  0.12500000000E+03 0.  0.
        -11    1    3    3    0    0 -0.16132125450E+02 -0.48495802428E+02 -0.32147380514E+02  0.60378327228E+02  0.51100000000E-03 0. -1.
         23    2    1    0    0    0 -0.81935142476E+01 -0.27873510321E+02 -0.47745558580E+01  0.95557468911E+02  0.90908565205E+02 0.  0.
         11    1    3    3    0    0  0.79386112019E+01  0.20622292107E+02  0.27372824657E+02  0.35179141683E+02  0.51100000000E-03 0.  1.
         22    1    1    0    0    0  0.81935142476E+01  0.27873510321E+02  0.47745558580E+01  0.29442531089E+02  0.00000000000E+00 0. -1.
</event>
<event>
 5    1  0.1717510E-003  0.9118800E+02  0.7818608E-02  0.1130116E+00
         25   -1    0    0    0    0  0.00000000000E+00  0.00000000000E+00  0.99999998245E-14  0.12500000000E+03  0.12500000000E+03 0.  0.
        -11    1    3    3    0    0 -0.38496551127E+02 -0.38164277175E+02  0.27067927069E+02  0.60590173931E+02  0.51100000000E-03 0. -1.
         23    2    1    0    0    0 -0.25452112831E+02 -0.98877038449E+01  0.12507172149E+02  0.94966583776E+02  0.90092430004E+02 0.  0.
         11    1    3    3    0    0  0.13044438295E+02  0.28276573330E+02 -0.14560754920E+02  0.34376409845E+02  0.51100000000E-03 0.  1.
         22    1    1    0    0    0  0.25452112831E+02  0.98877038449E+01 -0.12507172149E+02  0.30033416224E+02  0.00000000000E+00 0. -1.
</event>
<event>
 5    1  0.1717510E-003  0.9118800E+02  0.7818608E-02  0.1130116E+00
         25   -1    0    0    0    0  0.00000000000E+00  0.00000000000E+00  0.99999998245E-14  0.12500000000E+03  0.12500000000E+03 0.  0.
        -11    1    3    3    0    0 -0.23311806042E+02  0.29307791226E+02  0.11992793085E+02  0.39321927899E+02  0.51100000000E-03 0.  1.
         23    2    1    0    0    0 -0.69594786163E+01 -0.25239131658E+02  0.11836922073E+02  0.96267425565E+02  0.91879575485E+02 0.  0.
         11    1    3    3    0    0  0.16352327426E+02 -0.54546922884E+02 -0.15587101146E+00  0.56945497666E+02  0.51100000000E-03 0. -1.
         22    1    1    0    0    0  0.69594786163E+01  0.25239131658E+02 -0.11836922073E+02  0.28732574435E+02  0.00000000000E+00 0. -1.
</event>
<event>
 5    1  0.1717510E-003  0.9118800E+02  0.7818608E-02  0.1130116E+00
         25   -1    0    0    0    0  0.00000000000E+00  0.00000000000E+00  0.99999998245E-14  0.12500000000E+03  0.12500000000E+03 0.  0.
        -11    1    3    3    0    0  0.14854540261E+02 -0.53110292864E+02  0.21112360230E+02  0.59051607338E+02  0.51100000000E-03 0.  1.
         23    2    1    0    0    0 -0.53929946637E+01 -0.29138896090E+02  0.31706022533E+01  0.95197107935E+02  0.90411708222E+02 0.  0.
         11    1    3    3    0    0 -0.20247534925E+02  0.23971396774E+02 -0.17941757977E+02  0.36145500597E+02  0.51100000000E-03 0. -1.
         22    1    1    0    0    0  0.53929946637E+01  0.29138896090E+02 -0.31706022533E+01  0.29802892065E+02  0.00000000000E+00 0.  1.
</event>
<event>
 5    1  0.1717510E-003  0.9118800E+02  0.7818608E-02  0.1130116E+00
         25   -1    0    0    0    0  0.00000000000E+00  0.00000000000E+00  0.99999998245E-14  0.12500000000E+03  0.12500000000E+03 0.  0.
        -11    1    3    3    0    0 -0.32141360033E+01 -0.29880045997E+02  0.28678233727E+02  0.41540208340E+02  0.51100000000E-03 0. -1.
         23    2    1    0    0    0 -0.61298778523E+01 -0.21327776438E+02 -0.22433875796E+02  0.93444838243E+02  0.87955725002E+02 0.  0.
         11    1    3    3    0    0 -0.29157418489E+01  0.85522695584E+01 -0.51112109523E+02  0.51904629902E+02  0.51100000000E-03 0.  1.
         22    1    1    0    0    0  0.61298778523E+01  0.21327776438E+02  0.22433875796E+02  0.31555161757E+02  0.00000000000E+00 0. -1.
</event>
<event>
 5    1  0.1717510E-003  0.9118800E+02  0.7818608E-02  0.1130116E+00
         25   -1    0    0    0    0  0.00000000000E+00  0.00000000000E+00  0.99999998245E-14  0.12500000000E+03  0.12500000000E+03 0.  0.
        -11    1    3    3    0    0  0.28762751754E+02  0.12050652925E+01 -0.43371547501E+02  0.52056115910E+02  0.51100000000E-03 0. -1.
         23    2    1    0    0    0  0.11523798654E+01 -0.22322883680E+02 -0.17492519383E+02  0.96616424653E+02  0.92353160007E+02 0.  0.
         11    1    3    3    0    0 -0.27610371888E+02 -0.23527948972E+02  0.25879028118E+02  0.44560308743E+02  0.51100000000E-03 0.  1.
         22    1    1    0    0    0 -0.11523798654E+01  0.22322883680E+02  0.17492519383E+02  0.28383575347E+02  0.00000000000E+00 0. -1.
</event>
<event>
 5    1  0.1717510E-003  0.9118800E+02  0.7818608E-02  0.1130116E+00
         25   -1    0    0    0    0  0.00000000000E+00  0.00000000000E+00  0.99999998245E-14  0.12500000000E+03  0.12500000000E+03 0.  0.
        -11    1    3    3    0    0  0.59611260649E+00  0.13772256196E+02 -0.25171729751E+02  0.28699239883E+02  0.51100000000E-03 0. -1.
         23    2    1    0    0    0  0.24096333276E+02  0.42844945337E+02  0.33643388391E+01  0.75728898996E+02  0.57508475454E+02 0.  0.
         11    1    3    3    0    0  0.23500220670E+02  0.29072689141E+02  0.28536068590E+02  0.47029659113E+02  0.51100000000E-03 0.  1.
         22    1    1    0    0    0 -0.24096333276E+02 -0.42844945337E+02 -0.33643388391E+01  0.49271101004E+02  0.00000000000E+00 0. -1.
</event>
<event>
 5    1  0.1717510E-003  0.9118800E+02  0.7818608E-02  0.1130116E+00
         25   -1    0    0    0    0  0.00000000000E+00  0.00000000000E+00  0.99999998245E-14  0.12500000000E+03  0.12500000000E+03 0.  0.
        -11    1    3    3    0    0  0.58812632428E+02  0.18768338667E+02  0.68450847908E+01  0.62113053825E+02  0.51100000000E-03 0.  1.
         23    2    1    0    0    0  0.29024271105E+02  0.65974971739E+01  0.75242429689E+01  0.94299030725E+02  0.89161413635E+02 0.  0.
         11    1    3    3    0    0 -0.29788361323E+02 -0.12170841493E+02  0.67915817804E+00  0.32185976900E+02  0.51100000000E-03 0. -1.
         22    1    1    0    0    0 -0.29024271105E+02 -0.65974971739E+01 -0.75242429689E+01  0.30700969275E+02  0.00000000000E+00 0.  1.
</event>
<event>
 5    1  0.1717510E-003  0.9118800E+02  0.7818608E-02  0.1130116E+00
         25   -1    0    0    0    0  0.00000000000E+00  0.00000000000E+00  0.99999998245E-14  0.12500000000E+03  0.12500000000E+03 0.  0.
        -11    1    3    3    0    0  0.29327039344E+02 -0.27104781770E+02 -0.34201932561E+02  0.52578670796E+02  0.51100000000E-03 0. -1.
         23    2    1    0    0    0  0.23445775338E+02 -0.22700714795E+02  0.45755069513E+01  0.92046060975E+02  0.85944838378E+02 0.  0.
         11    1    3    3    0    0 -0.58812640067E+01  0.44040669755E+01  0.38777439512E+02  0.39467390180E+02  0.51100000000E-03 0.  1.
         22    1    1    0    0    0 -0.23445775338E+02  0.22700714795E+02 -0.45755069513E+01  0.32953939025E+02  0.00000000000E+00 0. -1.
</event>
<event>
 5    1  0.1717510E-003  0.9118800E+02  0.7818608E-02  0.1130116E+00
         25   -1    0    0    0    0  0.00000000000E+00  0.00000000000E+00  0.99999998245E-14  0.12500000000E+03  0.12500000000E+03 0.  0.
        -11    1    3    3    0    0 -0.11921159116E+02  0.43099146162E+02  0.28486993260E+02  0.53020366085E+02  0.51100000000E-03 0.  1.
         23    2    1    0    0    0 -0.20079783756E+02  0.24153312685E+02 -0.58239953628E+01  0.93054747593E+02  0.87399581797E+02 0.  0.
         11    1    3    3    0    0 -0.81586246404E+01 -0.18945833477E+02 -0.34310988623E+02  0.40034381508E+02  0.51100000000E-03 0. -1.
         22    1    1    0    0    0  0.20079783756E+02 -0.24153312685E+02  0.58239953628E+01  0.31945252407E+02  0.00000000000E+00 0.  1.
</event>
<event>
 5    1  0.1717510E-003  0.9118800E+02  0.7818608E-02  0.1130116E+00
         25   -1    0    0    0    0  0.00000000000E+00  0.00000000000E+00  0.99999998245E-14  0.12500000000E+03  0.12500000000E+03 0.  0.
        -11    1    3    3    0    0 -0.42155762336E+02 -0.34829871617E+02  0.28822324933E+02  0.61813871176E+02  0.51100000000E-03 0.  1.
         23    2    1    0    0    0 -0.17325941994E+02 -0.21871464196E+02  0.11022891405E+02  0.94999110897E+02  0.90137548914E+02 0.  0.
         11    1    3    3    0    0  0.24829820343E+02  0.12958407421E+02 -0.17799433528E+02  0.33185239720E+02  0.51100000000E-03 0. -1.
         22    1    1    0    0    0  0.17325941994E+02  0.21871464196E+02 -0.11022891405E+02  0.30000889103E+02  0.00000000000E+00 0.  1.
</event>
<event>
 5    1  0.1717510E-003  0.9118800E+02  0.7818608E-02  0.1130116E+00
         25   -1    0    0    0    0  0.00000000000E+00  0.00000000000E+00  0.99999998245E-14  0.12500000000E+03  0.12500000000E+03 0.  0.
        -11    1    3    3    0    0 -0.34423143714E+02 -0.24481289837E+02  0.15179553229E+02  0.44885467712E+02  0.51100000000E-03 0.  1.
         23    2    1    0    0    0 -0.25479205253E+01 -0.18894227219E+02 -0.23124409966E+02  0.95029647024E+02  0.90179885540E+02 0.  0.
         11    1    3    3    0    0  0.31875223189E+02  0.55870626179E+01 -0.38303963196E+02  0.50144179311E+02  0.51100000000E-03 0. -1.
         22    1    1    0    0    0  0.25479205253E+01  0.18894227219E+02  0.23124409966E+02  0.29970352976E+02  0.00000000000E+00 0. -1.
</event>
<event>
 5    1  0.1717510E-003  0.9118800E+02  0.7818608E-02  0.1130116E+00
         25   -1    0    0    0    0  0.00000000000E+00  0.00000000000E+00  0.99999998245E-14  0.12500000000E+03  0.12500000000E+03 0.  0.
        -11    1    3    3    0    0 -0.38471348247E+02 -0.26842335959E+02  0.34725249175E+02  0.58364360411E+02  0.51100000000E-03 0.  1.
         23    2    1    0    0    0 -0.32664958763E+02 -0.21448829393E+02  0.95291010006E+01  0.84777424508E+02  0.74628118877E+02 0.  0.
         11    1    3    3    0    0  0.58063894848E+01  0.53935065663E+01 -0.25196148174E+02  0.26413064097E+02  0.51100000000E-03 0. -1.
         22    1    1    0    0    0  0.32664958763E+02  0.21448829393E+02 -0.95291010006E+01  0.40222575492E+02  0.00000000000E+00 0.  1.
</event>
<event>
 5    1  0.1717510E-003  0.9118800E+02  0.7818608E-02  0.1130116E+00
         25   -1    0    0    0    0  0.00000000000E+00  0.00000000000E+00  0.99999998245E-14  0.12500000000E+03  0.12500000000E+03 0.  0.
        -11    1    3    3    0    0 -0.47688400863E+01  0.20667026291E+02 -0.31546580556E+02  0.38013873211E+02  0.51100000000E-03 0. -1.
         23    2    1    0    0    0 -0.29944572753E+02  0.10315032808E+01  0.12600188964E+02  0.92496058727E+02  0.86596851453E+02 0.  0.
         11    1    3    3    0    0 -0.25175732667E+02 -0.19635523010E+02  0.44146769520E+02  0.54482185515E+02  0.51100000000E-03 0.  1.
         22    1    1    0    0    0  0.29944572753E+02 -0.10315032808E+01 -0.12600188964E+02  0.32503941273E+02  0.00000000000E+00 0. -1.
</event>
<event>
 5    1  0.1717510E-003  0.9118800E+02  0.7818608E-02  0.1130116E+00
         25   -1    0    0    0    0  0.00000000000E+00  0.00000000000E+00  0.99999998245E-14  0.12500000000E+03  0.12500000000E+03 0.  0.
        -11    1    3    3    0    0 -0.75056512573E+01 -0.15579591646E+00  0.56223854231E+02  0.56722842471E+02  0.51100000000E-03 0.  1.
         23    2    1    0    0    0 -0.20454226473E+02  0.48860663855E+01  0.18262780100E+02  0.97147205485E+02  0.93068799129E+02 0.  0.
         11    1    3    3    0    0 -0.12948575215E+02  0.50418623019E+01 -0.37961074131E+02  0.40424363014E+02  0.51100000000E-03 0. -1.
         22    1    1    0    0    0  0.20454226473E+02 -0.48860663855E+01 -0.18262780100E+02  0.27852794515E+02  0.00000000000E+00 0.  1.
</event>
<event>
 5    1  0.1717510E-003  0.9118800E+02  0.7818608E-02  0.1130116E+00
         25   -1    0    0    0    0  0.00000000000E+00  0.00000000000E+00  0.99999998245E-14  0.12500000000E+03  0.12500000000E+03 0.  0.
        -11    1    3    3    0    0 -0.26633130842E+02 -0.64137122047E+00 -0.89445453397E+01  0.28102311419E+02  0.51100000000E-03 0.  1.
         23    2    1    0    0    0  0.76840523132E+01 -0.98350777086E+00  0.37980287132E+02  0.86237722485E+02  0.77035255703E+02 0.  0.
         11    1    3    3    0    0  0.34317183155E+02 -0.34213655039E+00  0.46924832472E+02  0.58135411067E+02  0.51100000000E-03 0. -1.
         22    1    1    0    0    0 -0.76840523132E+01  0.98350777086E+00 -0.37980287132E+02  0.38762277515E+02  0.00000000000E+00 0. -1.
</event>
<event>
 5    1  0.1717510E-003  0.9118800E+02  0.7818608E-02  0.1130116E+00
         25   -1    0    0    0    0  0.00000000000E+00  0.00000000000E+00  0.99999998245E-14  0.12500000000E+03  0.12500000000E+03 0.  0.
        -11    1    3    3    0    0 -0.23931221637E+02 -0.43364037043E+01 -0.48105676688E+02  0.53904210374E+02  0.51100000000E-03 0. -1.
         23    2    1    0    0    0 -0.31205664438E+02  0.52462015123E+01 -0.13399865489E+02  0.90636174275E+02  0.83869205128E+02 0.  0.
         11    1    3    3    0    0 -0.72744428007E+01  0.95826052166E+01  0.34705811200E+02  0.36731963902E+02  0.51100000000E-03 0.  1.
         22    1    1    0    0    0  0.31205664438E+02 -0.52462015123E+01  0.13399865489E+02  0.34363825725E+02  0.00000000000E+00 0. -1.
</event>
<event>
 5    1  0.1717510E-003  0.9118800E+02  0.7818608E-02  0.1130116E+00
         25   -1    0    0    0    0  0.00000000000E+00  0.00000000000E+00  0.99999998245E-14  0.12500000000E+03  0.12500000000E+03 0.  0.
        -11    1    3    3    0    0  0.18823263396E+02  0.35859208144E+02 -0.74652684751E+00  0.40506238485E+02  0.51100000000E-03 0.  1.
         23    2    1    0    0    0 -0.22865560338E+02  0.40427419306E+01  0.17382705218E+02  0.95994206569E+02  0.91507112523E+02 0.  0.
         11    1    3    3    0    0 -0.41688823734E+02 -0.31816466213E+02  0.18129232065E+02  0.55487968084E+02  0.51100000000E-03 0. -1.
         22    1    1    0    0    0  0.22865560338E+02 -0.40427419306E+01 -0.17382705218E+02  0.29005793431E+02  0.00000000000E+00 0. -1.
</event>
<event>
 5    1  0.1717510E-003  0.9118800E+02  0.7818608E-02  0.1130116E+00
         25   -1    0    0    0    0  0.00000000000E+00  0.00000000000E+00  0.99999998245E-14  0.12500000000E+03  0.12500000000E+03 0.  0.
        -11    1    3    3    0    0 -0.24246383883E+02 -0.13989338766E+02 -0.34072646623E+02  0.44096870396E+02  0.51100000000E-03 0. -1.
         23    2    1    0    0    0  0.23504324380E+02 -0.95286521787E+01 -0.13315182896E+02  0.96354885714E+02  0.91998486013E+02 0.  0.
         11    1    3    3    0    0  0.47750708263E+02  0.44606865876E+01  0.20757463727E+02  0.52258015319E+02  0.51100000000E-03 0.  1.
         22    1    1    0    0    0 -0.23504324380E+02  0.95286521787E+01  0.13315182896E+02  0.28645114286E+02  0.00000000000E+00 0.  1.
</event>
<event>
 5    1  0.1717510E-003  0.9118800E+02  0.7818608E-02  0.1130116E+00
         25   -1    0    0    0    0  0.00000000000E+00  0.00000000000E+00  0.99999998245E-14  0.12500000000E+03  0.12500000000E+03 0.  0.
        -11    1    3    3    0    0 -0.76966611404E+01 -0.32133556675E+02  0.20586675143E+02  0.38930903547E+02  0.51100000000E-03 0.  1.
         23    2    1    0    0    0  0.21064918312E+02  0.12040333558E+02 -0.86900712183E+01  0.99227577656E+02  0.95822202094E+02 0.  0.
         11    1    3    3    0    0  0.28761579452E+02  0.44173890233E+02 -0.29276746361E+02  0.60296674109E+02  0.51100000000E-03 0. -1.
         22    1    1    0    0    0 -0.21064918312E+02 -0.12040333558E+02  0.86900712183E+01  0.25772422344E+02  0.00000000000E+00 0. -1.
</event>
<event>
 5    1  0.1717510E-003  0.9118800E+02  0.7818608E-02  0.1130116E+00
         25   -1    0    0    0    0  0.00000000000E+00  0.00000000000E+00  0.99999998245E-14  0.12500000000E+03  0.12500000000E+03 0.  0.
        -11    1    3    3    0    0 -0.35715307100E+02 -0.47579720172E+01 -0.32648175163E+02  0.48622266511E+02  0.51100000000E-03 0.  1.
         23    2    1    0    0    0 -0.19540594862E+02  0.21857023690E+02  0.24899250998E+01  0.95576131132E+02  0.90934222288E+02 0.  0.
         11    1    3    3    0    0  0.16174712238E+02  0.26614995707E+02  0.35138100263E+02  0.46953864621E+02  0.51100000000E-03 0. -1.
         22    1    1    0    0    0  0.19540594862E+02 -0.21857023690E+02 -0.24899250998E+01  0.29423868868E+02  0.00000000000E+00 0.  1.
</event>
<event>
 5    1  0.1717510E-003  0.9118800E+02  0.7818608E-02  0.1130116E+00
         25   -1    0    0    0    0  0.00000000000E+00  0.00000000000E+00  0.99999998245E-14  0.12500000000E+03  0.12500000000E+03 0.  0.
        -11    1    3    3    0    0  0.44369656973E+01 -0.18811388374E+01  0.60820355431E+02  0.61010990673E+02  0.51100000000E-03 0. -1.
         23    2    1    0    0    0  0.11450064967E+02 -0.11652055056E+01  0.25572042914E+02  0.96957334819E+02  0.92813434937E+02 0.  0.
         11    1    3    3    0    0  0.70130992699E+01  0.71593333175E+00 -0.35248312517E+02  0.35946344146E+02  0.51100000000E-03 0.  1.
         22    1    1    0    0    0 -0.11450064967E+02  0.11652055056E+01 -0.25572042914E+02  0.28042665181E+02  0.00000000000E+00 0. -1.
</event>
<event>
 5    1  0.1717510E-003  0.9118800E+02  0.7818608E-02  0.1130116E+00
         25   -1    0    0    0    0  0.00000000000E+00  0.00000000000E+00  0.99999998245E-14  0.12500000000E+03  0.12500000000E+03 0.  0.
        -11    1    3    3    0    0 -0.15054244135E+02 -0.48803924652E+02 -0.21247848498E+02  0.55316583354E+02  0.51100000000E-03 0.  1.
         23    2    1    0    0    0 -0.23819728762E+02 -0.23518092248E+02  0.29505658376E+01  0.91396637370E+02  0.84995054812E+02 0.  0.
         11    1    3    3    0    0 -0.87654846272E+01  0.25285832404E+02  0.24198414336E+02  0.36080054016E+02  0.51100000000E-03 0. -1.
         22    1    1    0    0    0  0.23819728762E+02  0.23518092248E+02 -0.29505658376E+01  0.33603362630E+02  0.00000000000E+00 0.  1.
</event>
<event>
 5    1  0.1717510E-003  0.9118800E+02  0.7818608E-02  0.1130116E+00
         25   -1    0    0    0    0  0.00000000000E+00  0.00000000000E+00  0.99999998245E-14  0.12500000000E+03  0.12500000000E+03 0.  0.
        -11    1    3    3    0    0  0.69470266590E+01  0.34964285897E+02  0.17928537981E+02  0.39902317503E+02  0.51100000000E-03 0.  1.
         23    2    1    0    0    0 -0.92358187904E+01 -0.17940605618E+02  0.21715827544E+02  0.95356402975E+02  0.90631676271E+02 0.  0.
         11    1    3    3    0    0 -0.16182845449E+02 -0.52904891515E+02  0.37872895625E+01  0.55454085472E+02  0.51100000000E-03 0. -1.
         22    1    1    0    0    0  0.92358187904E+01  0.17940605618E+02 -0.21715827544E+02  0.29643597025E+02  0.00000000000E+00 0.  1.
</event>
<event>
 5    1  0.1717510E-003  0.9118800E+02  0.7818608E-02  0.1130116E+00
         25   -1    0    0    0    0  0.00000000000E+00  0.00000000000E+00  0.99999998245E-14  0.12500000000E+03  0.12500000000E+03 0.  0.
        -11    1    3    3    0    0  0.44394929487E+01  0.21937291423E+02 -0.49885396139E+02  0.54676380648E+02  0.51100000000E-03 0.  1.
         23    2    1    0    0    0 -0.76052048319E+01  0.24049341338E+02 -0.76562608172E+01  0.98640404233E+02  0.95053148597E+02 0.  0.
         11    1    3    3    0    0 -0.12044697781E+02  0.21120499153E+01  0.42229135322E+02  0.43964023585E+02  0.51100000000E-03 0. -1.
         22    1    1    0    0    0  0.76052048319E+01 -0.24049341338E+02  0.76562608172E+01  0.26359595767E+02  0.00000000000E+00 0.  1.
</event>
<event>
 5    1  0.1717510E-003  0.9118800E+02  0.7818608E-02  0.1130116E+00
         25   -1    0    0    0    0  0.00000000000E+00  0.00000000000E+00  0.99999998245E-14  0.12500000000E+03  0.12500000000E+03 0.  0.
        -11    1    3    3    0    0 -0.13812565325E+02  0.54592675041E+02  0.21903265329E+02  0.60422679197E+02  0.51100000000E-03 0.  1.
         23    2    1    0    0    0  0.20302671186E+01  0.31509438908E+02  0.52685592027E+01  0.92988682611E+02  0.87305043685E+02 0.  0.
         11    1    3    3    0    0  0.15842832443E+02 -0.23083236133E+02 -0.16634706126E+02  0.32566003414E+02  0.51100000000E-03 0. -1.
         22    1    1    0    0    0 -0.20302671186E+01 -0.31509438908E+02 -0.52685592027E+01  0.32011317389E+02  0.00000000000E+00 0.  1.
</event>
<event>
 5    1  0.1717510E-003  0.9118800E+02  0.7818608E-02  0.1130116E+00
         25   -1    0    0    0    0  0.00000000000E+00  0.00000000000E+00  0.99999998245E-14  0.12500000000E+03  0.12500000000E+03 0.  0.
        -11    1    3    3    0    0  0.37161984038E+02  0.88010776237E+01 -0.30799060435E+02  0.49061738136E+02  0.51100000000E-03 0. -1.
         23    2    1    0    0    0  0.25555971021E+02  0.58495419013E+01  0.13892335478E+02  0.95329782942E+02  0.90594954249E+02 0.  0.
         11    1    3    3    0    0 -0.11606013017E+02 -0.29515357224E+01  0.44691395913E+02  0.46268044806E+02  0.51100000000E-03 0.  1.
         22    1    1    0    0    0 -0.25555971021E+02 -0.58495419013E+01 -0.13892335478E+02  0.29670217058E+02  0.00000000000E+00 0.  1.
</event>
<event>
 5    1  0.1717510E-003  0.9118800E+02  0.7818608E-02  0.1130116E+00
         25   -1    0    0    0    0  0.00000000000E+00  0.00000000000E+00  0.99999998245E-14  0.12500000000E+03  0.12500000000E+03 0.  0.
        -11    1    3    3    0    0 -0.20788178257E+02 -0.62029205814E+01  0.36339309946E+02  0.42322216702E+02  0.51100000000E-03 0.  1.
         23    2    1    0    0    0 -0.29948436413E+02 -0.62419786123E+00 -0.12658554305E+02  0.92480198899E+02  0.86573955234E+02 0.  0.
         11    1    3    3    0    0 -0.91602581560E+01  0.55787227201E+01 -0.48997864251E+02  0.50157982197E+02  0.51100000000E-03 0. -1.
         22    1    1    0    0    0  0.29948436413E+02  0.62419786123E+00  0.12658554305E+02  0.32519801101E+02  0.00000000000E+00 0. -1.
</event>
<event>
 5    1  0.1717510E-003  0.9118800E+02  0.7818608E-02  0.1130116E+00
         25   -1    0    0    0    0  0.00000000000E+00  0.00000000000E+00  0.99999998245E-14  0.12500000000E+03  0.12500000000E+03 0.  0.
        -11    1    3    3    0    0 -0.67905746058E+01 -0.93375839365E+01 -0.34481422360E+02  0.36363042577E+02  0.51100000000E-03 0. -1.
         23    2    1    0    0    0  0.28079382231E+02 -0.39602333355E+01  0.11567179579E+02  0.94374278817E+02  0.89266845493E+02 0.  0.
         11    1    3    3    0    0  0.34869956837E+02  0.53773506010E+01  0.46048601939E+02  0.58011236240E+02  0.51100000000E-03 0.  1.
         22    1    1    0    0    0 -0.28079382231E+02  0.39602333355E+01 -0.11567179579E+02  0.30625721183E+02  0.00000000000E+00 0.  1.
</event>
<event>
 5    1  0.1717510E-003  0.9118800E+02  0.7818608E-02  0.1130116E+00
         25   -1    0    0    0    0  0.00000000000E+00  0.00000000000E+00  0.99999998245E-14  0.12500000000E+03  0.12500000000E+03 0.  0.
        -11    1    3    3    0    0 -0.29989746329E+02  0.15817983175E+02  0.33056189660E+02  0.47352984612E+02  0.51100000000E-03 0.  1.
         23    2    1    0    0    0  0.13465423279E+02 -0.35118198551E+01  0.26103449999E+02  0.95418914749E+02  0.90717852087E+02 0.  0.
         11    1    3    3    0    0  0.43455169608E+02 -0.19329803030E+02 -0.69527396614E+01  0.48065930137E+02  0.51100000000E-03 0. -1.
         22    1    1    0    0    0 -0.13465423279E+02  0.35118198551E+01 -0.26103449999E+02  0.29581085251E+02  0.00000000000E+00 0.  1.
</event>
<event>
 5    1  0.1717510E-003  0.9118800E+02  0.7818608E-02  0.1130116E+00
         25   -1    0    0    0    0  0.00000000000E+00  0.00000000000E+00  0.99999998245E-14  0.12500000000E+03  0.12500000000E+03 0.  0.
        -11    1    3    3    0    0  0.59552575042E+02 -0.50360435364E+01 -0.17722192225E+02  0.62337364607E+02  0.51100000000E-03 0.  1.
         23    2    1    0    0    0  0.31663718274E+02 -0.17443397389E+01 -0.62203722686E+01  0.92683954338E+02  0.86867649816E+02 0.  0.
         11    1    3    3    0    0 -0.27888856768E+02  0.32917037974E+01  0.11501819956E+02  0.30346589731E+02  0.51100000000E-03 0. -1.
         22    1    1    0    0    0 -0.31663718274E+02  0.17443397389E+01  0.62203722686E+01  0.32316045662E+02  0.00000000000E+00 0.  1.
</event>
<event>
 5    1  0.1717510E-003  0.9118800E+02  0.7818608E-02  0.1130116E+00
         25   -1    0    0    0    0  0.00000000000E+00  0.00000000000E+00  0.99999998245E-14  0.12500000000E+03  0.12500000000E+03 0.  0.
        -11    1    3    3    0    0 -0.12959676660E+02 -0.57984322193E+01 -0.39905108975E+02  0.42355551678E+02  0.51100000000E-03 0. -1.
         23    2    1    0    0    0  0.25958907302E+02 -0.16955588880E+02 -0.11002166388E+02  0.92100083164E+02  0.86023373516E+02 0.  0.
         11    1    3    3    0    0  0.38918583962E+02 -0.11157156661E+02  0.28902942587E+02  0.49744531487E+02  0.51100000000E-03 0.  1.
         22    1    1    0    0    0 -0.25958907302E+02  0.16955588880E+02  0.11002166388E+02  0.32899916836E+02  0.00000000000E+00 0.  1.
</event>
<event>
 5    1  0.1717510E-003  0.9118800E+02  0.7818608E-02  0.1130116E+00
         25   -1    0    0    0    0  0.00000000000E+00  0.00000000000E+00  0.99999998245E-14  0.12500000000E+03  0.12500000000E+03 0.  0.
        -11    1    3    3    0    0  0.31593365643E+02 -0.31787067424E+02 -0.64970745054E+01  0.45285432376E+02  0.51100000000E-03 0.  1.
         23    2    1    0    0    0 -0.17373908166E+02 -0.23260519656E+02 -0.75532370023E+01  0.95000735861E+02  0.90139802337E+02 0.  0.
         11    1    3    3    0    0 -0.48967273809E+02  0.85265477676E+01 -0.10561624970E+01  0.49715303485E+02  0.51100000000E-03 0. -1.
         22    1    1    0    0    0  0.17373908166E+02  0.23260519656E+02  0.75532370023E+01  0.29999264139E+02  0.00000000000E+00 0. -1.
</event>
<event>
 5    1  0.1717510E-003  0.9118800E+02  0.7818608E-02  0.1130116E+00
         25   -1    0    0    0    0  0.00000000000E+00  0.00000000000E+00  0.99999998245E-14  0.12500000000E+03  0.12500000000E+03 0.  0.
        -11    1    3    3    0    0 -0.55559425251E+02 -0.14236318320E+02  0.13478601804E+02  0.58916849885E+02  0.51100000000E-03 0.  1.
         23    2    1    0    0    0 -0.26076347300E+02  0.83403793342E+01  0.81737909212E+01  0.96428183922E+02  0.92098023760E+02 0.  0.
         11    1    3    3    0    0  0.29483077951E+02  0.22576697655E+02 -0.53048108832E+01  0.37511334037E+02  0.51100000000E-03 0. -1.
         22    1    1    0    0    0  0.26076347300E+02 -0.83403793342E+01 -0.81737909212E+01  0.28571816078E+02  0.00000000000E+00 0.  1.
</event>
<event>
 5    1  0.1717510E-003  0.9118800E+02  0.7818608E-02  0.1130116E+00
         25   -1    0    0    0    0  0.00000000000E+00  0.00000000000E+00  0.99999998245E-14  0.12500000000E+03  0.12500000000E+03 0.  0.
        -11    1    3    3    0    0  0.24330554184E+02 -0.11007305798E+02 -0.23613958842E+02  0.35647660516E+02  0.51100000000E-03 0.  1.
         23    2    1    0    0    0 -0.13076462898E+02 -0.15858843409E+02  0.22036130480E+02  0.94865504107E+02  0.89952076278E+02 0.  0.
         11    1    3    3    0    0 -0.37407017082E+02 -0.48515376110E+01  0.45650089323E+02  0.59217843591E+02  0.51100000000E-03 0. -1.
         22    1    1    0    0    0  0.13076462898E+02  0.15858843409E+02 -0.22036130480E+02  0.30134495893E+02  0.00000000000E+00 0. -1.
</event>
<event>
 5    1  0.1717510E-003  0.9118800E+02  0.7818608E-02  0.1130116E+00
         25   -1    0    0    0    0  0.00000000000E+00  0.00000000000E+00  0.99999998245E-14  0.12500000000E+03  0.12500000000E+03 0.  0.
        -11    1    3    3    0    0  0.17910144913E+02  0.62413988105E+01  0.44988014023E+02  0.48822635692E+02  0.51100000000E-03 0.  1.
         23    2    1    0    0    0 -0.54194532276E+01  0.27062760736E+02  0.10258833230E+02  0.95555014838E+02  0.90905190774E+02 0.  0.
         11    1    3    3    0    0 -0.23329598141E+02  0.20821361925E+02 -0.34729180793E+02  0.46732379146E+02  0.51100000000E-03 0. -1.
         22    1    1    0    0    0  0.54194532276E+01 -0.27062760736E+02 -0.10258833230E+02  0.29444985162E+02  0.00000000000E+00 0. -1.
</event>
<event>
 5    1  0.1717510E-003  0.9118800E+02  0.7818608E-02  0.1130116E+00
         25   -1    0    0    0    0  0.00000000000E+00  0.00000000000E+00  0.99999998245E-14  0.12500000000E+03  0.12500000000E+03 0.  0.
        -11    1    3    3    0    0 -0.39808472780E+02 -0.24073173656E+02  0.21414247944E+02  0.51213301107E+02  0.51100000000E-03 0. -1.
         23    2    1    0    0    0 -0.70303952882E+01 -0.30272932282E+02 -0.46866218831E+01  0.93570057086E+02  0.88133502549E+02 0.  0.
         11    1    3    3    0    0  0.32778077492E+02 -0.61997586261E+01 -0.26100869827E+02  0.42356755979E+02  0.51100000000E-03 0.  1.
         22    1    1    0    0    0  0.70303952882E+01  0.30272932282E+02  0.46866218831E+01  0.31429942914E+02  0.00000000000E+00 0. -1.
</event>
<event>
 5    1  0.1717510E-003  0.9118800E+02  0.7818608E-02  0.1130116E+00
         25   -1    0    0    0    0  0.00000000000E+00  0.00000000000E+00  0.99999998245E-14  0.12500000000E+03  0.12500000000E+03 0.  0.
        -11    1    3    3    0    0 -0.11183026168E+02  0.36314548079E+02 -0.50822637990E+01  0.38335830265E+02  0.51100000000E-03 0.  1.
         23    2    1    0    0    0 -0.11968947817E+02 -0.11819719384E+02  0.24826889335E+02  0.95011070172E+02  0.90154132146E+02 0.  0.
         11    1    3    3    0    0 -0.78592164873E+00 -0.48134267463E+02  0.29909153134E+02  0.56675239907E+02  0.51100000000E-03 0. -1.
         22    1    1    0    0    0  0.11968947817E+02  0.11819719384E+02 -0.24826889335E+02  0.29988929828E+02  0.00000000000E+00 0. -1.
</event>
<event>
 5    1  0.1717510E-003  0.9118800E+02  0.7818608E-02  0.1130116E+00
         25   -1    0    0    0    0  0.00000000000E+00  0.00000000000E+00  0.99999998245E-14  0.12500000000E+03  0.12500000000E+03 0.  0.
        -11    1    3    3    0    0 -0.40652700216E+02  0.24795573484E+02  0.36019852065E+01  0.47753919179E+02  0.51100000000E-03 0. -1.
         23    2    1    0    0    0 -0.23888082057E+02 -0.17943571300E+02 -0.56692389208E+01  0.94590256737E+02  0.89568767907E+02 0.  0.
         11    1    3    3    0    0  0.16764618159E+02 -0.42739144783E+02 -0.92712241273E+01  0.46836337559E+02  0.51100000000E-03 0.  1.
         22    1    1    0    0    0  0.23888082057E+02  0.17943571300E+02  0.56692389208E+01  0.30409743263E+02  0.00000000000E+00 0. -1.
</event>
<event>
 5    1  0.1717510E-003  0.9118800E+02  0.7818608E-02  0.1130116E+00
         25   -1    0    0    0    0  0.00000000000E+00  0.00000000000E+00  0.99999998245E-14  0.12500000000E+03  0.12500000000E+03 0.  0.
        -11    1    3    3    0    0  0.25955847141E+02 -0.46108545134E+02 -0.10816520552E+02  0.54006490835E+02  0.51100000000E-03 0. -1.
         23    2    1    0    0    0 -0.73258175392E+01 -0.27529836266E+02 -0.15762432998E+02  0.92442147161E+02  0.86518996702E+02 0.  0.
         11    1    3    3    0    0 -0.33281664680E+02  0.18578708868E+02 -0.49459124459E+01  0.38435656327E+02  0.51100000000E-03 0.  1.
         22    1    1    0    0    0  0.73258175392E+01  0.27529836266E+02  0.15762432998E+02  0.32557852839E+02  0.00000000000E+00 0. -1.
</event>
<event>
 5    1  0.1717510E-003  0.9118800E+02  0.7818608E-02  0.1130116E+00
         25   -1    0    0    0    0  0.00000000000E+00  0.00000000000E+00  0.99999998245E-14  0.12500000000E+03  0.12500000000E+03 0.  0.
        -11    1    3    3    0    0 -0.22460206088E+02 -0.38065010231E+02 -0.20326959855E+02  0.48647622332E+02  0.51100000000E-03 0. -1.
         23    2    1    0    0    0 -0.28267945157E+02  0.43203976735E+01  0.86614353219E+00  0.96390687459E+02  0.92047117634E+02 0.  0.
         11    1    3    3    0    0 -0.58077390689E+01  0.42385407904E+02  0.21193103387E+02  0.47743065127E+02  0.51100000000E-03 0.  1.
         22    1    1    0    0    0  0.28267945157E+02 -0.43203976735E+01 -0.86614353219E+00  0.28609312541E+02  0.00000000000E+00 0. -1.
</event>
<event>
 5    1  0.1717510E-003  0.9118800E+02  0.7818608E-02  0.1130116E+00
         25   -1    0    0    0    0  0.00000000000E+00  0.00000000000E+00  0.99999998245E-14  0.12500000000E+03  0.12500000000E+03 0.  0.
        -11    1    3    3    0    0 -0.24206560338E+02 -0.19297817259E+02 -0.79602493521E+01  0.31964494120E+02  0.51100000000E-03 0.  1.
         23    2    1    0    0    0 -0.46688915466E+01  0.32475152357E+02  0.10901023115E+02  0.90427375370E+02  0.83557428410E+02 0.  0.
         11    1    3    3    0    0  0.19537668792E+02  0.51772969616E+02  0.18861272467E+02  0.58462881249E+02  0.51100000000E-03 0. -1.
         22    1    1    0    0    0  0.46688915466E+01 -0.32475152357E+02 -0.10901023115E+02  0.34572624630E+02  0.00000000000E+00 0. -1.
</event>
<event>
 5    1  0.1717510E-003  0.9118800E+02  0.7818608E-02  0.1130116E+00
         25   -1    0    0    0    0  0.00000000000E+00  0.00000000000E+00  0.99999998245E-14  0.12500000000E+03  0.12500000000E+03 0.  0.
        -11    1    3    3    0    0 -0.25499720727E+02 -0.20865574217E+02  0.26309763023E+02  0.42164102921E+02  0.51100000000E-03 0.  1.
         23    2    1    0    0    0  0.21676070635E+02 -0.21989039184E+02  0.59635401758E+01  0.93552683837E+02  0.88108858574E+02 0.  0.
         11    1    3    3    0    0  0.47175791362E+02 -0.11234649674E+01 -0.20346222847E+02  0.51388580916E+02  0.51100000000E-03 0. -1.
         22    1    1    0    0    0 -0.21676070635E+02  0.21989039184E+02 -0.59635401758E+01  0.31447316163E+02  0.00000000000E+00 0. -1.
</event>
<event>
 5    1  0.1717510E-003  0.9118800E+02  0.7818608E-02  0.1130116E+00
         25   -1    0    0    0    0  0.00000000000E+00  0.00000000000E+00  0.99999998245E-14  0.12500000000E+03  0.12500000000E+03 0.  0.
        -11    1    3    3    0    0  0.14018803540E+02 -0.28229326693E+02  0.18392652076E+02  0.36492621020E+02  0.51100000000E-03 0.  1.
         23    2    1    0    0    0 -0.26665379265E+02  0.12102400779E+02  0.57955830308E+01  0.95148712948E+02  0.90344774265E+02 0.  0.
         11    1    3    3    0    0 -0.40684182805E+02  0.40331727472E+02 -0.12597069046E+02  0.58656091928E+02  0.51100000000E-03 0. -1.
         22    1    1    0    0    0  0.26665379265E+02 -0.12102400779E+02 -0.57955830308E+01  0.29851287052E+02  0.00000000000E+00 0. -1.
</event>
<event>
 5    1  0.1717510E-003  0.9118800E+02  0.7818608E-02  0.1130116E+00
         25   -1    0    0    0    0  0.00000000000E+00  0.00000000000E+00  0.99999998245E-14  0.12500000000E+03  0.12500000000E+03 0.  0.
        -11    1    3    3    0    0  0.27677688748E+02 -0.13398087269E+02  0.43574392431E+02  0.53331893581E+02  0.51100000000E-03 0.  1.
         23    2    1    0    0    0  0.18888960028E+02  0.16829709684E+02  0.17099639854E+02  0.94464289395E+02  0.89392798082E+02 0.  0.
         11    1    3    3    0    0 -0.87887287199E+01  0.30227796953E+02 -0.26474752578E+02  0.41132395815E+02  0.51100000000E-03 0. -1.
         22    1    1    0    0    0 -0.18888960028E+02 -0.16829709684E+02 -0.17099639854E+02  0.30535710605E+02  0.00000000000E+00 0.  1.
</event>
<event>
 5    1  0.1717510E-003  0.9118800E+02  0.7818608E-02  0.1130116E+00
         25   -1    0    0    0    0  0.00000000000E+00  0.00000000000E+00  0.99999998245E-14  0.12500000000E+03  0.12500000000E+03 0.  0.
        -11    1    3    3    0    0  0.99299324390E+00  0.35021640691E+02 -0.14547468746E+02  0.37935869562E+02  0.51100000000E-03 0. -1.
         23    2    1    0    0    0 -0.10613115847E+01 -0.17082367499E+02 -0.28357207327E+02  0.91878030418E+02  0.85700102709E+02 0.  0.
         11    1    3    3    0    0 -0.20543048286E+01 -0.52104008190E+02 -0.13809738581E+02  0.53942160855E+02  0.51100000000E-03 0.  1.
         22    1    1    0    0    0  0.10613115847E+01  0.17082367499E+02  0.28357207327E+02  0.33121969582E+02  0.00000000000E+00 0. -1.
</event>
<event>
 5    1  0.1717510E-003  0.9118800E+02  0.7818608E-02  0.1130116E+00
         25   -1    0    0    0    0  0.00000000000E+00  0.00000000000E+00  0.99999998245E-14  0.12500000000E+03  0.12500000000E+03 0.  0.
        -11    1    3    3    0    0  0.25009998868E+02 -0.12667958482E+02  0.25296178225E+02  0.37760744810E+02  0.51100000000E-03 0.  1.
         23    2    1    0    0    0  0.18854893186E+02  0.12178331502E+02 -0.23275611585E+02  0.92664681076E+02  0.86839911729E+02 0.  0.
         11    1    3    3    0    0 -0.61551056826E+01  0.24846289984E+02 -0.48571789811E+02  0.54903936267E+02  0.51100000000E-03 0. -1.
         22    1    1    0    0    0 -0.18854893186E+02 -0.12178331502E+02  0.23275611585E+02  0.32335318924E+02  0.00000000000E+00 0. -1.
</event>
<event>
 5    1  0.1717510E-003  0.9118800E+02  0.7818608E-02  0.1130116E+00
         25   -1    0    0    0    0  0.00000000000E+00  0.00000000000E+00  0.99999998245E-14  0.12500000000E+03  0.12500000000E+03 0.  0.
        -11    1    3    3    0    0  0.43026184333E+02 -0.22615805493E+02  0.54847518542E+01  0.48916354111E+02  0.51100000000E-03 0. -1.
         23    2    1    0    0    0 -0.34896058910E+01 -0.28598589707E+02 -0.42477643952E+00  0.96186164477E+02  0.91768955095E+02 0.  0.
         11    1    3    3    0    0 -0.46515790224E+02 -0.59827842142E+01 -0.59095282937E+01  0.47269810366E+02  0.51100000000E-03 0.  1.
         22    1    1    0    0    0  0.34896058910E+01  0.28598589707E+02  0.42477643952E+00  0.28813835523E+02  0.00000000000E+00 0.  1.
</event>
<event>
 5    1  0.1717510E-003  0.9118800E+02  0.7818608E-02  0.1130116E+00
         25   -1    0    0    0    0  0.00000000000E+00  0.00000000000E+00  0.99999998245E-14  0.12500000000E+03  0.12500000000E+03 0.  0.
        -11    1    3    3    0    0  0.34312056439E+02  0.65372183497E+01  0.31815655763E+02  0.47247099305E+02  0.51100000000E-03 0.  1.
         23    2    1    0    0    0 -0.47162699560E+01 -0.20073369980E+02  0.20716649415E+02  0.95770512362E+02  0.91201031191E+02 0.  0.
         11    1    3    3    0    0 -0.39028326395E+02 -0.26610588329E+02 -0.11099006349E+02  0.48523413056E+02  0.51100000000E-03 0. -1.
         22    1    1    0    0    0  0.47162699560E+01  0.20073369980E+02 -0.20716649415E+02  0.29229487638E+02  0.00000000000E+00 0.  1.
</event>
<event>
 5    1  0.1717510E-003  0.9118800E+02  0.7818608E-02  0.1130116E+00
         25   -1    0    0    0    0  0.00000000000E+00  0.00000000000E+00  0.99999998245E-14  0.12500000000E+03  0.12500000000E+03 0.  0.
        -11    1    3    3    0    0  0.52912304609E+02  0.19892246804E+02  0.50629343685E+01  0.56754266505E+02  0.51100000000E-03 0. -1.
         23    2    1    0    0    0  0.24785212613E+02  0.19019409870E+01 -0.15250640554E+02  0.95836560884E+02  0.91291512316E+02 0.  0.
         11    1    3    3    0    0 -0.28127091996E+02 -0.17990305816E+02 -0.20313574922E+02  0.39082294378E+02  0.51100000000E-03 0.  1.
         22    1    1    0    0    0 -0.24785212613E+02 -0.19019409870E+01  0.15250640554E+02  0.29163439116E+02  0.00000000000E+00 0. -1.
</event>
<event>
 5    1  0.1717510E-003  0.9118800E+02  0.7818608E-02  0.1130116E+00
         25   -1    0    0    0    0  0.00000000000E+00  0.00000000000E+00  0.99999998245E-14  0.12500000000E+03  0.12500000000E+03 0.  0.
        -11    1    3    3    0    0  0.34410010734E+02  0.21229561123E+02 -0.36525897425E+02  0.54487469084E+02  0.51100000000E-03 0.  1.
         23    2    1    0    0    0 -0.35686748638E+01  0.69859263457E+01 -0.27981759805E+02  0.95939416919E+02  0.91432238460E+02 0.  0.
         11    1    3    3    0    0 -0.37978685598E+02 -0.14243634777E+02  0.85441376201E+01  0.41451947835E+02  0.51100000000E-03 0. -1.
         22    1    1    0    0    0  0.35686748638E+01 -0.69859263457E+01  0.27981759805E+02  0.29060583081E+02  0.00000000000E+00 0.  1.
</event>
<event>
 5    1  0.1717510E-003  0.9118800E+02  0.7818608E-02  0.1130116E+00
         25   -1    0    0    0    0  0.00000000000E+00  0.00000000000E+00  0.99999998245E-14  0.12500000000E+03  0.12500000000E+03 0.  0.
        -11    1    3    3    0    0 -0.57856004367E+02  0.15839517352E+02 -0.16930976620E+01  0.60008950426E+02  0.51100000000E-03 0.  1.
         23    2    1    0    0    0 -0.28840862455E+02 -0.39798237002E+01 -0.55617692462E+01  0.95359358627E+02  0.90635752641E+02 0.  0.
         11    1    3    3    0    0  0.29015141912E+02 -0.19819341052E+02 -0.38686715842E+01  0.35350408201E+02  0.51100000000E-03 0. -1.
         22    1    1    0    0    0  0.28840862455E+02  0.39798237002E+01  0.55617692462E+01  0.29640641373E+02  0.00000000000E+00 0.  1.
</event>
<event>
 5    1  0.1717510E-003  0.9118800E+02  0.7818608E-02  0.1130116E+00
         25   -1    0    0    0    0  0.00000000000E+00  0.00000000000E+00  0.99999998245E-14  0.12500000000E+03  0.12500000000E+03 0.  0.
        -11    1    3    3    0    0 -0.29715371267E+02  0.27379939084E+02  0.24062029640E+02  0.47028136519E+02  0.51100000000E-03 0. -1.
         23    2    1    0    0    0 -0.21959619709E+02 -0.17798318263E+02  0.76542728513E+01  0.95715312471E+02  0.91125342895E+02 0.  0.
         11    1    3    3    0    0  0.77557515580E+01 -0.45178257347E+02 -0.16407756788E+02  0.48687175952E+02  0.51100000000E-03 0.  1.
         22    1    1    0    0    0  0.21959619709E+02  0.17798318263E+02 -0.76542728513E+01  0.29284687529E+02  0.00000000000E+00 0. -1.
</event>
<event>
 5    1  0.1717510E-003  0.9118800E+02  0.7818608E-02  0.1130116E+00
         25   -1    0    0    0    0  0.00000000000E+00  0.00000000000E+00  0.99999998245E-14  0.12500000000E+03  0.12500000000E+03 0.  0.
        -11    1    3    3    0    0  0.34008408945E+02  0.10565462403E+02 -0.43280877172E+02  0.56048507597E+02  0.51100000000E-03 0. -1.
         23    2    1    0    0    0 -0.16407587483E+01  0.15501353752E+01 -0.29648642123E+02  0.95265558880E+02  0.90506296577E+02 0.  0.
         11    1    3    3    0    0 -0.35649167694E+02 -0.90153270275E+01  0.13632235049E+02  0.39217051283E+02  0.51100000000E-03 0.  1.
         22    1    1    0    0    0  0.16407587483E+01 -0.15501353752E+01  0.29648642123E+02  0.29734441120E+02  0.00000000000E+00 0. -1.
</event>
<event>
 5    1  0.1717510E-003  0.9118800E+02  0.7818608E-02  0.1130116E+00
         25   -1    0    0    0    0  0.00000000000E+00  0.00000000000E+00  0.99999998245E-14  0.12500000000E+03  0.12500000000E+03 0.  0.
        -11    1    3    3    0    0 -0.56297431110E+01 -0.16533803003E+00  0.51303487121E+02  0.51611715096E+02  0.51100000000E-03 0.  1.
         23    2    1    0    0    0 -0.24174135701E+02 -0.12548693280E+02  0.15873241012E+02  0.93475115859E+02  0.87998744108E+02 0.  0.
         11    1    3    3    0    0 -0.18544392590E+02 -0.12383355250E+02 -0.35430246109E+02  0.41863400762E+02  0.51100000000E-03 0. -1.
         22    1    1    0    0    0  0.24174135701E+02  0.12548693280E+02 -0.15873241012E+02  0.31524884141E+02  0.00000000000E+00 0.  1.
</event>
<event>
 5    1  0.1717510E-003  0.9118800E+02  0.7818608E-02  0.1130116E+00
         25   -1    0    0    0    0  0.00000000000E+00  0.00000000000E+00  0.99999998245E-14  0.12500000000E+03  0.12500000000E+03 0.  0.
        -11    1    3    3    0    0 -0.26936622707E+01  0.84269540250E+01  0.47750590047E+02  0.48563239396E+02  0.51100000000E-03 0. -1.
         23    2    1    0    0    0 -0.24653299477E+02 -0.11303250108E+02  0.10924429777E+02  0.95761467136E+02  0.91188632976E+02 0.  0.
         11    1    3    3    0    0 -0.21959637206E+02 -0.19730204133E+02 -0.36826160270E+02  0.47198227740E+02  0.51100000000E-03 0.  1.
         22    1    1    0    0    0  0.24653299477E+02  0.11303250108E+02 -0.10924429777E+02  0.29238532864E+02  0.00000000000E+00 0.  1.
</event>
<event>
 5    1  0.1717510E-003  0.9118800E+02  0.7818608E-02  0.1130116E+00
         25   -1    0    0    0    0  0.00000000000E+00  0.00000000000E+00  0.99999998245E-14  0.12500000000E+03  0.12500000000E+03 0.  0.
        -11    1    3    3    0    0 -0.43872000499E+02  0.14671371640E+02  0.14833814450E+02  0.48580280207E+02  0.51100000000E-03 0. -1.
         23    2    1    0    0    0  0.75625700336E+00  0.28151091793E+02  0.29923860771E+01  0.96680214191E+02  0.92439458825E+02 0.  0.
         11    1    3    3    0    0  0.44628257503E+02  0.13479720153E+02 -0.11841428373E+02  0.48099933984E+02  0.51100000000E-03 0.  1.
         22    1    1    0    0    0 -0.75625700336E+00 -0.28151091793E+02 -0.29923860771E+01  0.28319785809E+02  0.00000000000E+00 0. -1.
</event>
<event>
 5    1  0.1717510E-003  0.9118800E+02  0.7818608E-02  0.1130116E+00
         25   -1    0    0    0    0  0.00000000000E+00  0.00000000000E+00  0.99999998245E-14  0.12500000000E+03  0.12500000000E+03 0.  0.
        -11    1    3    3    0    0  0.32546905028E+02 -0.27335904844E+02  0.22657307671E+01  0.42563907912E+02  0.51100000000E-03 0.  1.
         23    2    1    0    0    0 -0.16894181666E+02 -0.18405638290E+02 -0.15201764081E+02  0.95754923043E+02  0.91179661991E+02 0.  0.
         11    1    3    3    0    0 -0.49441086694E+02  0.89302665535E+01 -0.17467494848E+02  0.53191015132E+02  0.51100000000E-03 0. -1.
         22    1    1    0    0    0  0.16894181666E+02  0.18405638290E+02  0.15201764081E+02  0.29245076957E+02  0.00000000000E+00 0. -1.
</event>
<event>
 5    1  0.1717510E-003  0.9118800E+02  0.7818608E-02  0.1130116E+00
         25   -1    0    0    0    0  0.00000000000E+00  0.00000000000E+00  0.99999998245E-14  0.12500000000E+03  0.12500000000E+03 0.  0.
        -11    1    3    3    0    0 -0.21763282357E+02  0.33620182000E+02 -0.23856470125E+02  0.46616394796E+02  0.51100000000E-03 0.  1.
         23    2    1    0    0    0  0.75286031935E+01  0.22885576479E+02  0.15132076944E+02  0.96549881732E+02  0.92263050204E+02 0.  0.
         11    1    3    3    0    0  0.29291885550E+02 -0.10734605521E+02  0.38988547069E+02  0.49933486936E+02  0.51100000000E-03 0. -1.
         22    1    1    0    0    0 -0.75286031935E+01 -0.22885576479E+02 -0.15132076944E+02  0.28450118268E+02  0.00000000000E+00 0.  1.
</event>
<event>
 5    1  0.1717510E-003  0.9118800E+02  0.7818608E-02  0.1130116E+00
         25   -1    0    0    0    0  0.00000000000E+00  0.00000000000E+00  0.99999998245E-14  0.12500000000E+03  0.12500000000E+03 0.  0.
        -11    1    3    3    0    0 -0.11661802896E+02  0.33551495679E+02  0.51327555269E+02  0.62419695924E+02  0.51100000000E-03 0.  1.
         23    2    1    0    0    0 -0.79140517200E+01  0.16330925436E+02  0.24742501906E+02  0.94315757451E+02  0.89184860615E+02 0.  0.
         11    1    3    3    0    0  0.37477511763E+01 -0.17220570243E+02 -0.26585053363E+02  0.31896061527E+02  0.51100000000E-03 0. -1.
         22    1    1    0    0    0  0.79140517200E+01 -0.16330925436E+02 -0.24742501906E+02  0.30684242549E+02  0.00000000000E+00 0.  1.
</event>
<event>
 5    1  0.1717510E-003  0.9118800E+02  0.7818608E-02  0.1130116E+00
         25   -1    0    0    0    0  0.00000000000E+00  0.00000000000E+00  0.99999998245E-14  0.12500000000E+03  0.12500000000E+03 0.  0.
        -11    1    3    3    0    0 -0.21056677722E+02  0.46430383322E+02  0.87802184151E+01  0.51732546890E+02  0.51100000000E-03 0.  1.
         23    2    1    0    0    0  0.14283318742E+02  0.26798185925E+02  0.12134215200E+02  0.92298392369E+02  0.86311054287E+02 0.  0.
         11    1    3    3    0    0  0.35339996464E+02 -0.19632197397E+02  0.33539967846E+01  0.40565845478E+02  0.51100000000E-03 0. -1.
         22    1    1    0    0    0 -0.14283318742E+02 -0.26798185925E+02 -0.12134215200E+02  0.32701607631E+02  0.00000000000E+00 0.  1.
</event>
<event>
 5    1  0.1717510E-003  0.9118800E+02  0.7818608E-02  0.1130116E+00
         25   -1    0    0    0    0  0.00000000000E+00  0.00000000000E+00  0.99999998245E-14  0.12500000000E+03  0.12500000000E+03 0.  0.
        -11    1    3    3    0    0 -0.57309787079E+01 -0.28369111539E+02 -0.22760634022E+02  0.36819791795E+02  0.51100000000E-03 0. -1.
         23    2    1    0    0    0 -0.69804649637E+01 -0.23762013776E+02  0.27893541771E+02  0.87698393301E+02  0.79370008978E+02 0.  0.
         11    1    3    3    0    0 -0.12494862558E+01  0.46070977624E+01  0.50654175793E+02  0.50878601506E+02  0.51100000000E-03 0.  1.
         22    1    1    0    0    0  0.69804649637E+01  0.23762013776E+02 -0.27893541771E+02  0.37301606699E+02  0.00000000000E+00 0.  1.
</event>
<event>
 5    1  0.1717510E-003  0.9118800E+02  0.7818608E-02  0.1130116E+00
         25   -1    0    0    0    0  0.00000000000E+00  0.00000000000E+00  0.99999998245E-14  0.12500000000E+03  0.12500000000E+03 0.  0.
        -11    1    3    3    0    0 -0.41244520918E+02 -0.41593596972E+02  0.12613422540E+02  0.59918580117E+02  0.51100000000E-03 0.  1.
         23    2    1    0    0    0 -0.23630481570E+02 -0.16753394627E+02 -0.57352923972E+01  0.95470870828E+02  0.90789414069E+02 0.  0.
         11    1    3    3    0    0  0.17614039348E+02  0.24840202345E+02 -0.18348714937E+02  0.35552290711E+02  0.51100000000E-03 0. -1.
         22    1    1    0    0    0  0.23630481570E+02  0.16753394627E+02  0.57352923972E+01  0.29529129172E+02  0.00000000000E+00 0.  1.
</event>
<event>
 5    1  0.1717510E-003  0.9118800E+02  0.7818608E-02  0.1130116E+00
         25   -1    0    0    0    0  0.00000000000E+00  0.00000000000E+00  0.99999998245E-14  0.12500000000E+03  0.12500000000E+03 0.  0.
        -11    1    3    3    0    0 -0.32778590431E+02  0.72679916986E+01  0.51225487948E+01  0.33963218346E+02  0.51100000000E-03 0.  1.
         23    2    1    0    0    0  0.27093083103E+02 -0.41891118363E+01  0.11533973227E+02  0.95257499292E+02  0.90495164638E+02 0.  0.
         11    1    3    3    0    0  0.59871673534E+02 -0.11457103535E+02  0.64114244327E+01  0.61294280946E+02  0.51100000000E-03 0. -1.
         22    1    1    0    0    0 -0.27093083103E+02  0.41891118363E+01 -0.11533973227E+02  0.29742500708E+02  0.00000000000E+00 0. -1.
</event>
<event>
 5    1  0.1717510E-003  0.9118800E+02  0.7818608E-02  0.1130116E+00
         25   -1    0    0    0    0  0.00000000000E+00  0.00000000000E+00  0.99999998245E-14  0.12500000000E+03  0.12500000000E+03 0.  0.
        -11    1    3    3    0    0  0.22717933411E+02  0.36500555877E+02  0.12198600416E+02  0.44690054041E+02  0.51100000000E-03 0.  1.
         23    2    1    0    0    0  0.18735124005E+02 -0.14406892227E+02  0.16864762870E+02  0.95965819423E+02  0.91468327064E+02 0.  0.
         11    1    3    3    0    0 -0.39828094060E+01 -0.50907448104E+02  0.46661624539E+01  0.51275765383E+02  0.51100000000E-03 0. -1.
         22    1    1    0    0    0 -0.18735124005E+02  0.14406892227E+02 -0.16864762870E+02  0.29034180577E+02  0.00000000000E+00 0.  1.
</event>
<event>
 5    1  0.1717510E-003  0.9118800E+02  0.7818608E-02  0.1130116E+00
         25   -1    0    0    0    0  0.00000000000E+00  0.00000000000E+00  0.99999998245E-14  0.12500000000E+03  0.12500000000E+03 0.  0.
        -11    1    3    3    0    0 -0.23964714598E+02 -0.24356342350E+02 -0.12324850724E+02  0.36324109130E+02  0.51100000000E-03 0.  1.
         23    2    1    0    0    0  0.23953694894E+02 -0.41703569432E+01  0.16346711574E+02  0.95701768733E+02  0.91106762555E+02 0.  0.
         11    1    3    3    0    0  0.47918409492E+02  0.20185985407E+02  0.28671562298E+02  0.59377659603E+02  0.51100000000E-03 0. -1.
         22    1    1    0    0    0 -0.23953694894E+02  0.41703569432E+01 -0.16346711574E+02  0.29298231267E+02  0.00000000000E+00 0. -1.
</event>
<event>
 5    1  0.1717510E-003  0.9118800E+02  0.7818608E-02  0.1130116E+00
         25   -1    0    0    0    0  0.00000000000E+00  0.00000000000E+00  0.99999998245E-14  0.12500000000E+03  0.12500000000E+03 0.  0.
        -11    1    3    3    0    0  0.47626627557E+02 -0.24210753006E+02 -0.13131664062E+02  0.55017241070E+02  0.51100000000E-03 0.  1.
         23    2    1    0    0    0  0.77267337593E+01 -0.27551527418E+02 -0.71983166096E+01  0.95493986381E+02  0.90821234275E+02 0.  0.
         11    1    3    3    0    0 -0.39899893798E+02 -0.33407744123E+01  0.59333474523E+01  0.40476745312E+02  0.51100000000E-03 0. -1.
         22    1    1    0    0    0 -0.77267337593E+01  0.27551527418E+02  0.71983166096E+01  0.29506013619E+02  0.00000000000E+00 0. -1.
</event>
<event>
 5    1  0.1717510E-003  0.9118800E+02  0.7818608E-02  0.1130116E+00
         25   -1    0    0    0    0  0.00000000000E+00  0.00000000000E+00  0.99999998245E-14  0.12500000000E+03  0.12500000000E+03 0.  0.
        -11    1    3    3    0    0  0.38335068561E+01  0.48147452801E+02  0.28530161262E+02  0.56096729743E+02  0.51100000000E-03 0. -1.
         23    2    1    0    0    0  0.20553368600E+02  0.25147999476E+02  0.69678505725E+01  0.91782327293E+02  0.85560398686E+02 0.  0.
         11    1    3    3    0    0  0.16719861744E+02 -0.22999453324E+02 -0.21562310690E+02  0.35685597550E+02  0.51100000000E-03 0.  1.
         22    1    1    0    0    0 -0.20553368600E+02 -0.25147999476E+02 -0.69678505725E+01  0.33217672707E+02  0.00000000000E+00 0. -1.
</event>
<event>
 5    1  0.1717510E-003  0.9118800E+02  0.7818608E-02  0.1130116E+00
         25   -1    0    0    0    0  0.00000000000E+00  0.00000000000E+00  0.99999998245E-14  0.12500000000E+03  0.12500000000E+03 0.  0.
        -11    1    3    3    0    0 -0.67809855473E+01  0.44546251297E+02 -0.35610683968E+02  0.57432317405E+02  0.51100000000E-03 0.  1.
         23    2    1    0    0    0 -0.16892478821E+02  0.11531192971E+02 -0.23072689006E+02  0.94167010686E+02  0.88976135404E+02 0.  0.
         11    1    3    3    0    0 -0.10111493274E+02 -0.33015058326E+02  0.12537994962E+02  0.36734693281E+02  0.51100000000E-03 0. -1.
         22    1    1    0    0    0  0.16892478821E+02 -0.11531192971E+02  0.23072689006E+02  0.30832989314E+02  0.00000000000E+00 0.  1.
</event>
<event>
 5    1  0.1717510E-003  0.9118800E+02  0.7818608E-02  0.1130116E+00
         25   -1    0    0    0    0  0.00000000000E+00  0.00000000000E+00  0.99999998245E-14  0.12500000000E+03  0.12500000000E+03 0.  0.
        -11    1    3    3    0    0 -0.34481506465E+02  0.22314108619E+02  0.12078602084E+02  0.42811054182E+02  0.51100000000E-03 0.  1.
         23    2    1    0    0    0  0.12604310230E+02  0.30137679944E+01  0.26327069183E+02  0.95656073786E+02  0.91044046738E+02 0.  0.
         11    1    3    3    0    0  0.47085816694E+02 -0.19300340625E+02  0.14248467099E+02  0.52845019604E+02  0.51100000000E-03 0. -1.
         22    1    1    0    0    0 -0.12604310230E+02 -0.30137679944E+01 -0.26327069183E+02  0.29343926214E+02  0.00000000000E+00 0. -1.
</event>
<event>
 5    1  0.1717510E-003  0.9118800E+02  0.7818608E-02  0.1130116E+00
         25   -1    0    0    0    0  0.00000000000E+00  0.00000000000E+00  0.99999998245E-14  0.12500000000E+03  0.12500000000E+03 0.  0.
        -11    1    3    3    0    0 -0.47619300472E+02  0.24027303339E+02  0.10201047486E+02  0.54304423883E+02  0.51100000000E-03 0. -1.
         23    2    1    0    0    0 -0.20337042224E+02  0.12127345919E+02 -0.17960852079E+02  0.95280309341E+02  0.90526666432E+02 0.  0.
         11    1    3    3    0    0  0.27282258247E+02 -0.11899957421E+02 -0.28161899565E+02  0.40975885458E+02  0.51100000000E-03 0.  1.
         22    1    1    0    0    0  0.20337042224E+02 -0.12127345919E+02  0.17960852079E+02  0.29719690659E+02  0.00000000000E+00 0. -1.
</event>
<event>
 5    1  0.1717510E-003  0.9118800E+02  0.7818608E-02  0.1130116E+00
         25   -1    0    0    0    0  0.00000000000E+00  0.00000000000E+00  0.99999998245E-14  0.12500000000E+03  0.12500000000E+03 0.  0.
        -11    1    3    3    0    0  0.35265129765E+02  0.20849459458E+02  0.37587997971E+02  0.55598443582E+02  0.51100000000E-03 0. -1.
         23    2    1    0    0    0  0.26563724407E+02 -0.55687600165E+01  0.69409598935E+01  0.96985370487E+02  0.92851185354E+02 0.  0.
         11    1    3    3    0    0 -0.87014053575E+01 -0.26418219475E+02 -0.30647038078E+02  0.41386926905E+02  0.51100000000E-03 0.  1.
         22    1    1    0    0    0 -0.26563724407E+02  0.55687600165E+01 -0.69409598935E+01  0.28014629513E+02  0.00000000000E+00 0. -1.
</event>
<event>
 5    1  0.1717510E-003  0.9118800E+02  0.7818608E-02  0.1130116E+00
         25   -1    0    0    0    0  0.00000000000E+00  0.00000000000E+00  0.99999998245E-14  0.12500000000E+03  0.12500000000E+03 0.  0.
        -11    1    3    3    0    0 -0.42554593370E+02  0.27819857109E+02 -0.11680990583E+02  0.52165921900E+02  0.51100000000E-03 0. -1.
         23    2    1    0    0    0 -0.21563233122E+02  0.49876446181E+01  0.19028238242E+02  0.95812271892E+02  0.91258248794E+02 0.  0.
         11    1    3    3    0    0  0.20991360248E+02 -0.22832212491E+02  0.30709228826E+02  0.43646349992E+02  0.51100000000E-03 0.  1.
         22    1    1    0    0    0  0.21563233122E+02 -0.49876446181E+01 -0.19028238242E+02  0.29187728108E+02  0.00000000000E+00 0. -1.
</event>
<event>
 5    1  0.1717510E-003  0.9118800E+02  0.7818608E-02  0.1130116E+00
         25   -1    0    0    0    0  0.00000000000E+00  0.00000000000E+00  0.99999998245E-14  0.12500000000E+03  0.12500000000E+03 0.  0.
        -11    1    3    3    0    0  0.18966042111E+02 -0.17326722808E+02 -0.39572756300E+02  0.47179753264E+02  0.51100000000E-03 0. -1.
         23    2    1    0    0    0  0.28527755152E+02  0.83408767969E+01 -0.35711203646E-01  0.95277881720E+02  0.90523314290E+02 0.  0.
         11    1    3    3    0    0  0.95617130407E+01  0.25667599605E+02  0.39537045097E+02  0.48098128456E+02  0.51100000000E-03 0.  1.
         22    1    1    0    0    0 -0.28527755152E+02 -0.83408767969E+01  0.35711203646E-01  0.29722118280E+02  0.00000000000E+00 0. -1.
</event>
<event>
 5    1  0.1717510E-003  0.9118800E+02  0.7818608E-02  0.1130116E+00
         25   -1    0    0    0    0  0.00000000000E+00  0.00000000000E+00  0.99999998245E-14  0.12500000000E+03  0.12500000000E+03 0.  0.
        -11    1    3    3    0    0 -0.29788081792E+01  0.24134637738E+01  0.42670206186E+02  0.42842089139E+02  0.51100000000E-03 0.  1.
         23    2    1    0    0    0 -0.29964325953E+02  0.26654573198E+01 -0.18036956848E+01  0.94863331129E+02  0.89949056594E+02 0.  0.
         11    1    3    3    0    0 -0.26985517774E+02  0.25199354599E+00 -0.44473901871E+02  0.52021241990E+02  0.51100000000E-03 0. -1.
         22    1    1    0    0    0  0.29964325953E+02 -0.26654573198E+01  0.18036956848E+01  0.30136668871E+02  0.00000000000E+00 0. -1.
</event>
<event>
 5    1  0.1717510E-003  0.9118800E+02  0.7818608E-02  0.1130116E+00
         25   -1    0    0    0    0  0.00000000000E+00  0.00000000000E+00  0.99999998245E-14  0.12500000000E+03  0.12500000000E+03 0.  0.
        -11    1    3    3    0    0 -0.77670446184E+01 -0.46760201241E+02 -0.46800327135E-01  0.47400902869E+02  0.51100000000E-03 0. -1.
         23    2    1    0    0    0  0.23944022700E+02 -0.39303870095E+01 -0.12139379492E+01  0.10070518964E+03  0.97730739329E+02 0.  0.
         11    1    3    3    0    0  0.31711067319E+02  0.42829814232E+02 -0.11671376221E+01  0.53304286771E+02  0.51100000000E-03 0.  1.
         22    1    1    0    0    0 -0.23944022700E+02  0.39303870095E+01  0.12139379492E+01  0.24294810361E+02  0.00000000000E+00 0. -1.
</event>
<event>
 5    1  0.1717510E-003  0.9118800E+02  0.7818608E-02  0.1130116E+00
         25   -1    0    0    0    0  0.00000000000E+00  0.00000000000E+00  0.99999998245E-14  0.12500000000E+03  0.12500000000E+03 0.  0.
        -11    1    3    3    0    0  0.50681313810E+02  0.16124789260E+02  0.25888665747E+02  0.59150886828E+02  0.51100000000E-03 0.  1.
         23    2    1    0    0    0  0.18397009434E+02  0.25679628943E+01  0.24580059173E+02  0.94190525832E+02  0.89009165022E+02 0.  0.
         11    1    3    3    0    0 -0.32284304375E+02 -0.13556826365E+02 -0.13086065734E+01  0.35039639004E+02  0.51100000000E-03 0. -1.
         22    1    1    0    0    0 -0.18397009434E+02 -0.25679628943E+01 -0.24580059173E+02  0.30809474168E+02  0.00000000000E+00 0.  1.
</event>
<event>
 5    1  0.1717510E-003  0.9118800E+02  0.7818608E-02  0.1130116E+00
         25   -1    0    0    0    0  0.00000000000E+00  0.00000000000E+00  0.99999998245E-14  0.12500000000E+03  0.12500000000E+03 0.  0.
        -11    1    3    3    0    0  0.23708059812E+02 -0.39472682207E+01 -0.19551657854E+02  0.30982581422E+02  0.51100000000E-03 0. -1.
         23    2    1    0    0    0 -0.27247396371E+02 -0.46085258139E+01  0.15953237499E+02  0.93091303601E+02  0.87451849038E+02 0.  0.
         11    1    3    3    0    0 -0.50955456183E+02 -0.66125759324E+00  0.35504895353E+02  0.62108722179E+02  0.51100000000E-03 0.  1.
         22    1    1    0    0    0  0.27247396371E+02  0.46085258139E+01 -0.15953237499E+02  0.31908696399E+02  0.00000000000E+00 0.  1.
</event>
<event>
 5    1  0.1717510E-003  0.9118800E+02  0.7818608E-02  0.1130116E+00
         25   -1    0    0    0    0  0.00000000000E+00  0.00000000000E+00  0.99999998245E-14  0.12500000000E+03  0.12500000000E+03 0.  0.
        -11    1    3    3    0    0  0.40830424611E+00 -0.39496863156E+02 -0.42539305964E+02  0.58049646542E+02  0.51100000000E-03 0.  1.
         23    2    1    0    0    0  0.16681631193E+02 -0.16658572793E+02 -0.17572293122E+02  0.95596422797E+02  0.90962111339E+02 0.  0.
         11    1    3    3    0    0  0.16273326947E+02  0.22838290363E+02  0.24967012842E+02  0.37546776255E+02  0.51100000000E-03 0. -1.
         22    1    1    0    0    0 -0.16681631193E+02  0.16658572793E+02  0.17572293122E+02  0.29403577203E+02  0.00000000000E+00 0.  1.
</event>
<event>
 5    1  0.1717510E-003  0.9118800E+02  0.7818608E-02  0.1130116E+00
         25   -1    0    0    0    0  0.00000000000E+00  0.00000000000E+00  0.99999998245E-14  0.12500000000E+03  0.12500000000E+03 0.  0.
        -11    1    3    3    0    0 -0.51468731934E+02 -0.91857538728E+01 -0.11904333759E+02  0.53620160422E+02  0.51100000000E-03 0.  1.
         23    2    1    0    0    0 -0.21158451932E+02 -0.10243296638E+02  0.17369014835E+02  0.95771796318E+02  0.91202790963E+02 0.  0.
         11    1    3    3    0    0  0.30310280002E+02 -0.10575427656E+01  0.29273348594E+02  0.42151635896E+02  0.51100000000E-03 0. -1.
         22    1    1    0    0    0  0.21158451932E+02  0.10243296638E+02 -0.17369014835E+02  0.29228203682E+02  0.00000000000E+00 0.  1.
</event>
<event>
 5    1  0.1717510E-003  0.9118800E+02  0.7818608E-02  0.1130116E+00
         25   -1    0    0    0    0  0.00000000000E+00  0.00000000000E+00  0.99999998245E-14  0.12500000000E+03  0.12500000000E+03 0.  0.
        -11    1    3    3    0    0 -0.41675024863E+02 -0.29779782215E+02 -0.26264922250E+02  0.57562915728E+02  0.51100000000E-03 0.  1.
         23    2    1    0    0    0 -0.21519566193E+02 -0.49041652036E+00 -0.23358759836E+02  0.93235807919E+02  0.87658154097E+02 0.  0.
         11    1    3    3    0    0  0.20155458670E+02  0.29289365695E+02  0.29061624141E+01  0.35672892190E+02  0.51100000000E-03 0. -1.
         22    1    1    0    0    0  0.21519566193E+02  0.49041652036E+00  0.23358759836E+02  0.31764192081E+02  0.00000000000E+00 0.  1.
</event>
<event>
 5    1  0.1717510E-003  0.9118800E+02  0.7818608E-02  0.1130116E+00
         25   -1    0    0    0    0  0.00000000000E+00  0.00000000000E+00  0.99999998245E-14  0.12500000000E+03  0.12500000000E+03 0.  0.
        -11    1    3    3    0    0 -0.16960784865E+01 -0.12068688613E+02 -0.54991039922E+02  0.56325344198E+02  0.51100000000E-03 0.  1.
         23    2    1    0    0    0  0.18619033564E+02 -0.39946247173E+01 -0.21983510569E+02  0.95915636943E+02  0.91399722296E+02 0.  0.
         11    1    3    3    0    0  0.20315112051E+02  0.80740638958E+01  0.33007529353E+02  0.39590292746E+02  0.51100000000E-03 0. -1.
         22    1    1    0    0    0 -0.18619033564E+02  0.39946247173E+01  0.21983510569E+02  0.29084363057E+02  0.00000000000E+00 0.  1.
</event>
<event>
 5    1  0.1717510E-003  0.9118800E+02  0.7818608E-02  0.1130116E+00
         25   -1    0    0    0    0  0.00000000000E+00  0.00000000000E+00  0.99999998245E-14  0.12500000000E+03  0.12500000000E+03 0.  0.
        -11    1    3    3    0    0 -0.19564203345E+02 -0.24122432650E+02 -0.23013948651E+02  0.38656068634E+02  0.51100000000E-03 0. -1.
         23    2    1    0    0    0 -0.61432189821E+01  0.28492419325E+01  0.27066304235E+02  0.97099423948E+02  0.93004601967E+02 0.  0.
         11    1    3    3    0    0  0.13420984362E+02  0.26971674582E+02  0.50080252886E+02  0.58443355315E+02  0.51100000000E-03 0.  1.
         22    1    1    0    0    0  0.61432189821E+01 -0.28492419325E+01 -0.27066304235E+02  0.27900576052E+02  0.00000000000E+00 0.  1.
</event>
<event>
 5    1  0.1717510E-003  0.9118800E+02  0.7818608E-02  0.1130116E+00
         25   -1    0    0    0    0  0.00000000000E+00  0.00000000000E+00  0.99999998245E-14  0.12500000000E+03  0.12500000000E+03 0.  0.
        -11    1    3    3    0    0 -0.21313596711E+02 -0.37126747064E+02 -0.41523059270E+02  0.59639158308E+02  0.51100000000E-03 0.  1.
         23    2    1    0    0    0  0.11317800181E+01 -0.16104818328E+02 -0.26749175046E+02  0.93756369208E+02  0.88397354610E+02 0.  0.
         11    1    3    3    0    0  0.22445376729E+02  0.21021928736E+02  0.14773884223E+02  0.34117210900E+02  0.51100000000E-03 0. -1.
         22    1    1    0    0    0 -0.11317800181E+01  0.16104818328E+02  0.26749175046E+02  0.31243630792E+02  0.00000000000E+00 0.  1.
</event>
<event>
 5    1  0.1717510E-003  0.9118800E+02  0.7818608E-02  0.1130116E+00
         25   -1    0    0    0    0  0.00000000000E+00  0.00000000000E+00  0.99999998245E-14  0.12500000000E+03  0.12500000000E+03 0.  0.
        -11    1    3    3    0    0  0.22134300163E+02 -0.75143075036E+01 -0.23274016539E+02  0.32985934989E+02  0.51100000000E-03 0.  1.
         23    2    1    0    0    0 -0.21039925527E+02  0.11092829237E+02  0.17702456817E+02  0.95350273121E+02  0.90623221529E+02 0.  0.
         11    1    3    3    0    0 -0.43174225690E+02  0.18607136741E+02  0.40976473356E+02  0.62364338132E+02  0.51100000000E-03 0. -1.
         22    1    1    0    0    0  0.21039925527E+02 -0.11092829237E+02 -0.17702456817E+02  0.29649726879E+02  0.00000000000E+00 0. -1.
</event>
<event>
 5    1  0.1717510E-003  0.9118800E+02  0.7818608E-02  0.1130116E+00
         25   -1    0    0    0    0  0.00000000000E+00  0.00000000000E+00  0.99999998245E-14  0.12500000000E+03  0.12500000000E+03 0.  0.
        -11    1    3    3    0    0  0.24972700485E+02  0.34957476067E+02  0.48610965058E+01  0.43235299952E+02  0.51100000000E-03 0. -1.
         23    2    1    0    0    0 -0.14962303466E+02  0.12045146422E+02 -0.21403667193E+02  0.96241122299E+02  0.91843783539E+02 0.  0.
         11    1    3    3    0    0 -0.39935003951E+02 -0.22912329644E+02 -0.26264763698E+02  0.53005822347E+02  0.51100000000E-03 0.  1.
         22    1    1    0    0    0  0.14962303466E+02 -0.12045146422E+02  0.21403667193E+02  0.28758877701E+02  0.00000000000E+00 0.  1.
</event>
<event>
 5    1  0.1717510E-003  0.9118800E+02  0.7818608E-02  0.1130116E+00
         25   -1    0    0    0    0  0.00000000000E+00  0.00000000000E+00  0.99999998245E-14  0.12500000000E+03  0.12500000000E+03 0.  0.
        -11    1    3    3    0    0 -0.17333380066E+02  0.18504133366E+02 -0.20600004606E+02  0.32668168088E+02  0.51100000000E-03 0.  1.
         23    2    1    0    0    0  0.51687191848E+01 -0.94720231802E+01  0.29090929678E+02  0.93972317671E+02  0.88702195113E+02 0.  0.
         11    1    3    3    0    0  0.22502099251E+02 -0.27976156547E+02  0.49690934285E+02  0.61304149584E+02  0.51100000000E-03 0. -1.
         22    1    1    0    0    0 -0.51687191848E+01  0.94720231802E+01 -0.29090929678E+02  0.31027682329E+02  0.00000000000E+00 0. -1.
</event>
<event>
 5    1  0.1717510E-003  0.9118800E+02  0.7818608E-02  0.1130116E+00
         25   -1    0    0    0    0  0.00000000000E+00  0.00000000000E+00  0.99999998245E-14  0.12500000000E+03  0.12500000000E+03 0.  0.
        -11    1    3    3    0    0  0.39734667624E+02 -0.87965084888E+01  0.40547479234E+02  0.57448415516E+02  0.51100000000E-03 0.  1.
         23    2    1    0    0    0  0.29367989474E+02 -0.23046981072E+01  0.48987629516E+01  0.95137174991E+02  0.90328809068E+02 0.  0.
         11    1    3    3    0    0 -0.10366678150E+02  0.64918103816E+01 -0.35648716282E+02  0.37688759475E+02  0.51100000000E-03 0. -1.
         22    1    1    0    0    0 -0.29367989474E+02  0.23046981072E+01 -0.48987629516E+01  0.29862825009E+02  0.00000000000E+00 0.  1.
</event>
<event>
 5    1  0.1717510E-003  0.9118800E+02  0.7818608E-02  0.1130116E+00
         25   -1    0    0    0    0  0.00000000000E+00  0.00000000000E+00  0.99999998245E-14  0.12500000000E+03  0.12500000000E+03 0.  0.
        -11    1    3    3    0    0  0.35056623525E+02  0.29226927671E+02 -0.24494245566E+02  0.51799114087E+02  0.51100000000E-03 0.  1.
         23    2    1    0    0    0  0.39998823521E+02  0.15448919640E+01 -0.87510628703E+01  0.84025938990E+02  0.73358603773E+02 0.  0.
         11    1    3    3    0    0  0.49421999964E+01 -0.27682035707E+02  0.15743182696E+02  0.32226824904E+02  0.51100000000E-03 0. -1.
         22    1    1    0    0    0 -0.39998823521E+02 -0.15448919640E+01  0.87510628703E+01  0.40974061010E+02  0.00000000000E+00 0.  1.
</event>
<event>
 5    1  0.1717510E-003  0.9118800E+02  0.7818608E-02  0.1130116E+00
         25   -1    0    0    0    0  0.00000000000E+00  0.00000000000E+00  0.99999998245E-14  0.12500000000E+03  0.12500000000E+03 0.  0.
        -11    1    3    3    0    0  0.70305876483E+01  0.38515155642E+02 -0.30087266990E+02  0.49377019067E+02  0.51100000000E-03 0. -1.
         23    2    1    0    0    0  0.23453365161E+02  0.15659648154E+02  0.70091309625E+01  0.95941217601E+02  0.91434700198E+02 0.  0.
         11    1    3    3    0    0  0.16422777512E+02 -0.22855507488E+02  0.37096397952E+02  0.46564198533E+02  0.51100000000E-03 0.  1.
         22    1    1    0    0    0 -0.23453365161E+02 -0.15659648154E+02 -0.70091309625E+01  0.29058782399E+02  0.00000000000E+00 0. -1.
</event>
<event>
 5    1  0.1717510E-003  0.9118800E+02  0.7818608E-02  0.1130116E+00
         25   -1    0    0    0    0  0.00000000000E+00  0.00000000000E+00  0.99999998245E-14  0.12500000000E+03  0.12500000000E+03 0.  0.
        -11    1    3    3    0    0 -0.49601577486E+02  0.33755935500E+02 -0.75655091675E+01  0.60473271780E+02  0.51100000000E-03 0.  1.
         23    2    1    0    0    0 -0.15761608475E+02  0.23792860869E+02 -0.46866518447E+00  0.96456205980E+02  0.92136048835E+02 0.  0.
         11    1    3    3    0    0  0.33839969011E+02 -0.99630746317E+01  0.70968439830E+01  0.35982934199E+02  0.51100000000E-03 0. -1.
         22    1    1    0    0    0  0.15761608475E+02 -0.23792860869E+02  0.46866518447E+00  0.28543794020E+02  0.00000000000E+00 0.  1.
</event>
<event>
 5    1  0.1717510E-003  0.9118800E+02  0.7818608E-02  0.1130116E+00
         25   -1    0    0    0    0  0.00000000000E+00  0.00000000000E+00  0.99999998245E-14  0.12500000000E+03  0.12500000000E+03 0.  0.
        -11    1    3    3    0    0  0.33192866743E+02  0.42788313697E+02  0.23307899314E+02  0.58956461583E+02  0.51100000000E-03 0. -1.
         23    2    1    0    0    0  0.19872021252E+02  0.19492093704E+02 -0.35679630341E+01  0.96936334776E+02  0.92785148025E+02 0.  0.
         11    1    3    3    0    0 -0.13320845491E+02 -0.23296219994E+02 -0.26875862348E+02  0.37979873194E+02  0.51100000000E-03 0.  1.
         22    1    1    0    0    0 -0.19872021252E+02 -0.19492093704E+02  0.35679630341E+01  0.28063665224E+02  0.00000000000E+00 0. -1.
</event>
<event>
 5    1  0.1717510E-003  0.9118800E+02  0.7818608E-02  0.1130116E+00
         25   -1    0    0    0    0  0.00000000000E+00  0.00000000000E+00  0.99999998245E-14  0.12500000000E+03  0.12500000000E+03 0.  0.
        -11    1    3    3    0    0  0.32276425131E+02  0.43173065226E+02  0.17586368027E+01  0.53933050942E+02  0.51100000000E-03 0. -1.
         23    2    1    0    0    0  0.12007229504E+02  0.16283692840E+02 -0.21975022903E+02  0.95129716365E+02  0.90318486984E+02 0.  0.
         11    1    3    3    0    0 -0.20269195627E+02 -0.26889372386E+02 -0.23733659706E+02  0.41196665423E+02  0.51100000000E-03 0.  1.
         22    1    1    0    0    0 -0.12007229504E+02 -0.16283692840E+02  0.21975022903E+02  0.29870283635E+02  0.00000000000E+00 0. -1.
</event>
<event>
 5    1  0.1717510E-003  0.9118800E+02  0.7818608E-02  0.1130116E+00
         25   -1    0    0    0    0  0.00000000000E+00  0.00000000000E+00  0.99999998245E-14  0.12500000000E+03  0.12500000000E+03 0.  0.
        -11    1    3    3    0    0 -0.35339240819E+02 -0.36762721680E+01  0.15024560008E+02  0.38576084851E+02  0.51100000000E-03 0.  1.
         23    2    1    0    0    0  0.17349072195E+02 -0.47329172507E+01  0.26943876912E+02  0.92606122264E+02  0.86755579452E+02 0.  0.
         11    1    3    3    0    0  0.52688313014E+02 -0.10566450827E+01  0.11919316904E+02  0.54030037413E+02  0.51100000000E-03 0. -1.
         22    1    1    0    0    0 -0.17349072195E+02  0.47329172507E+01 -0.26943876912E+02  0.32393877736E+02  0.00000000000E+00 0. -1.
</event>
<event>
 5    1  0.1717510E-003  0.9118800E+02  0.7818608E-02  0.1130116E+00
         25   -1    0    0    0    0  0.00000000000E+00  0.00000000000E+00  0.99999998245E-14  0.12500000000E+03  0.12500000000E+03 0.  0.
        -11    1    3    3    0    0  0.38159297596E+02 -0.16892677849E+01  0.14364134706E+02  0.40808258782E+02  0.51100000000E-03 0. -1.
         23    2    1    0    0    0 -0.15054108616E+02  0.99052019303E+01  0.22819974912E+02  0.95922681236E+02  0.91409355698E+02 0.  0.
         11    1    3    3    0    0 -0.53213406212E+02  0.11594469715E+02  0.84558402054E+01  0.55114422455E+02  0.51100000000E-03 0.  1.
         22    1    1    0    0    0  0.15054108616E+02 -0.99052019303E+01 -0.22819974912E+02  0.29077318764E+02  0.00000000000E+00 0.  1.
</event>
<event>
 5    1  0.1717510E-003  0.9118800E+02  0.7818608E-02  0.1130116E+00
         25   -1    0    0    0    0  0.00000000000E+00  0.00000000000E+00  0.99999998245E-14  0.12500000000E+03  0.12500000000E+03 0.  0.
        -11    1    3    3    0    0 -0.19995108422E+02 -0.21973221267E+01  0.38408961141E+02  0.43357593124E+02  0.51100000000E-03 0.  1.
         23    2    1    0    0    0  0.83394769558E+01  0.27694260303E+02  0.67655451163E+01  0.95296607427E+02  0.90549168172E+02 0.  0.
         11    1    3    3    0    0  0.28334585378E+02  0.29891582430E+02 -0.31643416025E+02  0.51939014302E+02  0.51100000000E-03 0. -1.
         22    1    1    0    0    0 -0.83394769558E+01 -0.27694260303E+02 -0.67655451163E+01  0.29703392573E+02  0.00000000000E+00 0. -1.
</event>
<event>
 5    1  0.1717510E-003  0.9118800E+02  0.7818608E-02  0.1130116E+00
         25   -1    0    0    0    0  0.00000000000E+00  0.00000000000E+00  0.99999998245E-14  0.12500000000E+03  0.12500000000E+03 0.  0.
        -11    1    3    3    0    0 -0.18335720025E+02  0.27333587787E+02  0.15087729770E+02  0.36207226351E+02  0.51100000000E-03 0. -1.
         23    2    1    0    0    0 -0.14694461750E+02 -0.21449016049E+02 -0.16284876677E+02  0.94321266259E+02  0.89192581332E+02 0.  0.
         11    1    3    3    0    0  0.36412582756E+01 -0.48782603836E+02 -0.31372606447E+02  0.58114039908E+02  0.51100000000E-03 0.  1.
         22    1    1    0    0    0  0.14694461750E+02  0.21449016049E+02  0.16284876677E+02  0.30678733741E+02  0.00000000000E+00 0.  1.
</event>
<event>
 5    1  0.1717510E-003  0.9118800E+02  0.7818608E-02  0.1130116E+00
         25   -1    0    0    0    0  0.00000000000E+00  0.00000000000E+00  0.99999998245E-14  0.12500000000E+03  0.12500000000E+03 0.  0.
        -11    1    3    3    0    0 -0.23397330182E+02 -0.12236878789E+02  0.53352714499E+02  0.59528887163E+02  0.51100000000E-03 0. -1.
         23    2    1    0    0    0 -0.81550603410E+00  0.14176350516E+01  0.30553428809E+02  0.94402830994E+02  0.89306818040E+02 0.  0.
         11    1    3    3    0    0  0.22581824148E+02  0.13654513841E+02 -0.22799285690E+02  0.34873943831E+02  0.51100000000E-03 0.  1.
         22    1    1    0    0    0  0.81550603410E+00 -0.14176350516E+01 -0.30553428809E+02  0.30597169006E+02  0.00000000000E+00 0. -1.
</event>
<event>
 5    1  0.1717510E-003  0.9118800E+02  0.7818608E-02  0.1130116E+00
         25   -1    0    0    0    0  0.00000000000E+00  0.00000000000E+00  0.99999998245E-14  0.12500000000E+03  0.12500000000E+03 0.  0.
        -11    1    3    3    0    0 -0.24432354383E+02 -0.32573363560E+02  0.42240478555E+02  0.58670452386E+02  0.51100000000E-03 0. -1.
         23    2    1    0    0    0  0.37160958068E+01 -0.17816188420E+02  0.22405456413E+02  0.96134269194E+02  0.91698240433E+02 0.  0.
         11    1    3    3    0    0  0.28148450190E+02  0.14757175140E+02 -0.19835022142E+02  0.37463816808E+02  0.51100000000E-03 0.  1.
         22    1    1    0    0    0 -0.37160958068E+01  0.17816188420E+02 -0.22405456413E+02  0.28865730806E+02  0.00000000000E+00 0.  1.
</event>
<event>
 5    1  0.1717510E-003  0.9118800E+02  0.7818608E-02  0.1130116E+00
         25   -1    0    0    0    0  0.00000000000E+00  0.00000000000E+00  0.99999998245E-14  0.12500000000E+03  0.12500000000E+03 0.  0.
        -11    1    3    3    0    0  0.26921544084E+02 -0.12489064494E+02  0.15457625082E+02  0.33461686169E+02  0.51100000000E-03 0.  1.
         23    2    1    0    0    0 -0.27469291223E+02  0.99987810135E+01 -0.40978413550E+01  0.95481702525E+02  0.90804326060E+02 0.  0.
         11    1    3    3    0    0 -0.54390835307E+02  0.22487845507E+02 -0.19555466437E+02  0.62020016356E+02  0.51100000000E-03 0. -1.
         22    1    1    0    0    0  0.27469291223E+02 -0.99987810135E+01  0.40978413550E+01  0.29518297475E+02  0.00000000000E+00 0. -1.
</event>
<event>
 5    1  0.1717510E-003  0.9118800E+02  0.7818608E-02  0.1130116E+00
         25   -1    0    0    0    0  0.00000000000E+00  0.00000000000E+00  0.99999998245E-14  0.12500000000E+03  0.12500000000E+03 0.  0.
        -11    1    3    3    0    0 -0.83125708912E+01  0.60037241898E+01 -0.37211273208E+02  0.38598217484E+02  0.51100000000E-03 0. -1.
         23    2    1    0    0    0  0.69743938479E+01  0.22724709088E+02  0.15941908596E+02  0.96378346966E+02  0.92030357718E+02 0.  0.
         11    1    3    3    0    0  0.15286964739E+02  0.16720984898E+02  0.53153181803E+02  0.57780129482E+02  0.51100000000E-03 0.  1.
         22    1    1    0    0    0 -0.69743938479E+01 -0.22724709088E+02 -0.15941908596E+02  0.28621653034E+02  0.00000000000E+00 0.  1.
</event>
<event>
 5    1  0.1717510E-003  0.9118800E+02  0.7818608E-02  0.1130116E+00
         25   -1    0    0    0    0  0.00000000000E+00  0.00000000000E+00  0.99999998245E-14  0.12500000000E+03  0.12500000000E+03 0.  0.
        -11    1    3    3    0    0 -0.59046562945E+02 -0.80989215831E+01 -0.14911242730E+01  0.59618055808E+02  0.51100000000E-03 0.  1.
         23    2    1    0    0    0 -0.25051030194E+02 -0.12445627089E+02  0.92563465207E+01  0.95535993173E+02  0.90879031097E+02 0.  0.
         11    1    3    3    0    0  0.33995532752E+02 -0.43467055062E+01  0.10747470794E+02  0.35917937365E+02  0.51100000000E-03 0. -1.
         22    1    1    0    0    0  0.25051030194E+02  0.12445627089E+02 -0.92563465207E+01  0.29464006827E+02  0.00000000000E+00 0.  1.
</event>
<event>
 5    1  0.1717510E-003  0.9118800E+02  0.7818608E-02  0.1130116E+00
         25   -1    0    0    0    0  0.00000000000E+00  0.00000000000E+00  0.99999998245E-14  0.12500000000E+03  0.12500000000E+03 0.  0.
        -11    1    3    3    0    0 -0.34850200714E+02  0.22461699326E+02  0.32633877655E+02  0.52763949790E+02  0.51100000000E-03 0. -1.
         23    2    1    0    0    0 -0.26867774673E+02  0.78194892914E+01 -0.73347097328E+01  0.96072164002E+02  0.91613541578E+02 0.  0.
         11    1    3    3    0    0  0.79824260408E+01 -0.14642210034E+02 -0.39968587388E+02  0.43308214212E+02  0.51100000000E-03 0.  1.
         22    1    1    0    0    0  0.26867774673E+02 -0.78194892914E+01  0.73347097328E+01  0.28927835998E+02  0.00000000000E+00 0. -1.
</event>
<event>
 5    1  0.1717510E-003  0.9118800E+02  0.7818608E-02  0.1130116E+00
         25   -1    0    0    0    0  0.00000000000E+00  0.00000000000E+00  0.99999998245E-14  0.12500000000E+03  0.12500000000E+03 0.  0.
        -11    1    3    3    0    0 -0.24827097419E+02 -0.95258683851E+01  0.25369000220E+02  0.36752049020E+02  0.51100000000E-03 0. -1.
         23    2    1    0    0    0  0.33525391747E+01  0.30740391022E+02 -0.37066659016E+01  0.93855971179E+02  0.88538086690E+02 0.  0.
         11    1    3    3    0    0  0.28179636594E+02  0.40266259407E+02 -0.29075666122E+02  0.57103922159E+02  0.51100000000E-03 0.  1.
         22    1    1    0    0    0 -0.33525391747E+01 -0.30740391022E+02  0.37066659016E+01  0.31144028821E+02  0.00000000000E+00 0.  1.
</event>
<event>
 5    1  0.1717510E-003  0.9118800E+02  0.7818608E-02  0.1130116E+00
         25   -1    0    0    0    0  0.00000000000E+00  0.00000000000E+00  0.99999998245E-14  0.12500000000E+03  0.12500000000E+03 0.  0.
        -11    1    3    3    0    0 -0.40140543173E+02  0.15143124824E+01 -0.43361369276E+01  0.40402455770E+02  0.51100000000E-03 0. -1.
         23    2    1    0    0    0  0.46634582511E+01  0.27004714256E+02  0.12840373094E+02  0.94736530006E+02  0.89772671239E+02 0.  0.
         11    1    3    3    0    0  0.44804001425E+02  0.25490401774E+02  0.17176510022E+02  0.54334074235E+02  0.51100000000E-03 0.  1.
         22    1    1    0    0    0 -0.46634582511E+01 -0.27004714256E+02 -0.12840373094E+02  0.30263469994E+02  0.00000000000E+00 0.  1.
</event>
<event>
 5    1  0.1717510E-003  0.9118800E+02  0.7818608E-02  0.1130116E+00
         25   -1    0    0    0    0  0.00000000000E+00  0.00000000000E+00  0.99999998245E-14  0.12500000000E+03  0.12500000000E+03 0.  0.
        -11    1    3    3    0    0  0.48284461263E+01 -0.17078839058E+02 -0.24023822514E+02  0.29868791137E+02  0.51100000000E-03 0. -1.
         23    2    1    0    0    0 -0.17191279414E+02  0.31231465163E+02  0.25861105446E+01  0.89256014885E+02  0.81786329672E+02 0.  0.
         11    1    3    3    0    0 -0.22019725540E+02  0.48310304221E+02  0.26609933058E+02  0.59387223748E+02  0.51100000000E-03 0.  1.
         22    1    1    0    0    0  0.17191279414E+02 -0.31231465163E+02 -0.25861105446E+01  0.35743985115E+02  0.00000000000E+00 0.  1.
</event>
<event>
 5    1  0.1717510E-003  0.9118800E+02  0.7818608E-02  0.1130116E+00
         25   -1    0    0    0    0  0.00000000000E+00  0.00000000000E+00  0.99999998245E-14  0.12500000000E+03  0.12500000000E+03 0.  0.
        -11    1    3    3    0    0 -0.22792432910E+02  0.12548041574E+02 -0.29268213113E+02  0.39160907093E+02  0.51100000000E-03 0. -1.
         23    2    1    0    0    0 -0.87124017887E+01  0.97807732555E+01  0.25798635859E+02  0.96066644118E+02  0.91606009789E+02 0.  0.
         11    1    3    3    0    0  0.14080031122E+02 -0.27672683187E+01  0.55066848972E+02  0.56905737024E+02  0.51100000000E-03 0.  1.
         22    1    1    0    0    0  0.87124017887E+01 -0.97807732555E+01 -0.25798635859E+02  0.28933355882E+02  0.00000000000E+00 0.  1.
</event>
<event>
 5    1  0.1717510E-003  0.9118800E+02  0.7818608E-02  0.1130116E+00
         25   -1    0    0    0    0  0.00000000000E+00  0.00000000000E+00  0.99999998245E-14  0.12500000000E+03  0.12500000000E+03 0.  0.
        -11    1    3    3    0    0 -0.60316370357E+02 -0.13748576216E+02 -0.39461183770E+01  0.61989190440E+02  0.51100000000E-03 0.  1.
         23    2    1    0    0    0 -0.28103419354E+02 -0.10289340710E+02  0.23000137288E+01  0.94983958042E+02  0.90116532948E+02 0.  0.
         11    1    3    3    0    0  0.32212951002E+02  0.34592355053E+01  0.62461321057E+01  0.32994767602E+02  0.51100000000E-03 0. -1.
         22    1    1    0    0    0  0.28103419354E+02  0.10289340710E+02 -0.23000137288E+01  0.30016041958E+02  0.00000000000E+00 0.  1.
</event>
<event>
 5    1  0.1717510E-003  0.9118800E+02  0.7818608E-02  0.1130116E+00
         25   -1    0    0    0    0  0.00000000000E+00  0.00000000000E+00  0.99999998245E-14  0.12500000000E+03  0.12500000000E+03 0.  0.
        -11    1    3    3    0    0 -0.74437091009E+01  0.33082120360E+02  0.26824698135E+02  0.43236557715E+02  0.51100000000E-03 0.  1.
         23    2    1    0    0    0  0.25017152300E+02 -0.60293896558E+01  0.14201392755E+02  0.95607977187E+02  0.90977987980E+02 0.  0.
         11    1    3    3    0    0  0.32460861401E+02 -0.39111510016E+02 -0.12623305380E+02  0.52371419473E+02  0.51100000000E-03 0. -1.
         22    1    1    0    0    0 -0.25017152300E+02  0.60293896558E+01 -0.14201392755E+02  0.29392022813E+02  0.00000000000E+00 0. -1.
</event>
<event>
 5    1  0.1717510E-003  0.9118800E+02  0.7818608E-02  0.1130116E+00
         25   -1    0    0    0    0  0.00000000000E+00  0.00000000000E+00  0.99999998245E-14  0.12500000000E+03  0.12500000000E+03 0.  0.
        -11    1    3    3    0    0 -0.85583533959E+01 -0.43248852505E+02  0.30894818670E+02  0.53834918749E+02  0.51100000000E-03 0. -1.
         23    2    1    0    0    0  0.13213173272E+02 -0.35136984141E+02  0.76716075720E+01  0.86684870283E+02  0.77757427753E+02 0.  0.
         11    1    3    3    0    0  0.21771526668E+02  0.81118683636E+01 -0.23223211098E+02  0.32849951534E+02  0.51100000000E-03 0.  1.
         22    1    1    0    0    0 -0.13213173272E+02  0.35136984141E+02 -0.76716075720E+01  0.38315129717E+02  0.00000000000E+00 0. -1.
</event>
<event>
 5    1  0.1717510E-003  0.9118800E+02  0.7818608E-02  0.1130116E+00
         25   -1    0    0    0    0  0.00000000000E+00  0.00000000000E+00  0.99999998245E-14  0.12500000000E+03  0.12500000000E+03 0.  0.
        -11    1    3    3    0    0  0.35142421315E+02  0.31310980183E+01 -0.41718386401E+02  0.54637142265E+02  0.51100000000E-03 0. -1.
         23    2    1    0    0    0 -0.15172525972E+01  0.13952542658E+02 -0.24942533530E+02  0.96379981116E+02  0.92032577270E+02 0.  0.
         11    1    3    3    0    0 -0.36659673913E+02  0.10821444639E+02  0.16775852872E+02  0.41742838851E+02  0.51100000000E-03 0.  1.
         22    1    1    0    0    0  0.15172525972E+01 -0.13952542658E+02  0.24942533530E+02  0.28620018884E+02  0.00000000000E+00 0. -1.
</event>
<event>
 5    1  0.1717510E-003  0.9118800E+02  0.7818608E-02  0.1130116E+00
         25   -1    0    0    0    0  0.00000000000E+00  0.00000000000E+00  0.99999998245E-14  0.12500000000E+03  0.12500000000E+03 0.  0.
        -11    1    3    3    0    0  0.22604245376E+02 -0.13709652696E+02  0.50931528804E+02  0.57384031861E+02  0.51100000000E-03 0. -1.
         23    2    1    0    0    0 -0.56629759047E+01 -0.74765200617E+00  0.29013898053E+02  0.95429160312E+02  0.90731968335E+02 0.  0.
         11    1    3    3    0    0 -0.28267221281E+02  0.12962000690E+02 -0.21917630751E+02  0.38045128450E+02  0.51100000000E-03 0.  1.
         22    1    1    0    0    0  0.56629759047E+01  0.74765200617E+00 -0.29013898053E+02  0.29570839688E+02  0.00000000000E+00 0. -1.
</event>
<event>
 5    1  0.1717510E-003  0.9118800E+02  0.7818608E-02  0.1130116E+00
         25   -1    0    0    0    0  0.00000000000E+00  0.00000000000E+00  0.99999998245E-14  0.12500000000E+03  0.12500000000E+03 0.  0.
        -11    1    3    3    0    0 -0.26060740466E+02 -0.24457888660E+02  0.72081085461E+01  0.36459667311E+02  0.51100000000E-03 0.  1.
         23    2    1    0    0    0  0.15581442030E+02  0.15194375025E+02  0.20084890997E+02  0.95384915761E+02  0.90670992827E+02 0.  0.
         11    1    3    3    0    0  0.41642182496E+02  0.39652263685E+02  0.12876782451E+02  0.58925248450E+02  0.51100000000E-03 0. -1.
         22    1    1    0    0    0 -0.15581442030E+02 -0.15194375025E+02 -0.20084890997E+02  0.29615084239E+02  0.00000000000E+00 0. -1.
</event>
<event>
 5    1  0.1717510E-003  0.9118800E+02  0.7818608E-02  0.1130116E+00
         25   -1    0    0    0    0  0.00000000000E+00  0.00000000000E+00  0.99999998245E-14  0.12500000000E+03  0.12500000000E+03 0.  0.
        -11    1    3    3    0    0 -0.98220376737E+01 -0.31686972292E+02  0.10482597933E+02  0.34791112325E+02  0.51100000000E-03 0. -1.
         23    2    1    0    0    0  0.16811187836E+02  0.14788735874E+02  0.26123716574E+02  0.90594022135E+02  0.83806357358E+02 0.  0.
         11    1    3    3    0    0  0.26633225510E+02  0.46475708166E+02  0.15641118642E+02  0.55802909810E+02  0.51100000000E-03 0.  1.
         22    1    1    0    0    0 -0.16811187836E+02 -0.14788735874E+02 -0.26123716574E+02  0.34405977865E+02  0.00000000000E+00 0.  1.
</event>
<event>
 5    1  0.1717510E-003  0.9118800E+02  0.7818608E-02  0.1130116E+00
         25   -1    0    0    0    0  0.00000000000E+00  0.00000000000E+00  0.99999998245E-14  0.12500000000E+03  0.12500000000E+03 0.  0.
        -11    1    3    3    0    0 -0.25500143986E+02 -0.44403599000E+02 -0.26600127478E+02  0.57701852046E+02  0.51100000000E-03 0. -1.
         23    2    1    0    0    0  0.36910146393E+01 -0.26599659790E+02 -0.64793886701E+01  0.97374867103E+02  0.93374069076E+02 0.  0.
         11    1    3    3    0    0  0.29191158625E+02  0.17803939209E+02  0.20120738808E+02  0.39673015057E+02  0.51100000000E-03 0.  1.
         22    1    1    0    0    0 -0.36910146393E+01  0.26599659790E+02  0.64793886701E+01  0.27625132897E+02  0.00000000000E+00 0. -1.
</event>
<event>
 5    1  0.1717510E-003  0.9118800E+02  0.7818608E-02  0.1130116E+00
         25   -1    0    0    0    0  0.00000000000E+00  0.00000000000E+00  0.99999998245E-14  0.12500000000E+03  0.12500000000E+03 0.  0.
        -11    1    3    3    0    0  0.23971255296E+02 -0.23242920445E+02 -0.19547174626E+02  0.38690392443E+02  0.51100000000E-03 0.  1.
         23    2    1    0    0    0 -0.23225748641E+02 -0.17299197358E+02  0.96123918965E+01  0.94486139098E+02  0.89423345802E+02 0.  0.
         11    1    3    3    0    0 -0.47197003937E+02  0.59437230870E+01  0.29159566523E+02  0.55795746655E+02  0.51100000000E-03 0. -1.
         22    1    1    0    0    0  0.23225748641E+02  0.17299197358E+02 -0.96123918965E+01  0.30513860902E+02  0.00000000000E+00 0. -1.
</event>
<event>
 5    1  0.1717510E-003  0.9118800E+02  0.7818608E-02  0.1130116E+00
         25   -1    0    0    0    0  0.00000000000E+00  0.00000000000E+00  0.99999998245E-14  0.12500000000E+03  0.12500000000E+03 0.  0.
        -11    1    3    3    0    0  0.46258642887E+02  0.11926912384E+02  0.34359891460E+02  0.58844841933E+02  0.51100000000E-03 0. -1.
         23    2    1    0    0    0  0.29915351205E+02 -0.21506966764E+00  0.48553383500E+01  0.94692429936E+02  0.89711245025E+02 0.  0.
         11    1    3    3    0    0 -0.16343291682E+02 -0.12141982052E+02 -0.29504553110E+02  0.35847588003E+02  0.51100000000E-03 0.  1.
         22    1    1    0    0    0 -0.29915351205E+02  0.21506966764E+00 -0.48553383500E+01  0.30307570064E+02  0.00000000000E+00 0. -1.
</event>
<event>
 5    1  0.1717510E-003  0.9118800E+02  0.7818608E-02  0.1130116E+00
         25   -1    0    0    0    0  0.00000000000E+00  0.00000000000E+00  0.99999998245E-14  0.12500000000E+03  0.12500000000E+03 0.  0.
        -11    1    3    3    0    0 -0.29739259957E+02 -0.38573118468E+02  0.32180346761E+01  0.48812547553E+02  0.51100000000E-03 0. -1.
         23    2    1    0    0    0  0.35775715198E+01 -0.12570187255E+02  0.25319998756E+02  0.96505948646E+02  0.92203509485E+02 0.  0.
         11    1    3    3    0    0  0.33316831477E+02  0.26002931213E+02  0.22101964080E+02  0.47693401093E+02  0.51100000000E-03 0.  1.
         22    1    1    0    0    0 -0.35775715198E+01  0.12570187255E+02 -0.25319998756E+02  0.28494051354E+02  0.00000000000E+00 0. -1.
</event>
<event>
 5    1  0.1717510E-003  0.9118800E+02  0.7818608E-02  0.1130116E+00
         25   -1    0    0    0    0  0.00000000000E+00  0.00000000000E+00  0.99999998245E-14  0.12500000000E+03  0.12500000000E+03 0.  0.
        -11    1    3    3    0    0  0.15942402644E+02  0.35000611867E+01 -0.40833313790E+02  0.43974653446E+02  0.51100000000E-03 0. -1.
         23    2    1    0    0    0 -0.16375097395E+01  0.31244095755E+02 -0.37865638570E+01  0.93484717619E+02  0.88012382110E+02 0.  0.
         11    1    3    3    0    0 -0.17579912384E+02  0.27744034569E+02  0.37046749933E+02  0.49510064173E+02  0.51100000000E-03 0.  1.
         22    1    1    0    0    0  0.16375097395E+01 -0.31244095755E+02  0.37865638570E+01  0.31515282381E+02  0.00000000000E+00 0.  1.
</event>
<event>
 5    1  0.1717510E-003  0.9118800E+02  0.7818608E-02  0.1130116E+00
         25   -1    0    0    0    0  0.00000000000E+00  0.00000000000E+00  0.99999998245E-14  0.12500000000E+03  0.12500000000E+03 0.  0.
        -11    1    3    3    0    0  0.94211410900E+01 -0.32697634750E+02 -0.20252173202E+02  0.39598532010E+02  0.51100000000E-03 0. -1.
         23    2    1    0    0    0  0.20090409694E+02  0.20438119826E+02 -0.49215796573E+01  0.95921429712E+02  0.91407644253E+02 0.  0.
         11    1    3    3    0    0  0.10669268604E+02  0.53135754575E+02  0.15330593545E+02  0.56322897702E+02  0.51100000000E-03 0.  1.
         22    1    1    0    0    0 -0.20090409694E+02 -0.20438119826E+02  0.49215796573E+01  0.29078570288E+02  0.00000000000E+00 0.  1.
</event>
<event>
 5    1  0.1717510E-003  0.9118800E+02  0.7818608E-02  0.1130116E+00
         25   -1    0    0    0    0  0.00000000000E+00  0.00000000000E+00  0.99999998245E-14  0.12500000000E+03  0.12500000000E+03 0.  0.
        -11    1    3    3    0    0  0.76752416742E+01  0.33752680313E+02 -0.12871154316E+02  0.36929925220E+02  0.51100000000E-03 0.  1.
         23    2    1    0    0    0 -0.19153686283E+02 -0.17736028044E+02 -0.14744668358E+02  0.95019412381E+02  0.90165697997E+02 0.  0.
         11    1    3    3    0    0 -0.26828927957E+02 -0.51488708357E+02 -0.18735140413E+01  0.58089487161E+02  0.51100000000E-03 0. -1.
         22    1    1    0    0    0  0.19153686283E+02  0.17736028044E+02  0.14744668358E+02  0.29980587619E+02  0.00000000000E+00 0. -1.
</event>
<event>
 5    1  0.1717510E-003  0.9118800E+02  0.7818608E-02  0.1130116E+00
         25   -1    0    0    0    0  0.00000000000E+00  0.00000000000E+00  0.99999998245E-14  0.12500000000E+03  0.12500000000E+03 0.  0.
        -11    1    3    3    0    0 -0.10485231222E+02 -0.30251233690E+02  0.16733728822E+02  0.36126097134E+02  0.51100000000E-03 0. -1.
         23    2    1    0    0    0  0.24186011847E+02  0.16111970154E+02  0.19716344144E+01  0.95871901992E+02  0.91339889961E+02 0.  0.
         11    1    3    3    0    0  0.34671243069E+02  0.46363203844E+02 -0.14762094408E+02  0.59745804858E+02  0.51100000000E-03 0.  1.
         22    1    1    0    0    0 -0.24186011847E+02 -0.16111970154E+02 -0.19716344144E+01  0.29128098008E+02  0.00000000000E+00 0.  1.
</event>
<event>
 5    1  0.1717510E-003  0.9118800E+02  0.7818608E-02  0.1130116E+00
         25   -1    0    0    0    0  0.00000000000E+00  0.00000000000E+00  0.99999998245E-14  0.12500000000E+03  0.12500000000E+03 0.  0.
        -11    1    3    3    0    0  0.38673865889E+02 -0.10404018936E+02 -0.12080444321E+02  0.41831192286E+02  0.51100000000E-03 0.  1.
         23    2    1    0    0    0 -0.13371655751E+02 -0.24814169377E+02 -0.60493380516E+01  0.96170524281E+02  0.91747648854E+02 0.  0.
         11    1    3    3    0    0 -0.52045521640E+02 -0.14410150441E+02  0.60311062691E+01  0.54339331994E+02  0.51100000000E-03 0. -1.
         22    1    1    0    0    0  0.13371655751E+02  0.24814169377E+02  0.60493380516E+01  0.28829475719E+02  0.00000000000E+00 0. -1.
</event>
<event>
 5    1  0.1717510E-003  0.9118800E+02  0.7818608E-02  0.1130116E+00
         25   -1    0    0    0    0  0.00000000000E+00  0.00000000000E+00  0.99999998245E-14  0.12500000000E+03  0.12500000000E+03 0.  0.
        -11    1    3    3    0    0  0.84996941592E+00 -0.23272514511E+02 -0.28707399148E+02  0.36965485873E+02  0.51100000000E-03 0.  1.
         23    2    1    0    0    0  0.21664330492E+02  0.17982903877E+02  0.77193202733E+01  0.95805549278E+02  0.91249040101E+02 0.  0.
         11    1    3    3    0    0  0.20814361076E+02  0.41255418388E+02  0.36426719422E+02  0.58840063405E+02  0.51100000000E-03 0. -1.
         22    1    1    0    0    0 -0.21664330492E+02 -0.17982903877E+02 -0.77193202733E+01  0.29194450722E+02  0.00000000000E+00 0. -1.
</event>
<event>
 5    1  0.1717510E-003  0.9118800E+02  0.7818608E-02  0.1130116E+00
         25   -1    0    0    0    0  0.00000000000E+00  0.00000000000E+00  0.99999998245E-14  0.12500000000E+03  0.12500000000E+03 0.  0.
        -11    1    3    3    0    0 -0.51811861804E+02 -0.80158366730E+01 -0.18586371896E+02  0.55625316913E+02  0.51100000000E-03 0.  1.
         23    2    1    0    0    0 -0.25701319435E+02 -0.21049903670E+02  0.25837534321E+01  0.91678354677E+02  0.85408364165E+02 0.  0.
         11    1    3    3    0    0  0.26110542370E+02 -0.13034066997E+02  0.21170125328E+02  0.36053037764E+02  0.51100000000E-03 0. -1.
         22    1    1    0    0    0  0.25701319435E+02  0.21049903670E+02 -0.25837534321E+01  0.33321645323E+02  0.00000000000E+00 0.  1.
</event>
<event>
 5    1  0.1717510E-003  0.9118800E+02  0.7818608E-02  0.1130116E+00
         25   -1    0    0    0    0  0.00000000000E+00  0.00000000000E+00  0.99999998245E-14  0.12500000000E+03  0.12500000000E+03 0.  0.
        -11    1    3    3    0    0  0.82135692255E+01  0.59492962137E+02 -0.15427028251E+02  0.62007003348E+02  0.51100000000E-03 0.  1.
         23    2    1    0    0    0  0.61874545021E+01  0.28512623246E+02 -0.22405873145E+01  0.95737831435E+02  0.91156227757E+02 0.  0.
         11    1    3    3    0    0 -0.20261147234E+01 -0.30980338891E+02  0.13186440936E+02  0.33730828088E+02  0.51100000000E-03 0. -1.
         22    1    1    0    0    0 -0.61874545021E+01 -0.28512623246E+02  0.22405873145E+01  0.29262168565E+02  0.00000000000E+00 0.  1.
</event>
<event>
 5    1  0.1717510E-003  0.9118800E+02  0.7818608E-02  0.1130116E+00
         25   -1    0    0    0    0  0.00000000000E+00  0.00000000000E+00  0.99999998245E-14  0.12500000000E+03  0.12500000000E+03 0.  0.
        -11    1    3    3    0    0 -0.20787826349E+02  0.31455638179E+02  0.28847668307E+02  0.47473980922E+02  0.51100000000E-03 0.  1.
         23    2    1    0    0    0 -0.86459143362E+01  0.23651670771E+02 -0.16386771929E+02  0.94955372207E+02  0.90076873013E+02 0.  0.
         11    1    3    3    0    0  0.12141912013E+02 -0.78039674081E+01 -0.45234440236E+02  0.47481391285E+02  0.51100000000E-03 0. -1.
         22    1    1    0    0    0  0.86459143362E+01 -0.23651670771E+02  0.16386771929E+02  0.30044627793E+02  0.00000000000E+00 0. -1.
</event>
<event>
 5    1  0.1717510E-003  0.9118800E+02  0.7818608E-02  0.1130116E+00
         25   -1    0    0    0    0  0.00000000000E+00  0.00000000000E+00  0.99999998245E-14  0.12500000000E+03  0.12500000000E+03 0.  0.
        -11    1    3    3    0    0  0.15430594478E+02 -0.23918069393E+02  0.24480729097E+02  0.37543087070E+02  0.51100000000E-03 0.  1.
         23    2    1    0    0    0 -0.19738534650E+02  0.89427974349E+01 -0.14029451205E+02  0.99185103580E+02  0.95766778660E+02 0.  0.
         11    1    3    3    0    0 -0.35169129127E+02  0.32860866828E+02 -0.38510180301E+02  0.61642016509E+02  0.51100000000E-03 0. -1.
         22    1    1    0    0    0  0.19738534650E+02 -0.89427974349E+01  0.14029451205E+02  0.25814896420E+02  0.00000000000E+00 0. -1.
</event>
<event>
 5    1  0.1717510E-003  0.9118800E+02  0.7818608E-02  0.1130116E+00
         25   -1    0    0    0    0  0.00000000000E+00  0.00000000000E+00  0.99999998245E-14  0.12500000000E+03  0.12500000000E+03 0.  0.
        -11    1    3    3    0    0  0.11677396139E+01 -0.11074252852E+02 -0.34826080553E+02  0.36563076716E+02  0.51100000000E-03 0. -1.
         23    2    1    0    0    0 -0.25467744948E+02 -0.24533578113E+01  0.16166136548E+02  0.94735020764E+02  0.89770569737E+02 0.  0.
         11    1    3    3    0    0 -0.26635484562E+02  0.86208950404E+01  0.50992217101E+02  0.58171944047E+02  0.51100000000E-03 0.  1.
         22    1    1    0    0    0  0.25467744948E+02  0.24533578113E+01 -0.16166136548E+02  0.30264979236E+02  0.00000000000E+00 0.  1.
</event>
<event>
 5    1  0.1717510E-003  0.9118800E+02  0.7818608E-02  0.1130116E+00
         25   -1    0    0    0    0  0.00000000000E+00  0.00000000000E+00  0.99999998245E-14  0.12500000000E+03  0.12500000000E+03 0.  0.
        -11    1    3    3    0    0  0.49077576508E+02 -0.13999901173E+02  0.74092573959E+01  0.51570367889E+02  0.51100000000E-03 0. -1.
         23    2    1    0    0    0  0.39267721750E+01 -0.25786696988E+02 -0.56056913042E+00  0.98910011135E+02  0.95407037391E+02 0.  0.
         11    1    3    3    0    0 -0.45150804333E+02 -0.11786795815E+02 -0.79698265263E+01  0.47339643246E+02  0.51100000000E-03 0.  1.
         22    1    1    0    0    0 -0.39267721750E+01  0.25786696988E+02  0.56056913042E+00  0.26089988865E+02  0.00000000000E+00 0. -1.
</event>
<event>
 5    1  0.1717510E-003  0.9118800E+02  0.7818608E-02  0.1130116E+00
         25   -1    0    0    0    0  0.00000000000E+00  0.00000000000E+00  0.99999998245E-14  0.12500000000E+03  0.12500000000E+03 0.  0.
        -11    1    3    3    0    0  0.68357068951E+01  0.47517460714E+02 -0.22572916987E+02  0.53048775132E+02  0.51100000000E-03 0.  1.
         23    2    1    0    0    0  0.20981348610E+02  0.20332550210E+02  0.62537353030E+01  0.95121265208E+02  0.90306789899E+02 0.  0.
         11    1    3    3    0    0  0.14145641715E+02 -0.27184910504E+02  0.28826652290E+02  0.42072490075E+02  0.51100000000E-03 0. -1.
         22    1    1    0    0    0 -0.20981348610E+02 -0.20332550210E+02 -0.62537353030E+01  0.29878734792E+02  0.00000000000E+00 0.  1.
</event>
<event>
 5    1  0.1717510E-003  0.9118800E+02  0.7818608E-02  0.1130116E+00
         25   -1    0    0    0    0  0.00000000000E+00  0.00000000000E+00  0.99999998245E-14  0.12500000000E+03  0.12500000000E+03 0.  0.
        -11    1    3    3    0    0 -0.44899111174E+02  0.61984212336E+01  0.75109162062E+01  0.45943056848E+02  0.51100000000E-03 0.  1.
         23    2    1    0    0    0 -0.10524839955E+02 -0.25802951248E+02  0.14762692889E+02  0.93464279768E+02  0.87983350369E+02 0.  0.
         11    1    3    3    0    0  0.34374271219E+02 -0.32001372482E+02  0.72517766831E+01  0.47521222921E+02  0.51100000000E-03 0. -1.
         22    1    1    0    0    0  0.10524839955E+02  0.25802951248E+02 -0.14762692889E+02  0.31535720232E+02  0.00000000000E+00 0.  1.
</event>
<event>
 5    1  0.1717510E-003  0.9118800E+02  0.7818608E-02  0.1130116E+00
         25   -1    0    0    0    0  0.00000000000E+00  0.00000000000E+00  0.99999998245E-14  0.12500000000E+03  0.12500000000E+03 0.  0.
        -11    1    3    3    0    0 -0.70676735397E+01  0.14865111581E+02 -0.30742677085E+02  0.34871704091E+02  0.51100000000E-03 0.  1.
         23    2    1    0    0    0  0.75963596168E+01 -0.14052579821E+02  0.22617390217E+02  0.97310182029E+02  0.93287434884E+02 0.  0.
         11    1    3    3    0    0  0.14664033157E+02 -0.28917691401E+02  0.53360067303E+02  0.62438477938E+02  0.51100000000E-03 0. -1.
         22    1    1    0    0    0 -0.75963596168E+01  0.14052579821E+02 -0.22617390217E+02  0.27689817971E+02  0.00000000000E+00 0. -1.
</event>
<event>
 5    1  0.1717510E-003  0.9118800E+02  0.7818608E-02  0.1130116E+00
         25   -1    0    0    0    0  0.00000000000E+00  0.00000000000E+00  0.99999998245E-14  0.12500000000E+03  0.12500000000E+03 0.  0.
        -11    1    3    3    0    0 -0.49745203013E+02  0.69750368113E+01 -0.90637750176E+01  0.51043005194E+02  0.51100000000E-03 0. -1.
         23    2    1    0    0    0 -0.97666088406E+01  0.47033024381E+01 -0.27732553828E+02  0.95224133197E+02  0.90449064667E+02 0.  0.
         11    1    3    3    0    0  0.39978594173E+02 -0.22717343733E+01 -0.18668778810E+02  0.44181128003E+02  0.51100000000E-03 0.  1.
         22    1    1    0    0    0  0.97666088406E+01 -0.47033024381E+01  0.27732553828E+02  0.29775866803E+02  0.00000000000E+00 0.  1.
</event>
<event>
 5    1  0.1717510E-003  0.9118800E+02  0.7818608E-02  0.1130116E+00
         25   -1    0    0    0    0  0.00000000000E+00  0.00000000000E+00  0.99999998245E-14  0.12500000000E+03  0.12500000000E+03 0.  0.
        -11    1    3    3    0    0  0.30175494648E+02  0.19146938213E+02 -0.47376731985E+02  0.59344085249E+02  0.51100000000E-03 0. -1.
         23    2    1    0    0    0  0.24900815238E+02  0.27228772758E+01 -0.15631108849E+02  0.95473804444E+02  0.90793453018E+02 0.  0.
         11    1    3    3    0    0 -0.52746794098E+01 -0.16424060937E+02  0.31745623136E+02  0.36129719195E+02  0.51100000000E-03 0.  1.
         22    1    1    0    0    0 -0.24900815238E+02 -0.27228772758E+01  0.15631108849E+02  0.29526195556E+02  0.00000000000E+00 0. -1.
</event>
<event>
 5    1  0.1717510E-003  0.9118800E+02  0.7818608E-02  0.1130116E+00
         25   -1    0    0    0    0  0.00000000000E+00  0.00000000000E+00  0.99999998245E-14  0.12500000000E+03  0.12500000000E+03 0.  0.
        -11    1    3    3    0    0 -0.71537008598E+01  0.20793497581E+02  0.42302298393E+02  0.47676298380E+02  0.51100000000E-03 0. -1.
         23    2    1    0    0    0 -0.29553523321E+02 -0.11327041050E+01  0.33663805582E+02  0.80189894382E+02  0.66501681148E+02 0.  0.
         11    1    3    3    0    0 -0.22399822461E+02 -0.21926201686E+02 -0.86384928110E+01  0.32513596002E+02  0.51100000000E-03 0.  1.
         22    1    1    0    0    0  0.29553523321E+02  0.11327041050E+01 -0.33663805582E+02  0.44810105618E+02  0.00000000000E+00 0. -1.
</event>
<event>
 5    1  0.1717510E-003  0.9118800E+02  0.7818608E-02  0.1130116E+00
         25   -1    0    0    0    0  0.00000000000E+00  0.00000000000E+00  0.99999998245E-14  0.12500000000E+03  0.12500000000E+03 0.  0.
        -11    1    3    3    0    0  0.82408971305E+01  0.23368911661E+02 -0.45618747752E+02  0.51914242404E+02  0.51100000000E-03 0. -1.
         23    2    1    0    0    0 -0.15919886455E+02 -0.64717539870E+01 -0.22338244609E+02  0.96816253680E+02  0.92623233695E+02 0.  0.
         11    1    3    3    0    0 -0.24160783585E+02 -0.29840665648E+02  0.23280503143E+02  0.44902011276E+02  0.51100000000E-03 0.  1.
         22    1    1    0    0    0  0.15919886455E+02  0.64717539870E+01  0.22338244609E+02  0.28183746320E+02  0.00000000000E+00 0. -1.
</event>
<event>
 5    1  0.1717510E-003  0.9118800E+02  0.7818608E-02  0.1130116E+00
         25   -1    0    0    0    0  0.00000000000E+00  0.00000000000E+00  0.99999998245E-14  0.12500000000E+03  0.12500000000E+03 0.  0.
        -11    1    3    3    0    0 -0.24271481792E+02  0.12606103479E+01  0.49873106533E+02  0.55479912783E+02  0.51100000000E-03 0. -1.
         23    2    1    0    0    0 -0.15654453353E+02  0.18888337488E+02  0.13029849723E+02  0.97222163752E+02  0.93169420616E+02 0.  0.
         11    1    3    3    0    0  0.86170284393E+01  0.17627727140E+02 -0.36843256811E+02  0.41742250969E+02  0.51100000000E-03 0.  1.
         22    1    1    0    0    0  0.15654453353E+02 -0.18888337488E+02 -0.13029849723E+02  0.27777836248E+02  0.00000000000E+00 0. -1.
</event>
<event>
 5    1  0.1717510E-003  0.9118800E+02  0.7818608E-02  0.1130116E+00
         25   -1    0    0    0    0  0.00000000000E+00  0.00000000000E+00  0.99999998245E-14  0.12500000000E+03  0.12500000000E+03 0.  0.
        -11    1    3    3    0    0 -0.25943121484E+02 -0.44249965667E+02  0.26098691464E+02  0.57552121683E+02  0.51100000000E-03 0.  1.
         23    2    1    0    0    0  0.29568566610E+01 -0.29224769875E+02  0.93797879428E+01  0.94164783162E+02  0.88973005966E+02 0.  0.
         11    1    3    3    0    0  0.28899978145E+02  0.15025195792E+02 -0.16718903521E+02  0.36612661479E+02  0.51100000000E-03 0. -1.
         22    1    1    0    0    0 -0.29568566610E+01  0.29224769875E+02 -0.93797879428E+01  0.30835216838E+02  0.00000000000E+00 0.  1.
</event>
<event>
 5    1  0.1717510E-003  0.9118800E+02  0.7818608E-02  0.1130116E+00
         25   -1    0    0    0    0  0.00000000000E+00  0.00000000000E+00  0.99999998245E-14  0.12500000000E+03  0.12500000000E+03 0.  0.
        -11    1    3    3    0    0  0.13713099861E+02 -0.35111603983E+02 -0.31121580948E+02  0.48881761866E+02  0.51100000000E-03 0. -1.
         23    2    1    0    0    0 -0.17845075964E+02 -0.23642307962E+02  0.10172359541E+01  0.95361507614E+02  0.90638716360E+02 0.  0.
         11    1    3    3    0    0 -0.31558175825E+02  0.11469296021E+02  0.32138816903E+02  0.46479745748E+02  0.51100000000E-03 0.  1.
         22    1    1    0    0    0  0.17845075964E+02  0.23642307962E+02 -0.10172359541E+01  0.29638492386E+02  0.00000000000E+00 0. -1.
</event>
<event>
 5    1  0.1717510E-003  0.9118800E+02  0.7818608E-02  0.1130116E+00
         25   -1    0    0    0    0  0.00000000000E+00  0.00000000000E+00  0.99999998245E-14  0.12500000000E+03  0.12500000000E+03 0.  0.
        -11    1    3    3    0    0 -0.29936084854E+02  0.29609968298E+02  0.45353015367E+02  0.61885502359E+02  0.51100000000E-03 0. -1.
         23    2    1    0    0    0 -0.19589514377E+02  0.12724618440E+02  0.18771622273E+02  0.95032704648E+02  0.90184123669E+02 0.  0.
         11    1    3    3    0    0  0.10346570477E+02 -0.16885349859E+02 -0.26581393095E+02  0.33147202289E+02  0.51100000000E-03 0.  1.
         22    1    1    0    0    0  0.19589514377E+02 -0.12724618440E+02 -0.18771622273E+02  0.29967295352E+02  0.00000000000E+00 0. -1.
</event>
<event>
 5    1  0.1717510E-003  0.9118800E+02  0.7818608E-02  0.1130116E+00
         25   -1    0    0    0    0  0.00000000000E+00  0.00000000000E+00  0.99999998245E-14  0.12500000000E+03  0.12500000000E+03 0.  0.
        -11    1    3    3    0    0  0.21141101157E+02 -0.26772846634E+02  0.68636527789E+01  0.34797143629E+02  0.51100000000E-03 0. -1.
         23    2    1    0    0    0 -0.97957079061E+01  0.25042717124E+02  0.12378898380E+02  0.95397116704E+02  0.90687811618E+02 0.  0.
         11    1    3    3    0    0 -0.30936809063E+02  0.51815563757E+02  0.55152456010E+01  0.60599973076E+02  0.51100000000E-03 0.  1.
         22    1    1    0    0    0  0.97957079061E+01 -0.25042717124E+02 -0.12378898380E+02  0.29602883296E+02  0.00000000000E+00 0.  1.
</event>
<event>
 5    1  0.1717510E-003  0.9118800E+02  0.7818608E-02  0.1130116E+00
         25   -1    0    0    0    0  0.00000000000E+00  0.00000000000E+00  0.99999998245E-14  0.12500000000E+03  0.12500000000E+03 0.  0.
        -11    1    3    3    0    0  0.33031664828E+02  0.29021627333E+02 -0.93521788564E+01  0.44953409036E+02  0.51100000000E-03 0.  1.
         23    2    1    0    0    0  0.13006292177E+01 -0.44863163693E+01 -0.29373493713E+02  0.95257424391E+02  0.90495061179E+02 0.  0.
         11    1    3    3    0    0 -0.31731035610E+02 -0.33507943702E+02 -0.20021314857E+02  0.50304015355E+02  0.51100000000E-03 0. -1.
         22    1    1    0    0    0 -0.13006292177E+01  0.44863163693E+01  0.29373493713E+02  0.29742575609E+02  0.00000000000E+00 0. -1.
</event>
<event>
 5    1  0.1717510E-003  0.9118800E+02  0.7818608E-02  0.1130116E+00
         25   -1    0    0    0    0  0.00000000000E+00  0.00000000000E+00  0.99999998245E-14  0.12500000000E+03  0.12500000000E+03 0.  0.
        -11    1    3    3    0    0 -0.37999518616E+02  0.30734282492E+02  0.68651854692E+01  0.49352713270E+02  0.51100000000E-03 0.  1.
         23    2    1    0    0    0  0.51882675901E+01  0.21106427097E+02  0.19952727960E+02  0.95495581036E+02  0.90823429020E+02 0.  0.
         11    1    3    3    0    0  0.43187786207E+02 -0.96278553946E+01  0.13087542490E+02  0.46142867765E+02  0.51100000000E-03 0. -1.
         22    1    1    0    0    0 -0.51882675901E+01 -0.21106427097E+02 -0.19952727960E+02  0.29504418964E+02  0.00000000000E+00 0. -1.
</event>
<event>
 5    1  0.1717510E-003  0.9118800E+02  0.7818608E-02  0.1130116E+00
         25   -1    0    0    0    0  0.00000000000E+00  0.00000000000E+00  0.99999998245E-14  0.12500000000E+03  0.12500000000E+03 0.  0.
        -11    1    3    3    0    0 -0.11571811092E+02  0.51788555393E+02  0.16781382098E+02  0.55655871810E+02  0.51100000000E-03 0. -1.
         23    2    1    0    0    0  0.13607731197E+02  0.26543521861E+02 -0.25077622309E+00  0.95170622034E+02  0.90375082344E+02 0.  0.
         11    1    3    3    0    0  0.25179542289E+02 -0.25245033532E+02 -0.17032158321E+02  0.39514750224E+02  0.51100000000E-03 0.  1.
         22    1    1    0    0    0 -0.13607731197E+02 -0.26543521861E+02  0.25077622309E+00  0.29829377966E+02  0.00000000000E+00 0.  1.
</event>
<event>
 5    1  0.1717510E-003  0.9118800E+02  0.7818608E-02  0.1130116E+00
         25   -1    0    0    0    0  0.00000000000E+00  0.00000000000E+00  0.99999998245E-14  0.12500000000E+03  0.12500000000E+03 0.  0.
        -11    1    3    3    0    0 -0.17142360463E+02 -0.11416260149E+02 -0.55874420658E+02  0.59549495398E+02  0.51100000000E-03 0. -1.
         23    2    1    0    0    0 -0.24126612438E+02 -0.85873520945E+01 -0.35868560593E+02  0.80927449781E+02  0.67873871595E+02 0.  0.
         11    1    3    3    0    0 -0.69842519757E+01  0.28289080544E+01  0.20005860064E+02  0.21377954383E+02  0.51100000000E-03 0.  1.
         22    1    1    0    0    0  0.24126612438E+02  0.85873520945E+01  0.35868560593E+02  0.44072550219E+02  0.00000000000E+00 0. -1.
</event>
<event>
 5    1  0.1717510E-003  0.9118800E+02  0.7818608E-02  0.1130116E+00
         25   -1    0    0    0    0  0.00000000000E+00  0.00000000000E+00  0.99999998245E-14  0.12500000000E+03  0.12500000000E+03 0.  0.
        -11    1    3    3    0    0  0.16981929862E+02  0.28160415640E+02  0.10673934521E+02  0.34573513407E+02  0.51100000000E-03 0.  1.
         23    2    1    0    0    0  0.54763467155E+01 -0.27760310697E+02 -0.95419604447E+01  0.95139085204E+02  0.90331452446E+02 0.  0.
         11    1    3    3    0    0 -0.11505583147E+02 -0.55920726337E+02 -0.20215894966E+02  0.60565571797E+02  0.51100000000E-03 0. -1.
         22    1    1    0    0    0 -0.54763467155E+01  0.27760310697E+02  0.95419604447E+01  0.29860914796E+02  0.00000000000E+00 0. -1.
</event>
<event>
 5    1  0.1717510E-003  0.9118800E+02  0.7818608E-02  0.1130116E+00
         25   -1    0    0    0    0  0.00000000000E+00  0.00000000000E+00  0.99999998245E-14  0.12500000000E+03  0.12500000000E+03 0.  0.
        -11    1    3    3    0    0  0.39300140523E+02  0.85536643343E+01 -0.37055892575E+02  0.54688256450E+02  0.51100000000E-03 0.  1.
         23    2    1    0    0    0  0.17881489049E+02 -0.18151858213E+02 -0.14532077213E+02  0.95667102507E+02  0.91059187493E+02 0.  0.
         11    1    3    3    0    0 -0.21418651474E+02 -0.26705522547E+02  0.22523815362E+02  0.40978846058E+02  0.51100000000E-03 0. -1.
         22    1    1    0    0    0 -0.17881489049E+02  0.18151858213E+02  0.14532077213E+02  0.29332897493E+02  0.00000000000E+00 0.  1.
</event>
<event>
 5    1  0.1717510E-003  0.9118800E+02  0.7818608E-02  0.1130116E+00
         25   -1    0    0    0    0  0.00000000000E+00  0.00000000000E+00  0.99999998245E-14  0.12500000000E+03  0.12500000000E+03 0.  0.
        -11    1    3    3    0    0  0.39279519488E+02 -0.95005903412E+01  0.43906345746E+02  0.59673353057E+02  0.51100000000E-03 0.  1.
         23    2    1    0    0    0  0.24762201865E+02  0.50679498566E+01  0.13604336358E+02  0.96295841335E+02  0.91918226341E+02 0.  0.
         11    1    3    3    0    0 -0.14517317623E+02  0.14568540198E+02 -0.30302009388E+02  0.36622488278E+02  0.51100000000E-03 0. -1.
         22    1    1    0    0    0 -0.24762201865E+02 -0.50679498566E+01 -0.13604336358E+02  0.28704158665E+02  0.00000000000E+00 0.  1.
</event>
<event>
 5    1  0.1717510E-003  0.9118800E+02  0.7818608E-02  0.1130116E+00
         25   -1    0    0    0    0  0.00000000000E+00  0.00000000000E+00  0.99999998245E-14  0.12500000000E+03  0.12500000000E+03 0.  0.
        -11    1    3    3    0    0 -0.23189142184E+02 -0.34726531046E+02  0.19135664115E+01  0.41801076665E+02  0.51100000000E-03 0.  1.
         23    2    1    0    0    0 -0.21999683671E+02  0.18207700215E+02  0.86166192796E+01  0.95171279669E+02  0.90375991930E+02 0.  0.
         11    1    3    3    0    0  0.11894585122E+01  0.52934231261E+02  0.67030528681E+01  0.53370203004E+02  0.51100000000E-03 0. -1.
         22    1    1    0    0    0  0.21999683671E+02 -0.18207700215E+02 -0.86166192796E+01  0.29828720331E+02  0.00000000000E+00 0. -1.
</event>
<event>
 5    1  0.1717510E-003  0.9118800E+02  0.7818608E-02  0.1130116E+00
         25   -1    0    0    0    0  0.00000000000E+00  0.00000000000E+00  0.99999998245E-14  0.12500000000E+03  0.12500000000E+03 0.  0.
        -11    1    3    3    0    0 -0.31245417453E+01  0.14356308665E+02 -0.37930241804E+02  0.40676401060E+02  0.51100000000E-03 0. -1.
         23    2    1    0    0    0  0.30486755013E+02 -0.10067042153E-01  0.15424856154E+01  0.94474247029E+02  0.89406720985E+02 0.  0.
         11    1    3    3    0    0  0.33611296759E+02 -0.14366375707E+02  0.39472727419E+02  0.53797845969E+02  0.51100000000E-03 0.  1.
         22    1    1    0    0    0 -0.30486755013E+02  0.10067042153E-01 -0.15424856154E+01  0.30525752971E+02  0.00000000000E+00 0. -1.
</event>
<event>
 5    1  0.1717510E-003  0.9118800E+02  0.7818608E-02  0.1130116E+00
         25   -1    0    0    0    0  0.00000000000E+00  0.00000000000E+00  0.99999998245E-14  0.12500000000E+03  0.12500000000E+03 0.  0.
        -11    1    3    3    0    0 -0.22609981523E+01 -0.16172119642E+02 -0.48372187303E+02  0.51054070074E+02  0.51100000000E-03 0. -1.
         23    2    1    0    0    0  0.24961251254E+02 -0.82519128537E+01 -0.15429285832E+02  0.94516873664E+02  0.89466297654E+02 0.  0.
         11    1    3    3    0    0  0.27222249406E+02  0.79202067879E+01  0.32942901471E+02  0.43462803590E+02  0.51100000000E-03 0.  1.
         22    1    1    0    0    0 -0.24961251254E+02  0.82519128537E+01  0.15429285832E+02  0.30483126336E+02  0.00000000000E+00 0. -1.
</event>
<event>
 5    1  0.1717510E-003  0.9118800E+02  0.7818608E-02  0.1130116E+00
         25   -1    0    0    0    0  0.00000000000E+00  0.00000000000E+00  0.99999998245E-14  0.12500000000E+03  0.12500000000E+03 0.  0.
        -11    1    3    3    0    0 -0.29745604955E+02 -0.27938061281E+02  0.14711214767E+02  0.43379213022E+02  0.51100000000E-03 0.  1.
         23    2    1    0    0    0  0.71627763244E+01 -0.19674110602E+02 -0.20963483524E+02  0.95371573884E+02  0.90652597706E+02 0.  0.
         11    1    3    3    0    0  0.36908381279E+02  0.82639506790E+01 -0.35674698291E+02  0.51992360861E+02  0.51100000000E-03 0. -1.
         22    1    1    0    0    0 -0.71627763244E+01  0.19674110602E+02  0.20963483524E+02  0.29628426116E+02  0.00000000000E+00 0. -1.
</event>
<event>
 5    1  0.1717510E-003  0.9118800E+02  0.7818608E-02  0.1130116E+00
         25   -1    0    0    0    0  0.00000000000E+00  0.00000000000E+00  0.99999998245E-14  0.12500000000E+03  0.12500000000E+03 0.  0.
        -11    1    3    3    0    0  0.26540915978E+02 -0.10126510147E+02 -0.18835913663E+02  0.34084572353E+02  0.51100000000E-03 0.  1.
         23    2    1    0    0    0 -0.27856249308E+02  0.95080086487E+01  0.18566908682E+01  0.95507286409E+02  0.90839537660E+02 0.  0.
         11    1    3    3    0    0 -0.54397165286E+02  0.19634518795E+02  0.20692604531E+02  0.61422714056E+02  0.51100000000E-03 0. -1.
         22    1    1    0    0    0  0.27856249308E+02 -0.95080086487E+01 -0.18566908682E+01  0.29492713591E+02  0.00000000000E+00 0. -1.
</event>
<event>
 5    1  0.1717510E-003  0.9118800E+02  0.7818608E-02  0.1130116E+00
         25   -1    0    0    0    0  0.00000000000E+00  0.00000000000E+00  0.99999998245E-14  0.12500000000E+03  0.12500000000E+03 0.  0.
        -11    1    3    3    0    0 -0.19769975311E+02 -0.25396302624E+02  0.18332084532E+02  0.37039025828E+02  0.51100000000E-03 0. -1.
         23    2    1    0    0    0 -0.41258848661E+01  0.25217572860E+02 -0.10524243059E+02  0.97364721843E+02  0.93360486613E+02 0.  0.
         11    1    3    3    0    0  0.15644090445E+02  0.50613875484E+02 -0.28856327591E+02  0.60325696014E+02  0.51100000000E-03 0.  1.
         22    1    1    0    0    0  0.41258848661E+01 -0.25217572860E+02  0.10524243059E+02  0.27635278157E+02  0.00000000000E+00 0.  1.
</event>
<event>
 5    1  0.1717510E-003  0.9118800E+02  0.7818608E-02  0.1130116E+00
         25   -1    0    0    0    0  0.00000000000E+00  0.00000000000E+00  0.99999998245E-14  0.12500000000E+03  0.12500000000E+03 0.  0.
        -11    1    3    3    0    0 -0.47916298950E+02  0.69968201573E+01 -0.81678865242E+01  0.49108467375E+02  0.51100000000E-03 0.  1.
         23    2    1    0    0    0 -0.52356821852E+01  0.94464419195E+01 -0.27072489580E+02  0.95852661786E+02  0.91313555656E+02 0.  0.
         11    1    3    3    0    0  0.42680616765E+02  0.24496217621E+01 -0.18904603056E+02  0.46744194411E+02  0.51100000000E-03 0. -1.
         22    1    1    0    0    0  0.52356821852E+01 -0.94464419195E+01  0.27072489580E+02  0.29147338214E+02  0.00000000000E+00 0.  1.
</event>
<event>
 5    1  0.1717510E-003  0.9118800E+02  0.7818608E-02  0.1130116E+00
         25   -1    0    0    0    0  0.00000000000E+00  0.00000000000E+00  0.99999998245E-14  0.12500000000E+03  0.12500000000E+03 0.  0.
        -11    1    3    3    0    0  0.23998944238E+01 -0.40907616149E+02  0.37538799050E+02  0.55572960931E+02  0.51100000000E-03 0.  1.
         23    2    1    0    0    0  0.20168042877E+02 -0.20485374301E+02  0.29496282820E+02  0.83812244369E+02  0.72993568842E+02 0.  0.
         11    1    3    3    0    0  0.17768148453E+02  0.20422241848E+02 -0.80425162297E+01  0.28239283438E+02  0.51100000000E-03 0. -1.
         22    1    1    0    0    0 -0.20168042877E+02  0.20485374301E+02 -0.29496282820E+02  0.41187755631E+02  0.00000000000E+00 0.  1.
</event>
<event>
 5    1  0.1717510E-003  0.9118800E+02  0.7818608E-02  0.1130116E+00
         25   -1    0    0    0    0  0.00000000000E+00  0.00000000000E+00  0.99999998245E-14  0.12500000000E+03  0.12500000000E+03 0.  0.
        -11    1    3    3    0    0 -0.21206811253E+02  0.25790921198E+02 -0.13536941302E+02  0.36029838188E+02  0.51100000000E-03 0.  1.
         23    2    1    0    0    0  0.16817664552E+02 -0.21328129895E+02 -0.71486038910E+01  0.96913962483E+02  0.92755003212E+02 0.  0.
         11    1    3    3    0    0  0.38024475805E+02 -0.47119051093E+02  0.63883374106E+01  0.60884124296E+02  0.51100000000E-03 0. -1.
         22    1    1    0    0    0 -0.16817664552E+02  0.21328129895E+02  0.71486038910E+01  0.28086037517E+02  0.00000000000E+00 0. -1.
</event>
<event>
 5    1  0.1717510E-003  0.9118800E+02  0.7818608E-02  0.1130116E+00
         25   -1    0    0    0    0  0.00000000000E+00  0.00000000000E+00  0.99999998245E-14  0.12500000000E+03  0.12500000000E+03 0.  0.
        -11    1    3    3    0    0 -0.53509791770E+01 -0.43135781833E+02  0.30128339071E+02  0.52887101149E+02  0.51100000000E-03 0.  1.
         23    2    1    0    0    0 -0.25314189292E+02 -0.10862098272E+02  0.11741122033E+02  0.95055930387E+02  0.90216310038E+02 0.  0.
         11    1    3    3    0    0 -0.19963210115E+02  0.32273683561E+02 -0.18387217038E+02  0.42168829239E+02  0.51100000000E-03 0. -1.
         22    1    1    0    0    0  0.25314189292E+02  0.10862098272E+02 -0.11741122033E+02  0.29944069613E+02  0.00000000000E+00 0.  1.
</event>
<event>
 5    1  0.1717510E-003  0.9118800E+02  0.7818608E-02  0.1130116E+00
         25   -1    0    0    0    0  0.00000000000E+00  0.00000000000E+00  0.99999998245E-14  0.12500000000E+03  0.12500000000E+03 0.  0.
        -11    1    3    3    0    0  0.16689648754E+02 -0.30169739449E+02  0.86997257734E+01  0.35559004243E+02  0.51100000000E-03 0.  1.
         23    2    1    0    0    0 -0.17225700127E+02  0.16081665146E+02 -0.14392339587E+02  0.97386884682E+02  0.93390155640E+02 0.  0.
         11    1    3    3    0    0 -0.33915348882E+02  0.46251404595E+02 -0.23092065361E+02  0.61827880440E+02  0.51100000000E-03 0. -1.
         22    1    1    0    0    0  0.17225700127E+02 -0.16081665146E+02  0.14392339587E+02  0.27613115318E+02  0.00000000000E+00 0. -1.
</event>
<event>
 5    1  0.1717510E-003  0.9118800E+02  0.7818608E-02  0.1130116E+00
         25   -1    0    0    0    0  0.00000000000E+00  0.00000000000E+00  0.99999998245E-14  0.12500000000E+03  0.12500000000E+03 0.  0.
        -11    1    3    3    0    0  0.42346143152E+01  0.21037362076E+02 -0.33486846429E+02  0.39772747523E+02  0.51100000000E-03 0.  1.
         23    2    1    0    0    0 -0.30034057117E+02 -0.31973476661E+01  0.19914325159E+01  0.94730652097E+02  0.89764486431E+02 0.  0.
         11    1    3    3    0    0 -0.34268671432E+02 -0.24234709742E+02  0.35478278945E+02  0.54957904574E+02  0.51100000000E-03 0. -1.
         22    1    1    0    0    0  0.30034057117E+02  0.31973476661E+01 -0.19914325159E+01  0.30269347903E+02  0.00000000000E+00 0. -1.
</event>
<event>
 5    1  0.1717510E-003  0.9118800E+02  0.7818608E-02  0.1130116E+00
         25   -1    0    0    0    0  0.00000000000E+00  0.00000000000E+00  0.99999998245E-14  0.12500000000E+03  0.12500000000E+03 0.  0.
        -11    1    3    3    0    0  0.39078667345E+02  0.56782085553E+01  0.86124953318E+01  0.40417315224E+02  0.51100000000E-03 0.  1.
         23    2    1    0    0    0 -0.14545154108E+02 -0.67393288678E+01  0.22677429793E+02  0.97228685957E+02  0.93178170669E+02 0.  0.
         11    1    3    3    0    0 -0.53623821453E+02 -0.12417537423E+02  0.14064934462E+02  0.56811370733E+02  0.51100000000E-03 0. -1.
         22    1    1    0    0    0  0.14545154108E+02  0.67393288678E+01 -0.22677429793E+02  0.27771314043E+02  0.00000000000E+00 0. -1.
</event>
<event>
 5    1  0.1717510E-003  0.9118800E+02  0.7818608E-02  0.1130116E+00
         25   -1    0    0    0    0  0.00000000000E+00  0.00000000000E+00  0.99999998245E-14  0.12500000000E+03  0.12500000000E+03 0.  0.
        -11    1    3    3    0    0  0.14947369066E+02  0.37677240433E+02 -0.10227346972E+02  0.41804269100E+02  0.51100000000E-03 0.  1.
         23    2    1    0    0    0 -0.22702671691E+02  0.51286880002E+01  0.14705137060E+02  0.97469002951E+02  0.93500003946E+02 0.  0.
         11    1    3    3    0    0 -0.37650040758E+02 -0.32548552433E+02  0.24932484032E+02  0.55664733852E+02  0.51100000000E-03 0. -1.
         22    1    1    0    0    0  0.22702671691E+02 -0.51286880002E+01 -0.14705137060E+02  0.27530997049E+02  0.00000000000E+00 0.  1.
</event>
<event>
 5    1  0.1717510E-003  0.9118800E+02  0.7818608E-02  0.1130116E+00
         25   -1    0    0    0    0  0.00000000000E+00  0.00000000000E+00  0.99999998245E-14  0.12500000000E+03  0.12500000000E+03 0.  0.
        -11    1    3    3    0    0 -0.26098740271E+02 -0.24251459688E+02  0.40173557707E+01  0.35852708243E+02  0.51100000000E-03 0. -1.
         23    2    1    0    0    0  0.29106212338E+02 -0.95785564294E+00  0.21230646432E+01  0.95800745085E+02  0.91242458709E+02 0.  0.
         11    1    3    3    0    0  0.55204952609E+02  0.23293604045E+02 -0.18942911275E+01  0.59948036841E+02  0.51100000000E-03 0.  1.
         22    1    1    0    0    0 -0.29106212338E+02  0.95785564294E+00 -0.21230646432E+01  0.29199254915E+02  0.00000000000E+00 0.  1.
</event>
<event>
 5    1  0.1717510E-003  0.9118800E+02  0.7818608E-02  0.1130116E+00
         25   -1    0    0    0    0  0.00000000000E+00  0.00000000000E+00  0.99999998245E-14  0.12500000000E+03  0.12500000000E+03 0.  0.
        -11    1    3    3    0    0 -0.95449748883E+01  0.82325077959E+01 -0.35679097263E+02  0.37840173255E+02  0.51100000000E-03 0.  1.
         23    2    1    0    0    0  0.25119696228E+02 -0.53995528882E+01  0.10564115986E+02  0.97219523824E+02  0.93165878711E+02 0.  0.
         11    1    3    3    0    0  0.34664671117E+02 -0.13632060684E+02  0.46243213249E+02  0.59379350569E+02  0.51100000000E-03 0. -1.
         22    1    1    0    0    0 -0.25119696228E+02  0.53995528882E+01 -0.10564115986E+02  0.27780476176E+02  0.00000000000E+00 0. -1.
</event>
<event>
 5    1  0.1717510E-003  0.9118800E+02  0.7818608E-02  0.1130116E+00
         25   -1    0    0    0    0  0.00000000000E+00  0.00000000000E+00  0.99999998245E-14  0.12500000000E+03  0.12500000000E+03 0.  0.
        -11    1    3    3    0    0  0.48976434534E+02 -0.26237941766E+02  0.19885684431E+02  0.59013228800E+02  0.51100000000E-03 0.  1.
         23    2    1    0    0    0  0.27373437876E+02 -0.20117681121E+01 -0.86626520669E+00  0.97539069071E+02  0.93593628350E+02 0.  0.
         11    1    3    3    0    0 -0.21602996658E+02  0.24226173654E+02 -0.20751949638E+02  0.38525840271E+02  0.51100000000E-03 0. -1.
         22    1    1    0    0    0 -0.27373437876E+02  0.20117681121E+01  0.86626520669E+00  0.27460930929E+02  0.00000000000E+00 0.  1.
</event>
<event>
 5    1  0.1717510E-003  0.9118800E+02  0.7818608E-02  0.1130116E+00
         25   -1    0    0    0    0  0.00000000000E+00  0.00000000000E+00  0.99999998245E-14  0.12500000000E+03  0.12500000000E+03 0.  0.
        -11    1    3    3    0    0  0.46907169611E+00  0.14407519986E+02 -0.48371425231E+02  0.50473670756E+02  0.51100000000E-03 0.  1.
         23    2    1    0    0    0  0.11676634834E+02 -0.18530095471E+02 -0.18464390101E+02  0.96353151290E+02  0.91996129388E+02 0.  0.
         11    1    3    3    0    0  0.11207563138E+02 -0.32937615457E+02  0.29907035130E+02  0.45879480534E+02  0.51100000000E-03 0. -1.
         22    1    1    0    0    0 -0.11676634834E+02  0.18530095471E+02  0.18464390101E+02  0.28646848710E+02  0.00000000000E+00 0. -1.
</event>
<event>
 5    1  0.1717510E-003  0.9118800E+02  0.7818608E-02  0.1130116E+00
         25   -1    0    0    0    0  0.00000000000E+00  0.00000000000E+00  0.99999998245E-14  0.12500000000E+03  0.12500000000E+03 0.  0.
        -11    1    3    3    0    0  0.31518248235E+02  0.12772753357E+02 -0.17731059786E+02  0.38352753246E+02  0.51100000000E-03 0.  1.
         23    2    1    0    0    0 -0.67117954502E+01  0.11204642379E+02  0.25661857535E+02  0.96205501547E+02  0.91795290657E+02 0.  0.
         11    1    3    3    0    0 -0.38230043685E+02 -0.15681109788E+01  0.43392917321E+02  0.57852748302E+02  0.51100000000E-03 0. -1.
         22    1    1    0    0    0  0.67117954502E+01 -0.11204642379E+02 -0.25661857535E+02  0.28794498453E+02  0.00000000000E+00 0. -1.
</event>
<event>
 5    1  0.1717510E-003  0.9118800E+02  0.7818608E-02  0.1130116E+00
         25   -1    0    0    0    0  0.00000000000E+00  0.00000000000E+00  0.99999998245E-14  0.12500000000E+03  0.12500000000E+03 0.  0.
        -11    1    3    3    0    0  0.19016333497E+02 -0.30041042177E+02 -0.53457242248E+01  0.35953607921E+02  0.51100000000E-03 0.  1.
         23    2    1    0    0    0 -0.63678816765E+01  0.25487153359E+02 -0.92876743335E+01  0.97135940750E+02  0.93053668318E+02 0.  0.
         11    1    3    3    0    0 -0.25384215174E+02  0.55528195536E+02 -0.39419501087E+01  0.61182332829E+02  0.51100000000E-03 0. -1.
         22    1    1    0    0    0  0.63678816765E+01 -0.25487153359E+02  0.92876743335E+01  0.27864059250E+02  0.00000000000E+00 0. -1.
</event>
<event>
 5    1  0.1717510E-003  0.9118800E+02  0.7818608E-02  0.1130116E+00
         25   -1    0    0    0    0  0.00000000000E+00  0.00000000000E+00  0.99999998245E-14  0.12500000000E+03  0.12500000000E+03 0.  0.
        -11    1    3    3    0    0 -0.35454099216E+02 -0.14591689194E+02  0.11755714147E+02  0.40101213948E+02  0.51100000000E-03 0.  1.
         23    2    1    0    0    0  0.19084679908E+02 -0.41760306202E+01  0.20919480445E+02  0.96376776893E+02  0.92028225145E+02 0.  0.
         11    1    3    3    0    0  0.54538779123E+02  0.10415658573E+02  0.91637662981E+01  0.56275562945E+02  0.51100000000E-03 0. -1.
         22    1    1    0    0    0 -0.19084679908E+02  0.41760306202E+01 -0.20919480445E+02  0.28623223107E+02  0.00000000000E+00 0. -1.
</event>
<event>
 5    1  0.1717510E-003  0.9118800E+02  0.7818608E-02  0.1130116E+00
         25   -1    0    0    0    0  0.00000000000E+00  0.00000000000E+00  0.99999998245E-14  0.12500000000E+03  0.12500000000E+03 0.  0.
        -11    1    3    3    0    0 -0.45078345469E+02  0.27047071280E+02  0.15576719715E+02  0.54829148200E+02  0.51100000000E-03 0.  1.
         23    2    1    0    0    0 -0.47457088187E+01  0.24447232938E+02  0.16272240201E+02  0.95251474798E+02  0.90486842687E+02 0.  0.
         11    1    3    3    0    0  0.40332636650E+02 -0.25998383420E+01  0.69552048623E+00  0.40422326598E+02  0.51100000000E-03 0. -1.
         22    1    1    0    0    0  0.47457088187E+01 -0.24447232938E+02 -0.16272240201E+02  0.29748525202E+02  0.00000000000E+00 0.  1.
</event>
<event>
 5    1  0.1717510E-003  0.9118800E+02  0.7818608E-02  0.1130116E+00
         25   -1    0    0    0    0  0.00000000000E+00  0.00000000000E+00  0.99999998245E-14  0.12500000000E+03  0.12500000000E+03 0.  0.
        -11    1    3    3    0    0  0.87398903941E+01 -0.16780406947E+02  0.43504946603E+02  0.47440996202E+02  0.51100000000E-03 0. -1.
         23    2    1    0    0    0  0.55411367138E+01  0.22612005924E+02  0.85642673530E+01  0.10019367655E+03  0.97074296993E+02 0.  0.
         11    1    3    3    0    0 -0.31987536802E+01  0.39392412870E+02 -0.34940679250E+02  0.52752680345E+02  0.51100000000E-03 0.  1.
         22    1    1    0    0    0 -0.55411367138E+01 -0.22612005924E+02 -0.85642673530E+01  0.24806323453E+02  0.00000000000E+00 0. -1.
</event>
<event>
 5    1  0.1717510E-003  0.9118800E+02  0.7818608E-02  0.1130116E+00
         25   -1    0    0    0    0  0.00000000000E+00  0.00000000000E+00  0.99999998245E-14  0.12500000000E+03  0.12500000000E+03 0.  0.
        -11    1    3    3    0    0 -0.35469608139E+02  0.16437324451E+02  0.25011471904E+02  0.46409616069E+02  0.51100000000E-03 0. -1.
         23    2    1    0    0    0 -0.19062704239E+02  0.53843697592E+01 -0.20779842923E+02  0.96291464640E+02  0.91912274262E+02 0.  0.
         11    1    3    3    0    0  0.16406903899E+02 -0.11052954692E+02 -0.45791314827E+02  0.49881848571E+02  0.51100000000E-03 0.  1.
         22    1    1    0    0    0  0.19062704239E+02 -0.53843697592E+01  0.20779842923E+02  0.28708535360E+02  0.00000000000E+00 0.  1.
</event>
<event>
 5    1  0.1717510E-003  0.9118800E+02  0.7818608E-02  0.1130116E+00
         25   -1    0    0    0    0  0.00000000000E+00  0.00000000000E+00  0.99999998245E-14  0.12500000000E+03  0.12500000000E+03 0.  0.
        -11    1    3    3    0    0 -0.12368341137E+02 -0.13362821062E+01 -0.32441732581E+02  0.34745179889E+02  0.51100000000E-03 0. -1.
         23    2    1    0    0    0  0.20761452467E+02  0.11183920790E+02  0.17261135345E+02  0.95775613160E+02  0.91208022070E+02 0.  0.
         11    1    3    3    0    0  0.33129793604E+02  0.12520202896E+02  0.49702867927E+02  0.61030433271E+02  0.51100000000E-03 0.  1.
         22    1    1    0    0    0 -0.20761452467E+02 -0.11183920790E+02 -0.17261135345E+02  0.29224386840E+02  0.00000000000E+00 0.  1.
</event>
<event>
 5    1  0.1717510E-003  0.9118800E+02  0.7818608E-02  0.1130116E+00
         25   -1    0    0    0    0  0.00000000000E+00  0.00000000000E+00  0.99999998245E-14  0.12500000000E+03  0.12500000000E+03 0.  0.
        -11    1    3    3    0    0 -0.48486828802E+02  0.99129294719E+01 -0.24608067762E+02  0.55270206596E+02  0.51100000000E-03 0. -1.
         23    2    1    0    0    0 -0.26578741555E+02  0.17944370751E+02  0.45438288808E+01  0.92610552255E+02  0.86761962079E+02 0.  0.
         11    1    3    3    0    0  0.21908087246E+02  0.80314412789E+01  0.29151896643E+02  0.37340345659E+02  0.51100000000E-03 0.  1.
         22    1    1    0    0    0  0.26578741555E+02 -0.17944370751E+02 -0.45438288808E+01  0.32389447745E+02  0.00000000000E+00 0. -1.
</event>
<event>
 5    1  0.1717510E-003  0.9118800E+02  0.7818608E-02  0.1130116E+00
         25   -1    0    0    0    0  0.00000000000E+00  0.00000000000E+00  0.99999998245E-14  0.12500000000E+03  0.12500000000E+03 0.  0.
        -11    1    3    3    0    0  0.32347609030E+02 -0.16220533164E+02  0.11713335419E+02  0.38035190718E+02  0.51100000000E-03 0. -1.
         23    2    1    0    0    0 -0.45239974765E+00  0.22675213140E+02 -0.17181494057E+02  0.96546991468E+02  0.92259134329E+02 0.  0.
         11    1    3    3    0    0 -0.32800008777E+02  0.38895746304E+02 -0.28894829476E+02  0.58511800750E+02  0.51100000000E-03 0.  1.
         22    1    1    0    0    0  0.45239974765E+00 -0.22675213140E+02  0.17181494057E+02  0.28453008532E+02  0.00000000000E+00 0.  1.
</event>
<event>
 5    1  0.1717510E-003  0.9118800E+02  0.7818608E-02  0.1130116E+00
         25   -1    0    0    0    0  0.00000000000E+00  0.00000000000E+00  0.99999998245E-14  0.12500000000E+03  0.12500000000E+03 0.  0.
        -11    1    3    3    0    0 -0.16470745890E+02 -0.51278201798E+02 -0.63914647661E+00  0.53862305542E+02  0.51100000000E-03 0.  1.
         23    2    1    0    0    0 -0.15876760585E+02 -0.12380727530E+02 -0.19390259110E+02  0.97047610313E+02  0.92934937339E+02 0.  0.
         11    1    3    3    0    0  0.59398530497E+00  0.38897474267E+02 -0.18751112634E+02  0.43185304771E+02  0.51100000000E-03 0. -1.
         22    1    1    0    0    0  0.15876760585E+02  0.12380727530E+02  0.19390259110E+02  0.27952389687E+02  0.00000000000E+00 0.  1.
</event>
<event>
 5    1  0.1717510E-003  0.9118800E+02  0.7818608E-02  0.1130116E+00
         25   -1    0    0    0    0  0.00000000000E+00  0.00000000000E+00  0.99999998245E-14  0.12500000000E+03  0.12500000000E+03 0.  0.
        -11    1    3    3    0    0 -0.18679539280E+02 -0.43466070868E+02  0.24584633404E+02  0.53316308052E+02  0.51100000000E-03 0.  1.
         23    2    1    0    0    0 -0.33158032361E+02 -0.17966084361E+02  0.10464247341E+02  0.85862603948E+02  0.76424151857E+02 0.  0.
         11    1    3    3    0    0 -0.14478493081E+02  0.25499986507E+02 -0.14120386062E+02  0.32546295896E+02  0.51100000000E-03 0. -1.
         22    1    1    0    0    0  0.33158032361E+02  0.17966084361E+02 -0.10464247341E+02  0.39137396052E+02  0.00000000000E+00 0.  1.
</event>
<event>
 5    1  0.1717510E-003  0.9118800E+02  0.7818608E-02  0.1130116E+00
         25   -1    0    0    0    0  0.00000000000E+00  0.00000000000E+00  0.99999998245E-14  0.12500000000E+03  0.12500000000E+03 0.  0.
        -11    1    3    3    0    0 -0.51069618754E+02 -0.36187200719E+01  0.26042986573E+02  0.57440736804E+02  0.51100000000E-03 0.  1.
         23    2    1    0    0    0 -0.20436003630E+02  0.15639367680E+02  0.14713087058E+02  0.95357210041E+02  0.90632789377E+02 0.  0.
         11    1    3    3    0    0  0.30633615124E+02  0.19258087751E+02 -0.11329899516E+02  0.37916473237E+02  0.51100000000E-03 0. -1.
         22    1    1    0    0    0  0.20436003630E+02 -0.15639367680E+02 -0.14713087058E+02  0.29642789959E+02  0.00000000000E+00 0.  1.
</event>
<event>
 5    1  0.1717510E-003  0.9118800E+02  0.7818608E-02  0.1130116E+00
         25   -1    0    0    0    0  0.00000000000E+00  0.00000000000E+00  0.99999998245E-14  0.12500000000E+03  0.12500000000E+03 0.  0.
        -11    1    3    3    0    0 -0.32188169664E+02 -0.61970412613E+01 -0.14647315300E+02  0.35903000327E+02  0.51100000000E-03 0.  1.
         23    2    1    0    0    0  0.64129172287E+01  0.96824582898E+01  0.27455559862E+02  0.95189208778E+02  0.90400786471E+02 0.  0.
         11    1    3    3    0    0  0.38601086893E+02  0.15879499551E+02  0.42102875162E+02  0.59286208451E+02  0.51100000000E-03 0. -1.
         22    1    1    0    0    0 -0.64129172287E+01 -0.96824582898E+01 -0.27455559862E+02  0.29810791222E+02  0.00000000000E+00 0. -1.
</event>
<event>
 5    1  0.1717510E-003  0.9118800E+02  0.7818608E-02  0.1130116E+00
         25   -1    0    0    0    0  0.00000000000E+00  0.00000000000E+00  0.99999998245E-14  0.12500000000E+03  0.12500000000E+03 0.  0.
        -11    1    3    3    0    0  0.40893750778E+02 -0.71388493193E+01 -0.23753659090E+02  0.47827798849E+02  0.51100000000E-03 0. -1.
         23    2    1    0    0    0 -0.15499189709E+01 -0.20093146968E+02 -0.25812565263E+02  0.92252094276E+02  0.86243977001E+02 0.  0.
         11    1    3    3    0    0 -0.42443669749E+02 -0.12954297648E+02 -0.20589061724E+01  0.44424295427E+02  0.51100000000E-03 0.  1.
         22    1    1    0    0    0  0.15499189709E+01  0.20093146968E+02  0.25812565263E+02  0.32747905724E+02  0.00000000000E+00 0.  1.
</event>
<event>
 5    1  0.1717510E-003  0.9118800E+02  0.7818608E-02  0.1130116E+00
         25   -1    0    0    0    0  0.00000000000E+00  0.00000000000E+00  0.99999998245E-14  0.12500000000E+03  0.12500000000E+03 0.  0.
        -11    1    3    3    0    0  0.35317933806E+02  0.18564590637E+02 -0.46580044683E+02  0.61332707724E+02  0.51100000000E-03 0. -1.
         23    2    1    0    0    0  0.14854251419E+02  0.17366716109E+02 -0.23003735773E+02  0.92574339280E+02  0.86709773497E+02 0.  0.
         11    1    3    3    0    0 -0.20463682387E+02 -0.11978745280E+01  0.23576308909E+02  0.31241631556E+02  0.51100000000E-03 0.  1.
         22    1    1    0    0    0 -0.14854251419E+02 -0.17366716109E+02  0.23003735773E+02  0.32425660720E+02  0.00000000000E+00 0. -1.
</event>
<event>
 5    1  0.1717510E-003  0.9118800E+02  0.7818608E-02  0.1130116E+00
         25   -1    0    0    0    0  0.00000000000E+00  0.00000000000E+00  0.99999998245E-14  0.12500000000E+03  0.12500000000E+03 0.  0.
        -11    1    3    3    0    0 -0.20250022232E+02  0.57861230235E+02 -0.10093375085E+02  0.62127784328E+02  0.51100000000E-03 0.  1.
         23    2    1    0    0    0 -0.13332177596E+02  0.25250438272E+02 -0.69515561371E+01  0.95611979905E+02  0.90983487382E+02 0.  0.
         11    1    3    3    0    0  0.69178446361E+01 -0.32610791963E+02  0.31418189477E+01  0.33484195577E+02  0.51100000000E-03 0. -1.
         22    1    1    0    0    0  0.13332177596E+02 -0.25250438272E+02  0.69515561371E+01  0.29388020095E+02  0.00000000000E+00 0.  1.
</event>
<event>
 5    1  0.1717510E-003  0.9118800E+02  0.7818608E-02  0.1130116E+00
         25   -1    0    0    0    0  0.00000000000E+00  0.00000000000E+00  0.99999998245E-14  0.12500000000E+03  0.12500000000E+03 0.  0.
        -11    1    3    3    0    0  0.25269370485E+02  0.26955841885E+02  0.58907119236E+01  0.37414689410E+02  0.51100000000E-03 0.  1.
         23    2    1    0    0    0 -0.27894336297E+01 -0.20918360901E+02 -0.17451798648E+02  0.97615259015E+02  0.93695329413E+02 0.  0.
         11    1    3    3    0    0 -0.28058804115E+02 -0.47874202785E+02 -0.23342510572E+02  0.60200569605E+02  0.51100000000E-03 0. -1.
         22    1    1    0    0    0  0.27894336297E+01  0.20918360901E+02  0.17451798648E+02  0.27384740985E+02  0.00000000000E+00 0. -1.
</event>
<event>
 5    1  0.1717510E-003  0.9118800E+02  0.7818608E-02  0.1130116E+00
         25   -1    0    0    0    0  0.00000000000E+00  0.00000000000E+00  0.99999998245E-14  0.12500000000E+03  0.12500000000E+03 0.  0.
        -11    1    3    3    0    0 -0.90860678312E+01  0.42210411996E+02 -0.78277822502E+01  0.43881085728E+02  0.51100000000E-03 0. -1.
         23    2    1    0    0    0 -0.13107993760E+02  0.27115401679E+01  0.25814892363E+02  0.95921131071E+02  0.91407235861E+02 0.  0.
         11    1    3    3    0    0 -0.40219259285E+01 -0.39498871828E+02  0.33642674613E+02  0.52040045342E+02  0.51100000000E-03 0.  1.
         22    1    1    0    0    0  0.13107993760E+02 -0.27115401679E+01 -0.25814892363E+02  0.29078868929E+02  0.00000000000E+00 0.  1.
</event>
<event>
 5    1  0.1717510E-003  0.9118800E+02  0.7818608E-02  0.1130116E+00
         25   -1    0    0    0    0  0.00000000000E+00  0.00000000000E+00  0.99999998245E-14  0.12500000000E+03  0.12500000000E+03 0.  0.
        -11    1    3    3    0    0  0.29556099820E+02  0.15397108577E+02 -0.15241299200E+00  0.33326524257E+02  0.51100000000E-03 0.  1.
         23    2    1    0    0    0 -0.28877529304E+02 -0.28230989871E+01 -0.76523306636E+01  0.94992671709E+02  0.90128618803E+02 0.  0.
         11    1    3    3    0    0 -0.58433629123E+02 -0.18220207564E+02 -0.74999176716E+01  0.61666147452E+02  0.51100000000E-03 0. -1.
         22    1    1    0    0    0  0.28877529304E+02  0.28230989871E+01  0.76523306636E+01  0.30007328291E+02  0.00000000000E+00 0. -1.
</event>
<event>
 5    1  0.1717510E-003  0.9118800E+02  0.7818608E-02  0.1130116E+00
         25   -1    0    0    0    0  0.00000000000E+00  0.00000000000E+00  0.99999998245E-14  0.12500000000E+03  0.12500000000E+03 0.  0.
        -11    1    3    3    0    0  0.36552127325E+01  0.34274719491E+02  0.11463762100E+02  0.36325401829E+02  0.51100000000E-03 0. -1.
         23    2    1    0    0    0 -0.26778974763E+02 -0.13268133463E+02  0.12045636633E+02  0.92778047594E+02  0.87002941895E+02 0.  0.
         11    1    3    3    0    0 -0.30434187496E+02 -0.47542852955E+02  0.58187453332E+00  0.56452645765E+02  0.51100000000E-03 0.  1.
         22    1    1    0    0    0  0.26778974763E+02  0.13268133463E+02 -0.12045636633E+02  0.32221952406E+02  0.00000000000E+00 0.  1.
</event>
<event>
 5    1  0.1717510E-003  0.9118800E+02  0.7818608E-02  0.1130116E+00
         25   -1    0    0    0    0  0.00000000000E+00  0.00000000000E+00  0.99999998245E-14  0.12500000000E+03  0.12500000000E+03 0.  0.
        -11    1    3    3    0    0 -0.29570472461E+02  0.53029830907E+02  0.11126652115E+02  0.61728260911E+02  0.51100000000E-03 0. -1.
         23    2    1    0    0    0 -0.79391373940E+01  0.26879487592E+02  0.82302419768E+01  0.95789152036E+02  0.91226575125E+02 0.  0.
         11    1    3    3    0    0  0.21631335067E+02 -0.26150343315E+02 -0.28964101380E+01  0.34060891125E+02  0.51100000000E-03 0.  1.
         22    1    1    0    0    0  0.79391373940E+01 -0.26879487592E+02 -0.82302419768E+01  0.29210847964E+02  0.00000000000E+00 0. -1.
</event>
<event>
 5    1  0.1717510E-003  0.9118800E+02  0.7818608E-02  0.1130116E+00
         25   -1    0    0    0    0  0.00000000000E+00  0.00000000000E+00  0.99999998245E-14  0.12500000000E+03  0.12500000000E+03 0.  0.
        -11    1    3    3    0    0  0.16296050202E+02 -0.17305766175E+02  0.46394420489E+02  0.52129579394E+02  0.51100000000E-03 0. -1.
         23    2    1    0    0    0  0.28171048713E+02 -0.74064042442E+00  0.78253081314E+01  0.95752914997E+02  0.91176909079E+02 0.  0.
         11    1    3    3    0    0  0.11874998511E+02  0.16565125750E+02 -0.38569112358E+02  0.43623335602E+02  0.51100000000E-03 0.  1.
         22    1    1    0    0    0 -0.28171048713E+02  0.74064042442E+00 -0.78253081314E+01  0.29247085003E+02  0.00000000000E+00 0. -1.
</event>
<event>
 5    1  0.1717510E-003  0.9118800E+02  0.7818608E-02  0.1130116E+00
         25   -1    0    0    0    0  0.00000000000E+00  0.00000000000E+00  0.99999998245E-14  0.12500000000E+03  0.12500000000E+03 0.  0.
        -11    1    3    3    0    0 -0.41087904679E+02  0.17334927322E+02  0.78367110812E+01  0.45278357490E+02  0.51100000000E-03 0.  1.
         23    2    1    0    0    0 -0.78687018255E+01  0.29041694786E+01 -0.27723471387E+02  0.96035512528E+02  0.91563519657E+02 0.  0.
         11    1    3    3    0    0  0.33219202853E+02 -0.14430757843E+02 -0.35560182468E+02  0.50757155038E+02  0.51100000000E-03 0. -1.
         22    1    1    0    0    0  0.78687018255E+01 -0.29041694786E+01  0.27723471387E+02  0.28964487472E+02  0.00000000000E+00 0.  1.
</event>
<event>
 5    1  0.1717510E-003  0.9118800E+02  0.7818608E-02  0.1130116E+00
         25   -1    0    0    0    0  0.00000000000E+00  0.00000000000E+00  0.99999998245E-14  0.12500000000E+03  0.12500000000E+03 0.  0.
        -11    1    3    3    0    0 -0.89560729032E+01 -0.58204074626E+02  0.87650026412E+01  0.59537809974E+02  0.51100000000E-03 0.  1.
         23    2    1    0    0    0 -0.15564821117E+02 -0.24264093747E+02 -0.28937794245E+01  0.96027877863E+02  0.91553096429E+02 0.  0.
         11    1    3    3    0    0 -0.66087482136E+01  0.33939980879E+02 -0.11658782066E+02  0.36490067889E+02  0.51100000000E-03 0. -1.
         22    1    1    0    0    0  0.15564821117E+02  0.24264093747E+02  0.28937794245E+01  0.28972122137E+02  0.00000000000E+00 0.  1.
</event>
<event>
 5    1  0.1717510E-003  0.9118800E+02  0.7818608E-02  0.1130116E+00
         25   -1    0    0    0    0  0.00000000000E+00  0.00000000000E+00  0.99999998245E-14  0.12500000000E+03  0.12500000000E+03 0.  0.
        -11    1    3    3    0    0 -0.33632070944E+02  0.43137683856E+02  0.15157947142E+01  0.54719956125E+02  0.51100000000E-03 0. -1.
         23    2    1    0    0    0 -0.26344834172E+02  0.36393955856E+01  0.11370664588E+02  0.96076177622E+02  0.91619017707E+02 0.  0.
         11    1    3    3    0    0  0.72872367722E+01 -0.39498288270E+02  0.98548698743E+01  0.41356221498E+02  0.51100000000E-03 0.  1.
         22    1    1    0    0    0  0.26344834172E+02 -0.36393955856E+01 -0.11370664588E+02  0.28923822378E+02  0.00000000000E+00 0. -1.
</event>
<event>
 5    1  0.1717510E-003  0.9118800E+02  0.7818608E-02  0.1130116E+00
         25   -1    0    0    0    0  0.00000000000E+00  0.00000000000E+00  0.99999998245E-14  0.12500000000E+03  0.12500000000E+03 0.  0.
        -11    1    3    3    0    0 -0.29566741940E+02 -0.38455529349E+02  0.34190018834E+02  0.59346249710E+02  0.51100000000E-03 0.  1.
         23    2    1    0    0    0 -0.18019567145E+02 -0.60552512865E+01  0.22201295387E+02  0.95772129994E+02  0.91203248289E+02 0.  0.
         11    1    3    3    0    0  0.11547174795E+02  0.32400278063E+02 -0.11988723447E+02  0.36425880284E+02  0.51100000000E-03 0. -1.
         22    1    1    0    0    0  0.18019567145E+02  0.60552512865E+01 -0.22201295387E+02  0.29227870006E+02  0.00000000000E+00 0.  1.
</event>
<event>
 5    1  0.1717510E-003  0.9118800E+02  0.7818608E-02  0.1130116E+00
         25   -1    0    0    0    0  0.00000000000E+00  0.00000000000E+00  0.99999998245E-14  0.12500000000E+03  0.12500000000E+03 0.  0.
        -11    1    3    3    0    0 -0.22267156198E+02 -0.41245441178E+02 -0.27929876638E+02  0.54562722369E+02  0.51100000000E-03 0. -1.
         23    2    1    0    0    0  0.11620345490E+02 -0.19609091409E+02 -0.17946241799E+02  0.95989372811E+02  0.91500509303E+02 0.  0.
         11    1    3    3    0    0  0.33887501688E+02  0.21636349769E+02  0.99836348383E+01  0.41426650442E+02  0.51100000000E-03 0.  1.
         22    1    1    0    0    0 -0.11620345490E+02  0.19609091409E+02  0.17946241799E+02  0.29010627189E+02  0.00000000000E+00 0. -1.
</event>
<event>
 5    1  0.1717510E-003  0.9118800E+02  0.7818608E-02  0.1130116E+00
         25   -1    0    0    0    0  0.00000000000E+00  0.00000000000E+00  0.99999998245E-14  0.12500000000E+03  0.12500000000E+03 0.  0.
        -11    1    3    3    0    0 -0.89667180480E+01 -0.10891482740E+02 -0.33590204066E+02  0.36432516222E+02  0.51100000000E-03 0.  1.
         23    2    1    0    0    0 -0.12125823080E+02 -0.11964706116E+02  0.24797255940E+02  0.94915225113E+02  0.90021143507E+02 0.  0.
         11    1    3    3    0    0 -0.31591050322E+01 -0.10732233764E+01  0.58387460006E+02  0.58482708891E+02  0.51100000000E-03 0. -1.
         22    1    1    0    0    0  0.12125823080E+02  0.11964706116E+02 -0.24797255940E+02  0.30084774887E+02  0.00000000000E+00 0.  1.
</event>
<event>
 5    1  0.1717510E-003  0.9118800E+02  0.7818608E-02  0.1130116E+00
         25   -1    0    0    0    0  0.00000000000E+00  0.00000000000E+00  0.99999998245E-14  0.12500000000E+03  0.12500000000E+03 0.  0.
        -11    1    3    3    0    0  0.16813222885E+02  0.36510654301E+02  0.37937218263E+02  0.55271555714E+02  0.51100000000E-03 0. -1.
         23    2    1    0    0    0  0.25725795717E+02  0.79013107713E+01  0.98508194628E+01  0.96341913510E+02  0.91980858757E+02 0.  0.
         11    1    3    3    0    0  0.89125728314E+01 -0.28609343529E+02 -0.28086398801E+02  0.41070357796E+02  0.51100000000E-03 0.  1.
         22    1    1    0    0    0 -0.25725795717E+02 -0.79013107713E+01 -0.98508194628E+01  0.28658086490E+02  0.00000000000E+00 0. -1.
</event>
<event>
 5    1  0.1717510E-003  0.9118800E+02  0.7818608E-02  0.1130116E+00
         25   -1    0    0    0    0  0.00000000000E+00  0.00000000000E+00  0.99999998245E-14  0.12500000000E+03  0.12500000000E+03 0.  0.
        -11    1    3    3    0    0  0.41548992048E+02 -0.16553778580E+02  0.42058181269E+02  0.61394111586E+02  0.51100000000E-03 0.  1.
         23    2    1    0    0    0  0.22802280792E+02 -0.13629473104E+02  0.14845576064E+02  0.94568147032E+02  0.89537906822E+02 0.  0.
         11    1    3    3    0    0 -0.18746711257E+02  0.29243054758E+01 -0.27212605206E+02  0.33174035446E+02  0.51100000000E-03 0. -1.
         22    1    1    0    0    0 -0.22802280792E+02  0.13629473104E+02 -0.14845576064E+02  0.30431852968E+02  0.00000000000E+00 0.  1.
</event>
<event>
 5    1  0.1717510E-003  0.9118800E+02  0.7818608E-02  0.1130116E+00
         25   -1    0    0    0    0  0.00000000000E+00  0.00000000000E+00  0.99999998245E-14  0.12500000000E+03  0.12500000000E+03 0.  0.
        -11    1    3    3    0    0  0.26471423349E+02 -0.24631139804E+02 -0.10995701672E+02  0.37793316310E+02  0.51100000000E-03 0.  1.
         23    2    1    0    0    0 -0.25262583590E+02  0.64830615064E+00 -0.15171771815E+02  0.95524568018E+02  0.90863314955E+02 0.  0.
         11    1    3    3    0    0 -0.51734006939E+02  0.25279445955E+02 -0.41760701433E+01  0.57731251708E+02  0.51100000000E-03 0. -1.
         22    1    1    0    0    0  0.25262583590E+02 -0.64830615064E+00  0.15171771815E+02  0.29475431982E+02  0.00000000000E+00 0. -1.
</event>
<event>
 5    1  0.1717510E-003  0.9118800E+02  0.7818608E-02  0.1130116E+00
         25   -1    0    0    0    0  0.00000000000E+00  0.00000000000E+00  0.99999998245E-14  0.12500000000E+03  0.12500000000E+03 0.  0.
        -11    1    3    3    0    0  0.32582805611E+02  0.46116370848E+02 -0.16996474826E+01  0.56491129245E+02  0.51100000000E-03 0.  1.
         23    2    1    0    0    0  0.17149829980E+02  0.18535933298E+02  0.18229850274E+02  0.93854776729E+02  0.88536400324E+02 0.  0.
         11    1    3    3    0    0 -0.15432975630E+02 -0.27580437549E+02  0.19929497756E+02  0.37363647484E+02  0.51100000000E-03 0. -1.
         22    1    1    0    0    0 -0.17149829980E+02 -0.18535933298E+02 -0.18229850274E+02  0.31145223271E+02  0.00000000000E+00 0.  1.
</event>
<event>
 5    1  0.1717510E-003  0.9118800E+02  0.7818608E-02  0.1130116E+00
         25   -1    0    0    0    0  0.00000000000E+00  0.00000000000E+00  0.99999998245E-14  0.12500000000E+03  0.12500000000E+03 0.  0.
        -11    1    3    3    0    0 -0.58618657971E+01 -0.29570832796E+01  0.45522869314E+02  0.45993884844E+02  0.51100000000E-03 0.  1.
         23    2    1    0    0    0  0.14344805877E+02  0.23375044900E+02  0.72946732662E+01  0.96620809775E+02  0.92359095079E+02 0.  0.
         11    1    3    3    0    0  0.20206671674E+02  0.26332128180E+02 -0.38228196048E+02  0.50626924931E+02  0.51100000000E-03 0. -1.
         22    1    1    0    0    0 -0.14344805877E+02 -0.23375044900E+02 -0.72946732662E+01  0.28379190225E+02  0.00000000000E+00 0.  1.
</event>
<event>
 5    1  0.1717510E-003  0.9118800E+02  0.7818608E-02  0.1130116E+00
         25   -1    0    0    0    0  0.00000000000E+00  0.00000000000E+00  0.99999998245E-14  0.12500000000E+03  0.12500000000E+03 0.  0.
        -11    1    3    3    0    0  0.40594100392E+02 -0.40124442618E+02 -0.30804732864E+01  0.57160661280E+02  0.51100000000E-03 0. -1.
         23    2    1    0    0    0  0.20040956677E+02 -0.11189436354E+02 -0.18168615760E+02  0.95726427804E+02  0.91140588933E+02 0.  0.
         11    1    3    3    0    0 -0.20553143715E+02  0.28935006264E+02 -0.15088142473E+02  0.38565766524E+02  0.51100000000E-03 0.  1.
         22    1    1    0    0    0 -0.20040956677E+02  0.11189436354E+02  0.18168615760E+02  0.29273572196E+02  0.00000000000E+00 0. -1.
</event>
<event>
 5    1  0.1717510E-003  0.9118800E+02  0.7818608E-02  0.1130116E+00
         25   -1    0    0    0    0  0.00000000000E+00  0.00000000000E+00  0.99999998245E-14  0.12500000000E+03  0.12500000000E+03 0.  0.
        -11    1    3    3    0    0 -0.58188435965E+02 -0.37793273080E+00 -0.22564412427E+02  0.62411454250E+02  0.51100000000E-03 0.  1.
         23    2    1    0    0    0 -0.27417565868E+02  0.12140149102E+01 -0.86048874098E+01  0.96238205243E+02  0.91839813321E+02 0.  0.
         11    1    3    3    0    0  0.30770870097E+02  0.15919476410E+01  0.13959525017E+02  0.33826750993E+02  0.51100000000E-03 0. -1.
         22    1    1    0    0    0  0.27417565868E+02 -0.12140149102E+01  0.86048874098E+01  0.28761794757E+02  0.00000000000E+00 0.  1.
</event>
<event>
 5    1  0.1717510E-003  0.9118800E+02  0.7818608E-02  0.1130116E+00
         25   -1    0    0    0    0  0.00000000000E+00  0.00000000000E+00  0.99999998245E-14  0.12500000000E+03  0.12500000000E+03 0.  0.
        -11    1    3    3    0    0  0.33933963655E+02  0.32732980458E+02 -0.57130542532E+01  0.47493166752E+02  0.51100000000E-03 0.  1.
         23    2    1    0    0    0 -0.20096626544E+01  0.93885974120E+01 -0.27714435804E+02  0.95669564318E+02  0.91062566840E+02 0.  0.
         11    1    3    3    0    0 -0.35943626309E+02 -0.23344383046E+02 -0.22001381551E+02  0.48176397566E+02  0.51100000000E-03 0. -1.
         22    1    1    0    0    0  0.20096626544E+01 -0.93885974120E+01  0.27714435804E+02  0.29330435682E+02  0.00000000000E+00 0.  1.
</event>
<event>
 5    1  0.1717510E-003  0.9118800E+02  0.7818608E-02  0.1130116E+00
         25   -1    0    0    0    0  0.00000000000E+00  0.00000000000E+00  0.99999998245E-14  0.12500000000E+03  0.12500000000E+03 0.  0.
        -11    1    3    3    0    0 -0.20060022622E+02 -0.39107328243E+02 -0.26754356378E+02  0.51454671463E+02  0.51100000000E-03 0.  1.
         23    2    1    0    0    0 -0.19082777693E+02  0.54021148067E+01 -0.20610997880E+02  0.96396705042E+02  0.92055289150E+02 0.  0.
         11    1    3    3    0    0  0.97724492889E+00  0.44509443050E+02  0.61433584986E+01  0.44942033579E+02  0.51100000000E-03 0. -1.
         22    1    1    0    0    0  0.19082777693E+02 -0.54021148067E+01  0.20610997880E+02  0.28603294958E+02  0.00000000000E+00 0. -1.
</event>
<event>
 5    1  0.1717510E-003  0.9118800E+02  0.7818608E-02  0.1130116E+00
         25   -1    0    0    0    0  0.00000000000E+00  0.00000000000E+00  0.99999998245E-14  0.12500000000E+03  0.12500000000E+03 0.  0.
        -11    1    3    3    0    0  0.35805261334E+02  0.27045357035E+02 -0.90169534383E+01  0.45768695917E+02  0.51100000000E-03 0.  1.
         23    2    1    0    0    0  0.20864533151E+02 -0.15554242639E+02  0.12902887508E+02  0.95952664258E+02  0.91450347536E+02 0.  0.
         11    1    3    3    0    0 -0.14940728183E+02 -0.42599599675E+02  0.21919840946E+02  0.50183968341E+02  0.51100000000E-03 0. -1.
         22    1    1    0    0    0 -0.20864533151E+02  0.15554242639E+02 -0.12902887508E+02  0.29047335742E+02  0.00000000000E+00 0. -1.
</event>
<event>
 5    1  0.1717510E-003  0.9118800E+02  0.7818608E-02  0.1130116E+00
         25   -1    0    0    0    0  0.00000000000E+00  0.00000000000E+00  0.99999998245E-14  0.12500000000E+03  0.12500000000E+03 0.  0.
        -11    1    3    3    0    0  0.54658736001E+02  0.16188922182E+02  0.11970504750E+02  0.58249048120E+02  0.51100000000E-03 0. -1.
         23    2    1    0    0    0  0.14623491264E+02  0.19846645872E+02 -0.50586789402E+00  0.10034251125E+03  0.97265758685E+02 0.  0.
         11    1    3    3    0    0 -0.40035244737E+02  0.36577236900E+01 -0.12476372644E+02  0.42093463131E+02  0.51100000000E-03 0.  1.
         22    1    1    0    0    0 -0.14623491264E+02 -0.19846645872E+02  0.50586789402E+00  0.24657488750E+02  0.00000000000E+00 0. -1.
</event>
<event>
 5    1  0.1717510E-003  0.9118800E+02  0.7818608E-02  0.1130116E+00
         25   -1    0    0    0    0  0.00000000000E+00  0.00000000000E+00  0.99999998245E-14  0.12500000000E+03  0.12500000000E+03 0.  0.
        -11    1    3    3    0    0  0.19549447169E+02 -0.48084665523E+02  0.34651464077E+02  0.62410254814E+02  0.51100000000E-03 0.  1.
         23    2    1    0    0    0  0.72496919978E+01 -0.19931034463E+02  0.16804624391E+02  0.97940813579E+02  0.94128653421E+02 0.  0.
         11    1    3    3    0    0 -0.12299755172E+02  0.28153631060E+02 -0.17846839685E+02  0.35530558765E+02  0.51100000000E-03 0. -1.
         22    1    1    0    0    0 -0.72496919978E+01  0.19931034463E+02 -0.16804624391E+02  0.27059186421E+02  0.00000000000E+00 0.  1.
</event>
<event>
 5    1  0.1717510E-003  0.9118800E+02  0.7818608E-02  0.1130116E+00
         25   -1    0    0    0    0  0.00000000000E+00  0.00000000000E+00  0.99999998245E-14  0.12500000000E+03  0.12500000000E+03 0.  0.
        -11    1    3    3    0    0 -0.18071284481E+02 -0.46411460327E+02 -0.22437162018E+02  0.54626195293E+02  0.51100000000E-03 0. -1.
         23    2    1    0    0    0  0.10645626325E+02 -0.16198223088E+02 -0.21124532558E+02  0.96330195905E+02  0.91964933405E+02 0.  0.
         11    1    3    3    0    0  0.28716910806E+02  0.30213237239E+02  0.13126294606E+01  0.41704000612E+02  0.51100000000E-03 0.  1.
         22    1    1    0    0    0 -0.10645626325E+02  0.16198223088E+02  0.21124532558E+02  0.28669804095E+02  0.00000000000E+00 0. -1.
</event>
<event>
 5    1  0.1717510E-003  0.9118800E+02  0.7818608E-02  0.1130116E+00
         25   -1    0    0    0    0  0.00000000000E+00  0.00000000000E+00  0.99999998245E-14  0.12500000000E+03  0.12500000000E+03 0.  0.
        -11    1    3    3    0    0  0.16583591474E+02  0.43797518993E+02 -0.28079817853E+00  0.46832862650E+02  0.51100000000E-03 0.  1.
         23    2    1    0    0    0 -0.21644639849E+02  0.15441036860E+02 -0.11966178583E+02  0.95843431557E+02  0.91300919433E+02 0.  0.
         11    1    3    3    0    0 -0.38228231323E+02 -0.28356482133E+02 -0.11685380405E+02  0.49010568907E+02  0.51100000000E-03 0. -1.
         22    1    1    0    0    0  0.21644639849E+02 -0.15441036860E+02  0.11966178583E+02  0.29156568443E+02  0.00000000000E+00 0. -1.
</event>
<event>
 5    1  0.1717510E-003  0.9118800E+02  0.7818608E-02  0.1130116E+00
         25   -1    0    0    0    0  0.00000000000E+00  0.00000000000E+00  0.99999998245E-14  0.12500000000E+03  0.12500000000E+03 0.  0.
        -11    1    3    3    0    0  0.93178327986E+01 -0.38291345366E+02 -0.82756228846E+01  0.40268288670E+02  0.51100000000E-03 0. -1.
         23    2    1    0    0    0 -0.27282821467E+01  0.26670360580E+01  0.28274164843E+02  0.96469577599E+02  0.92154188184E+02 0.  0.
         11    1    3    3    0    0 -0.12046114945E+02  0.40958381424E+02  0.36549787727E+02  0.56201288929E+02  0.51100000000E-03 0.  1.
         22    1    1    0    0    0  0.27282821467E+01 -0.26670360580E+01 -0.28274164843E+02  0.28530422401E+02  0.00000000000E+00 0.  1.
</event>
<event>
 5    1  0.1717510E-003  0.9118800E+02  0.7818608E-02  0.1130116E+00
         25   -1    0    0    0    0  0.00000000000E+00  0.00000000000E+00  0.99999998245E-14  0.12500000000E+03  0.12500000000E+03 0.  0.
        -11    1    3    3    0    0 -0.31338509174E+02  0.46013758807E+01  0.32485410994E+02  0.45371541135E+02  0.51100000000E-03 0.  1.
         23    2    1    0    0    0 -0.77634309620E+01 -0.29463071439E+02  0.79796717598E+01  0.93503673225E+02  0.88039299783E+02 0.  0.
         11    1    3    3    0    0  0.23575078212E+02 -0.34064447319E+02 -0.24505739234E+02  0.48132132090E+02  0.51100000000E-03 0. -1.
         22    1    1    0    0    0  0.77634309620E+01  0.29463071439E+02 -0.79796717598E+01  0.31496326775E+02  0.00000000000E+00 0.  1.
</event>
<event>
 5    1  0.1717510E-003  0.9118800E+02  0.7818608E-02  0.1130116E+00
         25   -1    0    0    0    0  0.00000000000E+00  0.00000000000E+00  0.99999998245E-14  0.12500000000E+03  0.12500000000E+03 0.  0.
        -11    1    3    3    0    0  0.10078124240E+02  0.25447413722E+02 -0.29493930342E+02  0.40237189025E+02  0.51100000000E-03 0. -1.
         23    2    1    0    0    0  0.10970855599E+02  0.11493479867E+02  0.24381858517E+02  0.95897856148E+02  0.91375401707E+02 0.  0.
         11    1    3    3    0    0  0.89273135868E+00 -0.13953933854E+02  0.53875788858E+02  0.55660667124E+02  0.51100000000E-03 0.  1.
         22    1    1    0    0    0 -0.10970855599E+02 -0.11493479867E+02 -0.24381858517E+02  0.29102143852E+02  0.00000000000E+00 0.  1.
</event>
<event>
 5    1  0.1717510E-003  0.9118800E+02  0.7818608E-02  0.1130116E+00
         25   -1    0    0    0    0  0.00000000000E+00  0.00000000000E+00  0.99999998245E-14  0.12500000000E+03  0.12500000000E+03 0.  0.
        -11    1    3    3    0    0 -0.26859499955E+02 -0.97450319829E+01 -0.51471402088E+02  0.58870226935E+02  0.51100000000E-03 0. -1.
         23    2    1    0    0    0 -0.54145343906E+01 -0.17804435057E+02 -0.23180129134E+02  0.95274026895E+02  0.90517991161E+02 0.  0.
         11    1    3    3    0    0  0.21444965564E+02 -0.80594030737E+01  0.28291272954E+02  0.36403799961E+02  0.51100000000E-03 0.  1.
         22    1    1    0    0    0  0.54145343906E+01  0.17804435057E+02  0.23180129134E+02  0.29725973105E+02  0.00000000000E+00 0.  1.
</event>
<event>
 5    1  0.1717510E-003  0.9118800E+02  0.7818608E-02  0.1130116E+00
         25   -1    0    0    0    0  0.00000000000E+00  0.00000000000E+00  0.99999998245E-14  0.12500000000E+03  0.12500000000E+03 0.  0.
        -11    1    3    3    0    0  0.22292650938E+02 -0.27242098841E+02 -0.25533191092E+02  0.43486067685E+02  0.51100000000E-03 0.  1.
         23    2    1    0    0    0 -0.13160353271E+02 -0.27122837796E+02  0.95629099234E+01  0.93372599308E+02  0.87853001240E+02 0.  0.
         11    1    3    3    0    0 -0.35453004209E+02  0.11926104452E+00  0.35096101015E+02  0.49886531623E+02  0.51100000000E-03 0. -1.
         22    1    1    0    0    0  0.13160353271E+02  0.27122837796E+02 -0.95629099234E+01  0.31627400692E+02  0.00000000000E+00 0. -1.
</event>
<event>
 5    1  0.1717510E-003  0.9118800E+02  0.7818608E-02  0.1130116E+00
         25   -1    0    0    0    0  0.00000000000E+00  0.00000000000E+00  0.99999998245E-14  0.12500000000E+03  0.12500000000E+03 0.  0.
        -11    1    3    3    0    0 -0.29696204784E+02 -0.11302673446E+02  0.25447522379E+02  0.40708615809E+02  0.51100000000E-03 0.  1.
         23    2    1    0    0    0  0.11750518177E+02 -0.24907966212E+02 -0.87118849326E+01  0.96114391173E+02  0.91671139369E+02 0.  0.
         11    1    3    3    0    0  0.41446722961E+02 -0.13605292766E+02 -0.34159407312E+02  0.55405775363E+02  0.51100000000E-03 0. -1.
         22    1    1    0    0    0 -0.11750518177E+02  0.24907966212E+02  0.87118849326E+01  0.28885608827E+02  0.00000000000E+00 0. -1.
</event>
<event>
 5    1  0.1717510E-003  0.9118800E+02  0.7818608E-02  0.1130116E+00
         25   -1    0    0    0    0  0.00000000000E+00  0.00000000000E+00  0.99999998245E-14  0.12500000000E+03  0.12500000000E+03 0.  0.
        -11    1    3    3    0    0 -0.56749208382E+02  0.12396696247E+01 -0.11660292434E+02  0.57948009912E+02  0.51100000000E-03 0.  1.
         23    2    1    0    0    0 -0.28125645635E+02 -0.16842407262E+01  0.11182928485E+02  0.94685869653E+02  0.89702103728E+02 0.  0.
         11    1    3    3    0    0  0.28623562748E+02 -0.29239103509E+01  0.22843220920E+02  0.36737859741E+02  0.51100000000E-03 0. -1.
         22    1    1    0    0    0  0.28125645635E+02  0.16842407262E+01 -0.11182928485E+02  0.30314130347E+02  0.00000000000E+00 0.  1.
</event>
<event>
 5    1  0.1717510E-003  0.9118800E+02  0.7818608E-02  0.1130116E+00
         25   -1    0    0    0    0  0.00000000000E+00  0.00000000000E+00  0.99999998245E-14  0.12500000000E+03  0.12500000000E+03 0.  0.
        -11    1    3    3    0    0 -0.50921457685E+02 -0.22899568023E+02 -0.13441262313E+02  0.57428674033E+02  0.51100000000E-03 0.  1.
         23    2    1    0    0    0 -0.14392435613E+02 -0.10277063775E+02 -0.21757491574E+02  0.96961656927E+02  0.92819255716E+02 0.  0.
         11    1    3    3    0    0  0.36529022073E+02  0.12622504248E+02 -0.83162292613E+01  0.39532982894E+02  0.51100000000E-03 0. -1.
         22    1    1    0    0    0  0.14392435613E+02  0.10277063775E+02  0.21757491574E+02  0.28038343073E+02  0.00000000000E+00 0.  1.
</event>
<event>
 5    1  0.1717510E-003  0.9118800E+02  0.7818608E-02  0.1130116E+00
         25   -1    0    0    0    0  0.00000000000E+00  0.00000000000E+00  0.99999998245E-14  0.12500000000E+03  0.12500000000E+03 0.  0.
        -11    1    3    3    0    0 -0.51854407047E+02 -0.11795750677E+02  0.20855628807E+02  0.57122469462E+02  0.51100000000E-03 0.  1.
         23    2    1    0    0    0 -0.16800705648E+02 -0.19367785877E+02  0.19101372933E+02  0.93027554238E+02  0.87360680855E+02 0.  0.
         11    1    3    3    0    0  0.35053701399E+02 -0.75720352005E+01 -0.17542558735E+01  0.35905084776E+02  0.51100000000E-03 0. -1.
         22    1    1    0    0    0  0.16800705648E+02  0.19367785877E+02 -0.19101372933E+02  0.31972445762E+02  0.00000000000E+00 0.  1.
</event>
<event>
 5    1  0.1717510E-003  0.9118800E+02  0.7818608E-02  0.1130116E+00
         25   -1    0    0    0    0  0.00000000000E+00  0.00000000000E+00  0.99999998245E-14  0.12500000000E+03  0.12500000000E+03 0.  0.
        -11    1    3    3    0    0  0.23770219248E+02 -0.19072859884E+02  0.20904954950E+02  0.36956926941E+02  0.51100000000E-03 0. -1.
         23    2    1    0    0    0  0.14246579044E+02  0.31172669898E+02  0.61938032911E+01  0.90170937965E+02  0.83172919218E+02 0.  0.
         11    1    3    3    0    0 -0.95236402037E+01  0.50245529782E+02 -0.14711151659E+02  0.53214011024E+02  0.51100000000E-03 0.  1.
         22    1    1    0    0    0 -0.14246579044E+02 -0.31172669898E+02 -0.61938032911E+01  0.34829062035E+02  0.00000000000E+00 0.  1.
</event>
<event>
 5    1  0.1717510E-003  0.9118800E+02  0.7818608E-02  0.1130116E+00
         25   -1    0    0    0    0  0.00000000000E+00  0.00000000000E+00  0.99999998245E-14  0.12500000000E+03  0.12500000000E+03 0.  0.
        -11    1    3    3    0    0 -0.36883266440E+02 -0.27197078392E+02 -0.33184907562E+02  0.56579983267E+02  0.51100000000E-03 0.  1.
         23    2    1    0    0    0 -0.86745202568E+01 -0.28664898868E+02 -0.24998134900E+02  0.85989354308E+02  0.76631185409E+02 0.  0.
         11    1    3    3    0    0  0.28208746183E+02 -0.14678204764E+01  0.81867726628E+01  0.29409371041E+02  0.51100000000E-03 0. -1.
         22    1    1    0    0    0  0.86745202568E+01  0.28664898868E+02  0.24998134900E+02  0.39010645692E+02  0.00000000000E+00 0.  1.
</event>
<event>
 5    1  0.1717510E-003  0.9118800E+02  0.7818608E-02  0.1130116E+00
         25   -1    0    0    0    0  0.00000000000E+00  0.00000000000E+00  0.99999998245E-14  0.12500000000E+03  0.12500000000E+03 0.  0.
        -11    1    3    3    0    0  0.34703257437E+02  0.17857596782E+02 -0.66151510358E+01  0.39584972692E+02  0.51100000000E-03 0. -1.
         23    2    1    0    0    0 -0.10997106035E+02 -0.84027958941E+01 -0.25837939997E+02  0.95688867929E+02  0.91089060717E+02 0.  0.
         11    1    3    3    0    0 -0.45700363472E+02 -0.26260392676E+02 -0.19222788961E+02  0.56103895237E+02  0.51100000000E-03 0.  1.
         22    1    1    0    0    0  0.10997106035E+02  0.84027958941E+01  0.25837939997E+02  0.29311132071E+02  0.00000000000E+00 0.  1.
</event>
<event>
 5    1  0.1717510E-003  0.9118800E+02  0.7818608E-02  0.1130116E+00
         25   -1    0    0    0    0  0.00000000000E+00  0.00000000000E+00  0.99999998245E-14  0.12500000000E+03  0.12500000000E+03 0.  0.
        -11    1    3    3    0    0 -0.23045257410E+02 -0.28428245967E+02 -0.33336413009E+02  0.49503186670E+02  0.51100000000E-03 0.  1.
         23    2    1    0    0    0  0.18232349082E+02 -0.29568607478E+01 -0.14427403002E+02  0.10156260390E+03  0.98821308305E+02 0.  0.
         11    1    3    3    0    0  0.41277606492E+02  0.25471385219E+02  0.18909010007E+02  0.52059417231E+02  0.51100000000E-03 0. -1.
         22    1    1    0    0    0 -0.18232349082E+02  0.29568607478E+01  0.14427403002E+02  0.23437396100E+02  0.00000000000E+00 0. -1.
</event>
<event>
 5    1  0.1717510E-003  0.9118800E+02  0.7818608E-02  0.1130116E+00
         25   -1    0    0    0    0  0.00000000000E+00  0.00000000000E+00  0.99999998245E-14  0.12500000000E+03  0.12500000000E+03 0.  0.
        -11    1    3    3    0    0  0.73125458010E+01  0.41248979468E+02 -0.56124130237E+01  0.42266426552E+02  0.51100000000E-03 0.  1.
         23    2    1    0    0    0 -0.78397660020E+01 -0.93245856062E+01 -0.23929167319E+02  0.98148279827E+02  0.94403760289E+02 0.  0.
         11    1    3    3    0    0 -0.15152311803E+02 -0.50573565074E+02 -0.18316754295E+02  0.55881853275E+02  0.51100000000E-03 0. -1.
         22    1    1    0    0    0  0.78397660020E+01  0.93245856062E+01  0.23929167319E+02  0.26851720173E+02  0.00000000000E+00 0. -1.
</event>
<event>
 5    1  0.1717510E-003  0.9118800E+02  0.7818608E-02  0.1130116E+00
         25   -1    0    0    0    0  0.00000000000E+00  0.00000000000E+00  0.99999998245E-14  0.12500000000E+03  0.12500000000E+03 0.  0.
        -11    1    3    3    0    0 -0.33439456381E+02  0.32163218882E+01 -0.14312291141E+02  0.36515526116E+02  0.51100000000E-03 0. -1.
         23    2    1    0    0    0  0.15532434098E+02 -0.19070932086E+02  0.13349775839E+02  0.97014763274E+02  0.92890746679E+02 0.  0.
         11    1    3    3    0    0  0.48971890479E+02 -0.22287253975E+02  0.27662066980E+02  0.60499237158E+02  0.51100000000E-03 0.  1.
         22    1    1    0    0    0 -0.15532434098E+02  0.19070932086E+02 -0.13349775839E+02  0.27985236726E+02  0.00000000000E+00 0.  1.
</event>
<event>
 5    1  0.1717510E-003  0.9118800E+02  0.7818608E-02  0.1130116E+00
         25   -1    0    0    0    0  0.00000000000E+00  0.00000000000E+00  0.99999998245E-14  0.12500000000E+03  0.12500000000E+03 0.  0.
        -11    1    3    3    0    0 -0.90736950911E+00 -0.12593612430E+02  0.60727078713E+02  0.62025804975E+02  0.51100000000E-03 0.  1.
         23    2    1    0    0    0 -0.22268667400E+01 -0.10381886616E+02  0.25091301130E+02  0.97754525191E+02  0.93880942143E+02 0.  0.
         11    1    3    3    0    0 -0.13194972309E+01  0.22117258140E+01 -0.35635777583E+02  0.35728720216E+02  0.51100000000E-03 0. -1.
         22    1    1    0    0    0  0.22268667400E+01  0.10381886616E+02 -0.25091301130E+02  0.27245474809E+02  0.00000000000E+00 0.  1.
</event>
<event>
 5    1  0.1717510E-003  0.9118800E+02  0.7818608E-02  0.1130116E+00
         25   -1    0    0    0    0  0.00000000000E+00  0.00000000000E+00  0.99999998245E-14  0.12500000000E+03  0.12500000000E+03 0.  0.
        -11    1    3    3    0    0  0.17728174274E+02  0.27557883073E+02  0.16973587805E+02  0.36902950638E+02  0.51100000000E-03 0. -1.
         23    2    1    0    0    0 -0.14147634529E+02  0.89206594113E+01 -0.26327032677E+02  0.93809514645E+02  0.88472474031E+02 0.  0.
         11    1    3    3    0    0 -0.31875808803E+02 -0.18637223662E+02 -0.43300620482E+02  0.56906564007E+02  0.51100000000E-03 0.  1.
         22    1    1    0    0    0  0.14147634529E+02 -0.89206594113E+01  0.26327032677E+02  0.31190485355E+02  0.00000000000E+00 0.  1.
</event>
<event>
 5    1  0.1717510E-003  0.9118800E+02  0.7818608E-02  0.1130116E+00
         25   -1    0    0    0    0  0.00000000000E+00  0.00000000000E+00  0.99999998245E-14  0.12500000000E+03  0.12500000000E+03 0.  0.
        -11    1    3    3    0    0  0.21308442137E+02  0.29597650164E+02 -0.20409946831E+01  0.36527198922E+02  0.51100000000E-03 0.  1.
         23    2    1    0    0    0  0.15190598272E+01 -0.24461945970E+02 -0.15958254870E+02  0.95753457607E+02  0.91177652974E+02 0.  0.
         11    1    3    3    0    0 -0.19789382310E+02 -0.54059596135E+02 -0.13917260187E+02  0.59226258685E+02  0.51100000000E-03 0. -1.
         22    1    1    0    0    0 -0.15190598272E+01  0.24461945970E+02  0.15958254870E+02  0.29246542393E+02  0.00000000000E+00 0. -1.
</event>
<event>
 5    1  0.1717510E-003  0.9118800E+02  0.7818608E-02  0.1130116E+00
         25   -1    0    0    0    0  0.00000000000E+00  0.00000000000E+00  0.99999998245E-14  0.12500000000E+03  0.12500000000E+03 0.  0.
        -11    1    3    3    0    0  0.18109120789E+02  0.26360321723E+02  0.75890252464E+01  0.32869440542E+02  0.51100000000E-03 0. -1.
         23    2    1    0    0    0 -0.50934302575E+01 -0.25521159413E+02 -0.16051316908E+02  0.94423581242E+02  0.89335856802E+02 0.  0.
         11    1    3    3    0    0 -0.23202551047E+02 -0.51881481136E+02 -0.23640342155E+02  0.61554140700E+02  0.51100000000E-03 0.  1.
         22    1    1    0    0    0  0.50934302575E+01  0.25521159413E+02  0.16051316908E+02  0.30576418758E+02  0.00000000000E+00 0.  1.
</event>
<event>
 5    1  0.1717510E-003  0.9118800E+02  0.7818608E-02  0.1130116E+00
         25   -1    0    0    0    0  0.00000000000E+00  0.00000000000E+00  0.99999998245E-14  0.12500000000E+03  0.12500000000E+03 0.  0.
        -11    1    3    3    0    0 -0.46173249155E+02  0.22215915828E+02  0.32601674827E+02  0.60732076001E+02  0.51100000000E-03 0.  1.
         23    2    1    0    0    0 -0.24663753687E+02  0.28349790475E+00  0.14572409276E+02  0.96351505640E+02  0.91993893330E+02 0.  0.
         11    1    3    3    0    0  0.21509495468E+02 -0.21932417923E+02 -0.18029265551E+02  0.35619429639E+02  0.51100000000E-03 0. -1.
         22    1    1    0    0    0  0.24663753687E+02 -0.28349790475E+00 -0.14572409276E+02  0.28648494360E+02  0.00000000000E+00 0.  1.
</event>
<event>
 5    1  0.1717510E-003  0.9118800E+02  0.7818608E-02  0.1130116E+00
         25   -1    0    0    0    0  0.00000000000E+00  0.00000000000E+00  0.99999998245E-14  0.12500000000E+03  0.12500000000E+03 0.  0.
        -11    1    3    3    0    0  0.95841250406E+01 -0.67568282521E+01 -0.31154249069E+02  0.33288097214E+02  0.51100000000E-03 0. -1.
         23    2    1    0    0    0 -0.17819821237E+02  0.41426923581E+01  0.23395951240E+02  0.95300194221E+02  0.90554119482E+02 0.  0.
         11    1    3    3    0    0 -0.27403946278E+02  0.10899520610E+02  0.54550200309E+02  0.62012097007E+02  0.51100000000E-03 0.  1.
         22    1    1    0    0    0  0.17819821237E+02 -0.41426923581E+01 -0.23395951240E+02  0.29699805779E+02  0.00000000000E+00 0.  1.
</event>
<event>
 5    1  0.1717510E-003  0.9118800E+02  0.7818608E-02  0.1130116E+00
         25   -1    0    0    0    0  0.00000000000E+00  0.00000000000E+00  0.99999998245E-14  0.12500000000E+03  0.12500000000E+03 0.  0.
        -11    1    3    3    0    0 -0.92698081594E+01  0.14777626996E+02  0.27333116966E+02  0.32425404951E+02  0.51100000000E-03 0. -1.
         23    2    1    0    0    0  0.16893762926E+02 -0.16587490581E+02 -0.19327051658E+02  0.94437294044E+02  0.89355041889E+02 0.  0.
         11    1    3    3    0    0  0.26163571086E+02 -0.31365117577E+02 -0.46660168624E+02  0.62011889092E+02  0.51100000000E-03 0.  1.
         22    1    1    0    0    0 -0.16893762926E+02  0.16587490581E+02  0.19327051658E+02  0.30562705956E+02  0.00000000000E+00 0.  1.
</event>
<event>
 5    1  0.1717510E-003  0.9118800E+02  0.7818608E-02  0.1130116E+00
         25   -1    0    0    0    0  0.00000000000E+00  0.00000000000E+00  0.99999998245E-14  0.12500000000E+03  0.12500000000E+03 0.  0.
        -11    1    3    3    0    0  0.35715167540E+02  0.54322643421E+01  0.67838751239E+00  0.36132297162E+02  0.51100000000E-03 0.  1.
         23    2    1    0    0    0 -0.20404964124E+02  0.16640361094E+01  0.20747794119E+02  0.95852057742E+02  0.91312728770E+02 0.  0.
         11    1    3    3    0    0 -0.56120131664E+02 -0.37682282326E+01  0.20069406607E+02  0.59719760580E+02  0.51100000000E-03 0. -1.
         22    1    1    0    0    0  0.20404964124E+02 -0.16640361094E+01 -0.20747794119E+02  0.29147942258E+02  0.00000000000E+00 0. -1.
</event>
<event>
 5    1  0.1717510E-003  0.9118800E+02  0.7818608E-02  0.1130116E+00
         25   -1    0    0    0    0  0.00000000000E+00  0.00000000000E+00  0.99999998245E-14  0.12500000000E+03  0.12500000000E+03 0.  0.
        -11    1    3    3    0    0  0.10189915470E+01  0.30909143631E+01 -0.59814694051E+02  0.59903169532E+02  0.51100000000E-03 0.  1.
         23    2    1    0    0    0  0.36917368950E+01  0.12897746883E+02 -0.20577928241E+02  0.10043514855E+03  0.97384737706E+02 0.  0.
         11    1    3    3    0    0  0.26727453480E+01  0.98068325199E+01  0.39236765810E+02  0.40531979020E+02  0.51100000000E-03 0. -1.
         22    1    1    0    0    0 -0.36917368950E+01 -0.12897746883E+02  0.20577928241E+02  0.24564851448E+02  0.00000000000E+00 0.  1.
</event>
<event>
 5    1  0.1717510E-003  0.9118800E+02  0.7818608E-02  0.1130116E+00
         25   -1    0    0    0    0  0.00000000000E+00  0.00000000000E+00  0.99999998245E-14  0.12500000000E+03  0.12500000000E+03 0.  0.
        -11    1    3    3    0    0 -0.13040767275E+02  0.64420655782E+01  0.30424082809E+02  0.33722197957E+02  0.51100000000E-03 0. -1.
         23    2    1    0    0    0  0.73325195995E+01 -0.25580294601E+02 -0.16203799431E+02  0.93844255240E+02  0.88521544327E+02 0.  0.
         11    1    3    3    0    0  0.20373286875E+02 -0.32022360179E+02 -0.46627882240E+02  0.60122057283E+02  0.51100000000E-03 0.  1.
         22    1    1    0    0    0 -0.73325195995E+01  0.25580294601E+02  0.16203799431E+02  0.31155744760E+02  0.00000000000E+00 0.  1.
</event>
<event>
 5    1  0.1717510E-003  0.9118800E+02  0.7818608E-02  0.1130116E+00
         25   -1    0    0    0    0  0.00000000000E+00  0.00000000000E+00  0.99999998245E-14  0.12500000000E+03  0.12500000000E+03 0.  0.
        -11    1    3    3    0    0 -0.15767239903E+02  0.36600633948E+01 -0.55933702190E+02  0.58228695324E+02  0.51100000000E-03 0. -1.
         23    2    1    0    0    0  0.80359871846E+01 -0.45410845806E+01 -0.26377054442E+02  0.97054561370E+02  0.92944286228E+02 0.  0.
         11    1    3    3    0    0  0.23803227088E+02 -0.82011479754E+01  0.29556647748E+02  0.38825866046E+02  0.51100000000E-03 0.  1.
         22    1    1    0    0    0 -0.80359871846E+01  0.45410845806E+01  0.26377054442E+02  0.27945438630E+02  0.00000000000E+00 0. -1.
</event>
<event>
 5    1  0.1717510E-003  0.9118800E+02  0.7818608E-02  0.1130116E+00
         25   -1    0    0    0    0  0.00000000000E+00  0.00000000000E+00  0.99999998245E-14  0.12500000000E+03  0.12500000000E+03 0.  0.
        -11    1    3    3    0    0  0.13056926794E+02  0.46400992915E+02 -0.22252810202E+02  0.53091647582E+02  0.51100000000E-03 0. -1.
         23    2    1    0    0    0 -0.10446634538E+02  0.11637256365E+02 -0.25398778053E+02  0.95172900988E+02  0.90378234366E+02 0.  0.
         11    1    3    3    0    0 -0.23503561332E+02 -0.34763736551E+02 -0.31459678513E+01  0.42081253406E+02  0.51100000000E-03 0.  1.
         22    1    1    0    0    0  0.10446634538E+02 -0.11637256365E+02  0.25398778053E+02  0.29827099012E+02  0.00000000000E+00 0. -1.
</event>
<event>
 5    1  0.1717510E-003  0.9118800E+02  0.7818608E-02  0.1130116E+00
         25   -1    0    0    0    0  0.00000000000E+00  0.00000000000E+00  0.99999998245E-14  0.12500000000E+03  0.12500000000E+03 0.  0.
        -11    1    3    3    0    0 -0.14005004674E+02  0.36399051002E+02 -0.33578502575E+01  0.39144683271E+02  0.51100000000E-03 0.  1.
         23    2    1    0    0    0  0.18533520975E+01 -0.10544537055E+02 -0.28389827117E+02  0.94658535641E+02  0.89664005656E+02 0.  0.
         11    1    3    3    0    0  0.15858356772E+02 -0.46943588057E+02 -0.25031976860E+02  0.55513852370E+02  0.51100000000E-03 0. -1.
         22    1    1    0    0    0 -0.18533520975E+01  0.10544537055E+02  0.28389827117E+02  0.30341464359E+02  0.00000000000E+00 0. -1.
</event>
<event>
 5    1  0.1717510E-003  0.9118800E+02  0.7818608E-02  0.1130116E+00
         25   -1    0    0    0    0  0.00000000000E+00  0.00000000000E+00  0.99999998245E-14  0.12500000000E+03  0.12500000000E+03 0.  0.
        -11    1    3    3    0    0  0.92962517508E+01 -0.51982188352E+02  0.16394219894E+01  0.52832337703E+02  0.51100000000E-03 0. -1.
         23    2    1    0    0    0 -0.15020189654E+02 -0.18251608581E+02  0.15581335394E+02  0.96689130608E+02  0.92451515142E+02 0.  0.
         11    1    3    3    0    0 -0.24316441405E+02  0.33730579771E+02  0.13941913404E+02  0.43856792905E+02  0.51100000000E-03 0.  1.
         22    1    1    0    0    0  0.15020189654E+02  0.18251608581E+02 -0.15581335394E+02  0.28310869392E+02  0.00000000000E+00 0. -1.
</event>
<event>
 5    1  0.1717510E-003  0.9118800E+02  0.7818608E-02  0.1130116E+00
         25   -1    0    0    0    0  0.00000000000E+00  0.00000000000E+00  0.99999998245E-14  0.12500000000E+03  0.12500000000E+03 0.  0.
        -11    1    3    3    0    0  0.57150439047E+02  0.12677787624E+02 -0.39231718698E+01  0.58671034251E+02  0.51100000000E-03 0.  1.
         23    2    1    0    0    0  0.31022404312E+02 -0.87365046815E+01  0.66824333866E+00  0.92763954453E+02  0.86982691458E+02 0.  0.
         11    1    3    3    0    0 -0.26128034735E+02 -0.21414292305E+02  0.45914152085E+01  0.34092920202E+02  0.51100000000E-03 0. -1.
         22    1    1    0    0    0 -0.31022404312E+02  0.87365046815E+01 -0.66824333866E+00  0.32236045547E+02  0.00000000000E+00 0.  1.
</event>
<event>
 5    1  0.1717510E-003  0.9118800E+02  0.7818608E-02  0.1130116E+00
         25   -1    0    0    0    0  0.00000000000E+00  0.00000000000E+00  0.99999998245E-14  0.12500000000E+03  0.12500000000E+03 0.  0.
        -11    1    3    3    0    0  0.18325893719E+02  0.51757364059E+02  0.62686105169E+01  0.55262632882E+02  0.51100000000E-03 0.  1.
         23    2    1    0    0    0  0.82213185336E+01  0.17421198608E+02  0.23189569374E+02  0.94852954256E+02  0.89934634952E+02 0.  0.
         11    1    3    3    0    0 -0.10104575185E+02 -0.34336165452E+02  0.16920958857E+02  0.39590321374E+02  0.51100000000E-03 0. -1.
         22    1    1    0    0    0 -0.82213185336E+01 -0.17421198608E+02 -0.23189569374E+02  0.30147045744E+02  0.00000000000E+00 0.  1.
</event>
<event>
 5    1  0.1717510E-003  0.9118800E+02  0.7818608E-02  0.1130116E+00
         25   -1    0    0    0    0  0.00000000000E+00  0.00000000000E+00  0.99999998245E-14  0.12500000000E+03  0.12500000000E+03 0.  0.
        -11    1    3    3    0    0  0.12697831054E+02  0.43802667269E+02 -0.22779764802E+02  0.50978684350E+02  0.51100000000E-03 0. -1.
         23    2    1    0    0    0 -0.80338744984E+01  0.26415358617E+02  0.11874257139E+02  0.94944845818E+02  0.90062264320E+02 0.  0.
         11    1    3    3    0    0 -0.20731705553E+02 -0.17387308652E+02  0.34654021941E+02  0.43966161468E+02  0.51100000000E-03 0.  1.
         22    1    1    0    0    0  0.80338744984E+01 -0.26415358617E+02 -0.11874257139E+02  0.30055154182E+02  0.00000000000E+00 0.  1.
</event>
<event>
 5    1  0.1717510E-003  0.9118800E+02  0.7818608E-02  0.1130116E+00
         25   -1    0    0    0    0  0.00000000000E+00  0.00000000000E+00  0.99999998245E-14  0.12500000000E+03  0.12500000000E+03 0.  0.
        -11    1    3    3    0    0  0.66068806674E+01 -0.30181381329E+02  0.35294439342E+02  0.46906972827E+02  0.51100000000E-03 0.  1.
         23    2    1    0    0    0  0.20895891644E+02 -0.17095213447E+02 -0.10029969669E+02  0.96199220463E+02  0.91786737145E+02 0.  0.
         11    1    3    3    0    0  0.14289010977E+02  0.13086167882E+02 -0.45324409011E+02  0.49292247635E+02  0.51100000000E-03 0. -1.
         22    1    1    0    0    0 -0.20895891644E+02  0.17095213447E+02  0.10029969669E+02  0.28800779537E+02  0.00000000000E+00 0. -1.
</event>
<event>
 5    1  0.1717510E-003  0.9118800E+02  0.7818608E-02  0.1130116E+00
         25   -1    0    0    0    0  0.00000000000E+00  0.00000000000E+00  0.99999998245E-14  0.12500000000E+03  0.12500000000E+03 0.  0.
        -11    1    3    3    0    0  0.31780763187E+02 -0.18966804667E+01 -0.28786315064E+02  0.42921629055E+02  0.51100000000E-03 0.  1.
         23    2    1    0    0    0 -0.10511610069E+02  0.24729530000E+02 -0.10914692136E+02  0.95996998350E+02  0.91510926056E+02 0.  0.
         11    1    3    3    0    0 -0.42292373256E+02  0.26626210467E+02  0.17871622928E+02  0.53075369295E+02  0.51100000000E-03 0. -1.
         22    1    1    0    0    0  0.10511610069E+02 -0.24729530000E+02  0.10914692136E+02  0.29003001650E+02  0.00000000000E+00 0. -1.
</event>
<event>
 5    1  0.1717510E-003  0.9118800E+02  0.7818608E-02  0.1130116E+00
         25   -1    0    0    0    0  0.00000000000E+00  0.00000000000E+00  0.99999998245E-14  0.12500000000E+03  0.12500000000E+03 0.  0.
        -11    1    3    3    0    0  0.74545065919E+01  0.39588271355E+02 -0.20745951183E+02  0.45312199110E+02  0.51100000000E-03 0. -1.
         23    2    1    0    0    0  0.20606367314E+02  0.13464158695E+02  0.18464283368E+02  0.94229304467E+02  0.89063607140E+02 0.  0.
         11    1    3    3    0    0  0.13151860722E+02 -0.26124112660E+02  0.39210234551E+02  0.48917105358E+02  0.51100000000E-03 0.  1.
         22    1    1    0    0    0 -0.20606367314E+02 -0.13464158695E+02 -0.18464283368E+02  0.30770695533E+02  0.00000000000E+00 0.  1.
</event>
<event>
 5    1  0.1717510E-003  0.9118800E+02  0.7818608E-02  0.1130116E+00
         25   -1    0    0    0    0  0.00000000000E+00  0.00000000000E+00  0.99999998245E-14  0.12500000000E+03  0.12500000000E+03 0.  0.
        -11    1    3    3    0    0  0.55660163223E+01  0.28066754641E+02  0.18028914853E+02  0.33819595279E+02  0.51100000000E-03 0.  1.
         23    2    1    0    0    0 -0.24939615366E+01 -0.30287017482E+02  0.42801601927E+01  0.94310538561E+02  0.89177545606E+02 0.  0.
         11    1    3    3    0    0 -0.80599778590E+01 -0.58353772124E+02 -0.13748754661E+02  0.60490943282E+02  0.51100000000E-03 0. -1.
         22    1    1    0    0    0  0.24939615366E+01  0.30287017482E+02 -0.42801601927E+01  0.30689461439E+02  0.00000000000E+00 0. -1.
</event>
<event>
 5    1  0.1717510E-003  0.9118800E+02  0.7818608E-02  0.1130116E+00
         25   -1    0    0    0    0  0.00000000000E+00  0.00000000000E+00  0.99999998245E-14  0.12500000000E+03  0.12500000000E+03 0.  0.
        -11    1    3    3    0    0 -0.39100643218E+02  0.19648460931E+02 -0.42380280020E+01  0.43964567537E+02  0.51100000000E-03 0.  1.
         23    2    1    0    0    0 -0.13321660015E+01 -0.17804341546E+02 -0.18760712097E+02  0.99101475668E+02  0.95657560690E+02 0.  0.
         11    1    3    3    0    0  0.37768477217E+02 -0.37452802478E+02 -0.14522684095E+02  0.55136908132E+02  0.51100000000E-03 0. -1.
         22    1    1    0    0    0  0.13321660015E+01  0.17804341546E+02  0.18760712097E+02  0.25898524332E+02  0.00000000000E+00 0. -1.
</event>
<event>
 5    1  0.1717510E-003  0.9118800E+02  0.7818608E-02  0.1130116E+00
         25   -1    0    0    0    0  0.00000000000E+00  0.00000000000E+00  0.99999998245E-14  0.12500000000E+03  0.12500000000E+03 0.  0.
        -11    1    3    3    0    0  0.47086176109E+01 -0.32867293865E+02  0.63819881923E+00  0.33208995525E+02  0.51100000000E-03 0.  1.
         23    2    1    0    0    0 -0.11300901682E+02  0.26164538196E+02 -0.89649896343E+01  0.95122508858E+02  0.90308511307E+02 0.  0.
         11    1    3    3    0    0 -0.16009519293E+02  0.59031832061E+02 -0.96031884535E+01  0.61913513332E+02  0.51100000000E-03 0. -1.
         22    1    1    0    0    0  0.11300901682E+02 -0.26164538196E+02  0.89649896343E+01  0.29877491142E+02  0.00000000000E+00 0. -1.
</event>
<event>
 5    1  0.1717510E-003  0.9118800E+02  0.7818608E-02  0.1130116E+00
         25   -1    0    0    0    0  0.00000000000E+00  0.00000000000E+00  0.99999998245E-14  0.12500000000E+03  0.12500000000E+03 0.  0.
        -11    1    3    3    0    0 -0.26181771793E+01  0.49844385922E+02 -0.24031313237E+02  0.55396946449E+02  0.51100000000E-03 0. -1.
         23    2    1    0    0    0  0.17914754224E+02  0.18094659757E+02 -0.13226212669E+01  0.99502853931E+02  0.96180629457E+02 0.  0.
         11    1    3    3    0    0  0.20532931404E+02 -0.31749726165E+02  0.22708691970E+02  0.44105907482E+02  0.51100000000E-03 0.  1.
         22    1    1    0    0    0 -0.17914754224E+02 -0.18094659757E+02  0.13226212669E+01  0.25497146069E+02  0.00000000000E+00 0.  1.
</event>
<event>
 5    1  0.1717510E-003  0.9118800E+02  0.7818608E-02  0.1130116E+00
         25   -1    0    0    0    0  0.00000000000E+00  0.00000000000E+00  0.99999998245E-14  0.12500000000E+03  0.12500000000E+03 0.  0.
        -11    1    3    3    0    0 -0.69635207253E+00 -0.37185895395E+02 -0.29785897571E+02  0.47649505946E+02  0.51100000000E-03 0.  1.
         23    2    1    0    0    0  0.15316076079E+02  0.10481405316E+02 -0.17672147319E+02  0.99372927699E+02  0.96011623904E+02 0.  0.
         11    1    3    3    0    0  0.16012428152E+02  0.47667300711E+02  0.12113750252E+02  0.51723421753E+02  0.51100000000E-03 0. -1.
         22    1    1    0    0    0 -0.15316076079E+02 -0.10481405316E+02  0.17672147319E+02  0.25627072301E+02  0.00000000000E+00 0. -1.
</event>
<event>
 5    1  0.1717510E-003  0.9118800E+02  0.7818608E-02  0.1130116E+00
         25   -1    0    0    0    0  0.00000000000E+00  0.00000000000E+00  0.99999998245E-14  0.12500000000E+03  0.12500000000E+03 0.  0.
        -11    1    3    3    0    0  0.10715670976E+02 -0.38078494121E+02  0.17426125817E+02  0.43225769864E+02  0.51100000000E-03 0.  1.
         23    2    1    0    0    0 -0.27746075526E+02 -0.31211712452E+01  0.62407412167E+01  0.96389979588E+02  0.92046156340E+02 0.  0.
         11    1    3    3    0    0 -0.38461746503E+02  0.34957322876E+02 -0.11185384601E+02  0.53164209724E+02  0.51100000000E-03 0. -1.
         22    1    1    0    0    0  0.27746075526E+02  0.31211712452E+01 -0.62407412167E+01  0.28610020412E+02  0.00000000000E+00 0. -1.
</event>
<event>
 5    1  0.1717510E-003  0.9118800E+02  0.7818608E-02  0.1130116E+00
         25   -1    0    0    0    0  0.00000000000E+00  0.00000000000E+00  0.99999998245E-14  0.12500000000E+03  0.12500000000E+03 0.  0.
        -11    1    3    3    0    0  0.23611778527E+01 -0.32300423115E+02 -0.27075644104E+02  0.42213540460E+02  0.51100000000E-03 0.  1.
         23    2    1    0    0    0  0.27075581564E+02 -0.65459148608E+01  0.11584069579E+02  0.94831692351E+02  0.89905078209E+02 0.  0.
         11    1    3    3    0    0  0.24714403711E+02  0.25754508254E+02  0.38659713682E+02  0.52618151892E+02  0.51100000000E-03 0. -1.
         22    1    1    0    0    0 -0.27075581564E+02  0.65459148608E+01 -0.11584069579E+02  0.30168307649E+02  0.00000000000E+00 0. -1.
</event>
<event>
 5    1  0.1717510E-003  0.9118800E+02  0.7818608E-02  0.1130116E+00
         25   -1    0    0    0    0  0.00000000000E+00  0.00000000000E+00  0.99999998245E-14  0.12500000000E+03  0.12500000000E+03 0.  0.
        -11    1    3    3    0    0  0.30816090305E+02 -0.10519536043E+02  0.12627990889E+02  0.34925037070E+02  0.51100000000E-03 0. -1.
         23    2    1    0    0    0 -0.34797076219E+00  0.32786112848E+02  0.16259647227E+02  0.88401825083E+02  0.80470219775E+02 0.  0.
         11    1    3    3    0    0 -0.31164061067E+02  0.43305648891E+02  0.36316563383E+01  0.53476788012E+02  0.51100000000E-03 0.  1.
         22    1    1    0    0    0  0.34797076219E+00 -0.32786112848E+02 -0.16259647227E+02  0.36598174917E+02  0.00000000000E+00 0. -1.
</event>
<event>
 5    1  0.1717510E-003  0.9118800E+02  0.7818608E-02  0.1130116E+00
         25   -1    0    0    0    0  0.00000000000E+00  0.00000000000E+00  0.99999998245E-14  0.12500000000E+03  0.12500000000E+03 0.  0.
        -11    1    3    3    0    0 -0.44139739281E+02  0.23853349785E+02  0.30483577276E+02  0.58707302472E+02  0.51100000000E-03 0. -1.
         23    2    1    0    0    0 -0.11894995029E+02  0.23702215579E+02  0.11805362042E+02  0.95971522550E+02  0.91476120587E+02 0.  0.
         11    1    3    3    0    0  0.32244744252E+02 -0.15113420585E+00 -0.18678215234E+02  0.37264220078E+02  0.51100000000E-03 0.  1.
         22    1    1    0    0    0  0.11894995029E+02 -0.23702215579E+02 -0.11805362042E+02  0.29028477450E+02  0.00000000000E+00 0. -1.
</event>
<event>
 5    1  0.1717510E-003  0.9118800E+02  0.7818608E-02  0.1130116E+00
         25   -1    0    0    0    0  0.00000000000E+00  0.00000000000E+00  0.99999998245E-14  0.12500000000E+03  0.12500000000E+03 0.  0.
        -11    1    3    3    0    0  0.31627401399E+02  0.13121847748E+02  0.12784578402E+02  0.36550251063E+02  0.51100000000E-03 0. -1.
         23    2    1    0    0    0 -0.90205204259E+00 -0.26225431876E+02 -0.15102960509E+02  0.94723170723E+02  0.89754067767E+02 0.  0.
         11    1    3    3    0    0 -0.32529453441E+02 -0.39347279623E+02 -0.27887538911E+02  0.58172919660E+02  0.51100000000E-03 0.  1.
         22    1    1    0    0    0  0.90205204259E+00  0.26225431876E+02  0.15102960509E+02  0.30276829277E+02  0.00000000000E+00 0.  1.
</event>
<event>
 5    1  0.1717510E-003  0.9118800E+02  0.7818608E-02  0.1130116E+00
         25   -1    0    0    0    0  0.00000000000E+00  0.00000000000E+00  0.99999998245E-14  0.12500000000E+03  0.12500000000E+03 0.  0.
        -11    1    3    3    0    0 -0.12713262564E+02  0.52769718958E+02 -0.13275936659E+02  0.55879520205E+02  0.51100000000E-03 0.  1.
         23    2    1    0    0    0  0.93933619345E+01  0.19996253582E+02 -0.19046273611E+02  0.95830736310E+02  0.91283536727E+02 0.  0.
         11    1    3    3    0    0  0.22106624499E+02 -0.32773465375E+02 -0.57703369521E+01  0.39951216105E+02  0.51100000000E-03 0. -1.
         22    1    1    0    0    0 -0.93933619345E+01 -0.19996253582E+02  0.19046273611E+02  0.29169263690E+02  0.00000000000E+00 0.  1.
</event>
<event>
 5    1  0.1717510E-003  0.9118800E+02  0.7818608E-02  0.1130116E+00
         25   -1    0    0    0    0  0.00000000000E+00  0.00000000000E+00  0.99999998245E-14  0.12500000000E+03  0.12500000000E+03 0.  0.
        -11    1    3    3    0    0 -0.19114241899E+02 -0.96221585476E+01  0.27866077172E+02  0.35134860690E+02  0.51100000000E-03 0.  1.
         23    2    1    0    0    0 -0.20272764528E+01  0.12833994309E+02 -0.25994277596E+02  0.95939309583E+02  0.91432091718E+02 0.  0.
         11    1    3    3    0    0  0.17086965446E+02  0.22456152857E+02 -0.53860354768E+02  0.60804448894E+02  0.51100000000E-03 0. -1.
         22    1    1    0    0    0  0.20272764528E+01 -0.12833994309E+02  0.25994277596E+02  0.29060690417E+02  0.00000000000E+00 0. -1.
</event>
<event>
 5    1  0.1717510E-003  0.9118800E+02  0.7818608E-02  0.1130116E+00
         25   -1    0    0    0    0  0.00000000000E+00  0.00000000000E+00  0.99999998245E-14  0.12500000000E+03  0.12500000000E+03 0.  0.
        -11    1    3    3    0    0  0.20787031209E+02 -0.17576888272E+02 -0.17314391390E+02  0.32261987188E+02  0.51100000000E-03 0.  1.
         23    2    1    0    0    0 -0.66264919889E+01  0.20763913928E+02  0.22289705394E+02  0.93824986219E+02  0.88494330637E+02 0.  0.
         11    1    3    3    0    0 -0.27413523198E+02  0.38340802199E+02  0.39604096784E+02  0.61562999032E+02  0.51100000000E-03 0. -1.
         22    1    1    0    0    0  0.66264919889E+01 -0.20763913928E+02 -0.22289705394E+02  0.31175013781E+02  0.00000000000E+00 0. -1.
</event>
<event>
 5    1  0.1717510E-003  0.9118800E+02  0.7818608E-02  0.1130116E+00
         25   -1    0    0    0    0  0.00000000000E+00  0.00000000000E+00  0.99999998245E-14  0.12500000000E+03  0.12500000000E+03 0.  0.
        -11    1    3    3    0    0 -0.92958050302E+01  0.14732898003E+02 -0.31275357607E+02  0.35799696485E+02  0.51100000000E-03 0. -1.
         23    2    1    0    0    0  0.13746072311E+02  0.11077492006E+02  0.23657534592E+02  0.95481458774E+02  0.90803990516E+02 0.  0.
         11    1    3    3    0    0  0.23041877341E+02 -0.36554059969E+01  0.54932892199E+02  0.59681762289E+02  0.51100000000E-03 0.  1.
         22    1    1    0    0    0 -0.13746072311E+02 -0.11077492006E+02 -0.23657534592E+02  0.29518541226E+02  0.00000000000E+00 0.  1.
</event>
<event>
 5    1  0.1717510E-003  0.9118800E+02  0.7818608E-02  0.1130116E+00
         25   -1    0    0    0    0  0.00000000000E+00  0.00000000000E+00  0.99999998245E-14  0.12500000000E+03  0.12500000000E+03 0.  0.
        -11    1    3    3    0    0 -0.51052570846E+01  0.49095707674E+02  0.18344705747E+02  0.52659095996E+02  0.51100000000E-03 0.  1.
         23    2    1    0    0    0  0.21651598550E+02  0.16090384715E+02  0.11412261810E+02  0.95709525103E+02  0.91117403803E+02 0.  0.
         11    1    3    3    0    0  0.26756855635E+02 -0.33005322959E+02 -0.69324439376E+01  0.43050429107E+02  0.51100000000E-03 0. -1.
         22    1    1    0    0    0 -0.21651598550E+02 -0.16090384715E+02 -0.11412261810E+02  0.29290474897E+02  0.00000000000E+00 0.  1.
</event>
<event>
 5    1  0.1717510E-003  0.9118800E+02  0.7818608E-02  0.1130116E+00
         25   -1    0    0    0    0  0.00000000000E+00  0.00000000000E+00  0.99999998245E-14  0.12500000000E+03  0.12500000000E+03 0.  0.
        -11    1    3    3    0    0  0.65417758795E+01 -0.47666800614E+02  0.32811648292E+02  0.58236783705E+02  0.51100000000E-03 0.  1.
         23    2    1    0    0    0 -0.90940440283E+01 -0.25683775058E+02  0.44256765744E+01  0.97396656884E+02  0.93403234532E+02 0.  0.
         11    1    3    3    0    0 -0.15635819908E+02  0.21983025556E+02 -0.28385971717E+02  0.39159873179E+02  0.51100000000E-03 0. -1.
         22    1    1    0    0    0  0.90940440283E+01  0.25683775058E+02 -0.44256765744E+01  0.27603343116E+02  0.00000000000E+00 0.  1.
</event>
<event>
 5    1  0.1717510E-003  0.9118800E+02  0.7818608E-02  0.1130116E+00
         25   -1    0    0    0    0  0.00000000000E+00  0.00000000000E+00  0.99999998245E-14  0.12500000000E+03  0.12500000000E+03 0.  0.
        -11    1    3    3    0    0 -0.45977713794E+02  0.16039063256E+01 -0.55884254311E+01  0.46343858064E+02  0.51100000000E-03 0.  1.
         23    2    1    0    0    0 -0.52901554962E+01 -0.23794273383E+02 -0.16540739345E+02  0.95542416103E+02  0.90887865118E+02 0.  0.
         11    1    3    3    0    0  0.40687558298E+02 -0.25398179708E+02 -0.10952313914E+02  0.49198558038E+02  0.51100000000E-03 0. -1.
         22    1    1    0    0    0  0.52901554962E+01  0.23794273383E+02  0.16540739345E+02  0.29457583897E+02  0.00000000000E+00 0. -1.
</event>
<event>
 5    1  0.1717510E-003  0.9118800E+02  0.7818608E-02  0.1130116E+00
         25   -1    0    0    0    0  0.00000000000E+00  0.00000000000E+00  0.99999998245E-14  0.12500000000E+03  0.12500000000E+03 0.  0.
        -11    1    3    3    0    0  0.35913706359E+02 -0.39314424140E+02  0.76710984153E+01  0.53798364297E+02  0.51100000000E-03 0.  1.
         23    2    1    0    0    0  0.28716114004E+02  0.13688056713E+01 -0.18345844574E+01  0.96192804153E+02  0.91777998661E+02 0.  0.
         11    1    3    3    0    0 -0.71975923553E+01  0.40683229811E+02 -0.95056828728E+01  0.42394439856E+02  0.51100000000E-03 0. -1.
         22    1    1    0    0    0 -0.28716114004E+02 -0.13688056713E+01  0.18345844574E+01  0.28807195847E+02  0.00000000000E+00 0.  1.
</event>
<event>
 5    1  0.1717510E-003  0.9118800E+02  0.7818608E-02  0.1130116E+00
         25   -1    0    0    0    0  0.00000000000E+00  0.00000000000E+00  0.99999998245E-14  0.12500000000E+03  0.12500000000E+03 0.  0.
        -11    1    3    3    0    0  0.23421543979E+02  0.20691053463E+02  0.27285911532E+02  0.41487460565E+02  0.51100000000E-03 0.  1.
         23    2    1    0    0    0 -0.21804285270E+01  0.20794852307E+02 -0.20511638463E+02  0.95709942583E+02  0.91117976523E+02 0.  0.
         11    1    3    3    0    0 -0.25601972506E+02  0.10379884466E+00 -0.47797549995E+02  0.54222482018E+02  0.51100000000E-03 0. -1.
         22    1    1    0    0    0  0.21804285270E+01 -0.20794852307E+02  0.20511638463E+02  0.29290057417E+02  0.00000000000E+00 0. -1.
</event>
<event>
 5    1  0.1717510E-003  0.9118800E+02  0.7818608E-02  0.1130116E+00
         25   -1    0    0    0    0  0.00000000000E+00  0.00000000000E+00  0.99999998245E-14  0.12500000000E+03  0.12500000000E+03 0.  0.
        -11    1    3    3    0    0  0.26354686331E+02 -0.15056829715E+02  0.46783356162E+02  0.55767015580E+02  0.51100000000E-03 0.  1.
         23    2    1    0    0    0  0.27623935741E+02  0.44931439510E+01  0.14627154176E+02  0.93421149361E+02  0.87922052639E+02 0.  0.
         11    1    3    3    0    0  0.12692494107E+01  0.19549973666E+02 -0.32156201985E+02  0.37654133781E+02  0.51100000000E-03 0. -1.
         22    1    1    0    0    0 -0.27623935741E+02 -0.44931439510E+01 -0.14627154176E+02  0.31578850639E+02  0.00000000000E+00 0.  1.
</event>
<event>
 5    1  0.1717510E-003  0.9118800E+02  0.7818608E-02  0.1130116E+00
         25   -1    0    0    0    0  0.00000000000E+00  0.00000000000E+00  0.99999998245E-14  0.12500000000E+03  0.12500000000E+03 0.  0.
        -11    1    3    3    0    0 -0.27534859516E+02 -0.27610751420E+02  0.35048212147E+02  0.52429946190E+02  0.51100000000E-03 0.  1.
         23    2    1    0    0    0 -0.11640697066E+01  0.30044049348E+01  0.31876583900E+02  0.92960990833E+02  0.87265386656E+02 0.  0.
         11    1    3    3    0    0  0.26370789809E+02  0.30615156355E+02 -0.31716282469E+01  0.40531044643E+02  0.51100000000E-03 0. -1.
         22    1    1    0    0    0  0.11640697066E+01 -0.30044049348E+01 -0.31876583900E+02  0.32039009167E+02  0.00000000000E+00 0.  1.
</event>
<event>
 5    1  0.1717510E-003  0.9118800E+02  0.7818608E-02  0.1130116E+00
         25   -1    0    0    0    0  0.00000000000E+00  0.00000000000E+00  0.99999998245E-14  0.12500000000E+03  0.12500000000E+03 0.  0.
        -11    1    3    3    0    0 -0.57736227545E+02 -0.22220772791E+02  0.79434740787E+01  0.62372537990E+02  0.51100000000E-03 0.  1.
         23    2    1    0    0    0 -0.27663107012E+02 -0.78592312334E+01  0.47636733630E+01  0.95850255764E+02  0.91310261969E+02 0.  0.
         11    1    3    3    0    0  0.30073120533E+02  0.14361541558E+02 -0.31798007157E+01  0.33477717774E+02  0.51100000000E-03 0. -1.
         22    1    1    0    0    0  0.27663107012E+02  0.78592312334E+01 -0.47636733630E+01  0.29149744236E+02  0.00000000000E+00 0.  1.
</event>
<event>
 5    1  0.1717510E-003  0.9118800E+02  0.7818608E-02  0.1130116E+00
         25   -1    0    0    0    0  0.00000000000E+00  0.00000000000E+00  0.99999998245E-14  0.12500000000E+03  0.12500000000E+03 0.  0.
        -11    1    3    3    0    0 -0.13016323155E+02 -0.13883978653E+02  0.28635465639E+02  0.34382836188E+02  0.51100000000E-03 0.  1.
         23    2    1    0    0    0  0.22664955413E+02  0.10895737797E+02 -0.14804887347E+02  0.95817779465E+02  0.91265792421E+02 0.  0.
         11    1    3    3    0    0  0.35681278568E+02  0.24779716449E+02 -0.43440352987E+02  0.61434943277E+02  0.51100000000E-03 0. -1.
         22    1    1    0    0    0 -0.22664955413E+02 -0.10895737797E+02  0.14804887347E+02  0.29182220535E+02  0.00000000000E+00 0. -1.
</event>
<event>
 5    1  0.1717510E-003  0.9118800E+02  0.7818608E-02  0.1130116E+00
         25   -1    0    0    0    0  0.00000000000E+00  0.00000000000E+00  0.99999998245E-14  0.12500000000E+03  0.12500000000E+03 0.  0.
        -11    1    3    3    0    0  0.31810819885E+02  0.56528109850E+01 -0.20811224027E+02  0.38431622130E+02  0.51100000000E-03 0.  1.
         23    2    1    0    0    0 -0.19468822494E+02  0.22382824096E+02 -0.32540518250E+01  0.95156831316E+02  0.90356006048E+02 0.  0.
         11    1    3    3    0    0 -0.51279642379E+02  0.16730013111E+02  0.17557172202E+02  0.56725209186E+02  0.51100000000E-03 0. -1.
         22    1    1    0    0    0  0.19468822494E+02 -0.22382824096E+02  0.32540518250E+01  0.29843168684E+02  0.00000000000E+00 0. -1.
</event>
<event>
 5    1  0.1717510E-003  0.9118800E+02  0.7818608E-02  0.1130116E+00
         25   -1    0    0    0    0  0.00000000000E+00  0.00000000000E+00  0.99999998245E-14  0.12500000000E+03  0.12500000000E+03 0.  0.
        -11    1    3    3    0    0  0.24166491331E+02 -0.27001445570E+02  0.15316767428E+01  0.36269041895E+02  0.51100000000E-03 0.  1.
         23    2    1    0    0    0 -0.29308088780E+02 -0.27224201942E+01 -0.41634568991E+01  0.95272739565E+02  0.90516213416E+02 0.  0.
         11    1    3    3    0    0 -0.53474580110E+02  0.24279025376E+02 -0.56951336419E+01  0.59003697669E+02  0.51100000000E-03 0. -1.
         22    1    1    0    0    0  0.29308088780E+02  0.27224201942E+01  0.41634568991E+01  0.29727260435E+02  0.00000000000E+00 0. -1.
</event>
<event>
 5    1  0.1717510E-003  0.9118800E+02  0.7818608E-02  0.1130116E+00
         25   -1    0    0    0    0  0.00000000000E+00  0.00000000000E+00  0.99999998245E-14  0.12500000000E+03  0.12500000000E+03 0.  0.
        -11    1    3    3    0    0  0.11755618687E+02 -0.57875276228E+01 -0.48777021365E+02  0.50506315052E+02  0.51100000000E-03 0.  1.
         23    2    1    0    0    0  0.16541158965E+02  0.20589413481E+02 -0.12065830747E+02  0.95963502983E+02  0.91465161377E+02 0.  0.
         11    1    3    3    0    0  0.47855402774E+01  0.26376941104E+02  0.36711190617E+02  0.45457187931E+02  0.51100000000E-03 0. -1.
         22    1    1    0    0    0 -0.16541158965E+02 -0.20589413481E+02  0.12065830747E+02  0.29036497017E+02  0.00000000000E+00 0.  1.
</event>
<event>
 5    1  0.1717510E-003  0.9118800E+02  0.7818608E-02  0.1130116E+00
         25   -1    0    0    0    0  0.00000000000E+00  0.00000000000E+00  0.99999998245E-14  0.12500000000E+03  0.12500000000E+03 0.  0.
        -11    1    3    3    0    0 -0.56027681966E+02 -0.54199479743E+01 -0.21515010874E+02  0.60260871846E+02  0.51100000000E-03 0.  1.
         23    2    1    0    0    0 -0.30245810029E+02 -0.15112645738E+00  0.76999777652E+00  0.94744012822E+02  0.89783089752E+02 0.  0.
         11    1    3    3    0    0  0.25781871937E+02  0.52688215169E+01  0.22285008650E+02  0.34483140976E+02  0.51100000000E-03 0. -1.
         22    1    1    0    0    0  0.30245810029E+02  0.15112645738E+00 -0.76999777652E+00  0.30255987178E+02  0.00000000000E+00 0.  1.
</event>
<event>
 5    1  0.1717510E-003  0.9118800E+02  0.7818608E-02  0.1130116E+00
         25   -1    0    0    0    0  0.00000000000E+00  0.00000000000E+00  0.99999998245E-14  0.12500000000E+03  0.12500000000E+03 0.  0.
        -11    1    3    3    0    0 -0.43162835807E+02 -0.71473193043E+01  0.23483147627E+02  0.49654534444E+02  0.51100000000E-03 0.  1.
         23    2    1    0    0    0 -0.12234510966E+02  0.23434796622E+02  0.16844509194E+02  0.93653382299E+02  0.88251603808E+02 0.  0.
         11    1    3    3    0    0  0.30928324841E+02  0.30582115927E+02 -0.66386384328E+01  0.43998847855E+02  0.51100000000E-03 0. -1.
         22    1    1    0    0    0  0.12234510966E+02 -0.23434796622E+02 -0.16844509194E+02  0.31346617701E+02  0.00000000000E+00 0.  1.
</event>
<event>
 5    1  0.1717510E-003  0.9118800E+02  0.7818608E-02  0.1130116E+00
         25   -1    0    0    0    0  0.00000000000E+00  0.00000000000E+00  0.99999998245E-14  0.12500000000E+03  0.12500000000E+03 0.  0.
        -11    1    3    3    0    0  0.16360397390E+02 -0.32137192274E+02 -0.13263852142E+02  0.38423840307E+02  0.51100000000E-03 0. -1.
         23    2    1    0    0    0 -0.11688687498E+02  0.16888655815E+02 -0.21224576801E+02  0.95464686034E+02  0.90780898368E+02 0.  0.
         11    1    3    3    0    0 -0.28049084888E+02  0.49025848089E+02 -0.79607246588E+01  0.57040845727E+02  0.51100000000E-03 0.  1.
         22    1    1    0    0    0  0.11688687498E+02 -0.16888655815E+02  0.21224576801E+02  0.29535313966E+02  0.00000000000E+00 0.  1.
</event>
<event>
 5    1  0.1717510E-003  0.9118800E+02  0.7818608E-02  0.1130116E+00
         25   -1    0    0    0    0  0.00000000000E+00  0.00000000000E+00  0.99999998245E-14  0.12500000000E+03  0.12500000000E+03 0.  0.
        -11    1    3    3    0    0  0.23710330104E+02  0.23041105868E+02  0.10681789475E+02  0.34744394367E+02  0.51100000000E-03 0. -1.
         23    2    1    0    0    0 -0.27446601921E+02 -0.93263761495E+01  0.54249795565E+01  0.95508854681E+02  0.90841695659E+02 0.  0.
         11    1    3    3    0    0 -0.51156932025E+02 -0.32367482018E+02 -0.52568099185E+01  0.60764460313E+02  0.51100000000E-03 0.  1.
         22    1    1    0    0    0  0.27446601921E+02  0.93263761495E+01 -0.54249795565E+01  0.29491145319E+02  0.00000000000E+00 0.  1.
</event>
<event>
 5    1  0.1717510E-003  0.9118800E+02  0.7818608E-02  0.1130116E+00
         25   -1    0    0    0    0  0.00000000000E+00  0.00000000000E+00  0.99999998245E-14  0.12500000000E+03  0.12500000000E+03 0.  0.
        -11    1    3    3    0    0 -0.20698924202E+02  0.35804402448E+02  0.37160639856E+02  0.55599585003E+02  0.51100000000E-03 0.  1.
         23    2    1    0    0    0 -0.25723195568E+02  0.82192148640E+01  0.63493207386E+01  0.97259196893E+02  0.93219092589E+02 0.  0.
         11    1    3    3    0    0 -0.50242713663E+01 -0.27585187584E+02 -0.30811319117E+02  0.41659611890E+02  0.51100000000E-03 0. -1.
         22    1    1    0    0    0  0.25723195568E+02 -0.82192148640E+01 -0.63493207386E+01  0.27740803107E+02  0.00000000000E+00 0.  1.
</event>
<event>
 5    1  0.1717510E-003  0.9118800E+02  0.7818608E-02  0.1130116E+00
         25   -1    0    0    0    0  0.00000000000E+00  0.00000000000E+00  0.99999998245E-14  0.12500000000E+03  0.12500000000E+03 0.  0.
        -11    1    3    3    0    0  0.38195724182E+02  0.28989656784E+02  0.25456033075E+02  0.54289254613E+02  0.51100000000E-03 0. -1.
         23    2    1    0    0    0 -0.69415677120E+00  0.18977938500E+02  0.23895190687E+02  0.94477481406E+02  0.89411242870E+02 0.  0.
         11    1    3    3    0    0 -0.38889880954E+02 -0.10011718284E+02 -0.15608423877E+01  0.40188226793E+02  0.51100000000E-03 0.  1.
         22    1    1    0    0    0  0.69415677120E+00 -0.18977938500E+02 -0.23895190687E+02  0.30522518594E+02  0.00000000000E+00 0. -1.
</event>
<event>
 5    1  0.1717510E-003  0.9118800E+02  0.7818608E-02  0.1130116E+00
         25   -1    0    0    0    0  0.00000000000E+00  0.00000000000E+00  0.99999998245E-14  0.12500000000E+03  0.12500000000E+03 0.  0.
        -11    1    3    3    0    0  0.34900949979E+02  0.16197192167E+02 -0.43325496737E+02  0.57944145617E+02  0.51100000000E-03 0. -1.
         23    2    1    0    0    0  0.11037440133E+02  0.22869057230E+02 -0.15296667110E+02  0.95355322772E+02  0.90630186434E+02 0.  0.
         11    1    3    3    0    0 -0.23863509846E+02  0.66718650627E+01  0.28028829627E+02  0.37411177155E+02  0.51100000000E-03 0.  1.
         22    1    1    0    0    0 -0.11037440133E+02 -0.22869057230E+02  0.15296667110E+02  0.29644677228E+02  0.00000000000E+00 0. -1.
</event>
<event>
 5    1  0.1717510E-003  0.9118800E+02  0.7818608E-02  0.1130116E+00
         25   -1    0    0    0    0  0.00000000000E+00  0.00000000000E+00  0.99999998245E-14  0.12500000000E+03  0.12500000000E+03 0.  0.
        -11    1    3    3    0    0  0.18259345316E+02  0.14656178374E+02 -0.22528778906E+02  0.32492355027E+02  0.51100000000E-03 0. -1.
         23    2    1    0    0    0 -0.28718258134E+02 -0.46990540715E+01  0.11571631941E+02  0.93683516718E+02  0.88294276028E+02 0.  0.
         11    1    3    3    0    0 -0.46977603450E+02 -0.19355232446E+02  0.34100410847E+02  0.61191161691E+02  0.51100000000E-03 0.  1.
         22    1    1    0    0    0  0.28718258134E+02  0.46990540715E+01 -0.11571631941E+02  0.31316483282E+02  0.00000000000E+00 0.  1.
</event>
<event>
 5    1  0.1717510E-003  0.9118800E+02  0.7818608E-02  0.1130116E+00
         25   -1    0    0    0    0  0.00000000000E+00  0.00000000000E+00  0.99999998245E-14  0.12500000000E+03  0.12500000000E+03 0.  0.
        -11    1    3    3    0    0  0.21855044912E+02  0.84381677360E+00  0.27865732347E+02  0.35423919240E+02  0.51100000000E-03 0.  1.
         23    2    1    0    0    0 -0.29434360233E+02  0.74943002874E+01 -0.91758961117E+00  0.94612698872E+02  0.89600082132E+02 0.  0.
         11    1    3    3    0    0 -0.51289405145E+02  0.66504835138E+01 -0.28783321958E+02  0.59188779632E+02  0.51100000000E-03 0. -1.
         22    1    1    0    0    0  0.29434360233E+02 -0.74943002874E+01  0.91758961117E+00  0.30387301128E+02  0.00000000000E+00 0.  1.
</event>
<event>
 5    1  0.1717510E-003  0.9118800E+02  0.7818608E-02  0.1130116E+00
         25   -1    0    0    0    0  0.00000000000E+00  0.00000000000E+00  0.99999998245E-14  0.12500000000E+03  0.12500000000E+03 0.  0.
        -11    1    3    3    0    0  0.12437744007E+02  0.40528610856E+02 -0.39301505076E+02  0.57808944597E+02  0.51100000000E-03 0.  1.
         23    2    1    0    0    0  0.32873926612E+01  0.50406283176E+01 -0.28291253552E+02  0.96075790212E+02  0.91618489143E+02 0.  0.
         11    1    3    3    0    0 -0.91503513459E+01 -0.35487982538E+02  0.11010251524E+02  0.38266845615E+02  0.51100000000E-03 0. -1.
         22    1    1    0    0    0 -0.32873926612E+01 -0.50406283176E+01  0.28291253552E+02  0.28924209788E+02  0.00000000000E+00 0.  1.
</event>
<event>
 5    1  0.1717510E-003  0.9118800E+02  0.7818608E-02  0.1130116E+00
         25   -1    0    0    0    0  0.00000000000E+00  0.00000000000E+00  0.99999998245E-14  0.12500000000E+03  0.12500000000E+03 0.  0.
        -11    1    3    3    0    0  0.30757964627E+02 -0.10217320405E+02  0.21164993088E+02  0.38709210234E+02  0.51100000000E-03 0. -1.
         23    2    1    0    0    0 -0.15714881546E+02  0.21192073034E+02  0.12611192527E+00  0.98616721854E+02  0.95021999893E+02 0.  0.
         11    1    3    3    0    0 -0.46472846173E+02  0.31409393439E+02 -0.21038881163E+02  0.59907511620E+02  0.51100000000E-03 0.  1.
         22    1    1    0    0    0  0.15714881546E+02 -0.21192073034E+02 -0.12611192527E+00  0.26383278146E+02  0.00000000000E+00 0.  1.
</event>
<event>
 5    1  0.1717510E-003  0.9118800E+02  0.7818608E-02  0.1130116E+00
         25   -1    0    0    0    0  0.00000000000E+00  0.00000000000E+00  0.99999998245E-14  0.12500000000E+03  0.12500000000E+03 0.  0.
        -11    1    3    3    0    0 -0.29457078654E+01 -0.43191416679E+02 -0.11862567145E+02  0.44887594824E+02  0.51100000000E-03 0. -1.
         23    2    1    0    0    0 -0.29606066243E+02 -0.29567480930E+01  0.22141024379E+01  0.95164387600E+02  0.90366458933E+02 0.  0.
         11    1    3    3    0    0 -0.26660358377E+02  0.40234668586E+02  0.14076669583E+02  0.50276792776E+02  0.51100000000E-03 0.  1.
         22    1    1    0    0    0  0.29606066243E+02  0.29567480930E+01 -0.22141024379E+01  0.29835612400E+02  0.00000000000E+00 0. -1.
</event>
<event>
 5    1  0.1717510E-003  0.9118800E+02  0.7818608E-02  0.1130116E+00
         25   -1    0    0    0    0  0.00000000000E+00  0.00000000000E+00  0.99999998245E-14  0.12500000000E+03  0.12500000000E+03 0.  0.
        -11    1    3    3    0    0  0.28439575713E+02 -0.10018613234E+02 -0.26471356493E+02  0.40123743503E+02  0.51100000000E-03 0. -1.
         23    2    1    0    0    0 -0.19513794119E+02  0.12910654453E+02  0.38040711804E+01  0.10129463949E+03  0.98481774318E+02 0.  0.
         11    1    3    3    0    0 -0.47953369832E+02  0.22929267687E+02  0.30275427673E+02  0.61170895988E+02  0.51100000000E-03 0.  1.
         22    1    1    0    0    0  0.19513794119E+02 -0.12910654453E+02 -0.38040711804E+01  0.23705360509E+02  0.00000000000E+00 0.  1.
</event>
<event>
 5    1  0.1717510E-003  0.9118800E+02  0.7818608E-02  0.1130116E+00
         25   -1    0    0    0    0  0.00000000000E+00  0.00000000000E+00  0.99999998245E-14  0.12500000000E+03  0.12500000000E+03 0.  0.
        -11    1    3    3    0    0  0.83197283882E+01  0.44299785535E+02 -0.40884999418E+02  0.60854515499E+02  0.51100000000E-03 0. -1.
         23    2    1    0    0    0  0.11785897151E+01  0.13801551514E+02 -0.26012863041E+02  0.95528981329E+02  0.90869386112E+02 0.  0.
         11    1    3    3    0    0 -0.71411386731E+01 -0.30498234021E+02  0.14872136377E+02  0.34674465831E+02  0.51100000000E-03 0.  1.
         22    1    1    0    0    0 -0.11785897151E+01 -0.13801551514E+02  0.26012863041E+02  0.29471018671E+02  0.00000000000E+00 0. -1.
</event>
<event>
 5    1  0.1717510E-003  0.9118800E+02  0.7818608E-02  0.1130116E+00
         25   -1    0    0    0    0  0.00000000000E+00  0.00000000000E+00  0.99999998245E-14  0.12500000000E+03  0.12500000000E+03 0.  0.
        -11    1    3    3    0    0  0.48187674593E+02  0.71294577540E+01  0.33262335588E+02  0.58985287314E+02  0.51100000000E-03 0.  1.
         23    2    1    0    0    0  0.13396361488E+02  0.13164895796E+02  0.22052712785E+02  0.96032792270E+02  0.91559805961E+02 0.  0.
         11    1    3    3    0    0 -0.34791313104E+02  0.60354380422E+01 -0.11209622802E+02  0.37047504957E+02  0.51100000000E-03 0. -1.
         22    1    1    0    0    0 -0.13396361488E+02 -0.13164895796E+02 -0.22052712785E+02  0.28967207730E+02  0.00000000000E+00 0.  1.
</event>
<event>
 5    1  0.1717510E-003  0.9118800E+02  0.7818608E-02  0.1130116E+00
         25   -1    0    0    0    0  0.00000000000E+00  0.00000000000E+00  0.99999998245E-14  0.12500000000E+03  0.12500000000E+03 0.  0.
        -11    1    3    3    0    0  0.28857820419E+02  0.95436204794E+01 -0.53906704784E+02  0.61885275407E+02  0.51100000000E-03 0.  1.
         23    2    1    0    0    0  0.17131656567E+02  0.89174465927E+01 -0.22889319864E+02  0.95051118981E+02  0.90209643305E+02 0.  0.
         11    1    3    3    0    0 -0.11726163852E+02 -0.62617388678E+00  0.31017384920E+02  0.33165843574E+02  0.51100000000E-03 0. -1.
         22    1    1    0    0    0 -0.17131656567E+02 -0.89174465927E+01  0.22889319864E+02  0.29948881019E+02  0.00000000000E+00 0.  1.
</event>
<event>
 5    1  0.1717510E-003  0.9118800E+02  0.7818608E-02  0.1130116E+00
         25   -1    0    0    0    0  0.00000000000E+00  0.00000000000E+00  0.99999998245E-14  0.12500000000E+03  0.12500000000E+03 0.  0.
        -11    1    3    3    0    0  0.20138480059E+02  0.32133954608E+02 -0.39265998633E+02  0.54589083769E+02  0.51100000000E-03 0.  1.
         23    2    1    0    0    0  0.20868961835E+02 -0.41177382524E+01 -0.20675279576E+02  0.95336275993E+02  0.90603912710E+02 0.  0.
         11    1    3    3    0    0  0.73048177555E+00 -0.36251692860E+02  0.18590719057E+02  0.40747192224E+02  0.51100000000E-03 0. -1.
         22    1    1    0    0    0 -0.20868961835E+02  0.41177382524E+01  0.20675279576E+02  0.29663724007E+02  0.00000000000E+00 0.  1.
</event>
<event>
 5    1  0.1717510E-003  0.9118800E+02  0.7818608E-02  0.1130116E+00
         25   -1    0    0    0    0  0.00000000000E+00  0.00000000000E+00  0.99999998245E-14  0.12500000000E+03  0.12500000000E+03 0.  0.
        -11    1    3    3    0    0 -0.38719049862E+02  0.95445381057E+00  0.38996896246E+01  0.38926641054E+02  0.51100000000E-03 0.  1.
         23    2    1    0    0    0  0.10565522701E+02  0.16587113332E+02 -0.20926749919E+02  0.96282558247E+02  0.91900160837E+02 0.  0.
         11    1    3    3    0    0  0.49284572563E+02  0.15632659522E+02 -0.24826439543E+02  0.57355917194E+02  0.51100000000E-03 0. -1.
         22    1    1    0    0    0 -0.10565522701E+02 -0.16587113332E+02  0.20926749919E+02  0.28717441753E+02  0.00000000000E+00 0. -1.
</event>
<event>
 5    1  0.1717510E-003  0.9118800E+02  0.7818608E-02  0.1130116E+00
         25   -1    0    0    0    0  0.00000000000E+00  0.00000000000E+00  0.99999998245E-14  0.12500000000E+03  0.12500000000E+03 0.  0.
        -11    1    3    3    0    0  0.26091939787E+02 -0.45779542170E+02  0.27082909798E+02  0.59245588921E+02  0.51100000000E-03 0. -1.
         23    2    1    0    0    0  0.38696823581E+00 -0.29153835214E+02  0.10900758892E+02  0.93872481684E+02  0.88561393514E+02 0.  0.
         11    1    3    3    0    0 -0.25704971551E+02  0.16625706957E+02 -0.16182150907E+02  0.34626892764E+02  0.51100000000E-03 0.  1.
         22    1    1    0    0    0 -0.38696823581E+00  0.29153835214E+02 -0.10900758892E+02  0.31127518316E+02  0.00000000000E+00 0. -1.
</event>
<event>
 5    1  0.1717510E-003  0.9118800E+02  0.7818608E-02  0.1130116E+00
         25   -1    0    0    0    0  0.00000000000E+00  0.00000000000E+00  0.99999998245E-14  0.12500000000E+03  0.12500000000E+03 0.  0.
        -11    1    3    3    0    0 -0.28727598365E+02  0.19113127167E+02 -0.22145217079E+02  0.40999965581E+02  0.51100000000E-03 0.  1.
         23    2    1    0    0    0 -0.14488287451E+02 -0.24290983828E+02  0.78492835199E+01  0.95647425660E+02  0.91032172417E+02 0.  0.
         11    1    3    3    0    0  0.14239310914E+02 -0.43404110995E+02  0.29994500599E+02  0.54647460079E+02  0.51100000000E-03 0. -1.
         22    1    1    0    0    0  0.14488287451E+02  0.24290983828E+02 -0.78492835199E+01  0.29352574340E+02  0.00000000000E+00 0. -1.
</event>
<event>
 5    1  0.1717510E-003  0.9118800E+02  0.7818608E-02  0.1130116E+00
         25   -1    0    0    0    0  0.00000000000E+00  0.00000000000E+00  0.99999998245E-14  0.12500000000E+03  0.12500000000E+03 0.  0.
        -11    1    3    3    0    0 -0.62351883905E+01 -0.12933303620E+01 -0.36148254108E+02  0.36704857349E+02  0.51100000000E-03 0.  1.
         23    2    1    0    0    0  0.52186910599E+00  0.21279944966E+02  0.18868306276E+02  0.96554940906E+02  0.92269904230E+02 0.  0.
         11    1    3    3    0    0  0.67570574964E+01  0.22573275328E+02  0.55016560384E+02  0.59850083557E+02  0.51100000000E-03 0. -1.
         22    1    1    0    0    0 -0.52186910599E+00 -0.21279944966E+02 -0.18868306276E+02  0.28445059094E+02  0.00000000000E+00 0. -1.
</event>
<event>
 5    1  0.1717510E-003  0.9118800E+02  0.7818608E-02  0.1130116E+00
         25   -1    0    0    0    0  0.00000000000E+00  0.00000000000E+00  0.99999998245E-14  0.12500000000E+03  0.12500000000E+03 0.  0.
        -11    1    3    3    0    0 -0.27092753882E+02 -0.56774608784E+01 -0.31029819463E+02  0.41582455087E+02  0.51100000000E-03 0. -1.
         23    2    1    0    0    0  0.19407470143E+02  0.16298012916E+02 -0.15436446752E+02  0.95325785424E+02  0.90589438435E+02 0.  0.
         11    1    3    3    0    0  0.46500224025E+02  0.21975473795E+02  0.15593372711E+02  0.53743330336E+02  0.51100000000E-03 0.  1.
         22    1    1    0    0    0 -0.19407470143E+02 -0.16298012916E+02  0.15436446752E+02  0.29674214576E+02  0.00000000000E+00 0. -1.
</event>
<event>
 5    1  0.1717510E-003  0.9118800E+02  0.7818608E-02  0.1130116E+00
         25   -1    0    0    0    0  0.00000000000E+00  0.00000000000E+00  0.99999998245E-14  0.12500000000E+03  0.12500000000E+03 0.  0.
        -11    1    3    3    0    0 -0.23987703144E+02  0.35102801772E+02 -0.25951840226E+02  0.49810788046E+02  0.51100000000E-03 0.  1.
         23    2    1    0    0    0 -0.16242832278E+02 -0.10917973291E+02 -0.20270613945E+02  0.96823244848E+02  0.92632668168E+02 0.  0.
         11    1    3    3    0    0  0.77448708665E+01 -0.46020775064E+02  0.56812262804E+01  0.47012456801E+02  0.51100000000E-03 0. -1.
         22    1    1    0    0    0  0.16242832278E+02  0.10917973291E+02  0.20270613945E+02  0.28176755152E+02  0.00000000000E+00 0. -1.
</event>
<event>
 5    1  0.1717510E-003  0.9118800E+02  0.7818608E-02  0.1130116E+00
         25   -1    0    0    0    0  0.00000000000E+00  0.00000000000E+00  0.99999998245E-14  0.12500000000E+03  0.12500000000E+03 0.  0.
        -11    1    3    3    0    0 -0.14008599713E+02  0.23590680114E+02  0.51406233949E+02  0.58269734368E+02  0.51100000000E-03 0.  1.
         23    2    1    0    0    0  0.68676253914E+01  0.36611953901E+01  0.29464642631E+02  0.94524865946E+02  0.89477463568E+02 0.  0.
         11    1    3    3    0    0  0.20876225105E+02 -0.19929484723E+02 -0.21941591318E+02  0.36255131579E+02  0.51100000000E-03 0. -1.
         22    1    1    0    0    0 -0.68676253914E+01 -0.36611953901E+01 -0.29464642631E+02  0.30475134054E+02  0.00000000000E+00 0.  1.
</event>
<event>
 5    1  0.1717510E-003  0.9118800E+02  0.7818608E-02  0.1130116E+00
         25   -1    0    0    0    0  0.00000000000E+00  0.00000000000E+00  0.99999998245E-14  0.12500000000E+03  0.12500000000E+03 0.  0.
        -11    1    3    3    0    0 -0.30511176333E+01 -0.18842398784E+02  0.39832399953E+02  0.44169733948E+02  0.51100000000E-03 0. -1.
         23    2    1    0    0    0  0.33654659102E+01  0.25395711094E+02  0.13696828189E+02  0.95950531757E+02  0.91447432655E+02 0.  0.
         11    1    3    3    0    0  0.64165835435E+01  0.44238109879E+02 -0.26135571765E+02  0.51780797809E+02  0.51100000000E-03 0.  1.
         22    1    1    0    0    0 -0.33654659102E+01 -0.25395711094E+02 -0.13696828189E+02  0.29049468243E+02  0.00000000000E+00 0.  1.
</event>
<event>
 5    1  0.1717510E-003  0.9118800E+02  0.7818608E-02  0.1130116E+00
         25   -1    0    0    0    0  0.00000000000E+00  0.00000000000E+00  0.99999998245E-14  0.12500000000E+03  0.12500000000E+03 0.  0.
        -11    1    3    3    0    0  0.31431716798E+02 -0.28540046602E+02 -0.11330174316E+01  0.42470823039E+02  0.51100000000E-03 0.  1.
         23    2    1    0    0    0 -0.19858682082E+02 -0.23803637891E+02  0.28611875287E+00  0.93998995261E+02  0.88739781470E+02 0.  0.
         11    1    3    3    0    0 -0.51290398880E+02  0.47364087108E+01  0.14191361845E+01  0.51528172222E+02  0.51100000000E-03 0. -1.
         22    1    1    0    0    0  0.19858682082E+02  0.23803637891E+02 -0.28611875287E+00  0.31001004739E+02  0.00000000000E+00 0. -1.
</event>
<event>
 5    1  0.1717510E-003  0.9118800E+02  0.7818608E-02  0.1130116E+00
         25   -1    0    0    0    0  0.00000000000E+00  0.00000000000E+00  0.99999998245E-14  0.12500000000E+03  0.12500000000E+03 0.  0.
        -11    1    3    3    0    0 -0.16192751037E+02 -0.37349581559E+02  0.23519048960E+02  0.47014275417E+02  0.51100000000E-03 0. -1.
         23    2    1    0    0    0 -0.29457356238E+02 -0.63655358985E+00 -0.46750340681E+01  0.95167182826E+02  0.90370325364E+02 0.  0.
         11    1    3    3    0    0 -0.13264605202E+02  0.36713027969E+02 -0.28194083028E+02  0.48152907408E+02  0.51100000000E-03 0.  1.
         22    1    1    0    0    0  0.29457356238E+02  0.63655358985E+00  0.46750340681E+01  0.29832817174E+02  0.00000000000E+00 0.  1.
</event>
<event>
 5    1  0.1717510E-003  0.9118800E+02  0.7818608E-02  0.1130116E+00
         25   -1    0    0    0    0  0.00000000000E+00  0.00000000000E+00  0.99999998245E-14  0.12500000000E+03  0.12500000000E+03 0.  0.
        -11    1    3    3    0    0  0.51564772283E+02  0.16805591745E+02  0.18744165693E+02  0.57382030308E+02  0.51100000000E-03 0.  1.
         23    2    1    0    0    0  0.28133972555E+02 -0.82343293686E+01  0.18053281268E+01  0.95630222991E+02  0.91008547663E+02 0.  0.
         11    1    3    3    0    0 -0.23430799727E+02 -0.25039921113E+02 -0.16938837566E+02  0.38248192684E+02  0.51100000000E-03 0. -1.
         22    1    1    0    0    0 -0.28133972555E+02  0.82343293686E+01 -0.18053281268E+01  0.29369777009E+02  0.00000000000E+00 0. -1.
</event>
<event>
 5    1  0.1717510E-003  0.9118800E+02  0.7818608E-02  0.1130116E+00
         25   -1    0    0    0    0  0.00000000000E+00  0.00000000000E+00  0.99999998245E-14  0.12500000000E+03  0.12500000000E+03 0.  0.
        -11    1    3    3    0    0 -0.47797684024E+00  0.51104261687E+02 -0.22948300438E+02  0.56022303752E+02  0.51100000000E-03 0. -1.
         23    2    1    0    0    0 -0.19131201373E+02  0.18425516145E+02 -0.40415164487E+01  0.98132987393E+02  0.94383509409E+02 0.  0.
         11    1    3    3    0    0 -0.18653224533E+02 -0.32678745542E+02  0.18906783989E+02  0.42110683641E+02  0.51100000000E-03 0.  1.
         22    1    1    0    0    0  0.19131201373E+02 -0.18425516145E+02  0.40415164487E+01  0.26867012607E+02  0.00000000000E+00 0. -1.
</event>
<event>
 5    1  0.1717510E-003  0.9118800E+02  0.7818608E-02  0.1130116E+00
         25   -1    0    0    0    0  0.00000000000E+00  0.00000000000E+00  0.99999998245E-14  0.12500000000E+03  0.12500000000E+03 0.  0.
        -11    1    3    3    0    0 -0.22891780216E+02 -0.10715252397E+02 -0.23326453429E+02  0.34394384211E+02  0.51100000000E-03 0.  1.
         23    2    1    0    0    0  0.14313720417E+02  0.27149303947E+02  0.39134758916E+01  0.94060016313E+02  0.88825694922E+02 0.  0.
         11    1    3    3    0    0  0.37205500634E+02  0.37864556344E+02  0.27239929321E+02  0.59665632102E+02  0.51100000000E-03 0. -1.
         22    1    1    0    0    0 -0.14313720417E+02 -0.27149303947E+02 -0.39134758916E+01  0.30939983687E+02  0.00000000000E+00 0. -1.
</event>
<event>
 5    1  0.1717510E-003  0.9118800E+02  0.7818608E-02  0.1130116E+00
         25   -1    0    0    0    0  0.00000000000E+00  0.00000000000E+00  0.99999998245E-14  0.12500000000E+03  0.12500000000E+03 0.  0.
        -11    1    3    3    0    0  0.18116125920E+02  0.68878672462E+01 -0.51955329598E+02  0.55452619482E+02  0.51100000000E-03 0. -1.
         23    2    1    0    0    0 -0.11395809373E+02 -0.33582271068E+01 -0.27222821612E+02  0.95297741213E+02  0.90550733311E+02 0.  0.
         11    1    3    3    0    0 -0.29511935293E+02 -0.10246094353E+02  0.24732507986E+02  0.39845121731E+02  0.51100000000E-03 0.  1.
         22    1    1    0    0    0  0.11395809373E+02  0.33582271068E+01  0.27222821612E+02  0.29702258787E+02  0.00000000000E+00 0. -1.
</event>
<event>
 5    1  0.1717510E-003  0.9118800E+02  0.7818608E-02  0.1130116E+00
         25   -1    0    0    0    0  0.00000000000E+00  0.00000000000E+00  0.99999998245E-14  0.12500000000E+03  0.12500000000E+03 0.  0.
        -11    1    3    3    0    0  0.67582003125E+01 -0.73533128713E+01  0.36643864124E+02  0.37980485251E+02  0.51100000000E-03 0.  1.
         23    2    1    0    0    0  0.31183635123E+02 -0.33681801917E+01 -0.11076541874E+02  0.91736603944E+02  0.85493572776E+02 0.  0.
         11    1    3    3    0    0  0.24425434810E+02  0.39851326795E+01 -0.47720405998E+02  0.53756118694E+02  0.51100000000E-03 0. -1.
         22    1    1    0    0    0 -0.31183635123E+02  0.33681801917E+01  0.11076541874E+02  0.33263396056E+02  0.00000000000E+00 0. -1.
</event>
<event>
 5    1  0.1717510E-003  0.9118800E+02  0.7818608E-02  0.1130116E+00
         25   -1    0    0    0    0  0.00000000000E+00  0.00000000000E+00  0.99999998245E-14  0.12500000000E+03  0.12500000000E+03 0.  0.
        -11    1    3    3    0    0  0.53015277105E+02 -0.14134714575E+02  0.46723258469E+00  0.54869190528E+02  0.51100000000E-03 0. -1.
         23    2    1    0    0    0  0.21474726160E+02 -0.83210217405E+01  0.21719510532E+02  0.93343398726E+02  0.87811443910E+02 0.  0.
         11    1    3    3    0    0 -0.31540550945E+02  0.58136928342E+01  0.21252277948E+02  0.38474208199E+02  0.51100000000E-03 0.  1.
         22    1    1    0    0    0 -0.21474726160E+02  0.83210217405E+01 -0.21719510532E+02  0.31656601274E+02  0.00000000000E+00 0. -1.
</event>
<event>
 5    1  0.1717510E-003  0.9118800E+02  0.7818608E-02  0.1130116E+00
         25   -1    0    0    0    0  0.00000000000E+00  0.00000000000E+00  0.99999998245E-14  0.12500000000E+03  0.12500000000E+03 0.  0.
        -11    1    3    3    0    0  0.37810204892E+02  0.56292913328E+01  0.28244277317E+02  0.47529356364E+02  0.51100000000E-03 0. -1.
         23    2    1    0    0    0  0.18082127540E+02 -0.26830867546E+02  0.44786930444E+01  0.92336297193E+02  0.86365932510E+02 0.  0.
         11    1    3    3    0    0 -0.19728077352E+02 -0.32460158879E+02 -0.23765584273E+02  0.44806940830E+02  0.51100000000E-03 0.  1.
         22    1    1    0    0    0 -0.18082127540E+02  0.26830867546E+02 -0.44786930444E+01  0.32663702807E+02  0.00000000000E+00 0.  1.
</event>
<event>
 5    1  0.1717510E-003  0.9118800E+02  0.7818608E-02  0.1130116E+00
         25   -1    0    0    0    0  0.00000000000E+00  0.00000000000E+00  0.99999998245E-14  0.12500000000E+03  0.12500000000E+03 0.  0.
        -11    1    3    3    0    0 -0.45195215970E+02  0.17102444598E+02  0.86541651674E+00  0.48330633182E+02  0.51100000000E-03 0.  1.
         23    2    1    0    0    0 -0.25393826170E+01  0.24276169968E+02 -0.17130764329E+02  0.95179805854E+02  0.90387783818E+02 0.  0.
         11    1    3    3    0    0  0.42655833353E+02  0.71737253698E+01 -0.17996180846E+02  0.46849172672E+02  0.51100000000E-03 0. -1.
         22    1    1    0    0    0  0.25393826170E+01 -0.24276169968E+02  0.17130764329E+02  0.29820194146E+02  0.00000000000E+00 0.  1.
</event>
<event>
 5    1  0.1717510E-003  0.9118800E+02  0.7818608E-02  0.1130116E+00
         25   -1    0    0    0    0  0.00000000000E+00  0.00000000000E+00  0.99999998245E-14  0.12500000000E+03  0.12500000000E+03 0.  0.
        -11    1    3    3    0    0  0.12452192598E+02 -0.41588706964E+02  0.81054030130E+01  0.44163052495E+02  0.51100000000E-03 0. -1.
         23    2    1    0    0    0 -0.25940456298E+02 -0.90152078242E+01 -0.68688064789E+01  0.96691666465E+02  0.92454943710E+02 0.  0.
         11    1    3    3    0    0 -0.38392648896E+02  0.32573499140E+02 -0.14974209492E+02  0.52528613970E+02  0.51100000000E-03 0.  1.
         22    1    1    0    0    0  0.25940456298E+02  0.90152078242E+01  0.68688064789E+01  0.28308333535E+02  0.00000000000E+00 0.  1.
</event>
<event>
 5    1  0.1717510E-003  0.9118800E+02  0.7818608E-02  0.1130116E+00
         25   -1    0    0    0    0  0.00000000000E+00  0.00000000000E+00  0.99999998245E-14  0.12500000000E+03  0.12500000000E+03 0.  0.
        -11    1    3    3    0    0  0.42004371623E+00 -0.51364180405E+02  0.33890928075E+02  0.61539015848E+02  0.51100000000E-03 0.  1.
         23    2    1    0    0    0  0.78095014715E+01 -0.22635232655E+02  0.16431156938E+02  0.95959941651E+02  0.91460294187E+02 0.  0.
         11    1    3    3    0    0  0.73894577553E+01  0.28728947751E+02 -0.17459771137E+02  0.34420925804E+02  0.51100000000E-03 0. -1.
         22    1    1    0    0    0 -0.78095014715E+01  0.22635232655E+02 -0.16431156938E+02  0.29040058349E+02  0.00000000000E+00 0.  1.
</event>
<event>
 5    1  0.1717510E-003  0.9118800E+02  0.7818608E-02  0.1130116E+00
         25   -1    0    0    0    0  0.00000000000E+00  0.00000000000E+00  0.99999998245E-14  0.12500000000E+03  0.12500000000E+03 0.  0.
        -11    1    3    3    0    0 -0.39349961502E+02  0.44876763827E+02 -0.18403378506E+02  0.62458207967E+02  0.51100000000E-03 0. -1.
         23    2    1    0    0    0 -0.17731820151E+02  0.21139524270E+02 -0.10070576349E+02  0.95628016066E+02  0.91005516407E+02 0.  0.
         11    1    3    3    0    0  0.21618141352E+02 -0.23737239557E+02  0.83328021573E+01  0.33169808099E+02  0.51100000000E-03 0.  1.
         22    1    1    0    0    0  0.17731820151E+02 -0.21139524270E+02  0.10070576349E+02  0.29371983934E+02  0.00000000000E+00 0. -1.
</event>
<event>
 5    1  0.1717510E-003  0.9118800E+02  0.7818608E-02  0.1130116E+00
         25   -1    0    0    0    0  0.00000000000E+00  0.00000000000E+00  0.99999998245E-14  0.12500000000E+03  0.12500000000E+03 0.  0.
        -11    1    3    3    0    0 -0.98913103698E-02 -0.40012451454E+02 -0.24884801547E+02  0.47119525862E+02  0.51100000000E-03 0. -1.
         23    2    1    0    0    0 -0.67895260413E+01  0.15709525426E+02 -0.18816009712E+01  0.10778293651E+03  0.10639893856E+03 0.  0.
         11    1    3    3    0    0 -0.67796347310E+01  0.55721976880E+02  0.23003200576E+02  0.60663410648E+02  0.51100000000E-03 0.  1.
         22    1    1    0    0    0  0.67895260413E+01 -0.15709525426E+02  0.18816009712E+01  0.17217063489E+02  0.00000000000E+00 0.  1.
</event>
<event>
 5    1  0.1717510E-003  0.9118800E+02  0.7818608E-02  0.1130116E+00
         25   -1    0    0    0    0  0.00000000000E+00  0.00000000000E+00  0.99999998245E-14  0.12500000000E+03  0.12500000000E+03 0.  0.
        -11    1    3    3    0    0 -0.56278022484E+02  0.13469178609E+01  0.88603530523E+01  0.56987155210E+02  0.51100000000E-03 0. -1.
         23    2    1    0    0    0 -0.18919174515E+02 -0.73859981972E+01  0.19545072783E+02  0.96813159032E+02  0.92619057207E+02 0.  0.
         11    1    3    3    0    0  0.37358847969E+02 -0.87329160580E+01  0.10684719730E+02  0.39826003822E+02  0.51100000000E-03 0.  1.
         22    1    1    0    0    0  0.18919174515E+02  0.73859981972E+01 -0.19545072783E+02  0.28186840968E+02  0.00000000000E+00 0. -1.
</event>
<event>
 5    1  0.1717510E-003  0.9118800E+02  0.7818608E-02  0.1130116E+00
         25   -1    0    0    0    0  0.00000000000E+00  0.00000000000E+00  0.99999998245E-14  0.12500000000E+03  0.12500000000E+03 0.  0.
        -11    1    3    3    0    0 -0.34675276197E+02 -0.88045410381E+01  0.14145853564E+02  0.38470766766E+02  0.51100000000E-03 0. -1.
         23    2    1    0    0    0 -0.50925430369E+01  0.23215748371E+02 -0.20072483051E+02  0.93890362542E+02  0.88586627859E+02 0.  0.
         11    1    3    3    0    0  0.29582733160E+02  0.32020289409E+02 -0.34218336615E+02  0.55419595776E+02  0.51100000000E-03 0.  1.
         22    1    1    0    0    0  0.50925430369E+01 -0.23215748371E+02  0.20072483051E+02  0.31109637458E+02  0.00000000000E+00 0.  1.
</event>
<event>
 5    1  0.1717510E-003  0.9118800E+02  0.7818608E-02  0.1130116E+00
         25   -1    0    0    0    0  0.00000000000E+00  0.00000000000E+00  0.99999998245E-14  0.12500000000E+03  0.12500000000E+03 0.  0.
        -11    1    3    3    0    0 -0.22766836678E+02  0.26145268900E+02 -0.15727306419E+02  0.38069043928E+02  0.51100000000E-03 0.  1.
         23    2    1    0    0    0 -0.13809095968E+02 -0.25722354775E+02  0.63093005464E+01  0.95131321757E+02  0.90320708806E+02 0.  0.
         11    1    3    3    0    0  0.89577407096E+01 -0.51867623674E+02  0.22036606965E+02  0.57062277829E+02  0.51100000000E-03 0. -1.
         22    1    1    0    0    0  0.13809095968E+02  0.25722354775E+02 -0.63093005464E+01  0.29868678243E+02  0.00000000000E+00 0. -1.
</event>
<event>
 5    1  0.1717510E-003  0.9118800E+02  0.7818608E-02  0.1130116E+00
         25   -1    0    0    0    0  0.00000000000E+00  0.00000000000E+00  0.99999998245E-14  0.12500000000E+03  0.12500000000E+03 0.  0.
        -11    1    3    3    0    0  0.18075236349E+02  0.24241982261E+02 -0.23698516051E+02  0.38418843505E+02  0.51100000000E-03 0.  1.
         23    2    1    0    0    0 -0.20251534505E+01 -0.27588616318E+02 -0.87737000961E+01  0.95979131471E+02  0.91486517409E+02 0.  0.
         11    1    3    3    0    0 -0.20100389800E+02 -0.51830598579E+02  0.14924815955E+02  0.57560287965E+02  0.51100000000E-03 0. -1.
         22    1    1    0    0    0  0.20251534505E+01  0.27588616318E+02  0.87737000961E+01  0.29020868529E+02  0.00000000000E+00 0. -1.
</event>
<event>
 5    1  0.1717510E-003  0.9118800E+02  0.7818608E-02  0.1130116E+00
         25   -1    0    0    0    0  0.00000000000E+00  0.00000000000E+00  0.99999998245E-14  0.12500000000E+03  0.12500000000E+03 0.  0.
        -11    1    3    3    0    0 -0.10859096928E+01 -0.35518939982E+02  0.14965567537E+02  0.38558300135E+02  0.51100000000E-03 0. -1.
         23    2    1    0    0    0 -0.25639446594E+02  0.13527521283E+02 -0.19185315256E+01  0.95947361274E+02  0.91443098802E+02 0.  0.
         11    1    3    3    0    0 -0.24553536902E+02  0.49046461265E+02 -0.16884099063E+02  0.57389061139E+02  0.51100000000E-03 0.  1.
         22    1    1    0    0    0  0.25639446594E+02 -0.13527521283E+02  0.19185315256E+01  0.29052638726E+02  0.00000000000E+00 0.  1.
</event>
<event>
 5    1  0.1717510E-003  0.9118800E+02  0.7818608E-02  0.1130116E+00
         25   -1    0    0    0    0  0.00000000000E+00  0.00000000000E+00  0.99999998245E-14  0.12500000000E+03  0.12500000000E+03 0.  0.
        -11    1    3    3    0    0 -0.38945621553E+02 -0.13347518143E+02 -0.44325552940E+02  0.60495225617E+02  0.51100000000E-03 0.  1.
         23    2    1    0    0    0 -0.15129074781E+02 -0.16899694601E+02 -0.19394531647E+02  0.95156467382E+02  0.90355502574E+02 0.  0.
         11    1    3    3    0    0  0.23816546771E+02 -0.35521764575E+01  0.24931021294E+02  0.34661241765E+02  0.51100000000E-03 0. -1.
         22    1    1    0    0    0  0.15129074781E+02  0.16899694601E+02  0.19394531647E+02  0.29843532618E+02  0.00000000000E+00 0.  1.
</event>
<event>
 5    1  0.1717510E-003  0.9118800E+02  0.7818608E-02  0.1130116E+00
         25   -1    0    0    0    0  0.00000000000E+00  0.00000000000E+00  0.99999998245E-14  0.12500000000E+03  0.12500000000E+03 0.  0.
        -11    1    3    3    0    0 -0.10562102095E+01  0.43686114838E+02  0.42548378217E+02  0.60991447752E+02  0.51100000000E-03 0. -1.
         23    2    1    0    0    0  0.36591011375E+01  0.27337561481E+02  0.14392261406E+02  0.93889415351E+02  0.88585291316E+02 0.  0.
         11    1    3    3    0    0  0.47153113470E+01 -0.16348553358E+02 -0.28156116811E+02  0.32897967599E+02  0.51100000000E-03 0.  1.
         22    1    1    0    0    0 -0.36591011375E+01 -0.27337561481E+02 -0.14392261406E+02  0.31110584649E+02  0.00000000000E+00 0. -1.
</event>
<event>
 5    1  0.1717510E-003  0.9118800E+02  0.7818608E-02  0.1130116E+00
         25   -1    0    0    0    0  0.00000000000E+00  0.00000000000E+00  0.99999998245E-14  0.12500000000E+03  0.12500000000E+03 0.  0.
        -11    1    3    3    0    0  0.37452716932E+02  0.32328396464E+02 -0.55290402056E+01  0.49783546573E+02  0.51100000000E-03 0. -1.
         23    2    1    0    0    0  0.20419295127E+02 -0.81876175595E+01 -0.19188138844E+02  0.95808059895E+02  0.91252479275E+02 0.  0.
         11    1    3    3    0    0 -0.17033421804E+02 -0.40516014023E+02 -0.13659098638E+02  0.46024513322E+02  0.51100000000E-03 0.  1.
         22    1    1    0    0    0 -0.20419295127E+02  0.81876175595E+01  0.19188138844E+02  0.29191940105E+02  0.00000000000E+00 0. -1.
</event>
<event>
 5    1  0.1717510E-003  0.9118800E+02  0.7818608E-02  0.1130116E+00
         25   -1    0    0    0    0  0.00000000000E+00  0.00000000000E+00  0.99999998245E-14  0.12500000000E+03  0.12500000000E+03 0.  0.
        -11    1    3    3    0    0 -0.21756746867E+02 -0.20004345560E+02  0.24578187716E+02  0.38439786513E+02  0.51100000000E-03 0.  1.
         23    2    1    0    0    0  0.64649682558E+01  0.27191713897E+02  0.98109341376E+01  0.95378393901E+02  0.90662001276E+02 0.  0.
         11    1    3    3    0    0  0.28221715123E+02  0.47196059458E+02 -0.14767253578E+02  0.56938607388E+02  0.51100000000E-03 0. -1.
         22    1    1    0    0    0 -0.64649682558E+01 -0.27191713897E+02 -0.98109341376E+01  0.29621606099E+02  0.00000000000E+00 0. -1.
</event>
<event>
 5    1  0.1717510E-003  0.9118800E+02  0.7818608E-02  0.1130116E+00
         25   -1    0    0    0    0  0.00000000000E+00  0.00000000000E+00  0.99999998245E-14  0.12500000000E+03  0.12500000000E+03 0.  0.
        -11    1    3    3    0    0 -0.33940820621E+02  0.34439500126E+02  0.88384527895E+01  0.49154620549E+02  0.51100000000E-03 0.  1.
         23    2    1    0    0    0 -0.12090967180E+02 -0.11483294633E+01 -0.21180301250E+02  0.10058452726E+03  0.97576287159E+02 0.  0.
         11    1    3    3    0    0  0.21849853441E+02 -0.35587829589E+02 -0.30018754040E+02  0.51429906714E+02  0.51100000000E-03 0. -1.
         22    1    1    0    0    0  0.12090967180E+02  0.11483294633E+01  0.21180301250E+02  0.24415472737E+02  0.00000000000E+00 0. -1.
</event>
<event>
 5    1  0.1717510E-003  0.9118800E+02  0.7818608E-02  0.1130116E+00
         25   -1    0    0    0    0  0.00000000000E+00  0.00000000000E+00  0.99999998245E-14  0.12500000000E+03  0.12500000000E+03 0.  0.
        -11    1    3    3    0    0  0.15775053736E+02  0.60369848093E+02  0.73290673406E+00  0.62401186140E+02  0.51100000000E-03 0. -1.
         23    2    1    0    0    0  0.60939225257E+01  0.29112545739E+02 -0.16555586645E+01  0.95210453416E+02  0.90430157326E+02 0.  0.
         11    1    3    3    0    0 -0.96811312102E+01 -0.31257302354E+02 -0.23884653986E+01  0.32809267276E+02  0.51100000000E-03 0.  1.
         22    1    1    0    0    0 -0.60939225257E+01 -0.29112545739E+02  0.16555586645E+01  0.29789546584E+02  0.00000000000E+00 0. -1.
</event>
<event>
 5    1  0.1717510E-003  0.9118800E+02  0.7818608E-02  0.1130116E+00
         25   -1    0    0    0    0  0.00000000000E+00  0.00000000000E+00  0.99999998245E-14  0.12500000000E+03  0.12500000000E+03 0.  0.
        -11    1    3    3    0    0  0.15920882609E+01  0.82167229460E+01 -0.32448131350E+02  0.33510155317E+02  0.51100000000E-03 0.  1.
         23    2    1    0    0    0  0.91000885825E+01  0.60934601767E+01  0.28246724301E+02  0.94704467279E+02  0.89728015801E+02 0.  0.
         11    1    3    3    0    0  0.75080003217E+01 -0.21232627693E+01  0.60694855651E+02  0.61194311961E+02  0.51100000000E-03 0. -1.
         22    1    1    0    0    0 -0.91000885825E+01 -0.60934601767E+01 -0.28246724301E+02  0.30295532721E+02  0.00000000000E+00 0. -1.
</event>
<event>
 5    1  0.1717510E-003  0.9118800E+02  0.7818608E-02  0.1130116E+00
         25   -1    0    0    0    0  0.00000000000E+00  0.00000000000E+00  0.99999998245E-14  0.12500000000E+03  0.12500000000E+03 0.  0.
        -11    1    3    3    0    0 -0.10861583551E+02 -0.30441353670E+02 -0.19032073786E+02  0.37508263668E+02  0.51100000000E-03 0. -1.
         23    2    1    0    0    0  0.57337433581E+01  0.24384001009E+02 -0.16809910697E+02  0.94833322759E+02  0.89907345027E+02 0.  0.
         11    1    3    3    0    0  0.16595326909E+02  0.54825354678E+02  0.22221630890E+01  0.57325059092E+02  0.51100000000E-03 0.  1.
         22    1    1    0    0    0 -0.57337433581E+01 -0.24384001009E+02  0.16809910697E+02  0.30166677241E+02  0.00000000000E+00 0.  1.
</event>
<event>
 5    1  0.1717510E-003  0.9118800E+02  0.7818608E-02  0.1130116E+00
         25   -1    0    0    0    0  0.00000000000E+00  0.00000000000E+00  0.99999998245E-14  0.12500000000E+03  0.12500000000E+03 0.  0.
        -11    1    3    3    0    0 -0.44866009194E+02 -0.31592444486E+02  0.16602575095E+02  0.57329633085E+02  0.51100000000E-03 0. -1.
         23    2    1    0    0    0 -0.21368929007E+02  0.43812325486E+00  0.17967068620E+02  0.97077990157E+02  0.92975790070E+02 0.  0.
         11    1    3    3    0    0  0.23497080188E+02  0.32030567740E+02  0.13644935255E+01  0.39748357072E+02  0.51100000000E-03 0.  1.
         22    1    1    0    0    0  0.21368929007E+02 -0.43812325486E+00 -0.17967068620E+02  0.27922009843E+02  0.00000000000E+00 0. -1.
</event>
<event>
 5    1  0.1717510E-003  0.9118800E+02  0.7818608E-02  0.1130116E+00
         25   -1    0    0    0    0  0.00000000000E+00  0.00000000000E+00  0.99999998245E-14  0.12500000000E+03  0.12500000000E+03 0.  0.
        -11    1    3    3    0    0 -0.28307680096E+02 -0.10329966830E+01  0.22208745349E+02  0.35994724680E+02  0.51100000000E-03 0.  1.
         23    2    1    0    0    0  0.74192614630E+01  0.24102770875E+02 -0.16912578156E+02  0.94635146890E+02  0.89631393621E+02 0.  0.
         11    1    3    3    0    0  0.35726941559E+02  0.25135767558E+02 -0.39121323505E+02  0.58640422210E+02  0.51100000000E-03 0. -1.
         22    1    1    0    0    0 -0.74192614630E+01 -0.24102770875E+02  0.16912578156E+02  0.30364853110E+02  0.00000000000E+00 0. -1.
</event>
<event>
 5    1  0.1717510E-003  0.9118800E+02  0.7818608E-02  0.1130116E+00
         25   -1    0    0    0    0  0.00000000000E+00  0.00000000000E+00  0.99999998245E-14  0.12500000000E+03  0.12500000000E+03 0.  0.
        -11    1    3    3    0    0  0.30932426006E+02  0.14847337861E+02  0.20726371967E+02  0.40085420234E+02  0.51100000000E-03 0. -1.
         23    2    1    0    0    0 -0.67560723514E+01 -0.25303103998E+02  0.13221142366E+02  0.95662478104E+02  0.91052839198E+02 0.  0.
         11    1    3    3    0    0 -0.37688498357E+02 -0.40150441859E+02 -0.75052296012E+01  0.55577057870E+02  0.51100000000E-03 0.  1.
         22    1    1    0    0    0  0.67560723514E+01  0.25303103998E+02 -0.13221142366E+02  0.29337521896E+02  0.00000000000E+00 0.  1.
</event>
<event>
 5    1  0.1717510E-003  0.9118800E+02  0.7818608E-02  0.1130116E+00
         25   -1    0    0    0    0  0.00000000000E+00  0.00000000000E+00  0.99999998245E-14  0.12500000000E+03  0.12500000000E+03 0.  0.
        -11    1    3    3    0    0  0.15766841641E+02 -0.26932122751E+02  0.34070827055E+02  0.46203395846E+02  0.51100000000E-03 0.  1.
         23    2    1    0    0    0  0.24049493538E+02 -0.14995917997E+02 -0.11784973223E+02  0.94305679843E+02  0.89170734890E+02 0.  0.
         11    1    3    3    0    0  0.82826518973E+01  0.11936204754E+02 -0.45855800278E+02  0.48102283998E+02  0.51100000000E-03 0. -1.
         22    1    1    0    0    0 -0.24049493538E+02  0.14995917997E+02  0.11784973223E+02  0.30694320157E+02  0.00000000000E+00 0. -1.
</event>
<event>
 5    1  0.1717510E-003  0.9118800E+02  0.7818608E-02  0.1130116E+00
         25   -1    0    0    0    0  0.00000000000E+00  0.00000000000E+00  0.99999998245E-14  0.12500000000E+03  0.12500000000E+03 0.  0.
        -11    1    3    3    0    0  0.16432015306E+02 -0.62926162275E+01  0.30038407649E+02  0.34812556360E+02  0.51100000000E-03 0. -1.
         23    2    1    0    0    0  0.72690617769E+01  0.16931471484E+02 -0.24236642974E+02  0.94554493790E+02  0.89518844091E+02 0.  0.
         11    1    3    3    0    0 -0.91629535293E+01  0.23224087711E+02 -0.54275050623E+02  0.59741937429E+02  0.51100000000E-03 0.  1.
         22    1    1    0    0    0 -0.72690617769E+01 -0.16931471484E+02  0.24236642974E+02  0.30445506210E+02  0.00000000000E+00 0.  1.
</event>
<event>
 5    1  0.1717510E-003  0.9118800E+02  0.7818608E-02  0.1130116E+00
         25   -1    0    0    0    0  0.00000000000E+00  0.00000000000E+00  0.99999998245E-14  0.12500000000E+03  0.12500000000E+03 0.  0.
        -11    1    3    3    0    0  0.19237863269E+02 -0.13077486558E+02  0.21528932990E+02  0.31695598966E+02  0.51100000000E-03 0. -1.
         23    2    1    0    0    0 -0.25496477767E+02  0.22084136899E+02  0.53737327929E+01  0.90843646488E+02  0.84177857077E+02 0.  0.
         11    1    3    3    0    0 -0.44734341036E+02  0.35161623457E+02 -0.16155200197E+02  0.59148047523E+02  0.51100000000E-03 0.  1.
         22    1    1    0    0    0  0.25496477767E+02 -0.22084136899E+02 -0.53737327929E+01  0.34156353512E+02  0.00000000000E+00 0.  1.
</event>
<event>
 5    1  0.1717510E-003  0.9118800E+02  0.7818608E-02  0.1130116E+00
         25   -1    0    0    0    0  0.00000000000E+00  0.00000000000E+00  0.99999998245E-14  0.12500000000E+03  0.12500000000E+03 0.  0.
        -11    1    3    3    0    0 -0.28611223256E+02  0.52722280945E+02 -0.12911047127E+02  0.61359075469E+02  0.51100000000E-03 0. -1.
         23    2    1    0    0    0 -0.90730332078E+01  0.26792523003E+02  0.10340297641E+01  0.96694021162E+02  0.92458127228E+02 0.  0.
         11    1    3    3    0    0  0.19538190049E+02 -0.25929757943E+02  0.13945076891E+02  0.35334945693E+02  0.51100000000E-03 0.  1.
         22    1    1    0    0    0  0.90730332078E+01 -0.26792523003E+02 -0.10340297641E+01  0.28305978838E+02  0.00000000000E+00 0. -1.
</event>
<event>
 5    1  0.1717510E-003  0.9118800E+02  0.7818608E-02  0.1130116E+00
         25   -1    0    0    0    0  0.00000000000E+00  0.00000000000E+00  0.99999998245E-14  0.12500000000E+03  0.12500000000E+03 0.  0.
        -11    1    3    3    0    0 -0.33747213627E+02 -0.54743438472E+01  0.46281503170E+02  0.57539728919E+02  0.51100000000E-03 0.  1.
         23    2    1    0    0    0 -0.22755486070E+01 -0.13119912416E+02  0.26098314167E+02  0.95700985928E+02  0.91105688527E+02 0.  0.
         11    1    3    3    0    0  0.31471665020E+02 -0.76455685685E+01 -0.20183189003E+02  0.38161257009E+02  0.51100000000E-03 0. -1.
         22    1    1    0    0    0  0.22755486070E+01  0.13119912416E+02 -0.26098314167E+02  0.29299014072E+02  0.00000000000E+00 0.  1.
</event>
<event>
 5    1  0.1717510E-003  0.9118800E+02  0.7818608E-02  0.1130116E+00
         25   -1    0    0    0    0  0.00000000000E+00  0.00000000000E+00  0.99999998245E-14  0.12500000000E+03  0.12500000000E+03 0.  0.
        -11    1    3    3    0    0  0.54728389661E+02 -0.20841022666E+02 -0.92329954678E+01  0.59285690231E+02  0.51100000000E-03 0.  1.
         23    2    1    0    0    0  0.33724803985E+02  0.10939881176E+01  0.73621290566E+00  0.91249426327E+02  0.84778278949E+02 0.  0.
         11    1    3    3    0    0 -0.21003585675E+02  0.21935010784E+02  0.99692083735E+01  0.31963736095E+02  0.51100000000E-03 0. -1.
         22    1    1    0    0    0 -0.33724803985E+02 -0.10939881176E+01 -0.73621290566E+00  0.33750573673E+02  0.00000000000E+00 0.  1.
</event>
<event>
 5    1  0.1717510E-003  0.9118800E+02  0.7818608E-02  0.1130116E+00
         25   -1    0    0    0    0  0.00000000000E+00  0.00000000000E+00  0.99999998245E-14  0.12500000000E+03  0.12500000000E+03 0.  0.
        -11    1    3    3    0    0 -0.52552558879E+02  0.16770319451E+02 -0.21838337784E+02  0.59328981591E+02  0.51100000000E-03 0.  1.
         23    2    1    0    0    0 -0.32338743958E+02  0.95800038507E+01  0.17650090768E+01  0.91225955357E+02  0.84743665481E+02 0.  0.
         11    1    3    3    0    0  0.20213814921E+02 -0.71903156002E+01  0.23603346861E+02  0.31896973766E+02  0.51100000000E-03 0. -1.
         22    1    1    0    0    0  0.32338743958E+02 -0.95800038507E+01 -0.17650090768E+01  0.33774044643E+02  0.00000000000E+00 0.  1.
</event>
<event>
 5    1  0.1717510E-003  0.9118800E+02  0.7818608E-02  0.1130116E+00
         25   -1    0    0    0    0  0.00000000000E+00  0.00000000000E+00  0.99999998245E-14  0.12500000000E+03  0.12500000000E+03 0.  0.
        -11    1    3    3    0    0 -0.33041639445E+02 -0.19217608648E+02  0.10161364276E+02  0.39551482192E+02  0.51100000000E-03 0.  1.
         23    2    1    0    0    0 -0.70042003912E+01  0.22273995009E+00 -0.31694485319E+02  0.92540042577E+02  0.86660317588E+02 0.  0.
         11    1    3    3    0    0  0.26037439054E+02  0.19440348598E+02 -0.41855849596E+02  0.52988560386E+02  0.51100000000E-03 0. -1.
         22    1    1    0    0    0  0.70042003912E+01 -0.22273995009E+00  0.31694485319E+02  0.32459957423E+02  0.00000000000E+00 0. -1.
</event>
<event>
 5    1  0.1717510E-003  0.9118800E+02  0.7818608E-02  0.1130116E+00
         25   -1    0    0    0    0  0.00000000000E+00  0.00000000000E+00  0.99999998245E-14  0.12500000000E+03  0.12500000000E+03 0.  0.
        -11    1    3    3    0    0  0.13149561596E+02  0.45063374640E+02 -0.19415065907E+02  0.50799246929E+02  0.51100000000E-03 0. -1.
         23    2    1    0    0    0  0.29174966416E+02  0.84894510727E+01 -0.14632246961E+01  0.94579768715E+02  0.89554129881E+02 0.  0.
         11    1    3    3    0    0  0.16025404820E+02 -0.36573923567E+02  0.17951841211E+02  0.43780521786E+02  0.51100000000E-03 0.  1.
         22    1    1    0    0    0 -0.29174966416E+02 -0.84894510727E+01  0.14632246961E+01  0.30420231285E+02  0.00000000000E+00 0. -1.
</event>
<event>
 5    1  0.1717510E-003  0.9118800E+02  0.7818608E-02  0.1130116E+00
         25   -1    0    0    0    0  0.00000000000E+00  0.00000000000E+00  0.99999998245E-14  0.12500000000E+03  0.12500000000E+03 0.  0.
        -11    1    3    3    0    0  0.35317642705E+02 -0.42660958633E+02 -0.12089310695E+02  0.56687253515E+02  0.51100000000E-03 0. -1.
         23    2    1    0    0    0  0.16586570299E+01 -0.26104332160E+02 -0.15897766450E+02  0.94390748477E+02  0.89289904913E+02 0.  0.
         11    1    3    3    0    0 -0.33658985675E+02  0.16556626473E+02 -0.38084557548E+01  0.37703494962E+02  0.51100000000E-03 0.  1.
         22    1    1    0    0    0 -0.16586570299E+01  0.26104332160E+02  0.15897766450E+02  0.30609251523E+02  0.00000000000E+00 0. -1.
</event>
<event>
 5    1  0.1717510E-003  0.9118800E+02  0.7818608E-02  0.1130116E+00
         25   -1    0    0    0    0  0.00000000000E+00  0.00000000000E+00  0.99999998245E-14  0.12500000000E+03  0.12500000000E+03 0.  0.
        -11    1    3    3    0    0 -0.92038522087E+01  0.69693913910E+01  0.31704571616E+02  0.33741119920E+02  0.51100000000E-03 0.  1.
         23    2    1    0    0    0 -0.12334369120E+02 -0.17925802101E+02 -0.22640146347E+02  0.93598610394E+02  0.88173990488E+02 0.  0.
         11    1    3    3    0    0 -0.31305169112E+01 -0.24895193491E+02 -0.54344717963E+02  0.59857490474E+02  0.51100000000E-03 0. -1.
         22    1    1    0    0    0  0.12334369120E+02  0.17925802101E+02  0.22640146347E+02  0.31401389606E+02  0.00000000000E+00 0. -1.
</event>
<event>
 5    1  0.1717510E-003  0.9118800E+02  0.7818608E-02  0.1130116E+00
         25   -1    0    0    0    0  0.00000000000E+00  0.00000000000E+00  0.99999998245E-14  0.12500000000E+03  0.12500000000E+03 0.  0.
        -11    1    3    3    0    0 -0.41371292553E+02  0.15849673939E+02 -0.17642185952E+02  0.47686924171E+02  0.51100000000E-03 0.  1.
         23    2    1    0    0    0 -0.20967079089E+02 -0.14241759977E+02  0.14139209538E+02  0.95976502982E+02  0.91482925978E+02 0.  0.
         11    1    3    3    0    0  0.20404213464E+02 -0.30091433916E+02  0.31781395490E+02  0.48289578811E+02  0.51100000000E-03 0. -1.
         22    1    1    0    0    0  0.20967079089E+02  0.14241759977E+02 -0.14139209538E+02  0.29023497018E+02  0.00000000000E+00 0. -1.
</event>
<event>
 5    1  0.1717510E-003  0.9118800E+02  0.7818608E-02  0.1130116E+00
         25   -1    0    0    0    0  0.00000000000E+00  0.00000000000E+00  0.99999998245E-14  0.12500000000E+03  0.12500000000E+03 0.  0.
        -11    1    3    3    0    0 -0.49897282748E+01 -0.50786060224E+02 -0.26074883295E+02  0.57306376961E+02  0.51100000000E-03 0.  1.
         23    2    1    0    0    0 -0.10904627557E+02 -0.26602836221E+02  0.35808065183E+01  0.96026840482E+02  0.91551680053E+02 0.  0.
         11    1    3    3    0    0 -0.59148992821E+01  0.24183224003E+02  0.29655689813E+02  0.38720463521E+02  0.51100000000E-03 0. -1.
         22    1    1    0    0    0  0.10904627557E+02  0.26602836221E+02 -0.35808065183E+01  0.28973159518E+02  0.00000000000E+00 0.  1.
</event>
<event>
 5    1  0.1717510E-003  0.9118800E+02  0.7818608E-02  0.1130116E+00
         25   -1    0    0    0    0  0.00000000000E+00  0.00000000000E+00  0.99999998245E-14  0.12500000000E+03  0.12500000000E+03 0.  0.
        -11    1    3    3    0    0 -0.26397156136E+02  0.14897685217E+02 -0.38444503496E+02  0.48956416599E+02  0.51100000000E-03 0. -1.
         23    2    1    0    0    0 -0.14135482367E+02 -0.22263046909E+02 -0.13361847885E+02  0.95436608815E+02  0.90742229441E+02 0.  0.
         11    1    3    3    0    0  0.12261673769E+02 -0.37160732126E+02  0.25082655611E+02  0.46480192216E+02  0.51100000000E-03 0.  1.
         22    1    1    0    0    0  0.14135482367E+02  0.22263046909E+02  0.13361847885E+02  0.29563391185E+02  0.00000000000E+00 0. -1.
</event>
<event>
 5    1  0.1717510E-003  0.9118800E+02  0.7818608E-02  0.1130116E+00
         25   -1    0    0    0    0  0.00000000000E+00  0.00000000000E+00  0.99999998245E-14  0.12500000000E+03  0.12500000000E+03 0.  0.
        -11    1    3    3    0    0  0.42824846590E+01  0.10748481455E+02  0.38608367390E+02  0.40304783354E+02  0.51100000000E-03 0.  1.
         23    2    1    0    0    0  0.27525800906E+02 -0.75245422622E+01 -0.78779124233E+01  0.95396791459E+02  0.90687363314E+02 0.  0.
         11    1    3    3    0    0  0.23243316247E+02 -0.18273023717E+02 -0.46486279813E+02  0.55092008105E+02  0.51100000000E-03 0. -1.
         22    1    1    0    0    0 -0.27525800906E+02  0.75245422622E+01  0.78779124233E+01  0.29603208541E+02  0.00000000000E+00 0. -1.
</event>
<event>
 5    1  0.1717510E-003  0.9118800E+02  0.7818608E-02  0.1130116E+00
         25   -1    0    0    0    0  0.00000000000E+00  0.00000000000E+00  0.99999998245E-14  0.12500000000E+03  0.12500000000E+03 0.  0.
        -11    1    3    3    0    0  0.26987528832E+01  0.42150995811E+01  0.48990228309E+02  0.49245231258E+02  0.51100000000E-03 0. -1.
         23    2    1    0    0    0 -0.25376634002E+02 -0.55681111791E+01  0.12934697299E+02  0.95977873793E+02  0.91484799000E+02 0.  0.
         11    1    3    3    0    0 -0.28075386885E+02 -0.97832107602E+01 -0.36055531010E+02  0.46732642534E+02  0.51100000000E-03 0.  1.
         22    1    1    0    0    0  0.25376634002E+02  0.55681111791E+01 -0.12934697299E+02  0.29022126207E+02  0.00000000000E+00 0.  1.
</event>
<event>
 5    1  0.1717510E-003  0.9118800E+02  0.7818608E-02  0.1130116E+00
         25   -1    0    0    0    0  0.00000000000E+00  0.00000000000E+00  0.99999998245E-14  0.12500000000E+03  0.12500000000E+03 0.  0.
        -11    1    3    3    0    0  0.18736117324E+02  0.29802666263E+02 -0.21591270206E+02  0.41296779029E+02  0.51100000000E-03 0.  1.
         23    2    1    0    0    0 -0.12272639843E+02  0.16324421475E+02  0.21019630429E+02  0.95692504567E+02  0.91094051077E+02 0.  0.
         11    1    3    3    0    0 -0.31008757166E+02 -0.13478244788E+02  0.42610900635E+02  0.54395725538E+02  0.51100000000E-03 0. -1.
         22    1    1    0    0    0  0.12272639843E+02 -0.16324421475E+02 -0.21019630429E+02  0.29307495433E+02  0.00000000000E+00 0. -1.
</event>
<event>
 5    1  0.1717510E-003  0.9118800E+02  0.7818608E-02  0.1130116E+00
         25   -1    0    0    0    0  0.00000000000E+00  0.00000000000E+00  0.99999998245E-14  0.12500000000E+03  0.12500000000E+03 0.  0.
        -11    1    3    3    0    0  0.26828763526E+01 -0.80906403668E+01 -0.41341593195E+02  0.42211178795E+02  0.51100000000E-03 0. -1.
         23    2    1    0    0    0  0.27087159157E+02 -0.10841288939E+02  0.56950459511E+01  0.95273222754E+02  0.90516880683E+02 0.  0.
         11    1    3    3    0    0  0.24404282804E+02 -0.27506485722E+01  0.47036639146E+02  0.53062043960E+02  0.51100000000E-03 0.  1.
         22    1    1    0    0    0 -0.27087159157E+02  0.10841288939E+02 -0.56950459511E+01  0.29726777246E+02  0.00000000000E+00 0.  1.
</event>
<event>
 5    1  0.1717510E-003  0.9118800E+02  0.7818608E-02  0.1130116E+00
         25   -1    0    0    0    0  0.00000000000E+00  0.00000000000E+00  0.99999998245E-14  0.12500000000E+03  0.12500000000E+03 0.  0.
        -11    1    3    3    0    0 -0.30648247469E+02  0.34771748364E+02  0.23219819823E+02  0.51841581671E+02  0.51100000000E-03 0.  1.
         23    2    1    0    0    0 -0.24879745109E+02  0.17688266459E+02  0.38771761321E+02  0.75653004520E+02  0.57343274496E+02 0.  0.
         11    1    3    3    0    0  0.57685023602E+01 -0.17083481905E+02  0.15551941498E+02  0.23811422849E+02  0.51100000000E-03 0. -1.
         22    1    1    0    0    0  0.24879745109E+02 -0.17688266459E+02 -0.38771761321E+02  0.49346995480E+02  0.00000000000E+00 0.  1.
</event>
<event>
 5    1  0.1717510E-003  0.9118800E+02  0.7818608E-02  0.1130116E+00
         25   -1    0    0    0    0  0.00000000000E+00  0.00000000000E+00  0.99999998245E-14  0.12500000000E+03  0.12500000000E+03 0.  0.
        -11    1    3    3    0    0  0.35733718977E+02  0.56283272737E+01 -0.14903596514E+02  0.39124083748E+02  0.51100000000E-03 0.  1.
         23    2    1    0    0    0  0.36278276089E-01  0.27889541446E+01  0.29048663133E+02  0.95817738073E+02  0.91265735730E+02 0.  0.
         11    1    3    3    0    0 -0.35697440701E+02 -0.28393731291E+01  0.43952259647E+02  0.56693654325E+02  0.51100000000E-03 0. -1.
         22    1    1    0    0    0 -0.36278276089E-01 -0.27889541446E+01 -0.29048663133E+02  0.29182261927E+02  0.00000000000E+00 0. -1.
</event>
<event>
 5    1  0.1717510E-003  0.9118800E+02  0.7818608E-02  0.1130116E+00
         25   -1    0    0    0    0  0.00000000000E+00  0.00000000000E+00  0.99999998245E-14  0.12500000000E+03  0.12500000000E+03 0.  0.
        -11    1    3    3    0    0 -0.57283540175E+02 -0.12536278350E+02 -0.11678003640E+02  0.59790785403E+02  0.51100000000E-03 0.  1.
         23    2    1    0    0    0 -0.24982310525E+02 -0.11396390859E+02  0.63730616745E+01  0.96811181669E+02  0.92616388492E+02 0.  0.
         11    1    3    3    0    0  0.32301229650E+02  0.11398874904E+01  0.18051065315E+02  0.37020396266E+02  0.51100000000E-03 0. -1.
         22    1    1    0    0    0  0.24982310525E+02  0.11396390859E+02 -0.63730616745E+01  0.28188818331E+02  0.00000000000E+00 0.  1.
</event>
<event>
 5    1  0.1717510E-003  0.9118800E+02  0.7818608E-02  0.1130116E+00
         25   -1    0    0    0    0  0.00000000000E+00  0.00000000000E+00  0.99999998245E-14  0.12500000000E+03  0.12500000000E+03 0.  0.
        -11    1    3    3    0    0 -0.24520564233E+02  0.24697184667E+02  0.51869098622E+01  0.35186830420E+02  0.51100000000E-03 0. -1.
         23    2    1    0    0    0  0.13739083249E+01 -0.29165121915E+02 -0.35573867692E+01  0.95586619354E+02  0.90948638464E+02 0.  0.
         11    1    3    3    0    0  0.25894472558E+02 -0.53862306582E+02 -0.87442966314E+01  0.60399788934E+02  0.51100000000E-03 0.  1.
         22    1    1    0    0    0 -0.13739083249E+01  0.29165121915E+02  0.35573867692E+01  0.29413380646E+02  0.00000000000E+00 0.  1.
</event>
<event>
 5    1  0.1717510E-003  0.9118800E+02  0.7818608E-02  0.1130116E+00
         25   -1    0    0    0    0  0.00000000000E+00  0.00000000000E+00  0.99999998245E-14  0.12500000000E+03  0.12500000000E+03 0.  0.
        -11    1    3    3    0    0 -0.62279298485E+01 -0.49000492089E+02  0.93266716516E+01  0.50267505802E+02  0.51100000000E-03 0. -1.
         23    2    1    0    0    0  0.14286177535E+02 -0.18274600551E+02 -0.17515425734E+02  0.95933764734E+02  0.91424510847E+02 0.  0.
         11    1    3    3    0    0  0.20514107384E+02  0.30725891538E+02 -0.26842097386E+02  0.45666258933E+02  0.51100000000E-03 0.  1.
         22    1    1    0    0    0 -0.14286177535E+02  0.18274600551E+02  0.17515425734E+02  0.29066235266E+02  0.00000000000E+00 0.  1.
</event>
<event>
 5    1  0.1717510E-003  0.9118800E+02  0.7818608E-02  0.1130116E+00
         25   -1    0    0    0    0  0.00000000000E+00  0.00000000000E+00  0.99999998245E-14  0.12500000000E+03  0.12500000000E+03 0.  0.
        -11    1    3    3    0    0  0.60451042017E+02 -0.37551816596E+01  0.13339858212E+02  0.62019204184E+02  0.51100000000E-03 0.  1.
         23    2    1    0    0    0  0.28585204376E+02  0.16753490011E+01  0.19234777410E+01  0.96301211348E+02  0.91925528755E+02 0.  0.
         11    1    3    3    0    0 -0.31865837641E+02  0.54305306607E+01 -0.11416380471E+02  0.34282007164E+02  0.51100000000E-03 0. -1.
         22    1    1    0    0    0 -0.28585204376E+02 -0.16753490011E+01 -0.19234777410E+01  0.28698788652E+02  0.00000000000E+00 0.  1.
</event>
<event>
 5    1  0.1717510E-003  0.9118800E+02  0.7818608E-02  0.1130116E+00
         25   -1    0    0    0    0  0.00000000000E+00  0.00000000000E+00  0.99999998245E-14  0.12500000000E+03  0.12500000000E+03 0.  0.
        -11    1    3    3    0    0 -0.14913481609E+02 -0.51030660873E+02 -0.31520136700E+02  0.61806628291E+02  0.51100000000E-03 0.  1.
         23    2    1    0    0    0 -0.12632212171E+02 -0.21185253622E+02 -0.16748528936E+02  0.95185557579E+02  0.90395737702E+02 0.  0.
         11    1    3    3    0    0  0.22812694384E+01  0.29845407251E+02  0.14771607764E+02  0.33378929288E+02  0.51100000000E-03 0. -1.
         22    1    1    0    0    0  0.12632212171E+02  0.21185253622E+02  0.16748528936E+02  0.29814442421E+02  0.00000000000E+00 0.  1.
</event>
<event>
 5    1  0.1717510E-003  0.9118800E+02  0.7818608E-02  0.1130116E+00
         25   -1    0    0    0    0  0.00000000000E+00  0.00000000000E+00  0.99999998245E-14  0.12500000000E+03  0.12500000000E+03 0.  0.
        -11    1    3    3    0    0 -0.15920586106E+02  0.45229230126E+02  0.38225051871E+02  0.61321308780E+02  0.51100000000E-03 0. -1.
         23    2    1    0    0    0 -0.37885742085E+01  0.18365083756E+02  0.25303289741E+02  0.93505777234E+02  0.88042287048E+02 0.  0.
         11    1    3    3    0    0  0.12132011897E+02 -0.26864146370E+02 -0.12921762130E+02  0.32184468454E+02  0.51100000000E-03 0.  1.
         22    1    1    0    0    0  0.37885742085E+01 -0.18365083756E+02 -0.25303289741E+02  0.31494222766E+02  0.00000000000E+00 0. -1.
</event>
<event>
 5    1  0.1717510E-003  0.9118800E+02  0.7818608E-02  0.1130116E+00
         25   -1    0    0    0    0  0.00000000000E+00  0.00000000000E+00  0.99999998245E-14  0.12500000000E+03  0.12500000000E+03 0.  0.
        -11    1    3    3    0    0  0.54849700036E+01  0.10337264750E+02  0.44849759827E+02  0.46351320318E+02  0.51100000000E-03 0.  1.
         23    2    1    0    0    0 -0.19038199177E+02  0.21644753510E+02  0.31900335376E+01  0.95997850141E+02  0.91512089558E+02 0.  0.
         11    1    3    3    0    0 -0.24523169181E+02  0.11307488761E+02 -0.41659726289E+02  0.49646529823E+02  0.51100000000E-03 0. -1.
         22    1    1    0    0    0  0.19038199177E+02 -0.21644753510E+02 -0.31900335376E+01  0.29002149859E+02  0.00000000000E+00 0. -1.
</event>
<event>
 5    1  0.1717510E-003  0.9118800E+02  0.7818608E-02  0.1130116E+00
         25   -1    0    0    0    0  0.00000000000E+00  0.00000000000E+00  0.99999998245E-14  0.12500000000E+03  0.12500000000E+03 0.  0.
        -11    1    3    3    0    0 -0.40158572775E-01  0.25886064869E+02 -0.37455658868E+02  0.45530389287E+02  0.51100000000E-03 0.  1.
         23    2    1    0    0    0 -0.26937558227E+02  0.10536706637E+02  0.23678918176E+01  0.95978264324E+02  0.91485332600E+02 0.  0.
         11    1    3    3    0    0 -0.26897399654E+02 -0.15349358231E+02  0.39823550686E+02  0.50447875037E+02  0.51100000000E-03 0. -1.
         22    1    1    0    0    0  0.26937558227E+02 -0.10536706637E+02 -0.23678918176E+01  0.29021735676E+02  0.00000000000E+00 0.  1.
</event>
<event>
 5    1  0.1717510E-003  0.9118800E+02  0.7818608E-02  0.1130116E+00
         25   -1    0    0    0    0  0.00000000000E+00  0.00000000000E+00  0.99999998245E-14  0.12500000000E+03  0.12500000000E+03 0.  0.
        -11    1    3    3    0    0  0.29904181696E+02  0.17713064542E+02 -0.85292680403E+01  0.35787723481E+02  0.51100000000E-03 0. -1.
         23    2    1    0    0    0 -0.12284607955E+02 -0.23481962993E+02 -0.14038723413E+02  0.95010002773E+02  0.90152652170E+02 0.  0.
         11    1    3    3    0    0 -0.42188789651E+02 -0.41195027535E+02 -0.55094553730E+01  0.59222279292E+02  0.51100000000E-03 0.  1.
         22    1    1    0    0    0  0.12284607955E+02  0.23481962993E+02  0.14038723413E+02  0.29989997227E+02  0.00000000000E+00 0.  1.
</event>
<event>
 5    1  0.1717510E-003  0.9118800E+02  0.7818608E-02  0.1130116E+00
         25   -1    0    0    0    0  0.00000000000E+00  0.00000000000E+00  0.99999998245E-14  0.12500000000E+03  0.12500000000E+03 0.  0.
        -11    1    3    3    0    0 -0.12063812314E+02 -0.90170404994E+01 -0.36952434926E+02  0.39903947601E+02  0.51100000000E-03 0.  1.
         23    2    1    0    0    0  0.23446058141E+02  0.16514941848E+02 -0.13654500481E+01  0.96288932440E+02  0.91908830424E+02 0.  0.
         11    1    3    3    0    0  0.35509870456E+02  0.25531982348E+02  0.35586984878E+02  0.56384984839E+02  0.51100000000E-03 0. -1.
         22    1    1    0    0    0 -0.23446058141E+02 -0.16514941848E+02  0.13654500481E+01  0.28711067560E+02  0.00000000000E+00 0. -1.
</event>
<event>
 5    1  0.1717510E-003  0.9118800E+02  0.7818608E-02  0.1130116E+00
         25   -1    0    0    0    0  0.00000000000E+00  0.00000000000E+00  0.99999998245E-14  0.12500000000E+03  0.12500000000E+03 0.  0.
        -11    1    3    3    0    0  0.31697460062E+00  0.22113064500E+02 -0.29933874717E+02  0.37217266830E+02  0.51100000000E-03 0.  1.
         23    2    1    0    0    0  0.33239459174E+01 -0.27267941116E+02  0.40440363469E+01  0.97234131400E+02  0.93185475531E+02 0.  0.
         11    1    3    3    0    0  0.30069713168E+01 -0.49381005616E+02  0.33977911064E+02  0.60016864569E+02  0.51100000000E-03 0. -1.
         22    1    1    0    0    0 -0.33239459174E+01  0.27267941116E+02 -0.40440363469E+01  0.27765868600E+02  0.00000000000E+00 0. -1.
</event>
<event>
 5    1  0.1717510E-003  0.9118800E+02  0.7818608E-02  0.1130116E+00
         25   -1    0    0    0    0  0.00000000000E+00  0.00000000000E+00  0.99999998245E-14  0.12500000000E+03  0.12500000000E+03 0.  0.
        -11    1    3    3    0    0  0.15502995823E+02  0.39732481618E+02  0.14973934402E+02  0.45202120380E+02  0.51100000000E-03 0.  1.
         23    2    1    0    0    0  0.27812570498E+02 -0.41163934752E+01 -0.73739478285E+01  0.95933543740E+02  0.91424208692E+02 0.  0.
         11    1    3    3    0    0  0.12309574675E+02 -0.43848875094E+02 -0.22347882231E+02  0.50731423360E+02  0.51100000000E-03 0. -1.
         22    1    1    0    0    0 -0.27812570498E+02  0.41163934752E+01  0.73739478285E+01  0.29066456260E+02  0.00000000000E+00 0.  1.
</event>
<event>
 5    1  0.1717510E-003  0.9118800E+02  0.7818608E-02  0.1130116E+00
         25   -1    0    0    0    0  0.00000000000E+00  0.00000000000E+00  0.99999998245E-14  0.12500000000E+03  0.12500000000E+03 0.  0.
        -11    1    3    3    0    0 -0.40424542080E+01  0.33539681716E+02  0.84227241127E+01  0.34816576044E+02  0.51100000000E-03 0.  1.
         23    2    1    0    0    0 -0.86300721070E+01 -0.25486979394E+02  0.14674276770E+02  0.94350388879E+02  0.89233386239E+02 0.  0.
         11    1    3    3    0    0 -0.45876178991E+01 -0.59026661110E+02  0.62515526569E+01  0.59533812835E+02  0.51100000000E-03 0. -1.
         22    1    1    0    0    0  0.86300721070E+01  0.25486979394E+02 -0.14674276770E+02  0.30649611121E+02  0.00000000000E+00 0. -1.
</event>
<event>
 5    1  0.1717510E-003  0.9118800E+02  0.7818608E-02  0.1130116E+00
         25   -1    0    0    0    0  0.00000000000E+00  0.00000000000E+00  0.99999998245E-14  0.12500000000E+03  0.12500000000E+03 0.  0.
        -11    1    3    3    0    0  0.26213508568E+02 -0.19139580565E+02  0.10491868940E+02  0.34110861756E+02  0.51100000000E-03 0. -1.
         23    2    1    0    0    0 -0.24732936080E+02  0.14990261967E+02  0.21251341877E+01  0.96000995253E+02  0.91516385491E+02 0.  0.
         11    1    3    3    0    0 -0.50946444648E+02  0.34129842532E+02 -0.83667347528E+01  0.61890133497E+02  0.51100000000E-03 0.  1.
         22    1    1    0    0    0  0.24732936080E+02 -0.14990261967E+02 -0.21251341877E+01  0.28999004747E+02  0.00000000000E+00 0.  1.
</event>
<event>
 5    1  0.1717510E-003  0.9118800E+02  0.7818608E-02  0.1130116E+00
         25   -1    0    0    0    0  0.00000000000E+00  0.00000000000E+00  0.99999998245E-14  0.12500000000E+03  0.12500000000E+03 0.  0.
        -11    1    3    3    0    0  0.21901792653E+02  0.10611991485E+02 -0.37583857818E+02  0.44775543028E+02  0.51100000000E-03 0. -1.
         23    2    1    0    0    0  0.19734127875E+02 -0.21110829030E+02  0.25624659334E+01  0.95988465450E+02  0.91499269737E+02 0.  0.
         11    1    3    3    0    0 -0.21676647788E+01 -0.31722820515E+02  0.40146323751E+02  0.51212922422E+02  0.51100000000E-03 0.  1.
         22    1    1    0    0    0 -0.19734127875E+02  0.21110829030E+02 -0.25624659334E+01  0.29011534550E+02  0.00000000000E+00 0.  1.
</event>
<event>
 5    1  0.1717510E-003  0.9118800E+02  0.7818608E-02  0.1130116E+00
         25   -1    0    0    0    0  0.00000000000E+00  0.00000000000E+00  0.99999998245E-14  0.12500000000E+03  0.12500000000E+03 0.  0.
        -11    1    3    3    0    0 -0.34874260595E+02 -0.27305507297E+02 -0.33122369420E+02  0.55307288281E+02  0.51100000000E-03 0.  1.
         23    2    1    0    0    0 -0.23759309866E+02  0.71233921085E+01 -0.17085200296E+02  0.94881042687E+02  0.89973666546E+02 0.  0.
         11    1    3    3    0    0  0.11114950729E+02  0.34428899406E+02  0.16037169123E+02  0.39573754406E+02  0.51100000000E-03 0. -1.
         22    1    1    0    0    0  0.23759309866E+02 -0.71233921085E+01  0.17085200296E+02  0.30118957313E+02  0.00000000000E+00 0.  1.
</event>
<event>
 5    1  0.1717510E-003  0.9118800E+02  0.7818608E-02  0.1130116E+00
         25   -1    0    0    0    0  0.00000000000E+00  0.00000000000E+00  0.99999998245E-14  0.12500000000E+03  0.12500000000E+03 0.  0.
        -11    1    3    3    0    0  0.45618291884E+02 -0.21757360835E+02 -0.11587101537E+02  0.51852408114E+02  0.51100000000E-03 0. -1.
         23    2    1    0    0    0  0.60874343995E+00 -0.26479456653E+02 -0.22875410628E+00  0.98512559172E+02  0.94884876524E+02 0.  0.
         11    1    3    3    0    0 -0.45009548444E+02 -0.47220958175E+01  0.11358347430E+02  0.46660151057E+02  0.51100000000E-03 0.  1.
         22    1    1    0    0    0 -0.60874343995E+00  0.26479456653E+02  0.22875410628E+00  0.26487440828E+02  0.00000000000E+00 0. -1.
</event>
<event>
 5    1  0.1717510E-003  0.9118800E+02  0.7818608E-02  0.1130116E+00
         25   -1    0    0    0    0  0.00000000000E+00  0.00000000000E+00  0.99999998245E-14  0.12500000000E+03  0.12500000000E+03 0.  0.
        -11    1    3    3    0    0 -0.17152356719E+02  0.16357236673E+02 -0.29828803579E+02  0.38098819612E+02  0.51100000000E-03 0. -1.
         23    2    1    0    0    0  0.22352323453E+00  0.14460350524E+02  0.25259372651E+02  0.95893512636E+02  0.91369459663E+02 0.  0.
         11    1    3    3    0    0  0.17375879954E+02 -0.18968861484E+01  0.55088176230E+02  0.57794693025E+02  0.51100000000E-03 0.  1.
         22    1    1    0    0    0 -0.22352323453E+00 -0.14460350524E+02 -0.25259372651E+02  0.29106487364E+02  0.00000000000E+00 0.  1.
</event>
<event>
 5    1  0.1717510E-003  0.9118800E+02  0.7818608E-02  0.1130116E+00
         25   -1    0    0    0    0  0.00000000000E+00  0.00000000000E+00  0.99999998245E-14  0.12500000000E+03  0.12500000000E+03 0.  0.
        -11    1    3    3    0    0  0.41867752618E+02 -0.49335237540E+01  0.71031180314E+00  0.42163407228E+02  0.51100000000E-03 0.  1.
         23    2    1    0    0    0 -0.74729090184E+01 -0.27023813858E+02  0.54730844085E+01  0.96432789118E+02  0.92104273948E+02 0.  0.
         11    1    3    3    0    0 -0.49340661637E+02 -0.22090290104E+02  0.47627726054E+01  0.54269381890E+02  0.51100000000E-03 0. -1.
         22    1    1    0    0    0  0.74729090184E+01  0.27023813858E+02 -0.54730844085E+01  0.28567210882E+02  0.00000000000E+00 0. -1.
</event>
<event>
 5    1  0.1717510E-003  0.9118800E+02  0.7818608E-02  0.1130116E+00
         25   -1    0    0    0    0  0.00000000000E+00  0.00000000000E+00  0.99999998245E-14  0.12500000000E+03  0.12500000000E+03 0.  0.
        -11    1    3    3    0    0 -0.23258070660E+02 -0.12260723452E+02 -0.39382446590E+02  0.47352299733E+02  0.51100000000E-03 0. -1.
         23    2    1    0    0    0 -0.41054638948E+02  0.58709477437E+01 -0.23100578692E+02  0.77528027822E+02  0.61294428421E+02 0.  0.
         11    1    3    3    0    0 -0.17796568288E+02  0.18131671195E+02  0.16281867898E+02  0.30175728089E+02  0.51100000000E-03 0.  1.
         22    1    1    0    0    0  0.41054638948E+02 -0.58709477437E+01  0.23100578692E+02  0.47471972178E+02  0.00000000000E+00 0. -1.
</event>
<event>
 5    1  0.1717510E-003  0.9118800E+02  0.7818608E-02  0.1130116E+00
         25   -1    0    0    0    0  0.00000000000E+00  0.00000000000E+00  0.99999998245E-14  0.12500000000E+03  0.12500000000E+03 0.  0.
        -11    1    3    3    0    0 -0.14051715160E+02 -0.32421333615E+02 -0.39060529542E+01  0.35550679631E+02  0.51100000000E-03 0.  1.
         23    2    1    0    0    0  0.25944832151E+02  0.12213244190E+02 -0.67114498640E+01  0.95549342821E+02  0.90897391081E+02 0.  0.
         11    1    3    3    0    0  0.39996547310E+02  0.44634577805E+02 -0.28053969098E+01  0.59998663190E+02  0.51100000000E-03 0. -1.
         22    1    1    0    0    0 -0.25944832151E+02 -0.12213244190E+02  0.67114498640E+01  0.29450657179E+02  0.00000000000E+00 0. -1.
</event>
<event>
 5    1  0.1717510E-003  0.9118800E+02  0.7818608E-02  0.1130116E+00
         25   -1    0    0    0    0  0.00000000000E+00  0.00000000000E+00  0.99999998245E-14  0.12500000000E+03  0.12500000000E+03 0.  0.
        -11    1    3    3    0    0 -0.22522861150E+02 -0.15903423498E+02 -0.26152351901E+02  0.38001890263E+02  0.51100000000E-03 0. -1.
         23    2    1    0    0    0 -0.12000740875E+02  0.12291283692E+02  0.23396802542E+02  0.95974083898E+02  0.91479620542E+02 0.  0.
         11    1    3    3    0    0  0.10522120275E+02  0.28194707191E+02  0.49549154443E+02  0.57972193636E+02  0.51100000000E-03 0.  1.
         22    1    1    0    0    0  0.12000740875E+02 -0.12291283692E+02 -0.23396802542E+02  0.29025916102E+02  0.00000000000E+00 0.  1.
</event>
<event>
 5    1  0.1717510E-003  0.9118800E+02  0.7818608E-02  0.1130116E+00
         25   -1    0    0    0    0  0.00000000000E+00  0.00000000000E+00  0.99999998245E-14  0.12500000000E+03  0.12500000000E+03 0.  0.
        -11    1    3    3    0    0 -0.40394648411E+02  0.38335254339E+02 -0.12900247298E+02  0.57164112222E+02  0.51100000000E-03 0. -1.
         23    2    1    0    0    0 -0.17815261576E+02  0.83354893888E+01 -0.21683038056E+02  0.95725129074E+02  0.91138807698E+02 0.  0.
         11    1    3    3    0    0  0.22579386836E+02 -0.29999764950E+02 -0.87827907584E+01  0.38561016853E+02  0.51100000000E-03 0.  1.
         22    1    1    0    0    0  0.17815261576E+02 -0.83354893888E+01  0.21683038056E+02  0.29274870926E+02  0.00000000000E+00 0. -1.
</event>
<event>
 5    1  0.1717510E-003  0.9118800E+02  0.7818608E-02  0.1130116E+00
         25   -1    0    0    0    0  0.00000000000E+00  0.00000000000E+00  0.99999998245E-14  0.12500000000E+03  0.12500000000E+03 0.  0.
        -11    1    3    3    0    0 -0.17824425271E+02  0.13072484083E+02  0.39507274005E+02  0.45270571853E+02  0.51100000000E-03 0. -1.
         23    2    1    0    0    0  0.13692261481E+02 -0.18329926682E+02  0.49852476072E+01  0.10158383186E+03  0.98848156103E+02 0.  0.
         11    1    3    3    0    0  0.31516686752E+02 -0.31402410765E+02 -0.34522026398E+02  0.56313260007E+02  0.51100000000E-03 0.  1.
         22    1    1    0    0    0 -0.13692261481E+02  0.18329926682E+02 -0.49852476072E+01  0.23416168140E+02  0.00000000000E+00 0.  1.
</event>
<event>
 5    1  0.1717510E-003  0.9118800E+02  0.7818608E-02  0.1130116E+00
         25   -1    0    0    0    0  0.00000000000E+00  0.00000000000E+00  0.99999998245E-14  0.12500000000E+03  0.12500000000E+03 0.  0.
        -11    1    3    3    0    0 -0.27339841028E+02  0.46094921641E+01 -0.22082288600E+02  0.35444912125E+02  0.51100000000E-03 0.  1.
         23    2    1    0    0    0 -0.17121512770E+02  0.22313135705E+01  0.30979399228E+02  0.89533845200E+02  0.82209861330E+02 0.  0.
         11    1    3    3    0    0  0.10218328258E+02 -0.23781785936E+01  0.53061687828E+02  0.54088933075E+02  0.51100000000E-03 0. -1.
         22    1    1    0    0    0  0.17121512770E+02 -0.22313135705E+01 -0.30979399228E+02  0.35466154800E+02  0.00000000000E+00 0. -1.
</event>
<event>
 5    1  0.1717510E-003  0.9118800E+02  0.7818608E-02  0.1130116E+00
         25   -1    0    0    0    0  0.00000000000E+00  0.00000000000E+00  0.99999998245E-14  0.12500000000E+03  0.12500000000E+03 0.  0.
        -11    1    3    3    0    0  0.10959111103E+02  0.47345676498E+02  0.14273164939E+02  0.50650157323E+02  0.51100000000E-03 0.  1.
         23    2    1    0    0    0  0.35196366118E+01  0.20810636451E+02 -0.20875338999E+02  0.95314141251E+02  0.90573369777E+02 0.  0.
         11    1    3    3    0    0 -0.74394744912E+01 -0.26535040047E+02 -0.35148503937E+02  0.44663983928E+02  0.51100000000E-03 0. -1.
         22    1    1    0    0    0 -0.35196366118E+01 -0.20810636451E+02  0.20875338999E+02  0.29685858749E+02  0.00000000000E+00 0.  1.
</event>
<event>
 5    1  0.1717510E-003  0.9118800E+02  0.7818608E-02  0.1130116E+00
         25   -1    0    0    0    0  0.00000000000E+00  0.00000000000E+00  0.99999998245E-14  0.12500000000E+03  0.12500000000E+03 0.  0.
        -11    1    3    3    0    0 -0.27302455051E+02 -0.47195178349E+02  0.10784402931E+02  0.55579782817E+02  0.51100000000E-03 0. -1.
         23    2    1    0    0    0 -0.53059642892E+01 -0.25847182837E+02 -0.14119194530E+02  0.95073727733E+02  0.90240965937E+02 0.  0.
         11    1    3    3    0    0  0.21996490761E+02  0.21347995512E+02 -0.24903597462E+02  0.39493944916E+02  0.51100000000E-03 0.  1.
         22    1    1    0    0    0  0.53059642892E+01  0.25847182837E+02  0.14119194530E+02  0.29926272267E+02  0.00000000000E+00 0. -1.
</event>
<event>
 5    1  0.1717510E-003  0.9118800E+02  0.7818608E-02  0.1130116E+00
         25   -1    0    0    0    0  0.00000000000E+00  0.00000000000E+00  0.99999998245E-14  0.12500000000E+03  0.12500000000E+03 0.  0.
        -11    1    3    3    0    0 -0.93278009863E+01  0.29225124259E+02  0.37216526572E+02  0.48230546436E+02  0.51100000000E-03 0.  1.
         23    2    1    0    0    0  0.15096705757E+02  0.30525570137E+02  0.22919034784E+01  0.90868287789E+02  0.84214440253E+02 0.  0.
         11    1    3    3    0    0  0.24424506743E+02  0.13004458782E+01 -0.34924623094E+02  0.42637741352E+02  0.51100000000E-03 0. -1.
         22    1    1    0    0    0 -0.15096705757E+02 -0.30525570137E+02 -0.22919034784E+01  0.34131712211E+02  0.00000000000E+00 0.  1.
</event>
<event>
 5    1  0.1717510E-003  0.9118800E+02  0.7818608E-02  0.1130116E+00
         25   -1    0    0    0    0  0.00000000000E+00  0.00000000000E+00  0.99999998245E-14  0.12500000000E+03  0.12500000000E+03 0.  0.
        -11    1    3    3    0    0  0.82594638791E+01 -0.16706257613E+02  0.43429653671E+02  0.47259418164E+02  0.51100000000E-03 0. -1.
         23    2    1    0    0    0  0.10246782508E+02 -0.27336486915E+02 -0.36624782764E+01  0.95577324803E+02  0.90935863117E+02 0.  0.
         11    1    3    3    0    0  0.19873186287E+01 -0.10630229302E+02 -0.47092131947E+02  0.48317906639E+02  0.51100000000E-03 0.  1.
         22    1    1    0    0    0 -0.10246782508E+02  0.27336486915E+02  0.36624782764E+01  0.29422675197E+02  0.00000000000E+00 0.  1.
</event>
<event>
 5    1  0.1717510E-003  0.9118800E+02  0.7818608E-02  0.1130116E+00
         25   -1    0    0    0    0  0.00000000000E+00  0.00000000000E+00  0.99999998245E-14  0.12500000000E+03  0.12500000000E+03 0.  0.
        -11    1    3    3    0    0 -0.14795983495E+02 -0.50136632975E+02 -0.39195657960E+01  0.52421046250E+02  0.51100000000E-03 0. -1.
         23    2    1    0    0    0 -0.20303044093E+02 -0.15848207772E+02 -0.21595337245E+02  0.91388426402E+02  0.84982978298E+02 0.  0.
         11    1    3    3    0    0 -0.55070605981E+01  0.34288425203E+02 -0.17675771449E+02  0.38967380152E+02  0.51100000000E-03 0.  1.
         22    1    1    0    0    0  0.20303044093E+02  0.15848207772E+02  0.21595337245E+02  0.33611573598E+02  0.00000000000E+00 0. -1.
</event>
<event>
 5    1  0.1717510E-003  0.9118800E+02  0.7818608E-02  0.1130116E+00
         25   -1    0    0    0    0  0.00000000000E+00  0.00000000000E+00  0.99999998245E-14  0.12500000000E+03  0.12500000000E+03 0.  0.
        -11    1    3    3    0    0 -0.27164359199E+02 -0.44193183935E+02  0.11461356408E+02  0.53125348074E+02  0.51100000000E-03 0.  1.
         23    2    1    0    0    0  0.86909814807E+01 -0.22696287227E+02  0.17063198870E+02  0.95304758484E+02  0.90560419727E+02 0.  0.
         11    1    3    3    0    0  0.35855340680E+02  0.21496896708E+02  0.56018424616E+01  0.42179410410E+02  0.51100000000E-03 0. -1.
         22    1    1    0    0    0 -0.86909814807E+01  0.22696287227E+02 -0.17063198870E+02  0.29695241516E+02  0.00000000000E+00 0.  1.
</event>
<event>
 5    1  0.1717510E-003  0.9118800E+02  0.7818608E-02  0.1130116E+00
         25   -1    0    0    0    0  0.00000000000E+00  0.00000000000E+00  0.99999998245E-14  0.12500000000E+03  0.12500000000E+03 0.  0.
        -11    1    3    3    0    0  0.41901951579E+02  0.48532612777E+01 -0.43032240734E+02  0.60258621242E+02  0.51100000000E-03 0. -1.
         23    2    1    0    0    0  0.98190426036E+01  0.25791466976E+00 -0.26698114090E+02  0.96552339049E+02  0.92266379371E+02 0.  0.
         11    1    3    3    0    0 -0.32082908975E+02 -0.45953466080E+01  0.16334126644E+02  0.36293717807E+02  0.51100000000E-03 0.  1.
         22    1    1    0    0    0 -0.98190426036E+01 -0.25791466976E+00  0.26698114090E+02  0.28447660951E+02  0.00000000000E+00 0. -1.
</event>
<event>
 5    1  0.1717510E-003  0.9118800E+02  0.7818608E-02  0.1130116E+00
         25   -1    0    0    0    0  0.00000000000E+00  0.00000000000E+00  0.99999998245E-14  0.12500000000E+03  0.12500000000E+03 0.  0.
        -11    1    3    3    0    0 -0.40741070656E+02 -0.33650531615E+02  0.30308043798E+01  0.52928053919E+02  0.51100000000E-03 0. -1.
         23    2    1    0    0    0 -0.14352135692E+02 -0.77836847634E+01  0.24420347986E+02  0.95624449909E+02  0.91000618004E+02 0.  0.
         11    1    3    3    0    0  0.26388934964E+02  0.25866846852E+02  0.21389543606E+02  0.42696395990E+02  0.51100000000E-03 0.  1.
         22    1    1    0    0    0  0.14352135692E+02  0.77836847634E+01 -0.24420347986E+02  0.29375550091E+02  0.00000000000E+00 0. -1.
</event>
<event>
 5    1  0.1717510E-003  0.9118800E+02  0.7818608E-02  0.1130116E+00
         25   -1    0    0    0    0  0.00000000000E+00  0.00000000000E+00  0.99999998245E-14  0.12500000000E+03  0.12500000000E+03 0.  0.
        -11    1    3    3    0    0  0.34155507757E+02 -0.32821496764E+01 -0.19249414117E+02  0.39343502141E+02  0.51100000000E-03 0.  1.
         23    2    1    0    0    0 -0.18511619152E+02  0.16617210439E+02 -0.15327704631E+02  0.95780994958E+02  0.91215397491E+02 0.  0.
         11    1    3    3    0    0 -0.52667126909E+02  0.19899360115E+02  0.39217094860E+01  0.56437492817E+02  0.51100000000E-03 0. -1.
         22    1    1    0    0    0  0.18511619152E+02 -0.16617210439E+02  0.15327704631E+02  0.29219005042E+02  0.00000000000E+00 0. -1.
</event>
<event>
 5    1  0.1717510E-003  0.9118800E+02  0.7818608E-02  0.1130116E+00
         25   -1    0    0    0    0  0.00000000000E+00  0.00000000000E+00  0.99999998245E-14  0.12500000000E+03  0.12500000000E+03 0.  0.
        -11    1    3    3    0    0  0.27126187488E+02  0.33986686870E+02  0.74006552992E+01  0.44110028692E+02  0.51100000000E-03 0.  1.
         23    2    1    0    0    0 -0.12965538924E+02  0.67127094687E+01  0.25293302301E+02  0.95795260499E+02  0.91234944648E+02 0.  0.
         11    1    3    3    0    0 -0.40091726412E+02 -0.27273977402E+02  0.17892647002E+02  0.51685231808E+02  0.51100000000E-03 0. -1.
         22    1    1    0    0    0  0.12965538924E+02 -0.67127094687E+01 -0.25293302301E+02  0.29204739501E+02  0.00000000000E+00 0. -1.
</event>
<event>
 5    1  0.1717510E-003  0.9118800E+02  0.7818608E-02  0.1130116E+00
         25   -1    0    0    0    0  0.00000000000E+00  0.00000000000E+00  0.99999998245E-14  0.12500000000E+03  0.12500000000E+03 0.  0.
        -11    1    3    3    0    0 -0.36098767908E+02  0.21515427112E+02 -0.40545291490E+02  0.58394822635E+02  0.51100000000E-03 0. -1.
         23    2    1    0    0    0 -0.16808463948E+02 -0.55489133512E+01 -0.23000566599E+02  0.95976889147E+02  0.91483453623E+02 0.  0.
         11    1    3    3    0    0  0.19290303960E+02 -0.27064340463E+02  0.17544724891E+02  0.37582066512E+02  0.51100000000E-03 0.  1.
         22    1    1    0    0    0  0.16808463948E+02  0.55489133512E+01  0.23000566599E+02  0.29023110853E+02  0.00000000000E+00 0. -1.
</event>
<event>
 5    1  0.1717510E-003  0.9118800E+02  0.7818608E-02  0.1130116E+00
         25   -1    0    0    0    0  0.00000000000E+00  0.00000000000E+00  0.99999998245E-14  0.12500000000E+03  0.12500000000E+03 0.  0.
        -11    1    3    3    0    0  0.18979492232E+02  0.21977860088E+02 -0.50646804024E+02  0.58381043306E+02  0.51100000000E-03 0.  1.
         23    2    1    0    0    0 -0.17814369779E+01 -0.17970107706E+01 -0.27155231503E+02  0.97727131368E+02  0.93844460902E+02 0.  0.
         11    1    3    3    0    0 -0.20760929210E+02 -0.23774870859E+02  0.23491572521E+02  0.39346088062E+02  0.51100000000E-03 0. -1.
         22    1    1    0    0    0  0.17814369779E+01  0.17970107706E+01  0.27155231503E+02  0.27272868632E+02  0.00000000000E+00 0.  1.
</event>
<event>
 5    1  0.1717510E-003  0.9118800E+02  0.7818608E-02  0.1130116E+00
         25   -1    0    0    0    0  0.00000000000E+00  0.00000000000E+00  0.99999998245E-14  0.12500000000E+03  0.12500000000E+03 0.  0.
        -11    1    3    3    0    0 -0.38401058889E+02 -0.30052915635E+02  0.33203096628E+02  0.58993768213E+02  0.51100000000E-03 0.  1.
         23    2    1    0    0    0 -0.15155441730E+02 -0.39070370973E+01  0.25908162811E+02  0.94731447786E+02  0.89765594447E+02 0.  0.
         11    1    3    3    0    0  0.23245617160E+02  0.26145878537E+02 -0.72949338171E+01  0.35737679573E+02  0.51100000000E-03 0. -1.
         22    1    1    0    0    0  0.15155441730E+02  0.39070370973E+01 -0.25908162811E+02  0.30268552214E+02  0.00000000000E+00 0.  1.
</event>
<event>
 5    1  0.1717510E-003  0.9118800E+02  0.7818608E-02  0.1130116E+00
         25   -1    0    0    0    0  0.00000000000E+00  0.00000000000E+00  0.99999998245E-14  0.12500000000E+03  0.12500000000E+03 0.  0.
        -11    1    3    3    0    0 -0.41276632791E+01  0.40047476856E+01 -0.40793862618E+02  0.41197267333E+02  0.51100000000E-03 0.  1.
         23    2    1    0    0    0  0.86808601346E+00 -0.17538736552E+02  0.15436067743E+02  0.10161981522E+03  0.98893648957E+02 0.  0.
         11    1    3    3    0    0  0.49957492926E+01 -0.21543484238E+02  0.56229930360E+02  0.60422547883E+02  0.51100000000E-03 0. -1.
         22    1    1    0    0    0 -0.86808601346E+00  0.17538736552E+02 -0.15436067743E+02  0.23380184784E+02  0.00000000000E+00 0. -1.
</event>
<event>
 5    1  0.1717510E-003  0.9118800E+02  0.7818608E-02  0.1130116E+00
         25   -1    0    0    0    0  0.00000000000E+00  0.00000000000E+00  0.99999998245E-14  0.12500000000E+03  0.12500000000E+03 0.  0.
        -11    1    3    3    0    0  0.89815454829E+01 -0.39686738919E+02 -0.41633325052E+02  0.58215454652E+02  0.51100000000E-03 0. -1.
         23    2    1    0    0    0  0.18057912404E+01 -0.35495185808E+01 -0.26757001604E+02  0.97948251462E+02  0.94138530185E+02 0.  0.
         11    1    3    3    0    0 -0.71757542425E+01  0.36137220338E+02  0.14876323448E+02  0.39732796809E+02  0.51100000000E-03 0.  1.
         22    1    1    0    0    0 -0.18057912404E+01  0.35495185808E+01  0.26757001604E+02  0.27051748538E+02  0.00000000000E+00 0. -1.
</event>
<event>
 5    1  0.1717510E-003  0.9118800E+02  0.7818608E-02  0.1130116E+00
         25   -1    0    0    0    0  0.00000000000E+00  0.00000000000E+00  0.99999998245E-14  0.12500000000E+03  0.12500000000E+03 0.  0.
        -11    1    3    3    0    0  0.77359816596E+01  0.91918500422E+01 -0.19885226307E+02  0.23232686995E+02  0.51100000000E-03 0.  1.
         23    2    1    0    0    0  0.39515950546E+02 -0.87835909113E+00  0.24314031685E+02  0.78594677040E+02  0.63432399134E+02 0.  0.
         11    1    3    3    0    0  0.31779968887E+02 -0.10070209133E+02  0.44199257992E+02  0.55361990045E+02  0.51100000000E-03 0. -1.
         22    1    1    0    0    0 -0.39515950546E+02  0.87835909113E+00 -0.24314031685E+02  0.46405322960E+02  0.00000000000E+00 0. -1.
</event>
<event>
 5    1  0.1717510E-003  0.9118800E+02  0.7818608E-02  0.1130116E+00
         25   -1    0    0    0    0  0.00000000000E+00  0.00000000000E+00  0.99999998245E-14  0.12500000000E+03  0.12500000000E+03 0.  0.
        -11    1    3    3    0    0 -0.70444079862E+01 -0.27446728163E+02 -0.48611910005E+02  0.56267791545E+02  0.51100000000E-03 0.  1.
         23    2    1    0    0    0  0.11484199882E+02 -0.26096992504E+02 -0.20827057467E+02  0.89691273212E+02  0.82448882970E+02 0.  0.
         11    1    3    3    0    0  0.18528607869E+02  0.13497356595E+01  0.27784852538E+02  0.33423481667E+02  0.51100000000E-03 0. -1.
         22    1    1    0    0    0 -0.11484199882E+02  0.26096992504E+02  0.20827057467E+02  0.35308726788E+02  0.00000000000E+00 0.  1.
</event>
<event>
 5    1  0.1717510E-003  0.9118800E+02  0.7818608E-02  0.1130116E+00
         25   -1    0    0    0    0  0.00000000000E+00  0.00000000000E+00  0.99999998245E-14  0.12500000000E+03  0.12500000000E+03 0.  0.
        -11    1    3    3    0    0  0.76325140758E+01  0.22289475576E+02 -0.36352681083E+02  0.43319665451E+02  0.51100000000E-03 0.  1.
         23    2    1    0    0    0 -0.18557308459E+02 -0.17329117205E+02 -0.15995017046E+02  0.94991458372E+02  0.90126936002E+02 0.  0.
         11    1    3    3    0    0 -0.26189822534E+02 -0.39618592782E+02  0.20357664037E+02  0.51671792921E+02  0.51100000000E-03 0. -1.
         22    1    1    0    0    0  0.18557308459E+02  0.17329117205E+02  0.15995017046E+02  0.30008541628E+02  0.00000000000E+00 0. -1.
</event>
<event>
 5    1  0.1717510E-003  0.9118800E+02  0.7818608E-02  0.1130116E+00
         25   -1    0    0    0    0  0.00000000000E+00  0.00000000000E+00  0.99999998245E-14  0.12500000000E+03  0.12500000000E+03 0.  0.
        -11    1    3    3    0    0 -0.13395856124E+02  0.27347597990E+01  0.45068436538E+02  0.47096622434E+02  0.51100000000E-03 0.  1.
         23    2    1    0    0    0 -0.81410814831E+01  0.27883258847E+02  0.38051924343E+01  0.95704389047E+02  0.91110357599E+02 0.  0.
         11    1    3    3    0    0  0.52547746407E+01  0.25148499048E+02 -0.41263244104E+02  0.48607766613E+02  0.51100000000E-03 0. -1.
         22    1    1    0    0    0  0.81410814831E+01 -0.27883258847E+02 -0.38051924343E+01  0.29295610953E+02  0.00000000000E+00 0. -1.
</event>
<event>
 5    1  0.1717510E-003  0.9118800E+02  0.7818608E-02  0.1130116E+00
         25   -1    0    0    0    0  0.00000000000E+00  0.00000000000E+00  0.99999998245E-14  0.12500000000E+03  0.12500000000E+03 0.  0.
        -11    1    3    3    0    0  0.30295361597E+01  0.43282368069E+02  0.16905065650E+02  0.46565252280E+02  0.51100000000E-03 0.  1.
         23    2    1    0    0    0 -0.17416367624E+02 -0.88769520508E+00  0.23557072530E+02  0.95690385022E+02  0.91091142574E+02 0.  0.
         11    1    3    3    0    0 -0.20445903784E+02 -0.44170063274E+02  0.66520068797E+01  0.49125132742E+02  0.51100000000E-03 0. -1.
         22    1    1    0    0    0  0.17416367624E+02  0.88769520508E+00 -0.23557072530E+02  0.29309614978E+02  0.00000000000E+00 0. -1.
</event>
<event>
 5    1  0.1717510E-003  0.9118800E+02  0.7818608E-02  0.1130116E+00
         25   -1    0    0    0    0  0.00000000000E+00  0.00000000000E+00  0.99999998245E-14  0.12500000000E+03  0.12500000000E+03 0.  0.
        -11    1    3    3    0    0 -0.25272517451E+01  0.34297572138E+02  0.10906335694E+01  0.34407847038E+02  0.51100000000E-03 0.  1.
         23    2    1    0    0    0 -0.16421870299E+02 -0.24449645869E+02 -0.51603410513E+01  0.95098626670E+02  0.90275448864E+02 0.  0.
         11    1    3    3    0    0 -0.13894618554E+02 -0.58747218007E+02 -0.62509746207E+01  0.60690779632E+02  0.51100000000E-03 0. -1.
         22    1    1    0    0    0  0.16421870299E+02  0.24449645869E+02  0.51603410513E+01  0.29901373330E+02  0.00000000000E+00 0. -1.
</event>
<event>
 5    1  0.1717510E-003  0.9118800E+02  0.7818608E-02  0.1130116E+00
         25   -1    0    0    0    0  0.00000000000E+00  0.00000000000E+00  0.99999998245E-14  0.12500000000E+03  0.12500000000E+03 0.  0.
        -11    1    3    3    0    0  0.10206579199E+02 -0.34423645069E+02 -0.15170169569E+01  0.35936930023E+02  0.51100000000E-03 0.  1.
         23    2    1    0    0    0  0.70448249250E+01  0.26796240863E+02 -0.17366893091E+01  0.97238800956E+02  0.93191739113E+02 0.  0.
         11    1    3    3    0    0 -0.31617542743E+01  0.61219885932E+02 -0.21967235223E+00  0.61301870933E+02  0.51100000000E-03 0. -1.
         22    1    1    0    0    0 -0.70448249250E+01 -0.26796240863E+02  0.17366893091E+01  0.27761199044E+02  0.00000000000E+00 0. -1.
</event>
<event>
 5    1  0.1717510E-003  0.9118800E+02  0.7818608E-02  0.1130116E+00
         25   -1    0    0    0    0  0.00000000000E+00  0.00000000000E+00  0.99999998245E-14  0.12500000000E+03  0.12500000000E+03 0.  0.
        -11    1    3    3    0    0 -0.15949209053E+02  0.47961644592E+02  0.34522483715E+01  0.50661767048E+02  0.51100000000E-03 0.  1.
         23    2    1    0    0    0  0.12799074393E+02  0.20336775694E+02 -0.17090792093E+02  0.95512783697E+02  0.90847101903E+02 0.  0.
         11    1    3    3    0    0  0.28748283446E+02 -0.27624868898E+02 -0.20543040464E+02  0.44851016649E+02  0.51100000000E-03 0. -1.
         22    1    1    0    0    0 -0.12799074393E+02 -0.20336775694E+02  0.17090792093E+02  0.29487216303E+02  0.00000000000E+00 0.  1.
</event>
<event>
 5    1  0.1717510E-003  0.9118800E+02  0.7818608E-02  0.1130116E+00
         25   -1    0    0    0    0  0.00000000000E+00  0.00000000000E+00  0.99999998245E-14  0.12500000000E+03  0.12500000000E+03 0.  0.
        -11    1    3    3    0    0 -0.14078565525E+02  0.50114611815E+02  0.24287326824E+02  0.57441749357E+02  0.51100000000E-03 0. -1.
         23    2    1    0    0    0  0.98263740677E+01  0.30318015269E+02  0.10110695260E+02  0.91564003891E+02  0.85240840990E+02 0.  0.
         11    1    3    3    0    0  0.23904939592E+02 -0.19796596546E+02 -0.14176631564E+02  0.34122254534E+02  0.51100000000E-03 0.  1.
         22    1    1    0    0    0 -0.98263740677E+01 -0.30318015269E+02 -0.10110695260E+02  0.33435996109E+02  0.00000000000E+00 0. -1.
</event>
<event>
 5    1  0.1717510E-003  0.9118800E+02  0.7818608E-02  0.1130116E+00
         25   -1    0    0    0    0  0.00000000000E+00  0.00000000000E+00  0.99999998245E-14  0.12500000000E+03  0.12500000000E+03 0.  0.
        -11    1    3    3    0    0 -0.37088860363E+01  0.41430102855E+01 -0.40369200442E+02  0.40750370727E+02  0.51100000000E-03 0.  1.
         23    2    1    0    0    0 -0.23038838279E+02 -0.15566749575E+02  0.76697277097E+01  0.96156690815E+02  0.91728799751E+02 0.  0.
         11    1    3    3    0    0 -0.19329952243E+02 -0.19709759861E+02  0.48038928151E+02  0.55406320088E+02  0.51100000000E-03 0. -1.
         22    1    1    0    0    0  0.23038838279E+02  0.15566749575E+02 -0.76697277097E+01  0.28843309185E+02  0.00000000000E+00 0. -1.
</event>
<event>
 5    1  0.1717510E-003  0.9118800E+02  0.7818608E-02  0.1130116E+00
         25   -1    0    0    0    0  0.00000000000E+00  0.00000000000E+00  0.99999998245E-14  0.12500000000E+03  0.12500000000E+03 0.  0.
        -11    1    3    3    0    0 -0.23073779748E+02  0.39692137548E+02  0.13406753613E+02  0.47828925743E+02  0.51100000000E-03 0.  1.
         23    2    1    0    0    0  0.10658256321E+01  0.20920380753E+02 -0.22006436146E+02  0.94617742892E+02  0.89607118707E+02 0.  0.
         11    1    3    3    0    0  0.24139605380E+02 -0.18771756795E+02 -0.35413189759E+02  0.46788817149E+02  0.51100000000E-03 0. -1.
         22    1    1    0    0    0 -0.10658256321E+01 -0.20920380753E+02  0.22006436146E+02  0.30382257108E+02  0.00000000000E+00 0.  1.
</event>
<event>
 5    1  0.1717510E-003  0.9118800E+02  0.7818608E-02  0.1130116E+00
         25   -1    0    0    0    0  0.00000000000E+00  0.00000000000E+00  0.99999998245E-14  0.12500000000E+03  0.12500000000E+03 0.  0.
        -11    1    3    3    0    0  0.35739715783E+02  0.28981529827E+02  0.69919925840E+01  0.46541855527E+02  0.51100000000E-03 0. -1.
         23    2    1    0    0    0  0.18616092749E+02 -0.10275577777E+02 -0.18867518121E+02  0.96572378785E+02  0.92293524672E+02 0.  0.
         11    1    3    3    0    0 -0.17123623034E+02 -0.39257107604E+02 -0.25859510705E+02  0.50030523258E+02  0.51100000000E-03 0.  1.
         22    1    1    0    0    0 -0.18616092749E+02  0.10275577777E+02  0.18867518121E+02  0.28427621215E+02  0.00000000000E+00 0.  1.
</event>
<event>
 5    1  0.1717510E-003  0.9118800E+02  0.7818608E-02  0.1130116E+00
         25   -1    0    0    0    0  0.00000000000E+00  0.00000000000E+00  0.99999998245E-14  0.12500000000E+03  0.12500000000E+03 0.  0.
        -11    1    3    3    0    0  0.78183201921E+01 -0.28760198507E+02  0.32980294009E+02  0.44451939687E+02  0.51100000000E-03 0.  1.
         23    2    1    0    0    0  0.29579583857E+02 -0.12880063228E+01 -0.36743989074E+01  0.95165256013E+02  0.90367660162E+02 0.  0.
         11    1    3    3    0    0  0.21761263665E+02  0.27472192184E+02 -0.36654692916E+02  0.50713316326E+02  0.51100000000E-03 0. -1.
         22    1    1    0    0    0 -0.29579583857E+02  0.12880063228E+01  0.36743989074E+01  0.29834743987E+02  0.00000000000E+00 0. -1.
</event>
<event>
 5    1  0.1717510E-003  0.9118800E+02  0.7818608E-02  0.1130116E+00
         25   -1    0    0    0    0  0.00000000000E+00  0.00000000000E+00  0.99999998245E-14  0.12500000000E+03  0.12500000000E+03 0.  0.
        -11    1    3    3    0    0 -0.26116243117E+02 -0.40041800670E+02  0.39920295122E+02  0.62281890773E+02  0.51100000000E-03 0.  1.
         23    2    1    0    0    0 -0.14398043455E+02 -0.15696463048E+02  0.19077768198E+02  0.96405527685E+02  0.92067268458E+02 0.  0.
         11    1    3    3    0    0  0.11718199663E+02  0.24345337622E+02 -0.20842526923E+02  0.34123636912E+02  0.51100000000E-03 0. -1.
         22    1    1    0    0    0  0.14398043455E+02  0.15696463048E+02 -0.19077768198E+02  0.28594472315E+02  0.00000000000E+00 0.  1.
</event>
<event>
 5    1  0.1717510E-003  0.9118800E+02  0.7818608E-02  0.1130116E+00
         25   -1    0    0    0    0  0.00000000000E+00  0.00000000000E+00  0.99999998245E-14  0.12500000000E+03  0.12500000000E+03 0.  0.
        -11    1    3    3    0    0 -0.21703362707E+02  0.32697253942E+02 -0.22117500090E+02  0.45048087403E+02  0.51100000000E-03 0. -1.
         23    2    1    0    0    0 -0.94766189579E+01 -0.15147430143E+02 -0.24719800247E+02  0.94498861151E+02  0.89441127496E+02 0.  0.
         11    1    3    3    0    0  0.12226743749E+02 -0.47844684086E+02 -0.26023001570E+01  0.49450773749E+02  0.51100000000E-03 0.  1.
         22    1    1    0    0    0  0.94766189579E+01  0.15147430143E+02  0.24719800247E+02  0.30501138849E+02  0.00000000000E+00 0. -1.
</event>
<event>
 5    1  0.1717510E-003  0.9118800E+02  0.7818608E-02  0.1130116E+00
         25   -1    0    0    0    0  0.00000000000E+00  0.00000000000E+00  0.99999998245E-14  0.12500000000E+03  0.12500000000E+03 0.  0.
        -11    1    3    3    0    0 -0.26828540978E+02 -0.24485032463E+02 -0.31073958537E+02  0.47800400889E+02  0.51100000000E-03 0.  1.
         23    2    1    0    0    0  0.28051336124E+01  0.13270431192E+02 -0.25497339411E+02  0.96119428059E+02  0.91678007258E+02 0.  0.
         11    1    3    3    0    0  0.29633674590E+02  0.37755463655E+02  0.55766191259E+01  0.48319027170E+02  0.51100000000E-03 0. -1.
         22    1    1    0    0    0 -0.28051336124E+01 -0.13270431192E+02  0.25497339411E+02  0.28880571941E+02  0.00000000000E+00 0. -1.
</event>
<event>
 5    1  0.1717510E-003  0.9118800E+02  0.7818608E-02  0.1130116E+00
         25   -1    0    0    0    0  0.00000000000E+00  0.00000000000E+00  0.99999998245E-14  0.12500000000E+03  0.12500000000E+03 0.  0.
        -11    1    3    3    0    0 -0.14020522858E+02  0.26764276294E+02 -0.33723735327E+02  0.45279044506E+02  0.51100000000E-03 0. -1.
         23    2    1    0    0    0  0.20069746455E+01 -0.14153978202E+02  0.10220801109E+02  0.10742650230E+03  0.10597936391E+03 0.  0.
         11    1    3    3    0    0  0.16027497504E+02 -0.40918254495E+02  0.43944536436E+02  0.62147457792E+02  0.51100000000E-03 0.  1.
         22    1    1    0    0    0 -0.20069746455E+01  0.14153978202E+02 -0.10220801109E+02  0.17573497702E+02  0.00000000000E+00 0.  1.
</event>
<event>
 5    1  0.1717510E-003  0.9118800E+02  0.7818608E-02  0.1130116E+00
         25   -1    0    0    0    0  0.00000000000E+00  0.00000000000E+00  0.99999998245E-14  0.12500000000E+03  0.12500000000E+03 0.  0.
        -11    1    3    3    0    0  0.46310234741E+02 -0.34063329687E+01 -0.14797142055E+02  0.48735986286E+02  0.51100000000E-03 0.  1.
         23    2    1    0    0    0  0.18382946897E+02 -0.75543856307E+00  0.22836052898E+02  0.95674435453E+02  0.91069253117E+02 0.  0.
         11    1    3    3    0    0 -0.27927287844E+02  0.26508944056E+01  0.37633194953E+02  0.46938449166E+02  0.51100000000E-03 0. -1.
         22    1    1    0    0    0 -0.18382946897E+02  0.75543856307E+00 -0.22836052898E+02  0.29325564547E+02  0.00000000000E+00 0.  1.
</event>
<event>
 5    1  0.1717510E-003  0.9118800E+02  0.7818608E-02  0.1130116E+00
         25   -1    0    0    0    0  0.00000000000E+00  0.00000000000E+00  0.99999998245E-14  0.12500000000E+03  0.12500000000E+03 0.  0.
        -11    1    3    3    0    0  0.28519624206E+02 -0.17112142064E+02 -0.32332447912E+00  0.33261071989E+02  0.51100000000E-03 0. -1.
         23    2    1    0    0    0 -0.13570167149E+02  0.25527215712E+02  0.10686543806E+02  0.94178085768E+02  0.88991693106E+02 0.  0.
         11    1    3    3    0    0 -0.42089791355E+02  0.42639357775E+02  0.11009868285E+02  0.60917013779E+02  0.51100000000E-03 0.  1.
         22    1    1    0    0    0  0.13570167149E+02 -0.25527215712E+02 -0.10686543806E+02  0.30821914232E+02  0.00000000000E+00 0.  1.
</event>
<event>
 5    1  0.1717510E-003  0.9118800E+02  0.7818608E-02  0.1130116E+00
         25   -1    0    0    0    0  0.00000000000E+00  0.00000000000E+00  0.99999998245E-14  0.12500000000E+03  0.12500000000E+03 0.  0.
        -11    1    3    3    0    0 -0.49208846299E+02 -0.17572913473E+02  0.15770393746E+02  0.54580428371E+02  0.51100000000E-03 0. -1.
         23    2    1    0    0    0 -0.88224300573E+01 -0.25864842334E+02  0.78906967849E+01  0.96555520099E+02  0.92270688871E+02 0.  0.
         11    1    3    3    0    0  0.40386416242E+02 -0.82919288610E+01 -0.78796969608E+01  0.41975091728E+02  0.51100000000E-03 0.  1.
         22    1    1    0    0    0  0.88224300573E+01  0.25864842334E+02 -0.78906967849E+01  0.28444479901E+02  0.00000000000E+00 0. -1.
</event>
<event>
 5    1  0.1717510E-003  0.9118800E+02  0.7818608E-02  0.1130116E+00
         25   -1    0    0    0    0  0.00000000000E+00  0.00000000000E+00  0.99999998245E-14  0.12500000000E+03  0.12500000000E+03 0.  0.
        -11    1    3    3    0    0  0.25695783922E+02 -0.17676495440E+02  0.73686439529E+01  0.32047288753E+02  0.51100000000E-03 0.  1.
         23    2    1    0    0    0 -0.14462716473E+02  0.63886790047E+01 -0.29427571272E+02  0.91593902680E+02  0.85284674297E+02 0.  0.
         11    1    3    3    0    0 -0.40158500396E+02  0.24065174445E+02 -0.36796215225E+02  0.59546613927E+02  0.51100000000E-03 0. -1.
         22    1    1    0    0    0  0.14462716473E+02 -0.63886790047E+01  0.29427571272E+02  0.33406097320E+02  0.00000000000E+00 0. -1.
</event>
<event>
 5    1  0.1717510E-003  0.9118800E+02  0.7818608E-02  0.1130116E+00
         25   -1    0    0    0    0  0.00000000000E+00  0.00000000000E+00  0.99999998245E-14  0.12500000000E+03  0.12500000000E+03 0.  0.
        -11    1    3    3    0    0 -0.25615995628E+02  0.35989084453E+02  0.59415319256E+01  0.44572359525E+02  0.51100000000E-03 0.  1.
         23    2    1    0    0    0 -0.11882857735E+02 -0.92727584902E+01  0.25195282377E+02  0.95640357427E+02  0.91022466219E+02 0.  0.
         11    1    3    3    0    0  0.13733137892E+02 -0.45261842943E+02  0.19253750452E+02  0.51067997902E+02  0.51100000000E-03 0. -1.
         22    1    1    0    0    0  0.11882857735E+02  0.92727584902E+01 -0.25195282377E+02  0.29359642573E+02  0.00000000000E+00 0. -1.
</event>
<event>
 5    1  0.1717510E-003  0.9118800E+02  0.7818608E-02  0.1130116E+00
         25   -1    0    0    0    0  0.00000000000E+00  0.00000000000E+00  0.99999998245E-14  0.12500000000E+03  0.12500000000E+03 0.  0.
        -11    1    3    3    0    0  0.31727334842E+02  0.58780804282E+01  0.46813742343E+02  0.56856856035E+02  0.51100000000E-03 0. -1.
         23    2    1    0    0    0  0.95356069080E+01  0.20715220688E+02  0.22481800331E+02  0.92976890948E+02  0.87288159203E+02 0.  0.
         11    1    3    3    0    0 -0.22191727934E+02  0.14837140260E+02 -0.24331942013E+02  0.36120034913E+02  0.51100000000E-03 0.  1.
         22    1    1    0    0    0 -0.95356069080E+01 -0.20715220688E+02 -0.22481800331E+02  0.32023109052E+02  0.00000000000E+00 0. -1.
</event>
<event>
 5    1  0.1717510E-003  0.9118800E+02  0.7818608E-02  0.1130116E+00
         25   -1    0    0    0    0  0.00000000000E+00  0.00000000000E+00  0.99999998245E-14  0.12500000000E+03  0.12500000000E+03 0.  0.
        -11    1    3    3    0    0 -0.37610478190E-03  0.42312609321E+02  0.38756200805E+01  0.42489732159E+02  0.51100000000E-03 0. -1.
         23    2    1    0    0    0  0.13171685802E+02  0.61451090845E+00  0.29156311869E+02  0.93000602313E+02  0.87322108187E+02 0.  0.
         11    1    3    3    0    0  0.13172061907E+02 -0.41698098412E+02  0.25280691789E+02  0.50510870154E+02  0.51100000000E-03 0.  1.
         22    1    1    0    0    0 -0.13171685802E+02 -0.61451090845E+00 -0.29156311869E+02  0.31999397687E+02  0.00000000000E+00 0.  1.
</event>
<event>
 5    1  0.1717510E-003  0.9118800E+02  0.7818608E-02  0.1130116E+00
         25   -1    0    0    0    0  0.00000000000E+00  0.00000000000E+00  0.99999998245E-14  0.12500000000E+03  0.12500000000E+03 0.  0.
        -11    1    3    3    0    0 -0.33372073603E+02  0.27358182807E+02 -0.39555144812E+02  0.58538661963E+02  0.51100000000E-03 0.  1.
         23    2    1    0    0    0 -0.33941753776E+01  0.22688945692E+02 -0.14767242471E+02  0.97716669314E+02  0.93830524503E+02 0.  0.
         11    1    3    3    0    0  0.29977898225E+02 -0.46692371154E+01  0.24787902341E+02  0.39178007351E+02  0.51100000000E-03 0. -1.
         22    1    1    0    0    0  0.33941753776E+01 -0.22688945692E+02  0.14767242471E+02  0.27283330686E+02  0.00000000000E+00 0.  1.
</event>
<event>
 5    1  0.1717510E-003  0.9118800E+02  0.7818608E-02  0.1130116E+00
         25   -1    0    0    0    0  0.00000000000E+00  0.00000000000E+00  0.99999998245E-14  0.12500000000E+03  0.12500000000E+03 0.  0.
        -11    1    3    3    0    0  0.33593621916E+02  0.13980413195E+02  0.20721635626E+01  0.36445538117E+02  0.51100000000E-03 0. -1.
         23    2    1    0    0    0 -0.25373652242E+02  0.14689501493E+02  0.37578195980E+01  0.95441162230E+02  0.90748501681E+02 0.  0.
         11    1    3    3    0    0 -0.58967274158E+02  0.70908829806E+00  0.16856560355E+01  0.58995624112E+02  0.51100000000E-03 0.  1.
         22    1    1    0    0    0  0.25373652242E+02 -0.14689501493E+02 -0.37578195980E+01  0.29558837770E+02  0.00000000000E+00 0.  1.
</event>
<event>
 5    1  0.1717510E-003  0.9118800E+02  0.7818608E-02  0.1130116E+00
         25   -1    0    0    0    0  0.00000000000E+00  0.00000000000E+00  0.99999998245E-14  0.12500000000E+03  0.12500000000E+03 0.  0.
        -11    1    3    3    0    0 -0.30597044084E+01  0.17648088651E+02 -0.34762308865E+02  0.39105433663E+02  0.51100000000E-03 0.  1.
         23    2    1    0    0    0 -0.23756909129E+02 -0.48210517669E+01  0.14266197972E+02  0.96872474761E+02  0.92699075995E+02 0.  0.
         11    1    3    3    0    0 -0.20697204720E+02 -0.22469140418E+02  0.49028506837E+02  0.57767041098E+02  0.51100000000E-03 0. -1.
         22    1    1    0    0    0  0.23756909129E+02  0.48210517669E+01 -0.14266197972E+02  0.28127525239E+02  0.00000000000E+00 0. -1.
</event>
<event>
 5    1  0.1717510E-003  0.9118800E+02  0.7818608E-02  0.1130116E+00
         25   -1    0    0    0    0  0.00000000000E+00  0.00000000000E+00  0.99999998245E-14  0.12500000000E+03  0.12500000000E+03 0.  0.
        -11    1    3    3    0    0  0.25639189801E+02  0.19818337722E+02  0.23636909309E+02  0.40110323430E+02  0.51100000000E-03 0.  1.
         23    2    1    0    0    0  0.10585004720E+02  0.32507478127E+01 -0.27186347913E+02  0.95645150330E+02  0.91029048015E+02 0.  0.
         11    1    3    3    0    0 -0.15054185081E+02 -0.16567589910E+02 -0.50823257222E+02  0.55534826900E+02  0.51100000000E-03 0. -1.
         22    1    1    0    0    0 -0.10585004720E+02 -0.32507478127E+01  0.27186347913E+02  0.29354849670E+02  0.00000000000E+00 0. -1.
</event>
<event>
 5    1  0.1717510E-003  0.9118800E+02  0.7818608E-02  0.1130116E+00
         25   -1    0    0    0    0  0.00000000000E+00  0.00000000000E+00  0.99999998245E-14  0.12500000000E+03  0.12500000000E+03 0.  0.
        -11    1    3    3    0    0 -0.38922533340E+02  0.31566408744E+02  0.37048658548E+02  0.62321784819E+02  0.51100000000E-03 0.  1.
         23    2    1    0    0    0 -0.18972785173E+02  0.16668147223E+02  0.14704284472E+02  0.95776555800E+02  0.91209313944E+02 0.  0.
         11    1    3    3    0    0  0.19949748167E+02 -0.14898261521E+02 -0.22344374076E+02  0.33454770981E+02  0.51100000000E-03 0. -1.
         22    1    1    0    0    0  0.18972785173E+02 -0.16668147223E+02 -0.14704284472E+02  0.29223444200E+02  0.00000000000E+00 0.  1.
</event>
<event>
 5    1  0.1717510E-003  0.9118800E+02  0.7818608E-02  0.1130116E+00
         25   -1    0    0    0    0  0.00000000000E+00  0.00000000000E+00  0.99999998245E-14  0.12500000000E+03  0.12500000000E+03 0.  0.
        -11    1    3    3    0    0  0.18741549233E+01  0.19180321381E+02  0.45352145961E+02  0.49276914762E+02  0.51100000000E-03 0. -1.
         23    2    1    0    0    0 -0.25370893702E+02  0.12580256031E+02  0.87910822015E+01  0.95348217333E+02  0.90620385860E+02 0.  0.
         11    1    3    3    0    0 -0.27245048625E+02 -0.66000653496E+01 -0.36561063759E+02  0.46071302572E+02  0.51100000000E-03 0.  1.
         22    1    1    0    0    0  0.25370893702E+02 -0.12580256031E+02 -0.87910822015E+01  0.29651782667E+02  0.00000000000E+00 0.  1.
</event>
<event>
 5    1  0.1717510E-003  0.9118800E+02  0.7818608E-02  0.1130116E+00
         25   -1    0    0    0    0  0.00000000000E+00  0.00000000000E+00  0.99999998245E-14  0.12500000000E+03  0.12500000000E+03 0.  0.
        -11    1    3    3    0    0  0.67717419612E+01  0.35049581663E+02 -0.47443296724E+02  0.59373361605E+02  0.51100000000E-03 0.  1.
         23    2    1    0    0    0 -0.10408218041E+02  0.17429602027E+02 -0.25992552357E+02  0.92019175152E+02  0.85905726165E+02 0.  0.
         11    1    3    3    0    0 -0.17179960002E+02 -0.17619979636E+02  0.21450744366E+02  0.32645813547E+02  0.51100000000E-03 0. -1.
         22    1    1    0    0    0  0.10408218041E+02 -0.17429602027E+02  0.25992552357E+02  0.32980824848E+02  0.00000000000E+00 0.  1.
</event>
<event>
 5    1  0.1717510E-003  0.9118800E+02  0.7818608E-02  0.1130116E+00
         25   -1    0    0    0    0  0.00000000000E+00  0.00000000000E+00  0.99999998245E-14  0.12500000000E+03  0.12500000000E+03 0.  0.
        -11    1    3    3    0    0  0.21436363673E+02  0.31096785818E+02  0.22605296940E+02  0.44017351417E+02  0.51100000000E-03 0. -1.
         23    2    1    0    0    0 -0.21894694866E+02  0.96509094133E+01 -0.61826183677E+01  0.10028679532E+03  0.97194129604E+02 0.  0.
         11    1    3    3    0    0 -0.43331058539E+02 -0.21445876405E+02 -0.28787915308E+02  0.56269443901E+02  0.51100000000E-03 0.  1.
         22    1    1    0    0    0  0.21894694866E+02 -0.96509094133E+01  0.61826183677E+01  0.24713204682E+02  0.00000000000E+00 0. -1.
</event>
<event>
 5    1  0.1717510E-003  0.9118800E+02  0.7818608E-02  0.1130116E+00
         25   -1    0    0    0    0  0.00000000000E+00  0.00000000000E+00  0.99999998245E-14  0.12500000000E+03  0.12500000000E+03 0.  0.
        -11    1    3    3    0    0  0.23530145098E+01 -0.24061314762E+02  0.33725246920E+02  0.41495491628E+02  0.51100000000E-03 0. -1.
         23    2    1    0    0    0 -0.27739085616E+02  0.81791061008E+01  0.16403761922E+01  0.96033718197E+02  0.91561070053E+02 0.  0.
         11    1    3    3    0    0 -0.30092100126E+02  0.32240420863E+02 -0.32084870728E+02  0.54538226569E+02  0.51100000000E-03 0.  1.
         22    1    1    0    0    0  0.27739085616E+02 -0.81791061008E+01 -0.16403761922E+01  0.28966281803E+02  0.00000000000E+00 0.  1.
</event>
<event>
 5    1  0.1717510E-003  0.9118800E+02  0.7818608E-02  0.1130116E+00
         25   -1    0    0    0    0  0.00000000000E+00  0.00000000000E+00  0.99999998245E-14  0.12500000000E+03  0.12500000000E+03 0.  0.
        -11    1    3    3    0    0 -0.37525683618E+02  0.49328620832E+02  0.57653981529E-01  0.61979779674E+02  0.51100000000E-03 0. -1.
         23    2    1    0    0    0 -0.20928453415E+02  0.20727481053E+02 -0.39144561198E+01  0.95285498492E+02  0.90533831373E+02 0.  0.
         11    1    3    3    0    0  0.16597230203E+02 -0.28601139779E+02 -0.39721101013E+01  0.33305718818E+02  0.51100000000E-03 0.  1.
         22    1    1    0    0    0  0.20928453415E+02 -0.20727481053E+02  0.39144561198E+01  0.29714501508E+02  0.00000000000E+00 0. -1.
</event>
<event>
 5    1  0.1717510E-003  0.9118800E+02  0.7818608E-02  0.1130116E+00
         25   -1    0    0    0    0  0.00000000000E+00  0.00000000000E+00  0.99999998245E-14  0.12500000000E+03  0.12500000000E+03 0.  0.
        -11    1    3    3    0    0  0.11619272795E+02  0.37222020446E+02  0.32826762454E+02  0.50971390405E+02  0.51100000000E-03 0.  1.
         23    2    1    0    0    0 -0.16320171339E+02  0.41357671102E+01  0.24817425477E+02  0.95010715756E+02  0.90153640742E+02 0.  0.
         11    1    3    3    0    0 -0.27939444134E+02 -0.33086253336E+02 -0.80093369762E+01  0.44039325351E+02  0.51100000000E-03 0. -1.
         22    1    1    0    0    0  0.16320171339E+02 -0.41357671102E+01 -0.24817425477E+02  0.29989284244E+02  0.00000000000E+00 0.  1.
</event>
<event>
 5    1  0.1717510E-003  0.9118800E+02  0.7818608E-02  0.1130116E+00
         25   -1    0    0    0    0  0.00000000000E+00  0.00000000000E+00  0.99999998245E-14  0.12500000000E+03  0.12500000000E+03 0.  0.
        -11    1    3    3    0    0  0.53342251472E+02  0.23058744852E+02  0.18363958525E+02  0.60945356502E+02  0.51100000000E-03 0. -1.
         23    2    1    0    0    0  0.29067913068E+02  0.18845376059E+01  0.96378198109E+01  0.94318040759E+02  0.89188060803E+02 0.  0.
         11    1    3    3    0    0 -0.24274338403E+02 -0.21174207246E+02 -0.87261387137E+01  0.33372684257E+02  0.51100000000E-03 0.  1.
         22    1    1    0    0    0 -0.29067913068E+02 -0.18845376059E+01 -0.96378198109E+01  0.30681959241E+02  0.00000000000E+00 0. -1.
</event>
<event>
 5    1  0.1717510E-003  0.9118800E+02  0.7818608E-02  0.1130116E+00
         25   -1    0    0    0    0  0.00000000000E+00  0.00000000000E+00  0.99999998245E-14  0.12500000000E+03  0.12500000000E+03 0.  0.
        -11    1    3    3    0    0 -0.29923412643E+00  0.40116252561E+02  0.14529725947E+01  0.40143671857E+02  0.51100000000E-03 0.  1.
         23    2    1    0    0    0  0.35194108057E+01 -0.91420031579E+01  0.27366408172E+02  0.95933132773E+02  0.91423646794E+02 0.  0.
         11    1    3    3    0    0  0.38186449321E+01 -0.49258255718E+02  0.25913435578E+02  0.55789460915E+02  0.51100000000E-03 0. -1.
         22    1    1    0    0    0 -0.35194108057E+01  0.91420031579E+01 -0.27366408172E+02  0.29066867227E+02  0.00000000000E+00 0. -1.
</event>
<event>
 5    1  0.1717510E-003  0.9118800E+02  0.7818608E-02  0.1130116E+00
         25   -1    0    0    0    0  0.00000000000E+00  0.00000000000E+00  0.99999998245E-14  0.12500000000E+03  0.12500000000E+03 0.  0.
        -11    1    3    3    0    0 -0.89809801935E+01  0.20254285726E+02  0.26817274759E+02  0.34785921308E+02  0.51100000000E-03 0. -1.
         23    2    1    0    0    0  0.26530968047E+01  0.28207294332E+02 -0.24216024503E+02  0.87729284700E+02  0.79418645009E+02 0.  0.
         11    1    3    3    0    0  0.11634076998E+02  0.79530086060E+01 -0.51033299262E+02  0.52943363392E+02  0.51100000000E-03 0.  1.
         22    1    1    0    0    0 -0.26530968047E+01 -0.28207294332E+02  0.24216024503E+02  0.37270715300E+02  0.00000000000E+00 0. -1.
</event>
<event>
 5    1  0.1717510E-003  0.9118800E+02  0.7818608E-02  0.1130116E+00
         25   -1    0    0    0    0  0.00000000000E+00  0.00000000000E+00  0.99999998245E-14  0.12500000000E+03  0.12500000000E+03 0.  0.
        -11    1    3    3    0    0 -0.21307121008E+02 -0.44101653540E+02 -0.27030340903E+02  0.55942725892E+02  0.51100000000E-03 0. -1.
         23    2    1    0    0    0  0.10288590758E+02 -0.23269122507E+02 -0.13945996569E+02  0.95986244946E+02  0.91496236187E+02 0.  0.
         11    1    3    3    0    0  0.31595711767E+02  0.20832531033E+02  0.13084344333E+02  0.40043519053E+02  0.51100000000E-03 0.  1.
         22    1    1    0    0    0 -0.10288590758E+02  0.23269122507E+02  0.13945996569E+02  0.29013755054E+02  0.00000000000E+00 0. -1.
</event>
<event>
 5    1  0.1717510E-003  0.9118800E+02  0.7818608E-02  0.1130116E+00
         25   -1    0    0    0    0  0.00000000000E+00  0.00000000000E+00  0.99999998245E-14  0.12500000000E+03  0.12500000000E+03 0.  0.
        -11    1    3    3    0    0  0.38994331341E+02 -0.26893985518E+01  0.54280322789E+01  0.39462061224E+02  0.51100000000E-03 0.  1.
         23    2    1    0    0    0 -0.88849398188E+01 -0.21336405814E+02 -0.17777480709E+02  0.95841413117E+02  0.91298155947E+02 0.  0.
         11    1    3    3    0    0 -0.47879271160E+02 -0.18647007262E+02 -0.23205512988E+02  0.56379351894E+02  0.51100000000E-03 0. -1.
         22    1    1    0    0    0  0.88849398188E+01  0.21336405814E+02  0.17777480709E+02  0.29158586883E+02  0.00000000000E+00 0. -1.
</event>
<event>
 5    1  0.1717510E-003  0.9118800E+02  0.7818608E-02  0.1130116E+00
         25   -1    0    0    0    0  0.00000000000E+00  0.00000000000E+00  0.99999998245E-14  0.12500000000E+03  0.12500000000E+03 0.  0.
        -11    1    3    3    0    0 -0.23907191681E+02  0.69341457764E+01 -0.38462988366E+02  0.45815255822E+02  0.51100000000E-03 0.  1.
         23    2    1    0    0    0  0.88809887582E+01 -0.23000778166E+02 -0.16355305410E+02  0.95412776868E+02  0.90709394315E+02 0.  0.
         11    1    3    3    0    0  0.32788180439E+02 -0.29934923943E+02  0.22107682956E+02  0.49597521046E+02  0.51100000000E-03 0. -1.
         22    1    1    0    0    0 -0.88809887582E+01  0.23000778166E+02  0.16355305410E+02  0.29587223132E+02  0.00000000000E+00 0. -1.
</event>
<event>
 5    1  0.1717510E-003  0.9118800E+02  0.7818608E-02  0.1130116E+00
         25   -1    0    0    0    0  0.00000000000E+00  0.00000000000E+00  0.99999998245E-14  0.12500000000E+03  0.12500000000E+03 0.  0.
        -11    1    3    3    0    0 -0.49769977144E+01 -0.59521264339E+02 -0.55524821963E+01  0.59986510763E+02  0.51100000000E-03 0.  1.
         23    2    1    0    0    0 -0.10784195112E+02 -0.22679825016E+02 -0.10823907731E+02  0.97653513835E+02  0.93746351710E+02 0.  0.
         11    1    3    3    0    0 -0.58071973974E+01  0.36841439323E+02 -0.52714255349E+01  0.37667003072E+02  0.51100000000E-03 0. -1.
         22    1    1    0    0    0  0.10784195112E+02  0.22679825016E+02  0.10823907731E+02  0.27346486165E+02  0.00000000000E+00 0.  1.
</event>
<event>
 5    1  0.1717510E-003  0.9118800E+02  0.7818608E-02  0.1130116E+00
         25   -1    0    0    0    0  0.00000000000E+00  0.00000000000E+00  0.99999998245E-14  0.12500000000E+03  0.12500000000E+03 0.  0.
        -11    1    3    3    0    0  0.10280242419E+02 -0.29673473809E+02  0.36258415105E+02  0.47967396201E+02  0.51100000000E-03 0. -1.
         23    2    1    0    0    0 -0.24542732492E+02 -0.12148508129E+02  0.69298584797E+01  0.96751904374E+02  0.92536350120E+02 0.  0.
         11    1    3    3    0    0 -0.34822974911E+02  0.17524965680E+02 -0.29328556625E+02  0.48784508174E+02  0.51100000000E-03 0.  1.
         22    1    1    0    0    0  0.24542732492E+02  0.12148508129E+02 -0.69298584797E+01  0.28248095626E+02  0.00000000000E+00 0. -1.
</event>
<event>
 5    1  0.1717510E-003  0.9118800E+02  0.7818608E-02  0.1130116E+00
         25   -1    0    0    0    0  0.00000000000E+00  0.00000000000E+00  0.99999998245E-14  0.12500000000E+03  0.12500000000E+03 0.  0.
        -11    1    3    3    0    0  0.68007491074E+01 -0.44212279292E+02 -0.15317529890E+01  0.44758486302E+02  0.51100000000E-03 0.  1.
         23    2    1    0    0    0  0.18658860498E+02  0.16905397748E+01 -0.21744751422E+02  0.96297296047E+02  0.91920204589E+02 0.  0.
         11    1    3    3    0    0  0.11858111391E+02  0.45902819067E+02 -0.20212998433E+02  0.51538809745E+02  0.51100000000E-03 0. -1.
         22    1    1    0    0    0 -0.18658860498E+02 -0.16905397748E+01  0.21744751422E+02  0.28702703953E+02  0.00000000000E+00 0. -1.
</event>
<event>
 5    1  0.1717510E-003  0.9118800E+02  0.7818608E-02  0.1130116E+00
         25   -1    0    0    0    0  0.00000000000E+00  0.00000000000E+00  0.99999998245E-14  0.12500000000E+03  0.12500000000E+03 0.  0.
        -11    1    3    3    0    0 -0.81279631723E+01  0.36388972341E+02  0.32283754263E+01  0.37425172030E+02  0.51100000000E-03 0.  1.
         23    2    1    0    0    0  0.17031813231E+02 -0.14430558407E+02  0.18338213914E+02  0.96110317284E+02  0.91665584169E+02 0.  0.
         11    1    3    3    0    0  0.25159776403E+02 -0.50819530747E+02  0.15109838488E+02  0.58685145254E+02  0.51100000000E-03 0. -1.
         22    1    1    0    0    0 -0.17031813231E+02  0.14430558407E+02 -0.18338213914E+02  0.28889682716E+02  0.00000000000E+00 0. -1.
</event>
<event>
 5    1  0.1717510E-003  0.9118800E+02  0.7818608E-02  0.1130116E+00
         25   -1    0    0    0    0  0.00000000000E+00  0.00000000000E+00  0.99999998245E-14  0.12500000000E+03  0.12500000000E+03 0.  0.
        -11    1    3    3    0    0  0.22837400568E+02 -0.26097095651E+02 -0.11464672425E+02  0.36524566804E+02  0.51100000000E-03 0.  1.
         23    2    1    0    0    0  0.12808964719E+02  0.22802467908E+02  0.16825807361E+02  0.93901287595E+02  0.88602042295E+02 0.  0.
         11    1    3    3    0    0 -0.10028435850E+02  0.48899563560E+02  0.28290479787E+02  0.57376720791E+02  0.51100000000E-03 0. -1.
         22    1    1    0    0    0 -0.12808964719E+02 -0.22802467908E+02 -0.16825807361E+02  0.31098712405E+02  0.00000000000E+00 0. -1.
</event>
<event>
 5    1  0.1717510E-003  0.9118800E+02  0.7818608E-02  0.1130116E+00
         25   -1    0    0    0    0  0.00000000000E+00  0.00000000000E+00  0.99999998245E-14  0.12500000000E+03  0.12500000000E+03 0.  0.
        -11    1    3    3    0    0 -0.30029528919E+02 -0.21671320462E+02  0.11141698358E+01  0.37049427963E+02  0.51100000000E-03 0. -1.
         23    2    1    0    0    0  0.19379592251E+02 -0.31126765208E+02  0.69099118368E+01  0.87687924344E+02  0.79353519683E+02 0.  0.
         11    1    3    3    0    0  0.49409121170E+02 -0.94554447464E+01  0.57957420010E+01  0.50638496382E+02  0.51100000000E-03 0.  1.
         22    1    1    0    0    0 -0.19379592251E+02  0.31126765208E+02 -0.69099118368E+01  0.37312075656E+02  0.00000000000E+00 0.  1.
</event>
<event>
 5    1  0.1717510E-003  0.9118800E+02  0.7818608E-02  0.1130116E+00
         25   -1    0    0    0    0  0.00000000000E+00  0.00000000000E+00  0.99999998245E-14  0.12500000000E+03  0.12500000000E+03 0.  0.
        -11    1    3    3    0    0 -0.14263529524E+01 -0.48957122205E+02  0.26908390568E+02  0.55882875557E+02  0.51100000000E-03 0.  1.
         23    2    1    0    0    0  0.13299651257E+02 -0.22566427741E+02 -0.32830251635E+01  0.98601086410E+02  0.95001429475E+02 0.  0.
         11    1    3    3    0    0  0.14726004209E+02  0.26390694464E+02 -0.30191415732E+02  0.42718210852E+02  0.51100000000E-03 0. -1.
         22    1    1    0    0    0 -0.13299651257E+02  0.22566427741E+02  0.32830251635E+01  0.26398913590E+02  0.00000000000E+00 0. -1.
</event>
<event>
 5    1  0.1717510E-003  0.9118800E+02  0.7818608E-02  0.1130116E+00
         25   -1    0    0    0    0  0.00000000000E+00  0.00000000000E+00  0.99999998245E-14  0.12500000000E+03  0.12500000000E+03 0.  0.
        -11    1    3    3    0    0  0.14111944699E+02  0.58873211292E+01  0.56363703915E+02  0.58400981606E+02  0.51100000000E-03 0.  1.
         23    2    1    0    0    0  0.63856317630E+01  0.18135331171E+02  0.21475329287E+02  0.96175421987E+02  0.91754321406E+02 0.  0.
         11    1    3    3    0    0 -0.77263129362E+01  0.12248010041E+02 -0.34888374629E+02  0.37774440380E+02  0.51100000000E-03 0. -1.
         22    1    1    0    0    0 -0.63856317630E+01 -0.18135331171E+02 -0.21475329287E+02  0.28824578013E+02  0.00000000000E+00 0.  1.
</event>
<event>
 5    1  0.1717510E-003  0.9118800E+02  0.7818608E-02  0.1130116E+00
         25   -1    0    0    0    0  0.00000000000E+00  0.00000000000E+00  0.99999998245E-14  0.12500000000E+03  0.12500000000E+03 0.  0.
        -11    1    3    3    0    0 -0.14247649486E+02  0.43052978875E+02 -0.40965418064E+02  0.61112355407E+02  0.51100000000E-03 0.  1.
         23    2    1    0    0    0 -0.66952418681E+01  0.14803774571E+02 -0.26931742196E+02  0.93546912029E+02  0.88100669731E+02 0.  0.
         11    1    3    3    0    0  0.75524076176E+01 -0.28249204304E+02  0.14033675868E+02  0.32434556622E+02  0.51100000000E-03 0. -1.
         22    1    1    0    0    0  0.66952418681E+01 -0.14803774571E+02  0.26931742196E+02  0.31453087971E+02  0.00000000000E+00 0.  1.
</event>
<event>
 5    1  0.1717510E-003  0.9118800E+02  0.7818608E-02  0.1130116E+00
         25   -1    0    0    0    0  0.00000000000E+00  0.00000000000E+00  0.99999998245E-14  0.12500000000E+03  0.12500000000E+03 0.  0.
        -11    1    3    3    0    0 -0.36315802214E+02  0.34243491112E+02 -0.11548324521E+02  0.51232977402E+02  0.51100000000E-03 0. -1.
         23    2    1    0    0    0 -0.20079930174E+02  0.41290547788E+01  0.18962980839E+02  0.97074253252E+02  0.92970765905E+02 0.  0.
         11    1    3    3    0    0  0.16235872039E+02 -0.30114436333E+02  0.30511305360E+02  0.45841275850E+02  0.51100000000E-03 0.  1.
         22    1    1    0    0    0  0.20079930174E+02 -0.41290547788E+01 -0.18962980839E+02  0.27925746748E+02  0.00000000000E+00 0. -1.
</event>
<event>
 5    1  0.1717510E-003  0.9118800E+02  0.7818608E-02  0.1130116E+00
         25   -1    0    0    0    0  0.00000000000E+00  0.00000000000E+00  0.99999998245E-14  0.12500000000E+03  0.12500000000E+03 0.  0.
        -11    1    3    3    0    0  0.24258397250E+02  0.51373819190E+02 -0.17054176485E+02  0.59317653958E+02  0.51100000000E-03 0.  1.
         23    2    1    0    0    0  0.13772325187E+02  0.23128260861E+02  0.61997378491E+01  0.97376999785E+02  0.93376924056E+02 0.  0.
         11    1    3    3    0    0 -0.10486072063E+02 -0.28245558329E+02  0.23253914334E+02  0.38059345826E+02  0.51100000000E-03 0. -1.
         22    1    1    0    0    0 -0.13772325187E+02 -0.23128260861E+02 -0.61997378491E+01  0.27623000215E+02  0.00000000000E+00 0.  1.
</event>
<event>
 5    1  0.1717510E-003  0.9118800E+02  0.7818608E-02  0.1130116E+00
         25   -1    0    0    0    0  0.00000000000E+00  0.00000000000E+00  0.99999998245E-14  0.12500000000E+03  0.12500000000E+03 0.  0.
        -11    1    3    3    0    0  0.25948015946E+02 -0.49101170112E+02  0.39429860692E+00  0.55537193929E+02  0.51100000000E-03 0. -1.
         23    2    1    0    0    0  0.68007433475E+01 -0.26799955468E+02 -0.19619332481E+02  0.91097110298E+02  0.84553400726E+02 0.  0.
         11    1    3    3    0    0 -0.19147272599E+02  0.22301214643E+02 -0.20013631088E+02  0.35559916368E+02  0.51100000000E-03 0.  1.
         22    1    1    0    0    0 -0.68007433475E+01  0.26799955468E+02  0.19619332481E+02  0.33902889702E+02  0.00000000000E+00 0. -1.
</event>
<event>
 5    1  0.1717510E-003  0.9118800E+02  0.7818608E-02  0.1130116E+00
         25   -1    0    0    0    0  0.00000000000E+00  0.00000000000E+00  0.99999998245E-14  0.12500000000E+03  0.12500000000E+03 0.  0.
        -11    1    3    3    0    0  0.25291641532E+02  0.28288406064E+02  0.19107152572E+02  0.42485107139E+02  0.51100000000E-03 0. -1.
         23    2    1    0    0    0 -0.56626931458E+01 -0.15319400035E+02  0.23763946473E+02  0.96164687221E+02  0.91739695908E+02 0.  0.
         11    1    3    3    0    0 -0.30954334677E+02 -0.43607806098E+02  0.46567939012E+01  0.53679580081E+02  0.51100000000E-03 0.  1.
         22    1    1    0    0    0  0.56626931458E+01  0.15319400035E+02 -0.23763946473E+02  0.28835312779E+02  0.00000000000E+00 0.  1.
</event>
<event>
 5    1  0.1717510E-003  0.9118800E+02  0.7818608E-02  0.1130116E+00
         25   -1    0    0    0    0  0.00000000000E+00  0.00000000000E+00  0.99999998245E-14  0.12500000000E+03  0.12500000000E+03 0.  0.
        -11    1    3    3    0    0  0.15515454548E+02 -0.47712430149E+01 -0.42274176499E+02  0.45283552077E+02  0.51100000000E-03 0. -1.
         23    2    1    0    0    0  0.24535947463E+02 -0.13085024112E+02  0.72164032377E+01  0.96271842217E+02  0.91885584040E+02 0.  0.
         11    1    3    3    0    0  0.90204929147E+01 -0.83137810968E+01  0.49490579737E+02  0.50988290141E+02  0.51100000000E-03 0.  1.
         22    1    1    0    0    0 -0.24535947463E+02  0.13085024112E+02 -0.72164032377E+01  0.28728157783E+02  0.00000000000E+00 0. -1.
</event>
<event>
 5    1  0.1717510E-003  0.9118800E+02  0.7818608E-02  0.1130116E+00
         25   -1    0    0    0    0  0.00000000000E+00  0.00000000000E+00  0.99999998245E-14  0.12500000000E+03  0.12500000000E+03 0.  0.
        -11    1    3    3    0    0  0.44217555363E+02 -0.93281776639E+01  0.25523732497E+02  0.51900558973E+02  0.51100000000E-03 0.  1.
         23    2    1    0    0    0  0.17834219244E+01 -0.14669766022E+02  0.26474727952E+02  0.94680141013E+02  0.89694120505E+02 0.  0.
         11    1    3    3    0    0 -0.42434133439E+02 -0.53415883585E+01  0.95099545441E+00  0.42779582040E+02  0.51100000000E-03 0. -1.
         22    1    1    0    0    0 -0.17834219244E+01  0.14669766022E+02 -0.26474727952E+02  0.30319858987E+02  0.00000000000E+00 0.  1.
</event>
<event>
 5    1  0.1717510E-003  0.9118800E+02  0.7818608E-02  0.1130116E+00
         25   -1    0    0    0    0  0.00000000000E+00  0.00000000000E+00  0.99999998245E-14  0.12500000000E+03  0.12500000000E+03 0.  0.
        -11    1    3    3    0    0  0.21678415579E+02 -0.30032924123E+02  0.36082802217E+02  0.51709755844E+02  0.51100000000E-03 0.  1.
         23    2    1    0    0    0 -0.89681203786E+01 -0.14143632276E+01  0.29474905830E+02  0.94158507167E+02  0.88964188254E+02 0.  0.
         11    1    3    3    0    0 -0.30646535957E+02  0.28618560896E+02 -0.66078963869E+01  0.42448751322E+02  0.51100000000E-03 0. -1.
         22    1    1    0    0    0  0.89681203786E+01  0.14143632276E+01 -0.29474905830E+02  0.30841492833E+02  0.00000000000E+00 0.  1.
</event>
<event>
 5    1  0.1717510E-003  0.9118800E+02  0.7818608E-02  0.1130116E+00
         25   -1    0    0    0    0  0.00000000000E+00  0.00000000000E+00  0.99999998245E-14  0.12500000000E+03  0.12500000000E+03 0.  0.
        -11    1    3    3    0    0  0.19304289275E+02  0.16636393643E+02 -0.55324615931E+02  0.60911725522E+02  0.51100000000E-03 0. -1.
         23    2    1    0    0    0  0.90173862201E+01 -0.21985807539E+01 -0.27005020111E+02  0.96444472991E+02  0.92120129439E+02 0.  0.
         11    1    3    3    0    0 -0.10286903055E+02 -0.18834974397E+02  0.28319595821E+02  0.35532747469E+02  0.51100000000E-03 0.  1.
         22    1    1    0    0    0 -0.90173862201E+01  0.21985807539E+01  0.27005020111E+02  0.28555527009E+02  0.00000000000E+00 0. -1.
</event>
<event>
 5    1  0.1717510E-003  0.9118800E+02  0.7818608E-02  0.1130116E+00
         25   -1    0    0    0    0  0.00000000000E+00  0.00000000000E+00  0.99999998245E-14  0.12500000000E+03  0.12500000000E+03 0.  0.
        -11    1    3    3    0    0 -0.15579653297E+02 -0.88394358011E+00  0.51350325477E+02  0.53669012288E+02  0.51100000000E-03 0. -1.
         23    2    1    0    0    0 -0.14887419819E+02 -0.21708661524E+02  0.17592664033E+02  0.93339250138E+02  0.87805538177E+02 0.  0.
         11    1    3    3    0    0  0.69223347780E+00 -0.20824717944E+02 -0.33757661444E+02  0.39670237850E+02  0.51100000000E-03 0.  1.
         22    1    1    0    0    0  0.14887419819E+02  0.21708661524E+02 -0.17592664033E+02  0.31660749862E+02  0.00000000000E+00 0. -1.
</event>
<event>
 5    1  0.1717510E-003  0.9118800E+02  0.7818608E-02  0.1130116E+00
         25   -1    0    0    0    0  0.00000000000E+00  0.00000000000E+00  0.99999998245E-14  0.12500000000E+03  0.12500000000E+03 0.  0.
        -11    1    3    3    0    0 -0.51697164178E+00 -0.20320404296E+02  0.36438562311E+02  0.41724751814E+02  0.51100000000E-03 0. -1.
         23    2    1    0    0    0 -0.20661342898E+02 -0.20565532407E+02 -0.11451423231E+02  0.93679602373E+02  0.88288734237E+02 0.  0.
         11    1    3    3    0    0 -0.20144371256E+02 -0.24512811139E+00 -0.47889985542E+02  0.51954850558E+02  0.51100000000E-03 0.  1.
         22    1    1    0    0    0  0.20661342898E+02  0.20565532407E+02  0.11451423231E+02  0.31320397627E+02  0.00000000000E+00 0.  1.
</event>
<event>
 5    1  0.1717510E-003  0.9118800E+02  0.7818608E-02  0.1130116E+00
         25   -1    0    0    0    0  0.00000000000E+00  0.00000000000E+00  0.99999998245E-14  0.12500000000E+03  0.12500000000E+03 0.  0.
        -11    1    3    3    0    0 -0.42565240558E+02  0.27719866417E+02  0.38839684810E+01  0.50943850555E+02  0.51100000000E-03 0.  1.
         23    2    1    0    0    0 -0.64587268703E+01  0.20978299592E+02 -0.20446903970E+02  0.95001998591E+02  0.90141553391E+02 0.  0.
         11    1    3    3    0    0  0.36106513687E+02 -0.67415668252E+01 -0.24330872451E+02  0.44058148037E+02  0.51100000000E-03 0. -1.
         22    1    1    0    0    0  0.64587268703E+01 -0.20978299592E+02  0.20446903970E+02  0.29998001409E+02  0.00000000000E+00 0.  1.
</event>
<event>
 5    1  0.1717510E-003  0.9118800E+02  0.7818608E-02  0.1130116E+00
         25   -1    0    0    0    0  0.00000000000E+00  0.00000000000E+00  0.99999998245E-14  0.12500000000E+03  0.12500000000E+03 0.  0.
        -11    1    3    3    0    0 -0.12481610240E+02  0.21138103261E+02  0.47916224077E+02  0.53838411322E+02  0.51100000000E-03 0.  1.
         23    2    1    0    0    0  0.49533822636E+00 -0.11949309973E+02  0.27937999735E+02  0.94609817408E+02  0.89596062145E+02 0.  0.
         11    1    3    3    0    0  0.12976948467E+02 -0.33087413234E+02 -0.19978224341E+02  0.40771406085E+02  0.51100000000E-03 0. -1.
         22    1    1    0    0    0 -0.49533822636E+00  0.11949309973E+02 -0.27937999735E+02  0.30390182592E+02  0.00000000000E+00 0.  1.
</event>
<event>
 5    1  0.1717510E-003  0.9118800E+02  0.7818608E-02  0.1130116E+00
         25   -1    0    0    0    0  0.00000000000E+00  0.00000000000E+00  0.99999998245E-14  0.12500000000E+03  0.12500000000E+03 0.  0.
        -11    1    3    3    0    0 -0.26055113090E+02  0.43911773531E+02 -0.13698133182E+02  0.52865410485E+02  0.51100000000E-03 0.  1.
         23    2    1    0    0    0  0.33119851214E+01  0.26175353042E+02  0.12279405916E+02  0.95898416504E+02  0.91376168260E+02 0.  0.
         11    1    3    3    0    0  0.29367098211E+02 -0.17736420489E+02  0.25977539099E+02  0.43033006019E+02  0.51100000000E-03 0. -1.
         22    1    1    0    0    0 -0.33119851214E+01 -0.26175353042E+02 -0.12279405916E+02  0.29101583496E+02  0.00000000000E+00 0.  1.
</event>
<event>
 5    1  0.1717510E-003  0.9118800E+02  0.7818608E-02  0.1130116E+00
         25   -1    0    0    0    0  0.00000000000E+00  0.00000000000E+00  0.99999998245E-14  0.12500000000E+03  0.12500000000E+03 0.  0.
        -11    1    3    3    0    0  0.49405681794E+02 -0.35156929867E+02  0.11633874910E+02  0.61743648717E+02  0.51100000000E-03 0.  1.
         23    2    1    0    0    0  0.24890491598E+02 -0.15308403253E+02 -0.10952482731E+01  0.95758191729E+02  0.91184142987E+02 0.  0.
         11    1    3    3    0    0 -0.24515190196E+02  0.19848526614E+02 -0.12729123183E+02  0.34014543012E+02  0.51100000000E-03 0. -1.
         22    1    1    0    0    0 -0.24890491598E+02  0.15308403253E+02  0.10952482731E+01  0.29241808271E+02  0.00000000000E+00 0.  1.
</event>
<event>
 5    1  0.1717510E-003  0.9118800E+02  0.7818608E-02  0.1130116E+00
         25   -1    0    0    0    0  0.00000000000E+00  0.00000000000E+00  0.99999998245E-14  0.12500000000E+03  0.12500000000E+03 0.  0.
        -11    1    3    3    0    0 -0.18267419834E+02 -0.23286528731E+02  0.54075393696E+02  0.61645026169E+02  0.51100000000E-03 0.  1.
         23    2    1    0    0    0 -0.13351475971E+02 -0.12779722943E+02  0.19416559935E+02  0.98193545016E+02  0.94463676903E+02 0.  0.
         11    1    3    3    0    0  0.49159438631E+01  0.10506805788E+02 -0.34658833762E+02  0.36548518847E+02  0.51100000000E-03 0. -1.
         22    1    1    0    0    0  0.13351475971E+02  0.12779722943E+02 -0.19416559935E+02  0.26806454984E+02  0.00000000000E+00 0.  1.
</event>
<event>
 5    1  0.1717510E-003  0.9118800E+02  0.7818608E-02  0.1130116E+00
         25   -1    0    0    0    0  0.00000000000E+00  0.00000000000E+00  0.99999998245E-14  0.12500000000E+03  0.12500000000E+03 0.  0.
        -11    1    3    3    0    0 -0.41201074664E+02 -0.30415884452E+01 -0.14866060697E+02  0.43906486703E+02  0.51100000000E-03 0. -1.
         23    2    1    0    0    0 -0.10342950216E+02 -0.50604703156E+01  0.26821284108E+02  0.95811538920E+02  0.91257244809E+02 0.  0.
         11    1    3    3    0    0  0.30858124448E+02 -0.20188818704E+01  0.41687344806E+02  0.51905052217E+02  0.51100000000E-03 0.  1.
         22    1    1    0    0    0  0.10342950216E+02  0.50604703156E+01 -0.26821284108E+02  0.29188461080E+02  0.00000000000E+00 0. -1.
</event>
<event>
 5    1  0.1717510E-003  0.9118800E+02  0.7818608E-02  0.1130116E+00
         25   -1    0    0    0    0  0.00000000000E+00  0.00000000000E+00  0.99999998245E-14  0.12500000000E+03  0.12500000000E+03 0.  0.
        -11    1    3    3    0    0 -0.17014734101E+02  0.12618195512E+02  0.58662799880E+02  0.62370218249E+02  0.51100000000E-03 0. -1.
         23    2    1    0    0    0 -0.96342683152E+01  0.78970773092E+01  0.26284818803E+02  0.95912637530E+02  0.91395620149E+02 0.  0.
         11    1    3    3    0    0  0.73804657856E+01 -0.47211182024E+01 -0.32377981077E+02  0.33542419280E+02  0.51100000000E-03 0.  1.
         22    1    1    0    0    0  0.96342683152E+01 -0.78970773092E+01 -0.26284818803E+02  0.29087362470E+02  0.00000000000E+00 0. -1.
</event>
<event>
 5    1  0.1717510E-003  0.9118800E+02  0.7818608E-02  0.1130116E+00
         25   -1    0    0    0    0  0.00000000000E+00  0.00000000000E+00  0.99999998245E-14  0.12500000000E+03  0.12500000000E+03 0.  0.
        -11    1    3    3    0    0  0.33134610275E+02  0.20994440367E+02 -0.31417019950E+02  0.50256323654E+02  0.51100000000E-03 0. -1.
         23    2    1    0    0    0  0.24538869938E+02  0.10079439093E+01  0.11124511129E+02  0.98038419248E+02  0.94258181671E+02 0.  0.
         11    1    3    3    0    0 -0.85957403366E+01 -0.19986496458E+02  0.42541531079E+02  0.47782095594E+02  0.51100000000E-03 0.  1.
         22    1    1    0    0    0 -0.24538869938E+02 -0.10079439093E+01 -0.11124511129E+02  0.26961580752E+02  0.00000000000E+00 0.  1.
</event>
<event>
 5    1  0.1717510E-003  0.9118800E+02  0.7818608E-02  0.1130116E+00
         25   -1    0    0    0    0  0.00000000000E+00  0.00000000000E+00  0.99999998245E-14  0.12500000000E+03  0.12500000000E+03 0.  0.
        -11    1    3    3    0    0  0.54240091060E+02 -0.13651367860E+02  0.12352289934E+01  0.55945268912E+02  0.51100000000E-03 0.  1.
         23    2    1    0    0    0  0.16380442164E+02 -0.24434144954E+02 -0.24429587115E+01  0.95481965303E+02  0.90804687796E+02 0.  0.
         11    1    3    3    0    0 -0.37859648897E+02 -0.10782777094E+02 -0.36781877050E+01  0.39536696391E+02  0.51100000000E-03 0. -1.
         22    1    1    0    0    0 -0.16380442164E+02  0.24434144954E+02  0.24429587115E+01  0.29518034697E+02  0.00000000000E+00 0.  1.
</event>
<event>
 5    1  0.1717510E-003  0.9118800E+02  0.7818608E-02  0.1130116E+00
         25   -1    0    0    0    0  0.00000000000E+00  0.00000000000E+00  0.99999998245E-14  0.12500000000E+03  0.12500000000E+03 0.  0.
        -11    1    3    3    0    0 -0.20841574032E+02 -0.40394304156E+02 -0.29381357651E+02  0.54123333176E+02  0.51100000000E-03 0.  1.
         23    2    1    0    0    0 -0.19747069147E+02 -0.33363151301E+01 -0.27147592062E+02  0.91264714417E+02  0.84800817239E+02 0.  0.
         11    1    3    3    0    0  0.10945048844E+01  0.37057989026E+02  0.22337655889E+01  0.37141381242E+02  0.51100000000E-03 0. -1.
         22    1    1    0    0    0  0.19747069147E+02  0.33363151301E+01  0.27147592062E+02  0.33735285583E+02  0.00000000000E+00 0. -1.
</event>
<event>
 5    1  0.1717510E-003  0.9118800E+02  0.7818608E-02  0.1130116E+00
         25   -1    0    0    0    0  0.00000000000E+00  0.00000000000E+00  0.99999998245E-14  0.12500000000E+03  0.12500000000E+03 0.  0.
        -11    1    3    3    0    0 -0.29626627871E+02 -0.10243155987E+02  0.51190070320E+02  0.60025683030E+02  0.51100000000E-03 0.  1.
         23    2    1    0    0    0 -0.21202687552E+02  0.46892220503E+01  0.20732998932E+02  0.94976675607E+02  0.90106430968E+02 0.  0.
         11    1    3    3    0    0  0.84239403190E+01  0.14932378038E+02 -0.30457071388E+02  0.34950992577E+02  0.51100000000E-03 0. -1.
         22    1    1    0    0    0  0.21202687552E+02 -0.46892220503E+01 -0.20732998932E+02  0.30023324393E+02  0.00000000000E+00 0.  1.
</event>
<event>
 5    1  0.1717510E-003  0.9118800E+02  0.7818608E-02  0.1130116E+00
         25   -1    0    0    0    0  0.00000000000E+00  0.00000000000E+00  0.99999998245E-14  0.12500000000E+03  0.12500000000E+03 0.  0.
        -11    1    3    3    0    0  0.33115190690E+02  0.14277850628E+00  0.47117470036E+01  0.33449017926E+02  0.51100000000E-03 0. -1.
         23    2    1    0    0    0 -0.25123982066E+02 -0.11391172267E+02 -0.11684327816E+02  0.95041749100E+02  0.90196658890E+02 0.  0.
         11    1    3    3    0    0 -0.58239172756E+02 -0.11533950773E+02 -0.16396074820E+02  0.61592731174E+02  0.51100000000E-03 0.  1.
         22    1    1    0    0    0  0.25123982066E+02  0.11391172267E+02  0.11684327816E+02  0.29958250900E+02  0.00000000000E+00 0.  1.
</event>
<event>
 5    1  0.1717510E-003  0.9118800E+02  0.7818608E-02  0.1130116E+00
         25   -1    0    0    0    0  0.00000000000E+00  0.00000000000E+00  0.99999998245E-14  0.12500000000E+03  0.12500000000E+03 0.  0.
        -11    1    3    3    0    0  0.22714405645E+02 -0.17277409488E+02  0.19614029934E+02  0.34628936931E+02  0.51100000000E-03 0.  1.
         23    2    1    0    0    0 -0.27207052773E+02  0.87122062352E+01 -0.48955017784E+01  0.96015656024E+02  0.91536408090E+02 0.  0.
         11    1    3    3    0    0 -0.49921458418E+02  0.25989615724E+02 -0.24509531712E+02  0.61386719093E+02  0.51100000000E-03 0. -1.
         22    1    1    0    0    0  0.27207052773E+02 -0.87122062352E+01  0.48955017784E+01  0.28984343976E+02  0.00000000000E+00 0. -1.
</event>
<event>
 5    1  0.1717510E-003  0.9118800E+02  0.7818608E-02  0.1130116E+00
         25   -1    0    0    0    0  0.00000000000E+00  0.00000000000E+00  0.99999998245E-14  0.12500000000E+03  0.12500000000E+03 0.  0.
        -11    1    3    3    0    0 -0.16905668032E+01 -0.23807744242E+02 -0.23583653208E+02  0.33553768803E+02  0.51100000000E-03 0. -1.
         23    2    1    0    0    0  0.11315703141E+02  0.23048384980E+02  0.14673355493E+02  0.95426691947E+02  0.90728567645E+02 0.  0.
         11    1    3    3    0    0  0.13006269944E+02  0.46856129222E+02  0.38257008700E+02  0.61872923145E+02  0.51100000000E-03 0.  1.
         22    1    1    0    0    0 -0.11315703141E+02 -0.23048384980E+02 -0.14673355493E+02  0.29573308053E+02  0.00000000000E+00 0.  1.
</event>
<event>
 5    1  0.1717510E-003  0.9118800E+02  0.7818608E-02  0.1130116E+00
         25   -1    0    0    0    0  0.00000000000E+00  0.00000000000E+00  0.99999998245E-14  0.12500000000E+03  0.12500000000E+03 0.  0.
        -11    1    3    3    0    0 -0.57440671264E+01  0.33855654754E+02  0.37642754057E+02  0.50952689813E+02  0.51100000000E-03 0. -1.
         23    2    1    0    0    0  0.21755005038E+02  0.19495736287E+02  0.61732626815E+01  0.95142452383E+02  0.90336111804E+02 0.  0.
         11    1    3    3    0    0  0.27499072164E+02 -0.14359918467E+02 -0.31469491376E+02  0.44189762570E+02  0.51100000000E-03 0.  1.
         22    1    1    0    0    0 -0.21755005038E+02 -0.19495736287E+02 -0.61732626815E+01  0.29857547617E+02  0.00000000000E+00 0. -1.
</event>
<event>
 5    1  0.1717510E-003  0.9118800E+02  0.7818608E-02  0.1130116E+00
         25   -1    0    0    0    0  0.00000000000E+00  0.00000000000E+00  0.99999998245E-14  0.12500000000E+03  0.12500000000E+03 0.  0.
        -11    1    3    3    0    0  0.49160463438E+02  0.11108229682E+02  0.90756848459E+01  0.51210467561E+02  0.51100000000E-03 0. -1.
         23    2    1    0    0    0  0.10843955791E+02 -0.61346594052E+00  0.27589044895E+02  0.95349989614E+02  0.90622830476E+02 0.  0.
         11    1    3    3    0    0 -0.38316507647E+02 -0.11721695623E+02  0.18513360049E+02  0.44139522053E+02  0.51100000000E-03 0.  1.
         22    1    1    0    0    0 -0.10843955791E+02  0.61346594052E+00 -0.27589044895E+02  0.29650010386E+02  0.00000000000E+00 0.  1.
</event>
<event>
 5    1  0.1717510E-003  0.9118800E+02  0.7818608E-02  0.1130116E+00
         25   -1    0    0    0    0  0.00000000000E+00  0.00000000000E+00  0.99999998245E-14  0.12500000000E+03  0.12500000000E+03 0.  0.
        -11    1    3    3    0    0 -0.15793978255E+02  0.29252222340E+02 -0.12696799886E+02  0.35585825669E+02  0.51100000000E-03 0. -1.
         23    2    1    0    0    0  0.25391178698E+02 -0.13732001362E+02 -0.20502325756E+01  0.96060696783E+02  0.91597894057E+02 0.  0.
         11    1    3    3    0    0  0.41185156953E+02 -0.42984223702E+02  0.10646567310E+02  0.60474871114E+02  0.51100000000E-03 0.  1.
         22    1    1    0    0    0 -0.25391178698E+02  0.13732001362E+02  0.20502325756E+01  0.28939303217E+02  0.00000000000E+00 0.  1.
</event>
<event>
 5    1  0.1717510E-003  0.9118800E+02  0.7818608E-02  0.1130116E+00
         25   -1    0    0    0    0  0.00000000000E+00  0.00000000000E+00  0.99999998245E-14  0.12500000000E+03  0.12500000000E+03 0.  0.
        -11    1    3    3    0    0 -0.38771785327E+02 -0.30329305708E+02 -0.35023000855E+01  0.49349612241E+02  0.51100000000E-03 0. -1.
         23    2    1    0    0    0  0.31466470026E+01 -0.21146696738E+02 -0.20381248071E+02  0.95462236997E+02  0.90777526124E+02 0.  0.
         11    1    3    3    0    0  0.41918432330E+02  0.91826089703E+01 -0.16878947986E+02  0.46112624756E+02  0.51100000000E-03 0.  1.
         22    1    1    0    0    0 -0.31466470026E+01  0.21146696738E+02  0.20381248071E+02  0.29537763003E+02  0.00000000000E+00 0. -1.
</event>
<event>
 5    1  0.1717510E-003  0.9118800E+02  0.7818608E-02  0.1130116E+00
         25   -1    0    0    0    0  0.00000000000E+00  0.00000000000E+00  0.99999998245E-14  0.12500000000E+03  0.12500000000E+03 0.  0.
        -11    1    3    3    0    0 -0.15798522683E+01 -0.55823362152E+02  0.16679754744E+02  0.58283427436E+02  0.51100000000E-03 0.  1.
         23    2    1    0    0    0 -0.88296211828E+00 -0.18736139459E+02  0.22365373736E+02  0.95810404486E+02  0.91255690900E+02 0.  0.
         11    1    3    3    0    0  0.69689015002E+00  0.37087222693E+02  0.56856189921E+01  0.37526977050E+02  0.51100000000E-03 0. -1.
         22    1    1    0    0    0  0.88296211828E+00  0.18736139459E+02 -0.22365373736E+02  0.29189595514E+02  0.00000000000E+00 0.  1.
</event>
<event>
 5    1  0.1717510E-003  0.9118800E+02  0.7818608E-02  0.1130116E+00
         25   -1    0    0    0    0  0.00000000000E+00  0.00000000000E+00  0.99999998245E-14  0.12500000000E+03  0.12500000000E+03 0.  0.
        -11    1    3    3    0    0  0.11845051134E+02  0.12139853545E+02  0.21475613710E+02  0.27365731581E+02  0.51100000000E-03 0.  1.
         23    2    1    0    0    0 -0.39418049323E+02  0.18567660225E+02  0.10386758107E+02  0.80206860317E+02  0.66533563554E+02 0.  0.
         11    1    3    3    0    0 -0.51263100458E+02  0.64278066804E+01 -0.11088855603E+02  0.52841128736E+02  0.51100000000E-03 0. -1.
         22    1    1    0    0    0  0.39418049323E+02 -0.18567660225E+02 -0.10386758107E+02  0.44793139683E+02  0.00000000000E+00 0. -1.
</event>
<event>
 5    1  0.1717510E-003  0.9118800E+02  0.7818608E-02  0.1130116E+00
         25   -1    0    0    0    0  0.00000000000E+00  0.00000000000E+00  0.99999998245E-14  0.12500000000E+03  0.12500000000E+03 0.  0.
        -11    1    3    3    0    0 -0.38864227171E+02  0.12227919750E+02  0.43667206882E+02  0.59722484310E+02  0.51100000000E-03 0.  1.
         23    2    1    0    0    0 -0.22571773109E+02  0.15511443044E+02  0.12824078172E+02  0.94758525374E+02  0.89803292498E+02 0.  0.
         11    1    3    3    0    0  0.16292454062E+02  0.32835232940E+01 -0.30843128710E+02  0.35036041064E+02  0.51100000000E-03 0. -1.
         22    1    1    0    0    0  0.22571773109E+02 -0.15511443044E+02 -0.12824078172E+02  0.30241474626E+02  0.00000000000E+00 0.  1.
</event>
<event>
 5    1  0.1717510E-003  0.9118800E+02  0.7818608E-02  0.1130116E+00
         25   -1    0    0    0    0  0.00000000000E+00  0.00000000000E+00  0.99999998245E-14  0.12500000000E+03  0.12500000000E+03 0.  0.
        -11    1    3    3    0    0  0.11243813828E+02  0.43301287116E+02  0.23442607221E+01  0.44798664867E+02  0.51100000000E-03 0. -1.
         23    2    1    0    0    0 -0.27511359888E+02  0.12371902159E+02 -0.30767811273E+01  0.94678300377E+02  0.89691555312E+02 0.  0.
         11    1    3    3    0    0 -0.38755173716E+02 -0.30929384957E+02 -0.54210418493E+01  0.49879635510E+02  0.51100000000E-03 0.  1.
         22    1    1    0    0    0  0.27511359888E+02 -0.12371902159E+02  0.30767811273E+01  0.30321699623E+02  0.00000000000E+00 0.  1.
</event>
<event>
 5    1  0.1717510E-003  0.9118800E+02  0.7818608E-02  0.1130116E+00
         25   -1    0    0    0    0  0.00000000000E+00  0.00000000000E+00  0.99999998245E-14  0.12500000000E+03  0.12500000000E+03 0.  0.
        -11    1    3    3    0    0 -0.31104960361E+02 -0.44147097194E+02  0.16439348935E+02  0.56451190806E+02  0.51100000000E-03 0.  1.
         23    2    1    0    0    0 -0.60031658243E+01 -0.27589913947E+02 -0.84945095942E+01  0.95514443455E+02  0.90849385599E+02 0.  0.
         11    1    3    3    0    0  0.25101794537E+02  0.16557183247E+02 -0.24933858530E+02  0.39063252649E+02  0.51100000000E-03 0. -1.
         22    1    1    0    0    0  0.60031658243E+01  0.27589913947E+02  0.84945095942E+01  0.29485556545E+02  0.00000000000E+00 0.  1.
</event>
<event>
 5    1  0.1717510E-003  0.9118800E+02  0.7818608E-02  0.1130116E+00
         25   -1    0    0    0    0  0.00000000000E+00  0.00000000000E+00  0.99999998245E-14  0.12500000000E+03  0.12500000000E+03 0.  0.
        -11    1    3    3    0    0  0.36583398605E+02 -0.20870867854E+02 -0.22572772444E+01  0.42178590295E+02  0.51100000000E-03 0.  1.
         23    2    1    0    0    0 -0.71469495332E+01 -0.22143094424E+01 -0.27842657883E+02  0.96169536044E+02  0.91746302437E+02 0.  0.
         11    1    3    3    0    0 -0.43730348138E+02  0.18656558412E+02 -0.25585380639E+02  0.53990945748E+02  0.51100000000E-03 0. -1.
         22    1    1    0    0    0  0.71469495332E+01  0.22143094424E+01  0.27842657883E+02  0.28830463956E+02  0.00000000000E+00 0. -1.
</event>
<event>
 5    1  0.1717510E-003  0.9118800E+02  0.7818608E-02  0.1130116E+00
         25   -1    0    0    0    0  0.00000000000E+00  0.00000000000E+00  0.99999998245E-14  0.12500000000E+03  0.12500000000E+03 0.  0.
        -11    1    3    3    0    0 -0.35196996049E+02  0.35567769245E+01 -0.17194607066E+01  0.35418014319E+02  0.51100000000E-03 0.  1.
         23    2    1    0    0    0  0.11431045264E+02  0.27937576316E+02  0.15868845542E+02  0.90897254875E+02  0.84257425303E+02 0.  0.
         11    1    3    3    0    0  0.46628041313E+02  0.24380799391E+02  0.17588306248E+02  0.55479240555E+02  0.51100000000E-03 0. -1.
         22    1    1    0    0    0 -0.11431045264E+02 -0.27937576316E+02 -0.15868845542E+02  0.34102745125E+02  0.00000000000E+00 0. -1.
</event>
<event>
 5    1  0.1717510E-003  0.9118800E+02  0.7818608E-02  0.1130116E+00
         25   -1    0    0    0    0  0.00000000000E+00  0.00000000000E+00  0.99999998245E-14  0.12500000000E+03  0.12500000000E+03 0.  0.
        -11    1    3    3    0    0 -0.54620782176E+02  0.11661997808E+02 -0.26152398560E+02  0.61671549268E+02  0.51100000000E-03 0. -1.
         23    2    1    0    0    0 -0.22682861263E+02  0.53538058525E+01 -0.18824610766E+02  0.95041004645E+02  0.90195627174E+02 0.  0.
         11    1    3    3    0    0  0.31937920912E+02 -0.63081919559E+01  0.73277877945E+01  0.33369455377E+02  0.51100000000E-03 0.  1.
         22    1    1    0    0    0  0.22682861263E+02 -0.53538058525E+01  0.18824610766E+02  0.29958995355E+02  0.00000000000E+00 0. -1.
</event>
<event>
 5    1  0.1717510E-003  0.9118800E+02  0.7818608E-02  0.1130116E+00
         25   -1    0    0    0    0  0.00000000000E+00  0.00000000000E+00  0.99999998245E-14  0.12500000000E+03  0.12500000000E+03 0.  0.
        -11    1    3    3    0    0 -0.16378204096E+02 -0.24129965796E+02  0.50031687212E+02  0.57910884506E+02  0.51100000000E-03 0.  1.
         23    2    1    0    0    0  0.37378801613E+01 -0.23259380988E+02  0.19840086124E+02  0.94200656347E+02  0.89023390672E+02 0.  0.
         11    1    3    3    0    0  0.20116084257E+02  0.87058480776E+00 -0.30191601088E+02  0.36289771841E+02  0.51100000000E-03 0. -1.
         22    1    1    0    0    0 -0.37378801613E+01  0.23259380988E+02 -0.19840086124E+02  0.30799343653E+02  0.00000000000E+00 0.  1.
</event>
<event>
 5    1  0.1717510E-003  0.9118800E+02  0.7818608E-02  0.1130116E+00
         25   -1    0    0    0    0  0.00000000000E+00  0.00000000000E+00  0.99999998245E-14  0.12500000000E+03  0.12500000000E+03 0.  0.
        -11    1    3    3    0    0 -0.35249114743E+01  0.55135495049E+02  0.48052056899E+01  0.55456630056E+02  0.51100000000E-03 0.  1.
         23    2    1    0    0    0 -0.10979253691E+02  0.33057191763E+02 -0.15974727434E+02  0.86678806706E+02  0.77747679558E+02 0.  0.
         11    1    3    3    0    0 -0.74543422172E+01 -0.22078303286E+02 -0.20779933124E+02  0.31222176650E+02  0.51100000000E-03 0. -1.
         22    1    1    0    0    0  0.10979253691E+02 -0.33057191763E+02  0.15974727434E+02  0.38321193294E+02  0.00000000000E+00 0.  1.
</event>
<event>
 5    1  0.1717510E-003  0.9118800E+02  0.7818608E-02  0.1130116E+00
         25   -1    0    0    0    0  0.00000000000E+00  0.00000000000E+00  0.99999998245E-14  0.12500000000E+03  0.12500000000E+03 0.  0.
        -11    1    3    3    0    0 -0.21904273305E+02 -0.36067594628E+02 -0.22910161196E+01  0.42260115078E+02  0.51100000000E-03 0.  1.
         23    2    1    0    0    0 -0.17532807420E+01  0.40283604388E+01  0.28165245397E+02  0.96494163238E+02  0.92187530662E+02 0.  0.
         11    1    3    3    0    0  0.20150992563E+02  0.40095955067E+02  0.30456261517E+02  0.54234048160E+02  0.51100000000E-03 0. -1.
         22    1    1    0    0    0  0.17532807420E+01 -0.40283604388E+01 -0.28165245397E+02  0.28505836762E+02  0.00000000000E+00 0. -1.
</event>
<event>
 5    1  0.1717510E-003  0.9118800E+02  0.7818608E-02  0.1130116E+00
         25   -1    0    0    0    0  0.00000000000E+00  0.00000000000E+00  0.99999998245E-14  0.12500000000E+03  0.12500000000E+03 0.  0.
        -11    1    3    3    0    0  0.45612764534E+02 -0.19266481518E+02 -0.29766698791E+02  0.57773505655E+02  0.51100000000E-03 0.  1.
         23    2    1    0    0    0  0.39110917797E+02 -0.12289789351E+01 -0.27699081875E+02  0.77058228894E+02  0.60328742929E+02 0.  0.
         11    1    3    3    0    0 -0.65018467370E+01  0.18037502583E+02  0.20676169160E+01  0.19284723239E+02  0.51100000000E-03 0. -1.
         22    1    1    0    0    0 -0.39110917797E+02  0.12289789351E+01  0.27699081875E+02  0.47941771106E+02  0.00000000000E+00 0.  1.
</event>
<event>
 5    1  0.1717510E-003  0.9118800E+02  0.7818608E-02  0.1130116E+00
         25   -1    0    0    0    0  0.00000000000E+00  0.00000000000E+00  0.99999998245E-14  0.12500000000E+03  0.12500000000E+03 0.  0.
        -11    1    3    3    0    0  0.21330249103E+02  0.12614345888E+02 -0.27133196010E+02  0.36746585895E+02  0.51100000000E-03 0. -1.
         23    2    1    0    0    0 -0.20771130926E+02 -0.19948809557E+02 -0.65627552360E+00  0.96193306676E+02  0.91778683086E+02 0.  0.
         11    1    3    3    0    0 -0.42101380029E+02 -0.32563155445E+02  0.26476920486E+02  0.59446720781E+02  0.51100000000E-03 0.  1.
         22    1    1    0    0    0  0.20771130926E+02  0.19948809557E+02  0.65627552360E+00  0.28806693324E+02  0.00000000000E+00 0.  1.
</event>
<event>
 5    1  0.1717510E-003  0.9118800E+02  0.7818608E-02  0.1130116E+00
         25   -1    0    0    0    0  0.00000000000E+00  0.00000000000E+00  0.99999998245E-14  0.12500000000E+03  0.12500000000E+03 0.  0.
        -11    1    3    3    0    0  0.41110610832E+02  0.12581982819E+02 -0.89461305888E+01  0.43913800421E+02  0.51100000000E-03 0.  1.
         23    2    1    0    0    0 -0.51316752067E+01  0.51873192125E+01 -0.29175325683E+02  0.94926057795E+02  0.90036184108E+02 0.  0.
         11    1    3    3    0    0 -0.46242286039E+02 -0.73946636067E+01 -0.20229195094E+02  0.51012257374E+02  0.51100000000E-03 0. -1.
         22    1    1    0    0    0  0.51316752067E+01 -0.51873192125E+01  0.29175325683E+02  0.30073942205E+02  0.00000000000E+00 0.  1.
</event>
<event>
 5    1  0.1717510E-003  0.9118800E+02  0.7818608E-02  0.1130116E+00
         25   -1    0    0    0    0  0.00000000000E+00  0.00000000000E+00  0.99999998245E-14  0.12500000000E+03  0.12500000000E+03 0.  0.
        -11    1    3    3    0    0  0.13863506396E+02 -0.22667805605E+02 -0.59676499404E+01  0.27233050998E+02  0.51100000000E-03 0.  1.
         23    2    1    0    0    0 -0.29423717396E+02  0.20388220454E+02 -0.79954174462E+01  0.88320831814E+02  0.80344308781E+02 0.  0.
         11    1    3    3    0    0 -0.43287223792E+02  0.43056026060E+02 -0.20277675058E+01  0.61087780816E+02  0.51100000000E-03 0. -1.
         22    1    1    0    0    0  0.29423717396E+02 -0.20388220454E+02  0.79954174462E+01  0.36679168186E+02  0.00000000000E+00 0. -1.
</event>
<event>
 5    1  0.1717510E-003  0.9118800E+02  0.7818608E-02  0.1130116E+00
         25   -1    0    0    0    0  0.00000000000E+00  0.00000000000E+00  0.99999998245E-14  0.12500000000E+03  0.12500000000E+03 0.  0.
        -11    1    3    3    0    0 -0.22943819110E+02  0.22348458216E+02  0.22040282330E+02  0.38879897960E+02  0.51100000000E-03 0.  1.
         23    2    1    0    0    0  0.65196692408E+01 -0.25589863648E+02  0.11814176558E+02  0.96070396196E+02  0.91611129504E+02 0.  0.
         11    1    3    3    0    0  0.29463488351E+02 -0.47938321864E+02 -0.10226105772E+02  0.57190498236E+02  0.51100000000E-03 0. -1.
         22    1    1    0    0    0 -0.65196692408E+01  0.25589863648E+02 -0.11814176558E+02  0.28929603804E+02  0.00000000000E+00 0. -1.
</event>
<event>
 5    1  0.1717510E-003  0.9118800E+02  0.7818608E-02  0.1130116E+00
         25   -1    0    0    0    0  0.00000000000E+00  0.00000000000E+00  0.99999998245E-14  0.12500000000E+03  0.12500000000E+03 0.  0.
        -11    1    3    3    0    0 -0.30158136262E+02 -0.67624946731E+01 -0.30712350516E+02  0.43571699432E+02  0.51100000000E-03 0.  1.
         23    2    1    0    0    0 -0.23819767088E+00  0.28878188427E+02 -0.11923579848E+02  0.93756148424E+02  0.88397042405E+02 0.  0.
         11    1    3    3    0    0  0.29919938591E+02  0.35640683100E+02  0.18788770668E+02  0.50184448991E+02  0.51100000000E-03 0. -1.
         22    1    1    0    0    0  0.23819767088E+00 -0.28878188427E+02  0.11923579848E+02  0.31243851576E+02  0.00000000000E+00 0.  1.
</event>
<event>
 5    1  0.1717510E-003  0.9118800E+02  0.7818608E-02  0.1130116E+00
         25   -1    0    0    0    0  0.00000000000E+00  0.00000000000E+00  0.99999998245E-14  0.12500000000E+03  0.12500000000E+03 0.  0.
        -11    1    3    3    0    0  0.85790778689E+01  0.28131250993E+02  0.23904772359E+02  0.37899947247E+02  0.51100000000E-03 0. -1.
         23    2    1    0    0    0  0.12543713750E+00  0.80925552842E+01 -0.28889319806E+02  0.94998366972E+02  0.90136517256E+02 0.  0.
         11    1    3    3    0    0 -0.84536407314E+01 -0.20038695709E+02 -0.52794092165E+02  0.57098419725E+02  0.51100000000E-03 0.  1.
         22    1    1    0    0    0 -0.12543713750E+00 -0.80925552842E+01  0.28889319806E+02  0.30001633028E+02  0.00000000000E+00 0. -1.
</event>
<event>
 5    1  0.1717510E-003  0.9118800E+02  0.7818608E-02  0.1130116E+00
         25   -1    0    0    0    0  0.00000000000E+00  0.00000000000E+00  0.99999998245E-14  0.12500000000E+03  0.12500000000E+03 0.  0.
        -11    1    3    3    0    0 -0.14218880411E+02  0.28915878369E+02 -0.31268970438E+02  0.44900479892E+02  0.51100000000E-03 0.  1.
         23    2    1    0    0    0 -0.28498137982E+02 -0.60522910307E+01  0.27547423809E+01  0.95736324551E+02  0.91154161385E+02 0.  0.
         11    1    3    3    0    0 -0.14279257571E+02 -0.34968169400E+02  0.34023712819E+02  0.50835844659E+02  0.51100000000E-03 0. -1.
         22    1    1    0    0    0  0.28498137982E+02  0.60522910307E+01 -0.27547423809E+01  0.29263675449E+02  0.00000000000E+00 0. -1.
</event>
<event>
 5    1  0.1717510E-003  0.9118800E+02  0.7818608E-02  0.1130116E+00
         25   -1    0    0    0    0  0.00000000000E+00  0.00000000000E+00  0.99999998245E-14  0.12500000000E+03  0.12500000000E+03 0.  0.
        -11    1    3    3    0    0 -0.22490172488E+02  0.28959191100E+02  0.30204397521E+01  0.36790836689E+02  0.51100000000E-03 0.  1.
         23    2    1    0    0    0 -0.55160000489E+01 -0.24279939541E+02 -0.15513457668E+02  0.95663860352E+02  0.91054736768E+02 0.  0.
         11    1    3    3    0    0  0.16974172439E+02 -0.53239130641E+02 -0.18533897420E+02  0.58873023663E+02  0.51100000000E-03 0. -1.
         22    1    1    0    0    0  0.55160000489E+01  0.24279939541E+02  0.15513457668E+02  0.29336139648E+02  0.00000000000E+00 0. -1.
</event>
<event>
 5    1  0.1717510E-003  0.9118800E+02  0.7818608E-02  0.1130116E+00
         25   -1    0    0    0    0  0.00000000000E+00  0.00000000000E+00  0.99999998245E-14  0.12500000000E+03  0.12500000000E+03 0.  0.
        -11    1    3    3    0    0 -0.12649815889E+01  0.26246605775E+02 -0.26467844042E+02  0.37296531495E+02  0.51100000000E-03 0.  1.
         23    2    1    0    0    0 -0.16921820897E+02 -0.19411544321E+02  0.95632828547E+01  0.97529789692E+02  0.93581234353E+02 0.  0.
         11    1    3    3    0    0 -0.15656839308E+02 -0.45658150096E+02  0.36031126896E+02  0.60233258197E+02  0.51100000000E-03 0. -1.
         22    1    1    0    0    0  0.16921820897E+02  0.19411544321E+02 -0.95632828547E+01  0.27470210308E+02  0.00000000000E+00 0. -1.
</event>
<event>
 5    1  0.1717510E-003  0.9118800E+02  0.7818608E-02  0.1130116E+00
         25   -1    0    0    0    0  0.00000000000E+00  0.00000000000E+00  0.99999998245E-14  0.12500000000E+03  0.12500000000E+03 0.  0.
        -11    1    3    3    0    0 -0.23618480889E+02  0.13960550821E+02 -0.55308418252E+02  0.61739377617E+02  0.51100000000E-03 0.  1.
         23    2    1    0    0    0 -0.16671346626E+02  0.91528602814E+01 -0.22893176719E+02  0.95237503634E+02  0.90467540635E+02 0.  0.
         11    1    3    3    0    0  0.69471342633E+01 -0.48076905398E+01  0.32415241533E+02  0.33498126018E+02  0.51100000000E-03 0. -1.
         22    1    1    0    0    0  0.16671346626E+02 -0.91528602814E+01  0.22893176719E+02  0.29762496366E+02  0.00000000000E+00 0.  1.
</event>
<event>
 5    1  0.1717510E-003  0.9118800E+02  0.7818608E-02  0.1130116E+00
         25   -1    0    0    0    0  0.00000000000E+00  0.00000000000E+00  0.99999998245E-14  0.12500000000E+03  0.12500000000E+03 0.  0.
        -11    1    3    3    0    0  0.12308015345E+01  0.17585596363E+02  0.32784749032E+02  0.37223753722E+02  0.51100000000E-03 0.  1.
         23    2    1    0    0    0  0.18802694379E+02 -0.23968927153E+02 -0.24047238610E+01  0.94441310866E+02  0.89360660900E+02 0.  0.
         11    1    3    3    0    0  0.17571892844E+02 -0.41554523516E+02 -0.35189472893E+02  0.57217557143E+02  0.51100000000E-03 0. -1.
         22    1    1    0    0    0 -0.18802694379E+02  0.23968927153E+02  0.24047238610E+01  0.30558689134E+02  0.00000000000E+00 0. -1.
</event>
<event>
 5    1  0.1717510E-003  0.9118800E+02  0.7818608E-02  0.1130116E+00
         25   -1    0    0    0    0  0.00000000000E+00  0.00000000000E+00  0.99999998245E-14  0.12500000000E+03  0.12500000000E+03 0.  0.
        -11    1    3    3    0    0 -0.55042639503E+01 -0.41216732477E+02  0.40641189262E+02  0.58144838314E+02  0.51100000000E-03 0. -1.
         23    2    1    0    0    0  0.21986318390E+01 -0.28314382957E+02  0.59036377063E+01  0.95993255916E+02  0.91505813908E+02 0.  0.
         11    1    3    3    0    0  0.77028957893E+01  0.12902349520E+02 -0.34737551555E+02  0.37848417602E+02  0.51100000000E-03 0.  1.
         22    1    1    0    0    0 -0.21986318390E+01  0.28314382957E+02 -0.59036377063E+01  0.29006744084E+02  0.00000000000E+00 0. -1.
</event>
<event>
 5    1  0.1717510E-003  0.9118800E+02  0.7818608E-02  0.1130116E+00
         25   -1    0    0    0    0  0.00000000000E+00  0.00000000000E+00  0.99999998245E-14  0.12500000000E+03  0.12500000000E+03 0.  0.
        -11    1    3    3    0    0  0.16837724744E+01 -0.14063823147E+02 -0.31549135138E+02  0.34582859041E+02  0.51100000000E-03 0. -1.
         23    2    1    0    0    0 -0.21191646463E+02 -0.87477751996E+00  0.22094376262E+02  0.94373008997E+02  0.89265067351E+02 0.  0.
         11    1    3    3    0    0 -0.22875418937E+02  0.13189045627E+02  0.53643511400E+02  0.59790149955E+02  0.51100000000E-03 0.  1.
         22    1    1    0    0    0  0.21191646463E+02  0.87477751996E+00 -0.22094376262E+02  0.30626991003E+02  0.00000000000E+00 0.  1.
</event>
<event>
 5    1  0.1717510E-003  0.9118800E+02  0.7818608E-02  0.1130116E+00
         25   -1    0    0    0    0  0.00000000000E+00  0.00000000000E+00  0.99999998245E-14  0.12500000000E+03  0.12500000000E+03 0.  0.
        -11    1    3    3    0    0 -0.60577506604E+02 -0.67485885788E+01 -0.18071703886E+01  0.60979042459E+02  0.51100000000E-03 0. -1.
         23    2    1    0    0    0 -0.27192725294E+02 -0.84623593214E+01  0.72491890092E+01  0.95612816135E+02  0.90984636251E+02 0.  0.
         11    1    3    3    0    0  0.33384781309E+02 -0.17137707426E+01  0.90563593978E+01  0.34633773676E+02  0.51100000000E-03 0.  1.
         22    1    1    0    0    0  0.27192725294E+02  0.84623593214E+01 -0.72491890092E+01  0.29387183865E+02  0.00000000000E+00 0. -1.
</event>
<event>
 5    1  0.1717510E-003  0.9118800E+02  0.7818608E-02  0.1130116E+00
         25   -1    0    0    0    0  0.00000000000E+00  0.00000000000E+00  0.99999998245E-14  0.12500000000E+03  0.12500000000E+03 0.  0.
        -11    1    3    3    0    0  0.35712373917E+02 -0.20336037024E+02 -0.21183966531E+01  0.41151131908E+02  0.51100000000E-03 0. -1.
         23    2    1    0    0    0 -0.74215737801E+01 -0.67594257001E+01  0.27847208308E+02  0.95398706047E+02  0.90690002270E+02 0.  0.
         11    1    3    3    0    0 -0.43133947697E+02  0.13576611324E+02  0.29965604961E+02  0.54247574139E+02  0.51100000000E-03 0.  1.
         22    1    1    0    0    0  0.74215737801E+01  0.67594257001E+01 -0.27847208308E+02  0.29601293953E+02  0.00000000000E+00 0.  1.
</event>
<event>
 5    1  0.1717510E-003  0.9118800E+02  0.7818608E-02  0.1130116E+00
         25   -1    0    0    0    0  0.00000000000E+00  0.00000000000E+00  0.99999998245E-14  0.12500000000E+03  0.12500000000E+03 0.  0.
        -11    1    3    3    0    0 -0.22250151346E+02 -0.26844834556E+02  0.22007942132E+02  0.41231831082E+02  0.51100000000E-03 0.  1.
         23    2    1    0    0    0 -0.12965580506E+02 -0.19003170543E+00 -0.25443133516E+02  0.96443119340E+02  0.92118292619E+02 0.  0.
         11    1    3    3    0    0  0.92845708402E+01  0.26654802850E+02 -0.47451075648E+02  0.55211288258E+02  0.51100000000E-03 0. -1.
         22    1    1    0    0    0  0.12965580506E+02  0.19003170543E+00  0.25443133516E+02  0.28556880660E+02  0.00000000000E+00 0. -1.
</event>
<event>
 5    1  0.1717510E-003  0.9118800E+02  0.7818608E-02  0.1130116E+00
         25   -1    0    0    0    0  0.00000000000E+00  0.00000000000E+00  0.99999998245E-14  0.12500000000E+03  0.12500000000E+03 0.  0.
        -11    1    3    3    0    0  0.28818800792E+02 -0.86344090894E+01  0.20802817113E+02  0.36576406323E+02  0.51100000000E-03 0.  1.
         23    2    1    0    0    0  0.26674788340E+02  0.14856959174E+02 -0.23300498011E+02  0.86591839716E+02  0.77607731116E+02 0.  0.
         11    1    3    3    0    0 -0.21440124519E+01  0.23491368263E+02 -0.44103315124E+02  0.50015433393E+02  0.51100000000E-03 0. -1.
         22    1    1    0    0    0 -0.26674788340E+02 -0.14856959174E+02  0.23300498011E+02  0.38408160284E+02  0.00000000000E+00 0. -1.
</event>
<event>
 5    1  0.1717510E-003  0.9118800E+02  0.7818608E-02  0.1130116E+00
         25   -1    0    0    0    0  0.00000000000E+00  0.00000000000E+00  0.99999998245E-14  0.12500000000E+03  0.12500000000E+03 0.  0.
        -11    1    3    3    0    0  0.30841989647E+02 -0.30788545880E+02  0.33453563572E+01  0.43707599937E+02  0.51100000000E-03 0. -1.
         23    2    1    0    0    0  0.17135967258E+02 -0.98395181222E+01 -0.32221857527E+02  0.87201777909E+02  0.78583996318E+02 0.  0.
         11    1    3    3    0    0 -0.13706022389E+02  0.20949027758E+02 -0.35567213884E+02  0.43494177972E+02  0.51100000000E-03 0.  1.
         22    1    1    0    0    0 -0.17135967258E+02  0.98395181222E+01  0.32221857527E+02  0.37798222091E+02  0.00000000000E+00 0. -1.
</event>
<event>
 5    1  0.1717510E-003  0.9118800E+02  0.7818608E-02  0.1130116E+00
         25   -1    0    0    0    0  0.00000000000E+00  0.00000000000E+00  0.99999998245E-14  0.12500000000E+03  0.12500000000E+03 0.  0.
        -11    1    3    3    0    0  0.78764513459E+00  0.38922890765E+02 -0.34985503467E+01  0.39087743157E+02  0.51100000000E-03 0. -1.
         23    2    1    0    0    0 -0.34016640651E+00 -0.24347656526E+01 -0.34265284173E+02  0.90646637771E+02  0.83884798640E+02 0.  0.
         11    1    3    3    0    0 -0.11278115411E+01 -0.41357656417E+02 -0.30766733826E+02  0.51558894614E+02  0.51100000000E-03 0.  1.
         22    1    1    0    0    0  0.34016640651E+00  0.24347656526E+01  0.34265284173E+02  0.34353362229E+02  0.00000000000E+00 0.  1.
</event>
<event>
 5    1  0.1717510E-003  0.9118800E+02  0.7818608E-02  0.1130116E+00
         25   -1    0    0    0    0  0.00000000000E+00  0.00000000000E+00  0.99999998245E-14  0.12500000000E+03  0.12500000000E+03 0.  0.
        -11    1    3    3    0    0 -0.66592396660E+01 -0.43307787215E+02  0.29050060622E+01  0.43912970371E+02  0.51100000000E-03 0.  1.
         23    2    1    0    0    0 -0.16653126626E+02 -0.86852007345E+01  0.30417558000E+02  0.89251053541E+02  0.81778746538E+02 0.  0.
         11    1    3    3    0    0 -0.99938869599E+01  0.34622586480E+02  0.27512551938E+02  0.45338083170E+02  0.51100000000E-03 0. -1.
         22    1    1    0    0    0  0.16653126626E+02  0.86852007345E+01 -0.30417558000E+02  0.35748946459E+02  0.00000000000E+00 0. -1.
</event>
<event>
 5    1  0.1717510E-003  0.9118800E+02  0.7818608E-02  0.1130116E+00
         25   -1    0    0    0    0  0.00000000000E+00  0.00000000000E+00  0.99999998245E-14  0.12500000000E+03  0.12500000000E+03 0.  0.
        -11    1    3    3    0    0 -0.27102686282E+02 -0.26799143571E+01 -0.13685187757E+02  0.30479860710E+02  0.51100000000E-03 0.  1.
         23    2    1    0    0    0 -0.27770232829E+02  0.75642038952E+01  0.34685532171E+02  0.79927955960E+02  0.66007491923E+02 0.  0.
         11    1    3    3    0    0 -0.66754654667E+00  0.10244118252E+02  0.48370719929E+02  0.49448095250E+02  0.51100000000E-03 0. -1.
         22    1    1    0    0    0  0.27770232829E+02 -0.75642038952E+01 -0.34685532171E+02  0.45072044040E+02  0.00000000000E+00 0. -1.
</event>
<event>
 5    1  0.1717510E-003  0.9118800E+02  0.7818608E-02  0.1130116E+00
         25   -1    0    0    0    0  0.00000000000E+00  0.00000000000E+00  0.99999998245E-14  0.12500000000E+03  0.12500000000E+03 0.  0.
        -11    1    3    3    0    0  0.25683790432E+02  0.15789054518E+02 -0.36953387621E+02  0.47691762292E+02  0.51100000000E-03 0.  1.
         23    2    1    0    0    0 -0.71525021995E+01  0.30194344087E+02 -0.10533774134E+02  0.92230851399E+02  0.86213182575E+02 0.  0.
         11    1    3    3    0    0 -0.32836292632E+02  0.14405289569E+02  0.26419613487E+02  0.44539089107E+02  0.51100000000E-03 0. -1.
         22    1    1    0    0    0  0.71525021995E+01 -0.30194344087E+02  0.10533774134E+02  0.32769148601E+02  0.00000000000E+00 0.  1.
</event>
<event>
 5    1  0.1717510E-003  0.9118800E+02  0.7818608E-02  0.1130116E+00
         25   -1    0    0    0    0  0.00000000000E+00  0.00000000000E+00  0.99999998245E-14  0.12500000000E+03  0.12500000000E+03 0.  0.
        -11    1    3    3    0    0  0.17273549102E+02  0.55294813733E+02  0.21053824006E+01  0.57968306511E+02  0.51100000000E-03 0.  1.
         23    2    1    0    0    0  0.11223625537E+02  0.23448122928E+02 -0.15375443253E+02  0.94797541586E+02  0.89857583967E+02 0.  0.
         11    1    3    3    0    0 -0.60499235648E+01 -0.31846690805E+02 -0.17480825654E+02  0.36829235075E+02  0.51100000000E-03 0. -1.
         22    1    1    0    0    0 -0.11223625537E+02 -0.23448122928E+02  0.15375443253E+02  0.30202458414E+02  0.00000000000E+00 0.  1.
</event>
<event>
 5    1  0.1717510E-003  0.9118800E+02  0.7818608E-02  0.1130116E+00
         25   -1    0    0    0    0  0.00000000000E+00  0.00000000000E+00  0.99999998245E-14  0.12500000000E+03  0.12500000000E+03 0.  0.
        -11    1    3    3    0    0 -0.44413051124E+02  0.29346869800E+02 -0.27298720284E+02  0.59824560229E+02  0.51100000000E-03 0.  1.
         23    2    1    0    0    0 -0.18280907926E+02  0.79355632936E+01 -0.24052824777E+02  0.93763752801E+02  0.88407794906E+02 0.  0.
         11    1    3    3    0    0  0.26132143199E+02 -0.21411306506E+02  0.32458955071E+01  0.33939192571E+02  0.51100000000E-03 0. -1.
         22    1    1    0    0    0  0.18280907926E+02 -0.79355632936E+01  0.24052824777E+02  0.31236247199E+02  0.00000000000E+00 0.  1.
</event>
<event>
 5    1  0.1717510E-003  0.9118800E+02  0.7818608E-02  0.1130116E+00
         25   -1    0    0    0    0  0.00000000000E+00  0.00000000000E+00  0.99999998245E-14  0.12500000000E+03  0.12500000000E+03 0.  0.
        -11    1    3    3    0    0  0.17962796388E+02  0.38283348589E+02 -0.44130275725E+02  0.61120848072E+02  0.51100000000E-03 0. -1.
         23    2    1    0    0    0  0.16164332651E+02  0.12941708657E+02 -0.21608373410E+02  0.95071831422E+02  0.90238339166E+02 0.  0.
         11    1    3    3    0    0 -0.17984637373E+01 -0.25341639932E+02  0.22521902315E+02  0.33950983349E+02  0.51100000000E-03 0.  1.
         22    1    1    0    0    0 -0.16164332651E+02 -0.12941708657E+02  0.21608373410E+02  0.29928168578E+02  0.00000000000E+00 0. -1.
</event>
<event>
 5    1  0.1717510E-003  0.9118800E+02  0.7818608E-02  0.1130116E+00
         25   -1    0    0    0    0  0.00000000000E+00  0.00000000000E+00  0.99999998245E-14  0.12500000000E+03  0.12500000000E+03 0.  0.
        -11    1    3    3    0    0 -0.10487071335E+02 -0.31528243178E+02 -0.27616130616E+02  0.43204854513E+02  0.51100000000E-03 0.  1.
         23    2    1    0    0    0 -0.28343161680E+02  0.64813650407E+01  0.38376513787E+01  0.95673041840E+02  0.91067340249E+02 0.  0.
         11    1    3    3    0    0 -0.17856090345E+02  0.38009608219E+02  0.31453781994E+02  0.52468187327E+02  0.51100000000E-03 0. -1.
         22    1    1    0    0    0  0.28343161680E+02 -0.64813650407E+01 -0.38376513787E+01  0.29326958160E+02  0.00000000000E+00 0.  1.
</event>
<event>
 5    1  0.1717510E-003  0.9118800E+02  0.7818608E-02  0.1130116E+00
         25   -1    0    0    0    0  0.00000000000E+00  0.00000000000E+00  0.99999998245E-14  0.12500000000E+03  0.12500000000E+03 0.  0.
        -11    1    3    3    0    0 -0.52855219015E+02 -0.96390446192E+01  0.45779978803E+01  0.53921641510E+02  0.51100000000E-03 0.  1.
         23    2    1    0    0    0 -0.19504223836E+02  0.52476709472E+01 -0.18899034854E+02  0.97339083236E+02  0.93326152867E+02 0.  0.
         11    1    3    3    0    0  0.33350995179E+02  0.14886715566E+02 -0.23477032735E+02  0.43417441726E+02  0.51100000000E-03 0. -1.
         22    1    1    0    0    0  0.19504223836E+02 -0.52476709472E+01  0.18899034854E+02  0.27660916764E+02  0.00000000000E+00 0.  1.
</event>
<event>
 5    1  0.1717510E-003  0.9118800E+02  0.7818608E-02  0.1130116E+00
         25   -1    0    0    0    0  0.00000000000E+00  0.00000000000E+00  0.99999998245E-14  0.12500000000E+03  0.12500000000E+03 0.  0.
        -11    1    3    3    0    0 -0.64746812758E+01  0.31939873181E+02 -0.50291120722E+02  0.59927237715E+02  0.51100000000E-03 0. -1.
         23    2    1    0    0    0  0.51483512541E+01  0.56861537258E+01 -0.27101117357E+02  0.96834268573E+02  0.92647542565E+02 0.  0.
         11    1    3    3    0    0  0.11623032530E+02 -0.26253719455E+02  0.23190003366E+02  0.36907030858E+02  0.51100000000E-03 0.  1.
         22    1    1    0    0    0 -0.51483512541E+01 -0.56861537258E+01  0.27101117357E+02  0.28165731427E+02  0.00000000000E+00 0. -1.
</event>
<event>
 5    1  0.1717510E-003  0.9118800E+02  0.7818608E-02  0.1130116E+00
         25   -1    0    0    0    0  0.00000000000E+00  0.00000000000E+00  0.99999998245E-14  0.12500000000E+03  0.12500000000E+03 0.  0.
        -11    1    3    3    0    0 -0.25249119296E+02 -0.46689454111E+01  0.35207228786E+02  0.43575980030E+02  0.51100000000E-03 0.  1.
         23    2    1    0    0    0 -0.37677475005E+00 -0.30350702604E+02 -0.12279633217E+01  0.94622129737E+02  0.89613238053E+02 0.  0.
         11    1    3    3    0    0  0.24872344546E+02 -0.25681757193E+02 -0.36435192108E+02  0.51046149707E+02  0.51100000000E-03 0. -1.
         22    1    1    0    0    0  0.37677475005E+00  0.30350702604E+02  0.12279633217E+01  0.30377870263E+02  0.00000000000E+00 0. -1.
</event>
<event>
 5    1  0.1717510E-003  0.9118800E+02  0.7818608E-02  0.1130116E+00
         25   -1    0    0    0    0  0.00000000000E+00  0.00000000000E+00  0.99999998245E-14  0.12500000000E+03  0.12500000000E+03 0.  0.
        -11    1    3    3    0    0 -0.14469185334E+02  0.93329984368E+01  0.37564809037E+02  0.41322839475E+02  0.51100000000E-03 0. -1.
         23    2    1    0    0    0 -0.19296306298E+02  0.16419589986E+02 -0.15647073935E+02  0.95221126704E+02  0.90444909619E+02 0.  0.
         11    1    3    3    0    0 -0.48271209636E+01  0.70865915488E+01 -0.53211882972E+02  0.53898287229E+02  0.51100000000E-03 0.  1.
         22    1    1    0    0    0  0.19296306298E+02 -0.16419589986E+02  0.15647073935E+02  0.29778873296E+02  0.00000000000E+00 0.  1.
</event>
<event>
 5    1  0.1717510E-003  0.9118800E+02  0.7818608E-02  0.1130116E+00
         25   -1    0    0    0    0  0.00000000000E+00  0.00000000000E+00  0.99999998245E-14  0.12500000000E+03  0.12500000000E+03 0.  0.
        -11    1    3    3    0    0 -0.17447448109E+02 -0.92828308633E+01 -0.41548209694E+02  0.46009109135E+02  0.51100000000E-03 0. -1.
         23    2    1    0    0    0 -0.14652822550E+02  0.95849333966E+01  0.12606488159E+02  0.10342455793E+03  0.10114909531E+03 0.  0.
         11    1    3    3    0    0  0.27946255582E+01  0.18867764260E+02  0.54154697853E+02  0.57415448792E+02  0.51100000000E-03 0.  1.
         22    1    1    0    0    0  0.14652822550E+02 -0.95849333966E+01 -0.12606488159E+02  0.21575442072E+02  0.00000000000E+00 0.  1.
</event>
<event>
 5    1  0.1717510E-003  0.9118800E+02  0.7818608E-02  0.1130116E+00
         25   -1    0    0    0    0  0.00000000000E+00  0.00000000000E+00  0.99999998245E-14  0.12500000000E+03  0.12500000000E+03 0.  0.
        -11    1    3    3    0    0 -0.22023142769E+02 -0.15615943261E+02 -0.40229289594E+02  0.48448655739E+02  0.51100000000E-03 0.  1.
         23    2    1    0    0    0 -0.26980229474E+02  0.71833498862E+01  0.23288389021E+01  0.96982919697E+02  0.92847885944E+02 0.  0.
         11    1    3    3    0    0 -0.49570867054E+01  0.22799293147E+02  0.42558128496E+02  0.48534263959E+02  0.51100000000E-03 0. -1.
         22    1    1    0    0    0  0.26980229474E+02 -0.71833498862E+01 -0.23288389021E+01  0.28017080303E+02  0.00000000000E+00 0. -1.
</event>
<event>
 5    1  0.1717510E-003  0.9118800E+02  0.7818608E-02  0.1130116E+00
         25   -1    0    0    0    0  0.00000000000E+00  0.00000000000E+00  0.99999998245E-14  0.12500000000E+03  0.12500000000E+03 0.  0.
        -11    1    3    3    0    0  0.19941660616E+02 -0.30214808581E+02 -0.22909171128E+01  0.36274685212E+02  0.51100000000E-03 0.  1.
         23    2    1    0    0    0  0.21486901340E+02  0.23104078895E+02  0.11581316891E+02  0.91390294680E+02  0.84985726272E+02 0.  0.
         11    1    3    3    0    0  0.15452407236E+01  0.53318887476E+02  0.13872234004E+02  0.55115609469E+02  0.51100000000E-03 0. -1.
         22    1    1    0    0    0 -0.21486901340E+02 -0.23104078895E+02 -0.11581316891E+02  0.33609705320E+02  0.00000000000E+00 0. -1.
</event>
<event>
 5    1  0.1717510E-003  0.9118800E+02  0.7818608E-02  0.1130116E+00
         25   -1    0    0    0    0  0.00000000000E+00  0.00000000000E+00  0.99999998245E-14  0.12500000000E+03  0.12500000000E+03 0.  0.
        -11    1    3    3    0    0 -0.25541082220E+02 -0.30652069675E+02 -0.91557914849E+01  0.40935617429E+02  0.51100000000E-03 0.  1.
         23    2    1    0    0    0  0.23957777942E+02 -0.23074865336E+02 -0.63409399470E+00  0.91730996267E+02  0.85485373408E+02 0.  0.
         11    1    3    3    0    0  0.49498860162E+02  0.75772043388E+01  0.85216974902E+01  0.50795378838E+02  0.51100000000E-03 0. -1.
         22    1    1    0    0    0 -0.23957777942E+02  0.23074865336E+02  0.63409399470E+00  0.33269003733E+02  0.00000000000E+00 0. -1.
</event>
<event>
 5    1  0.1717510E-003  0.9118800E+02  0.7818608E-02  0.1130116E+00
         25   -1    0    0    0    0  0.00000000000E+00  0.00000000000E+00  0.99999998245E-14  0.12500000000E+03  0.12500000000E+03 0.  0.
        -11    1    3    3    0    0 -0.53674091409E+02  0.11484502535E+02  0.14228689073E+02  0.56703240472E+02  0.51100000000E-03 0.  1.
         23    2    1    0    0    0 -0.20110795442E+02  0.18871220540E+02 -0.62685418568E+01  0.96718174122E+02  0.92490775381E+02 0.  0.
         11    1    3    3    0    0  0.33563295967E+02  0.73867180049E+01 -0.20497230929E+02  0.40014933651E+02  0.51100000000E-03 0. -1.
         22    1    1    0    0    0  0.20110795442E+02 -0.18871220540E+02  0.62685418568E+01  0.28281825878E+02  0.00000000000E+00 0.  1.
</event>
<event>
 5    1  0.1717510E-003  0.9118800E+02  0.7818608E-02  0.1130116E+00
         25   -1    0    0    0    0  0.00000000000E+00  0.00000000000E+00  0.99999998245E-14  0.12500000000E+03  0.12500000000E+03 0.  0.
        -11    1    3    3    0    0  0.14535675015E+02  0.12418009283E+02 -0.59466352811E+02  0.62463908937E+02  0.51100000000E-03 0.  1.
         23    2    1    0    0    0  0.49720912480E+01  0.58142585529E+01 -0.26436957828E+02  0.97478371540E+02  0.93512527958E+02 0.  0.
         11    1    3    3    0    0 -0.95635837666E+01 -0.66037507306E+01  0.33029394984E+02  0.35014462604E+02  0.51100000000E-03 0. -1.
         22    1    1    0    0    0 -0.49720912480E+01 -0.58142585529E+01  0.26436957828E+02  0.27521628460E+02  0.00000000000E+00 0.  1.
</event>
<event>
 5    1  0.1717510E-003  0.9118800E+02  0.7818608E-02  0.1130116E+00
         25   -1    0    0    0    0  0.00000000000E+00  0.00000000000E+00  0.99999998245E-14  0.12500000000E+03  0.12500000000E+03 0.  0.
        -11    1    3    3    0    0  0.15065691445E+02  0.54977112106E+02  0.22342781608E+02  0.61226283608E+02  0.51100000000E-03 0. -1.
         23    2    1    0    0    0 -0.16327721292E+01  0.26472858897E+02  0.12369922805E+02  0.95734095039E+02  0.91151103996E+02 0.  0.
         11    1    3    3    0    0 -0.16698463574E+02 -0.28504253209E+02 -0.99728588027E+01  0.34507811430E+02  0.51100000000E-03 0.  1.
         22    1    1    0    0    0  0.16327721292E+01 -0.26472858897E+02 -0.12369922805E+02  0.29265904961E+02  0.00000000000E+00 0. -1.
</event>
<event>
 5    1  0.1717510E-003  0.9118800E+02  0.7818608E-02  0.1130116E+00
         25   -1    0    0    0    0  0.00000000000E+00  0.00000000000E+00  0.99999998245E-14  0.12500000000E+03  0.12500000000E+03 0.  0.
        -11    1    3    3    0    0  0.93129193989E+01  0.29466622563E+02  0.17896181554E+02  0.35711141503E+02  0.51100000000E-03 0.  1.
         23    2    1    0    0    0  0.91837844291E+01 -0.27879324152E+02  0.48185411577E+00  0.95643045202E+02  0.91026157232E+02 0.  0.
         11    1    3    3    0    0 -0.12913496982E+00 -0.57345946716E+02 -0.17414327438E+02  0.59931903698E+02  0.51100000000E-03 0. -1.
         22    1    1    0    0    0 -0.91837844291E+01  0.27879324152E+02 -0.48185411577E+00  0.29356954798E+02  0.00000000000E+00 0. -1.
</event>
<event>
 5    1  0.1717510E-003  0.9118800E+02  0.7818608E-02  0.1130116E+00
         25   -1    0    0    0    0  0.00000000000E+00  0.00000000000E+00  0.99999998245E-14  0.12500000000E+03  0.12500000000E+03 0.  0.
        -11    1    3    3    0    0 -0.16086956812E+02 -0.77721357169E+01 -0.25385160718E+00  0.17867868199E+02  0.51100000000E-03 0. -1.
         23    2    1    0    0    0  0.22501068124E+02 -0.17757885253E+02 -0.41068887598E+02  0.74917127839E+02  0.55716083492E+02 0.  0.
         11    1    3    3    0    0  0.38588024936E+02 -0.99857495359E+01 -0.40815035991E+02  0.57049259640E+02  0.51100000000E-03 0.  1.
         22    1    1    0    0    0 -0.22501068124E+02  0.17757885253E+02  0.41068887598E+02  0.50082872161E+02  0.00000000000E+00 0.  1.
</event>
<event>
 5    1  0.1717510E-003  0.9118800E+02  0.7818608E-02  0.1130116E+00
         25   -1    0    0    0    0  0.00000000000E+00  0.00000000000E+00  0.99999998245E-14  0.12500000000E+03  0.12500000000E+03 0.  0.
        -11    1    3    3    0    0  0.51890261094E+01 -0.42973142872E+02 -0.54362556023E+01  0.43625335248E+02  0.51100000000E-03 0.  1.
         23    2    1    0    0    0  0.28582863039E+02 -0.11500650956E+02  0.18007754838E+02  0.89313528247E+02  0.81874184342E+02 0.  0.
         11    1    3    3    0    0  0.23393836929E+02  0.31472491916E+02  0.23444010440E+02  0.45688192999E+02  0.51100000000E-03 0. -1.
         22    1    1    0    0    0 -0.28582863039E+02  0.11500650956E+02 -0.18007754838E+02  0.35686471753E+02  0.00000000000E+00 0.  1.
</event>
<event>
 5    1  0.1717510E-003  0.9118800E+02  0.7818608E-02  0.1130116E+00
         25   -1    0    0    0    0  0.00000000000E+00  0.00000000000E+00  0.99999998245E-14  0.12500000000E+03  0.12500000000E+03 0.  0.
        -11    1    3    3    0    0  0.26079360773E+02  0.16015998968E+02  0.44226344030E+02  0.53783034386E+02  0.51100000000E-03 0.  1.
         23    2    1    0    0    0  0.12219026367E+02  0.24939421813E+02  0.44057433147E+01  0.96880790553E+02  0.92710288740E+02 0.  0.
         11    1    3    3    0    0 -0.13860334405E+02  0.89234228452E+01 -0.39820600715E+02  0.43097756167E+02  0.51100000000E-03 0. -1.
         22    1    1    0    0    0 -0.12219026367E+02 -0.24939421813E+02 -0.44057433147E+01  0.28119209447E+02  0.00000000000E+00 0.  1.
</event>
<event>
 5    1  0.1717510E-003  0.9118800E+02  0.7818608E-02  0.1130116E+00
         25   -1    0    0    0    0  0.00000000000E+00  0.00000000000E+00  0.99999998245E-14  0.12500000000E+03  0.12500000000E+03 0.  0.
        -11    1    3    3    0    0 -0.21812663906E+02  0.99609372589E+01  0.30887181400E+02  0.39102820267E+02  0.51100000000E-03 0.  1.
         23    2    1    0    0    0  0.35476438068E+00  0.21386459102E+02 -0.19964807551E+02  0.95740812875E+02  0.91160316030E+02 0.  0.
         11    1    3    3    0    0  0.22167428286E+02  0.11425521843E+02 -0.50851988950E+02  0.56637992608E+02  0.51100000000E-03 0. -1.
         22    1    1    0    0    0 -0.35476438068E+00 -0.21386459102E+02  0.19964807551E+02  0.29259187125E+02  0.00000000000E+00 0. -1.
</event>
<event>
 5    1  0.1717510E-003  0.9118800E+02  0.7818608E-02  0.1130116E+00
         25   -1    0    0    0    0  0.00000000000E+00  0.00000000000E+00  0.99999998245E-14  0.12500000000E+03  0.12500000000E+03 0.  0.
        -11    1    3    3    0    0 -0.45388019453E+02 -0.33091166125E+02 -0.24180644342E+02  0.61153913582E+02  0.51100000000E-03 0.  1.
         23    2    1    0    0    0 -0.24768649563E+02 -0.77962859228E+01 -0.14809950862E+02  0.95106811480E+02  0.90286781258E+02 0.  0.
         11    1    3    3    0    0  0.20619369890E+02  0.25294880202E+02  0.93706934798E+01  0.33952897898E+02  0.51100000000E-03 0. -1.
         22    1    1    0    0    0  0.24768649563E+02  0.77962859228E+01  0.14809950862E+02  0.29893188520E+02  0.00000000000E+00 0.  1.
</event>
<event>
 5    1  0.1717510E-003  0.9118800E+02  0.7818608E-02  0.1130116E+00
         25   -1    0    0    0    0  0.00000000000E+00  0.00000000000E+00  0.99999998245E-14  0.12500000000E+03  0.12500000000E+03 0.  0.
        -11    1    3    3    0    0  0.32049015489E+02  0.22498602653E+02  0.11523300645E+02  0.40818047150E+02  0.51100000000E-03 0. -1.
         23    2    1    0    0    0  0.47106217528E+01 -0.24247489940E+02  0.16646938515E+02  0.95213236369E+02  0.90434004070E+02 0.  0.
         11    1    3    3    0    0 -0.27338393737E+02 -0.46746092593E+02  0.51236378702E+01  0.54395189218E+02  0.51100000000E-03 0.  1.
         22    1    1    0    0    0 -0.47106217528E+01  0.24247489940E+02 -0.16646938515E+02  0.29786763631E+02  0.00000000000E+00 0.  1.
</event>
<event>
 5    1  0.1717510E-003  0.9118800E+02  0.7818608E-02  0.1130116E+00
         25   -1    0    0    0    0  0.00000000000E+00  0.00000000000E+00  0.99999998245E-14  0.12500000000E+03  0.12500000000E+03 0.  0.
        -11    1    3    3    0    0 -0.23752150045E+02 -0.33732361935E+02 -0.39981134766E+01  0.41449026347E+02  0.51100000000E-03 0. -1.
         23    2    1    0    0    0  0.22150882407E+02 -0.98693804839E+01  0.14911977094E+02  0.96531889360E+02  0.92238670524E+02 0.  0.
         11    1    3    3    0    0  0.45903032453E+02  0.23862981451E+02  0.18910090571E+02  0.55082863013E+02  0.51100000000E-03 0.  1.
         22    1    1    0    0    0 -0.22150882407E+02  0.98693804839E+01 -0.14911977094E+02  0.28468110640E+02  0.00000000000E+00 0.  1.
</event>
<event>
 5    1  0.1717510E-003  0.9118800E+02  0.7818608E-02  0.1130116E+00
         25   -1    0    0    0    0  0.00000000000E+00  0.00000000000E+00  0.99999998245E-14  0.12500000000E+03  0.12500000000E+03 0.  0.
        -11    1    3    3    0    0 -0.39184187146E+01 -0.73574573189E+01 -0.47686174722E+02  0.48409270221E+02  0.51100000000E-03 0. -1.
         23    2    1    0    0    0 -0.22138541813E+02  0.15048364641E+02 -0.37277766841E+02  0.79106643045E+02  0.64433382351E+02 0.  0.
         11    1    3    3    0    0 -0.18220123098E+02  0.22405821960E+02  0.10408407881E+02  0.30697372824E+02  0.51100000000E-03 0.  1.
         22    1    1    0    0    0  0.22138541813E+02 -0.15048364641E+02  0.37277766841E+02  0.45893356955E+02  0.00000000000E+00 0. -1.
</event>
<event>
 5    1  0.1717510E-003  0.9118800E+02  0.7818608E-02  0.1130116E+00
         25   -1    0    0    0    0  0.00000000000E+00  0.00000000000E+00  0.99999998245E-14  0.12500000000E+03  0.12500000000E+03 0.  0.
        -11    1    3    3    0    0 -0.28244401372E+02  0.72294088064E+01 -0.45158481004E+02  0.53752199652E+02  0.51100000000E-03 0.  1.
         23    2    1    0    0    0 -0.26880940754E+02 -0.59379598506E+00 -0.15607600135E+01  0.98067240370E+02  0.94296394907E+02 0.  0.
         11    1    3    3    0    0  0.13634606184E+01 -0.78232047914E+01  0.43597720990E+02  0.44315040718E+02  0.51100000000E-03 0. -1.
         22    1    1    0    0    0  0.26880940754E+02  0.59379598506E+00  0.15607600135E+01  0.26932759630E+02  0.00000000000E+00 0.  1.
</event>
<event>
 5    1  0.1717510E-003  0.9118800E+02  0.7818608E-02  0.1130116E+00
         25   -1    0    0    0    0  0.00000000000E+00  0.00000000000E+00  0.99999998245E-14  0.12500000000E+03  0.12500000000E+03 0.  0.
        -11    1    3    3    0    0 -0.10727464809E+02 -0.31157843469E+02 -0.22434184764E+02  0.39864550131E+02  0.51100000000E-03 0.  1.
         23    2    1    0    0    0  0.22017503360E+02  0.14101810317E+02 -0.92828611865E+01  0.97254675705E+02  0.93213029810E+02 0.  0.
         11    1    3    3    0    0  0.32744968169E+02  0.45259653787E+02  0.13151323578E+02  0.57390125574E+02  0.51100000000E-03 0. -1.
         22    1    1    0    0    0 -0.22017503360E+02 -0.14101810317E+02  0.92828611865E+01  0.27745324295E+02  0.00000000000E+00 0. -1.
</event>
<event>
 5    1  0.1717510E-003  0.9118800E+02  0.7818608E-02  0.1130116E+00
         25   -1    0    0    0    0  0.00000000000E+00  0.00000000000E+00  0.99999998245E-14  0.12500000000E+03  0.12500000000E+03 0.  0.
        -11    1    3    3    0    0  0.10927035443E+02 -0.95799297509E+01  0.33238893216E+02  0.36276702994E+02  0.51100000000E-03 0. -1.
         23    2    1    0    0    0  0.12008685514E+02  0.20016407734E+02 -0.18043697377E+02  0.95496777780E+02  0.90825076080E+02 0.  0.
         11    1    3    3    0    0  0.10816500712E+01  0.29596337485E+02 -0.51282590593E+02  0.59220074786E+02  0.51100000000E-03 0.  1.
         22    1    1    0    0    0 -0.12008685514E+02 -0.20016407734E+02  0.18043697377E+02  0.29503222220E+02  0.00000000000E+00 0.  1.
</event>
<event>
 5    1  0.1717510E-003  0.9118800E+02  0.7818608E-02  0.1130116E+00
         25   -1    0    0    0    0  0.00000000000E+00  0.00000000000E+00  0.99999998245E-14  0.12500000000E+03  0.12500000000E+03 0.  0.
        -11    1    3    3    0    0 -0.34565389930E+02 -0.39594191272E+02  0.96975680300E+01  0.53446318764E+02  0.51100000000E-03 0.  1.
         23    2    1    0    0    0 -0.88025175831E-01 -0.28477257145E+02 -0.10168760802E+02  0.94761520885E+02  0.89807461947E+02 0.  0.
         11    1    3    3    0    0  0.34477364754E+02  0.11116934127E+02 -0.19866328832E+02  0.41315202121E+02  0.51100000000E-03 0. -1.
         22    1    1    0    0    0  0.88025175831E-01  0.28477257145E+02  0.10168760802E+02  0.30238479115E+02  0.00000000000E+00 0.  1.
</event>
<event>
 5    1  0.1717510E-003  0.9118800E+02  0.7818608E-02  0.1130116E+00
         25   -1    0    0    0    0  0.00000000000E+00  0.00000000000E+00  0.99999998245E-14  0.12500000000E+03  0.12500000000E+03 0.  0.
        -11    1    3    3    0    0 -0.19529556423E+02 -0.29887824852E+02  0.43773733551E+02  0.56487391493E+02  0.51100000000E-03 0.  1.
         23    2    1    0    0    0 -0.65318122632E+00 -0.27075948585E+02  0.84644190044E+01  0.96624305708E+02  0.92363826398E+02 0.  0.
         11    1    3    3    0    0  0.18876375196E+02  0.28118762665E+01 -0.35309314546E+02  0.40136914215E+02  0.51100000000E-03 0. -1.
         22    1    1    0    0    0  0.65318122632E+00  0.27075948585E+02 -0.84644190044E+01  0.28375694292E+02  0.00000000000E+00 0.  1.
</event>
<event>
 5    1  0.1717510E-003  0.9118800E+02  0.7818608E-02  0.1130116E+00
         25   -1    0    0    0    0  0.00000000000E+00  0.00000000000E+00  0.99999998245E-14  0.12500000000E+03  0.12500000000E+03 0.  0.
        -11    1    3    3    0    0 -0.21900103965E+02  0.30597594809E+02 -0.30306375249E+02  0.48314632802E+02  0.51100000000E-03 0.  1.
         23    2    1    0    0    0 -0.89023512211E+01 -0.15156193337E+02 -0.22392561150E+02  0.96532670505E+02  0.92239729110E+02 0.  0.
         11    1    3    3    0    0  0.12997752744E+02 -0.45753788146E+02  0.79138140992E+01  0.48218037703E+02  0.51100000000E-03 0. -1.
         22    1    1    0    0    0  0.89023512211E+01  0.15156193337E+02  0.22392561150E+02  0.28467329495E+02  0.00000000000E+00 0.  1.
</event>
<event>
 5    1  0.1717510E-003  0.9118800E+02  0.7818608E-02  0.1130116E+00
         25   -1    0    0    0    0  0.00000000000E+00  0.00000000000E+00  0.99999998245E-14  0.12500000000E+03  0.12500000000E+03 0.  0.
        -11    1    3    3    0    0 -0.20198887390E+02  0.38627882568E+02  0.24426328571E+02  0.49967528368E+02  0.51100000000E-03 0.  1.
         23    2    1    0    0    0 -0.71572848979E+01 -0.40436322339E+01  0.29033900519E+02  0.94824760679E+02  0.89895440205E+02 0.  0.
         11    1    3    3    0    0  0.13041602492E+02 -0.42671514802E+02  0.46075719477E+01  0.44857232310E+02  0.51100000000E-03 0. -1.
         22    1    1    0    0    0  0.71572848979E+01  0.40436322339E+01 -0.29033900519E+02  0.30175239321E+02  0.00000000000E+00 0.  1.
</event>
<event>
 5    1  0.1717510E-003  0.9118800E+02  0.7818608E-02  0.1130116E+00
         25   -1    0    0    0    0  0.00000000000E+00  0.00000000000E+00  0.99999998245E-14  0.12500000000E+03  0.12500000000E+03 0.  0.
        -11    1    3    3    0    0  0.32060880607E+01  0.44263010283E+02 -0.14262505745E+02  0.46614505794E+02  0.51100000000E-03 0. -1.
         23    2    1    0    0    0  0.34583788571E+01 -0.34786481390E+01 -0.28221270714E+02  0.96355602678E+02  0.91999460159E+02 0.  0.
         11    1    3    3    0    0  0.25229079642E+00 -0.47741658422E+02 -0.13958764969E+02  0.49741096884E+02  0.51100000000E-03 0.  1.
         22    1    1    0    0    0 -0.34583788571E+01  0.34786481390E+01  0.28221270714E+02  0.28644397322E+02  0.00000000000E+00 0.  1.
</event>
<event>
 5    1  0.1717510E-003  0.9118800E+02  0.7818608E-02  0.1130116E+00
         25   -1    0    0    0    0  0.00000000000E+00  0.00000000000E+00  0.99999998245E-14  0.12500000000E+03  0.12500000000E+03 0.  0.
        -11    1    3    3    0    0  0.17167296826E+02  0.12756894183E+02  0.26237701087E+02  0.33850722120E+02  0.51100000000E-03 0.  1.
         23    2    1    0    0    0 -0.40530097393E+01 -0.48316002050E+01 -0.28860721438E+02  0.95458292358E+02  0.90772094222E+02 0.  0.
         11    1    3    3    0    0 -0.21220306565E+02 -0.17588494388E+02 -0.55098422525E+02  0.61607570237E+02  0.51100000000E-03 0. -1.
         22    1    1    0    0    0  0.40530097393E+01  0.48316002050E+01  0.28860721438E+02  0.29541707642E+02  0.00000000000E+00 0. -1.
</event>
<event>
 5    1  0.1717510E-003  0.9118800E+02  0.7818608E-02  0.1130116E+00
         25   -1    0    0    0    0  0.00000000000E+00  0.00000000000E+00  0.99999998245E-14  0.12500000000E+03  0.12500000000E+03 0.  0.
        -11    1    3    3    0    0 -0.36752906558E+02 -0.14812231550E+02  0.30032103812E+02  0.49720273567E+02  0.51100000000E-03 0. -1.
         23    2    1    0    0    0 -0.21481109225E+02 -0.15407833501E+02 -0.13111919429E+02  0.95491326396E+02  0.90817573184E+02 0.  0.
         11    1    3    3    0    0  0.15271797332E+02 -0.59560195048E+00 -0.43144023241E+02  0.45771052829E+02  0.51100000000E-03 0.  1.
         22    1    1    0    0    0  0.21481109225E+02  0.15407833501E+02  0.13111919429E+02  0.29508673604E+02  0.00000000000E+00 0. -1.
</event>
<event>
 5    1  0.1717510E-003  0.9118800E+02  0.7818608E-02  0.1130116E+00
         25   -1    0    0    0    0  0.00000000000E+00  0.00000000000E+00  0.99999998245E-14  0.12500000000E+03  0.12500000000E+03 0.  0.
        -11    1    3    3    0    0  0.44898957611E+01  0.25438783859E+02 -0.52192203483E+02  0.58235015179E+02  0.51100000000E-03 0. -1.
         23    2    1    0    0    0 -0.93230830362E+00  0.25428498531E+02 -0.15758586061E+02  0.95069901922E+02  0.90235666344E+02 0.  0.
         11    1    3    3    0    0 -0.54222040647E+01 -0.10285328219E-01  0.36433617422E+02  0.36834886743E+02  0.51100000000E-03 0.  1.
         22    1    1    0    0    0  0.93230830362E+00 -0.25428498531E+02  0.15758586061E+02  0.29930098078E+02  0.00000000000E+00 0. -1.
</event>
<event>
 5    1  0.1717510E-003  0.9118800E+02  0.7818608E-02  0.1130116E+00
         25   -1    0    0    0    0  0.00000000000E+00  0.00000000000E+00  0.99999998245E-14  0.12500000000E+03  0.12500000000E+03 0.  0.
        -11    1    3    3    0    0  0.10326042756E+02  0.51597401468E+02 -0.33127683648E+02  0.62180080584E+02  0.51100000000E-03 0.  1.
         23    2    1    0    0    0  0.67706541639E+01  0.25528297072E+02 -0.11693677062E+02  0.96116132661E+02  0.91673513980E+02 0.  0.
         11    1    3    3    0    0 -0.35553885924E+01 -0.26069104396E+02  0.21434006586E+02  0.33936052078E+02  0.51100000000E-03 0. -1.
         22    1    1    0    0    0 -0.67706541639E+01 -0.25528297072E+02  0.11693677062E+02  0.28883867339E+02  0.00000000000E+00 0.  1.
</event>
<event>
 5    1  0.1717510E-003  0.9118800E+02  0.7818608E-02  0.1130116E+00
         25   -1    0    0    0    0  0.00000000000E+00  0.00000000000E+00  0.99999998245E-14  0.12500000000E+03  0.12500000000E+03 0.  0.
        -11    1    3    3    0    0 -0.21109318752E+02  0.21710684536E+02 -0.25170582878E+02  0.39376584462E+02  0.51100000000E-03 0.  1.
         23    2    1    0    0    0  0.61290021053E+01  0.14499503848E+02  0.24146557113E+02  0.96175418493E+02  0.91754316646E+02 0.  0.
         11    1    3    3    0    0  0.27238320857E+02 -0.72111806878E+01  0.49317139991E+02  0.56798834031E+02  0.51100000000E-03 0. -1.
         22    1    1    0    0    0 -0.61290021053E+01 -0.14499503848E+02 -0.24146557113E+02  0.28824581507E+02  0.00000000000E+00 0. -1.
</event>
<event>
 5    1  0.1717510E-003  0.9118800E+02  0.7818608E-02  0.1130116E+00
         25   -1    0    0    0    0  0.00000000000E+00  0.00000000000E+00  0.99999998245E-14  0.12500000000E+03  0.12500000000E+03 0.  0.
        -11    1    3    3    0    0 -0.44320466888E+02  0.80606797196E+01 -0.40959577282E+01  0.45233341825E+02  0.51100000000E-03 0.  1.
         23    2    1    0    0    0 -0.90879878549E+01 -0.23657217109E+02  0.14084760044E+02  0.96006278091E+02  0.91523600906E+02 0.  0.
         11    1    3    3    0    0  0.35232479033E+02 -0.31717896829E+02  0.18180717772E+02  0.50772936266E+02  0.51100000000E-03 0. -1.
         22    1    1    0    0    0  0.90879878549E+01  0.23657217109E+02 -0.14084760044E+02  0.28993721909E+02  0.00000000000E+00 0.  1.
</event>
<event>
 5    1  0.1717510E-003  0.9118800E+02  0.7818608E-02  0.1130116E+00
         25   -1    0    0    0    0  0.00000000000E+00  0.00000000000E+00  0.99999998245E-14  0.12500000000E+03  0.12500000000E+03 0.  0.
        -11    1    3    3    0    0 -0.32313534003E+02 -0.47411265001E+01 -0.48776037078E+02  0.58700464679E+02  0.51100000000E-03 0.  1.
         23    2    1    0    0    0  0.61625448170E+00 -0.27721522525E+01 -0.26134760313E+02  0.98711403721E+02  0.95146470929E+02 0.  0.
         11    1    3    3    0    0  0.32929788484E+02  0.19689742477E+01  0.22641276765E+02  0.40010939042E+02  0.51100000000E-03 0. -1.
         22    1    1    0    0    0 -0.61625448170E+00  0.27721522525E+01  0.26134760313E+02  0.26288596279E+02  0.00000000000E+00 0.  1.
</event>
<event>
 5    1  0.1717510E-003  0.9118800E+02  0.7818608E-02  0.1130116E+00
         25   -1    0    0    0    0  0.00000000000E+00  0.00000000000E+00  0.99999998245E-14  0.12500000000E+03  0.12500000000E+03 0.  0.
        -11    1    3    3    0    0 -0.20781725368E+02 -0.75804264515E+01 -0.35246371673E+02  0.41613095184E+02  0.51100000000E-03 0.  1.
         23    2    1    0    0    0 -0.11034353163E+02 -0.33503461289E+00  0.22134545306E+02  0.10026526140E+03  0.97166431184E+02 0.  0.
         11    1    3    3    0    0  0.97473722049E+01  0.72453918386E+01  0.57380916978E+02  0.58652166212E+02  0.51100000000E-03 0. -1.
         22    1    1    0    0    0  0.11034353163E+02  0.33503461289E+00 -0.22134545306E+02  0.24734738604E+02  0.00000000000E+00 0. -1.
</event>
<event>
 5    1  0.1717510E-003  0.9118800E+02  0.7818608E-02  0.1130116E+00
         25   -1    0    0    0    0  0.00000000000E+00  0.00000000000E+00  0.99999998245E-14  0.12500000000E+03  0.12500000000E+03 0.  0.
        -11    1    3    3    0    0  0.56518410635E+02 -0.14123811308E+02 -0.14031198446E+02  0.59922344052E+02  0.51100000000E-03 0.  1.
         23    2    1    0    0    0  0.21500486177E+02 -0.17732193837E+02 -0.10153702616E+02  0.95338589364E+02  0.90607104252E+02 0.  0.
         11    1    3    3    0    0 -0.35017924458E+02 -0.36083825289E+01  0.38774958300E+01  0.35416245312E+02  0.51100000000E-03 0. -1.
         22    1    1    0    0    0 -0.21500486177E+02  0.17732193837E+02  0.10153702616E+02  0.29661410636E+02  0.00000000000E+00 0.  1.
</event>
<event>
 5    1  0.1717510E-003  0.9118800E+02  0.7818608E-02  0.1130116E+00
         25   -1    0    0    0    0  0.00000000000E+00  0.00000000000E+00  0.99999998245E-14  0.12500000000E+03  0.12500000000E+03 0.  0.
        -11    1    3    3    0    0  0.35219851579E+02 -0.12890015000E+02  0.32461549848E+02  0.49601841203E+02  0.51100000000E-03 0.  1.
         23    2    1    0    0    0  0.18203565973E+02  0.21457951557E+02  0.58677317077E+01  0.96255543586E+02  0.91863408910E+02 0.  0.
         11    1    3    3    0    0 -0.17016285606E+02  0.34347966557E+02 -0.26593818141E+02  0.46653702383E+02  0.51100000000E-03 0. -1.
         22    1    1    0    0    0 -0.18203565973E+02 -0.21457951557E+02 -0.58677317077E+01  0.28744456414E+02  0.00000000000E+00 0.  1.
</event>
<event>
 5    1  0.1717510E-003  0.9118800E+02  0.7818608E-02  0.1130116E+00
         25   -1    0    0    0    0  0.00000000000E+00  0.00000000000E+00  0.99999998245E-14  0.12500000000E+03  0.12500000000E+03 0.  0.
        -11    1    3    3    0    0  0.71020998404E+01  0.85983129851E+01  0.34417970379E+02  0.36179655797E+02  0.51100000000E-03 0. -1.
         23    2    1    0    0    0  0.87592439922E+01 -0.23050555667E+02 -0.15909457930E+02  0.95654415604E+02  0.91041770090E+02 0.  0.
         11    1    3    3    0    0  0.16571441518E+01 -0.31648868653E+02 -0.50327428309E+02  0.59474759807E+02  0.51100000000E-03 0.  1.
         22    1    1    0    0    0 -0.87592439922E+01  0.23050555667E+02  0.15909457930E+02  0.29345584396E+02  0.00000000000E+00 0.  1.
</event>
<event>
 5    1  0.1717510E-003  0.9118800E+02  0.7818608E-02  0.1130116E+00
         25   -1    0    0    0    0  0.00000000000E+00  0.00000000000E+00  0.99999998245E-14  0.12500000000E+03  0.12500000000E+03 0.  0.
        -11    1    3    3    0    0  0.20559542220E+02  0.25906718422E+02 -0.84390620398E+01  0.34133130593E+02  0.51100000000E-03 0.  1.
         23    2    1    0    0    0 -0.18736790872E+02 -0.15349058171E+02  0.15832534685E+02  0.96063343775E+02  0.91601506230E+02 0.  0.
         11    1    3    3    0    0 -0.39296333093E+02 -0.41255776594E+02  0.24271596725E+02  0.61930213182E+02  0.51100000000E-03 0. -1.
         22    1    1    0    0    0  0.18736790872E+02  0.15349058171E+02 -0.15832534685E+02  0.28936656225E+02  0.00000000000E+00 0. -1.
</event>
<event>
 5    1  0.1717510E-003  0.9118800E+02  0.7818608E-02  0.1130116E+00
         25   -1    0    0    0    0  0.00000000000E+00  0.00000000000E+00  0.99999998245E-14  0.12500000000E+03  0.12500000000E+03 0.  0.
        -11    1    3    3    0    0  0.13748653561E+02 -0.36226356690E+02  0.46423882356E+02  0.60469424067E+02  0.51100000000E-03 0. -1.
         23    2    1    0    0    0  0.73104010562E+01 -0.76995431275E+01  0.28052692580E+02  0.95005358996E+02  0.90146213170E+02 0.  0.
         11    1    3    3    0    0 -0.64382525050E+01  0.28526813563E+02 -0.18371189776E+02  0.34535934928E+02  0.51100000000E-03 0.  1.
         22    1    1    0    0    0 -0.73104010562E+01  0.76995431275E+01 -0.28052692580E+02  0.29994641004E+02  0.00000000000E+00 0. -1.
</event>
<event>
 5    1  0.1717510E-003  0.9118800E+02  0.7818608E-02  0.1130116E+00
         25   -1    0    0    0    0  0.00000000000E+00  0.00000000000E+00  0.99999998245E-14  0.12500000000E+03  0.12500000000E+03 0.  0.
        -11    1    3    3    0    0 -0.29209771958E+02 -0.11568457095E+02  0.11489911998E+01  0.31438195853E+02  0.51100000000E-03 0. -1.
         23    2    1    0    0    0  0.27486844457E+02  0.79807252126E+01 -0.13769392550E+02  0.93238155527E+02  0.87661501709E+02 0.  0.
         11    1    3    3    0    0  0.56696616415E+02  0.19549182308E+02 -0.14918383750E+02  0.61799959675E+02  0.51100000000E-03 0.  1.
         22    1    1    0    0    0 -0.27486844457E+02 -0.79807252126E+01  0.13769392550E+02  0.31761844473E+02  0.00000000000E+00 0.  1.
</event>
<event>
 5    1  0.1717510E-003  0.9118800E+02  0.7818608E-02  0.1130116E+00
         25   -1    0    0    0    0  0.00000000000E+00  0.00000000000E+00  0.99999998245E-14  0.12500000000E+03  0.12500000000E+03 0.  0.
        -11    1    3    3    0    0  0.34205573991E+02 -0.41888434781E+02 -0.38088459507E+01  0.54214108571E+02  0.51100000000E-03 0.  1.
         23    2    1    0    0    0  0.10395625108E+02 -0.15113147728E+02  0.20483813566E+02  0.97503402504E+02  0.93545981346E+02 0.  0.
         11    1    3    3    0    0 -0.23809948883E+02  0.26775287052E+02  0.24292659517E+02  0.43289293933E+02  0.51100000000E-03 0. -1.
         22    1    1    0    0    0 -0.10395625108E+02  0.15113147728E+02 -0.20483813566E+02  0.27496597496E+02  0.00000000000E+00 0.  1.
</event>
<event>
 5    1  0.1717510E-003  0.9118800E+02  0.7818608E-02  0.1130116E+00
         25   -1    0    0    0    0  0.00000000000E+00  0.00000000000E+00  0.99999998245E-14  0.12500000000E+03  0.12500000000E+03 0.  0.
        -11    1    3    3    0    0 -0.15814361875E+02  0.41504733035E+02  0.21662178495E+02  0.49416463685E+02  0.51100000000E-03 0.  1.
         23    2    1    0    0    0 -0.25686286589E+02 -0.37248261469E+01  0.53594750986E+01  0.98497478952E+02  0.94865007974E+02 0.  0.
         11    1    3    3    0    0 -0.98719247145E+01 -0.45229559181E+02 -0.16302703396E+02  0.49081015267E+02  0.51100000000E-03 0. -1.
         22    1    1    0    0    0  0.25686286589E+02  0.37248261469E+01 -0.53594750986E+01  0.26502521048E+02  0.00000000000E+00 0. -1.
</event>
<event>
 5    1  0.1717510E-003  0.9118800E+02  0.7818608E-02  0.1130116E+00
         25   -1    0    0    0    0  0.00000000000E+00  0.00000000000E+00  0.99999998245E-14  0.12500000000E+03  0.12500000000E+03 0.  0.
        -11    1    3    3    0    0 -0.56872226132E+01 -0.30331914259E+02 -0.50113719772E+02  0.58853669667E+02  0.51100000000E-03 0.  1.
         23    2    1    0    0    0 -0.53094661824E+01  0.25721810837E+00 -0.27743738232E+02  0.96751608835E+02  0.92535950899E+02 0.  0.
         11    1    3    3    0    0  0.37775643088E+00  0.30589132367E+02  0.22369981539E+02  0.37897939168E+02  0.51100000000E-03 0. -1.
         22    1    1    0    0    0  0.53094661824E+01 -0.25721810837E+00  0.27743738232E+02  0.28248391165E+02  0.00000000000E+00 0.  1.
</event>
<event>
 5    1  0.1717510E-003  0.9118800E+02  0.7818608E-02  0.1130116E+00
         25   -1    0    0    0    0  0.00000000000E+00  0.00000000000E+00  0.99999998245E-14  0.12500000000E+03  0.12500000000E+03 0.  0.
        -11    1    3    3    0    0 -0.31944398115E+02 -0.14053598591E+02 -0.17013445716E+02  0.38825320857E+02  0.51100000000E-03 0.  1.
         23    2    1    0    0    0  0.22436161161E+02 -0.10448056281E+02 -0.19663893079E+02  0.93389686830E+02  0.87877310539E+02 0.  0.
         11    1    3    3    0    0  0.54380559276E+02  0.36055423105E+01 -0.26504473632E+01  0.54564365973E+02  0.51100000000E-03 0. -1.
         22    1    1    0    0    0 -0.22436161161E+02  0.10448056281E+02  0.19663893079E+02  0.31610313170E+02  0.00000000000E+00 0. -1.
</event>
<event>
 5    1  0.1717510E-003  0.9118800E+02  0.7818608E-02  0.1130116E+00
         25   -1    0    0    0    0  0.00000000000E+00  0.00000000000E+00  0.99999998245E-14  0.12500000000E+03  0.12500000000E+03 0.  0.
        -11    1    3    3    0    0 -0.95396683225E+01 -0.54422882993E+02 -0.22988637497E+01  0.55300454245E+02  0.51100000000E-03 0. -1.
         23    2    1    0    0    0 -0.64227089628E+01 -0.18865128552E+02  0.19494757468E+02  0.97121875342E+02  0.93034772185E+02 0.  0.
         11    1    3    3    0    0  0.31169593597E+01  0.35557754441E+02  0.21793621218E+02  0.41821421097E+02  0.51100000000E-03 0.  1.
         22    1    1    0    0    0  0.64227089628E+01  0.18865128552E+02 -0.19494757468E+02  0.27878124658E+02  0.00000000000E+00 0.  1.
</event>
<event>
 5    1  0.1717510E-003  0.9118800E+02  0.7818608E-02  0.1130116E+00
         25   -1    0    0    0    0  0.00000000000E+00  0.00000000000E+00  0.99999998245E-14  0.12500000000E+03  0.12500000000E+03 0.  0.
        -11    1    3    3    0    0  0.21940663038E+02  0.30913723380E+02 -0.16346967250E+02  0.41282857536E+02  0.51100000000E-03 0.  1.
         23    2    1    0    0    0 -0.15259665517E+02 -0.10518352201E+02 -0.20797862820E+02  0.97142429708E+02  0.93062384597E+02 0.  0.
         11    1    3    3    0    0 -0.37200328556E+02 -0.41432075581E+02 -0.44508955696E+01  0.55859572172E+02  0.51100000000E-03 0. -1.
         22    1    1    0    0    0  0.15259665517E+02  0.10518352201E+02  0.20797862820E+02  0.27857570292E+02  0.00000000000E+00 0. -1.
</event>
<event>
 5    1  0.1717510E-003  0.9118800E+02  0.7818608E-02  0.1130116E+00
         25   -1    0    0    0    0  0.00000000000E+00  0.00000000000E+00  0.99999998245E-14  0.12500000000E+03  0.12500000000E+03 0.  0.
        -11    1    3    3    0    0 -0.66298652379E+01  0.11574647554E+02 -0.45813271900E+02  0.47715652164E+02  0.51100000000E-03 0.  1.
         23    2    1    0    0    0 -0.34509108903E+01  0.36267330350E+02 -0.33572931022E+02  0.75458404001E+02  0.56917492920E+02 0.  0.
         11    1    3    3    0    0  0.31789543476E+01  0.24692682796E+02  0.12240340877E+02  0.27742751837E+02  0.51100000000E-03 0. -1.
         22    1    1    0    0    0  0.34509108903E+01 -0.36267330350E+02  0.33572931022E+02  0.49541595999E+02  0.00000000000E+00 0.  1.
</event>
<event>
 5    1  0.1717510E-003  0.9118800E+02  0.7818608E-02  0.1130116E+00
         25   -1    0    0    0    0  0.00000000000E+00  0.00000000000E+00  0.99999998245E-14  0.12500000000E+03  0.12500000000E+03 0.  0.
        -11    1    3    3    0    0  0.70624052116E+01  0.25864934449E+02  0.31140498804E+02  0.41092615729E+02  0.51100000000E-03 0. -1.
         23    2    1    0    0    0 -0.24765958838E+02 -0.12136299185E+02  0.55909239530E+01  0.96859266077E+02  0.92681263043E+02 0.  0.
         11    1    3    3    0    0 -0.31828364050E+02 -0.38001233634E+02 -0.25549574851E+02  0.55766650348E+02  0.51100000000E-03 0.  1.
         22    1    1    0    0    0  0.24765958838E+02  0.12136299185E+02 -0.55909239530E+01  0.28140733923E+02  0.00000000000E+00 0.  1.
</event>
<event>
 5    1  0.1717510E-003  0.9118800E+02  0.7818608E-02  0.1130116E+00
         25   -1    0    0    0    0  0.00000000000E+00  0.00000000000E+00  0.99999998245E-14  0.12500000000E+03  0.12500000000E+03 0.  0.
        -11    1    3    3    0    0 -0.29323617525E+02  0.25437358859E+02 -0.16686069658E+02  0.42253505078E+02  0.51100000000E-03 0.  1.
         23    2    1    0    0    0  0.20604959975E+02  0.21627958670E+02  0.29023087349E+00  0.95126647229E+02  0.90314239228E+02 0.  0.
         11    1    3    3    0    0  0.49928577500E+02 -0.38094001891E+01  0.16976300531E+02  0.52873142151E+02  0.51100000000E-03 0. -1.
         22    1    1    0    0    0 -0.20604959975E+02 -0.21627958670E+02 -0.29023087349E+00  0.29873352771E+02  0.00000000000E+00 0. -1.
</event>
<event>
 5    1  0.1717510E-003  0.9118800E+02  0.7818608E-02  0.1130116E+00
         25   -1    0    0    0    0  0.00000000000E+00  0.00000000000E+00  0.99999998245E-14  0.12500000000E+03  0.12500000000E+03 0.  0.
        -11    1    3    3    0    0 -0.30467201856E+01  0.34507476743E+02  0.31444134798E+02  0.46784421216E+02  0.51100000000E-03 0. -1.
         23    2    1    0    0    0 -0.26900013321E+02  0.11518771323E+02 -0.41902654159E+01  0.95439026847E+02  0.90745560287E+02 0.  0.
         11    1    3    3    0    0 -0.23853293136E+02 -0.22988705420E+02 -0.35634400214E+02  0.48654605632E+02  0.51100000000E-03 0.  1.
         22    1    1    0    0    0  0.26900013321E+02 -0.11518771323E+02  0.41902654159E+01  0.29560973153E+02  0.00000000000E+00 0. -1.
</event>
<event>
 5    1  0.1717510E-003  0.9118800E+02  0.7818608E-02  0.1130116E+00
         25   -1    0    0    0    0  0.00000000000E+00  0.00000000000E+00  0.99999998245E-14  0.12500000000E+03  0.12500000000E+03 0.  0.
        -11    1    3    3    0    0 -0.31514969204E+02  0.73851625067E+01  0.79550457422E+01  0.33331916569E+02  0.51100000000E-03 0.  1.
         23    2    1    0    0    0  0.26361516604E+02 -0.13471360561E+02 -0.23811235155E+00  0.95394868511E+02  0.90684712756E+02 0.  0.
         11    1    3    3    0    0  0.57876485807E+02 -0.20856523068E+02 -0.81931580938E+01  0.62062951941E+02  0.51100000000E-03 0. -1.
         22    1    1    0    0    0 -0.26361516604E+02  0.13471360561E+02  0.23811235155E+00  0.29605131489E+02  0.00000000000E+00 0. -1.
</event>
<event>
 5    1  0.1717510E-003  0.9118800E+02  0.7818608E-02  0.1130116E+00
         25   -1    0    0    0    0  0.00000000000E+00  0.00000000000E+00  0.99999998245E-14  0.12500000000E+03  0.12500000000E+03 0.  0.
        -11    1    3    3    0    0  0.17805412156E+02  0.25749672771E+02 -0.27025273812E+02  0.41357511708E+02  0.51100000000E-03 0. -1.
         23    2    1    0    0    0  0.15077107271E+02 -0.17141141962E+02  0.11823808502E+02  0.99291239647E+02  0.95905213162E+02 0.  0.
         11    1    3    3    0    0 -0.27283048853E+01 -0.42890814733E+02  0.38849082314E+02  0.57933727939E+02  0.51100000000E-03 0.  1.
         22    1    1    0    0    0 -0.15077107271E+02  0.17141141962E+02 -0.11823808502E+02  0.25708760353E+02  0.00000000000E+00 0.  1.
</event>
<event>
 5    1  0.1717510E-003  0.9118800E+02  0.7818608E-02  0.1130116E+00
         25   -1    0    0    0    0  0.00000000000E+00  0.00000000000E+00  0.99999998245E-14  0.12500000000E+03  0.12500000000E+03 0.  0.
        -11    1    3    3    0    0  0.24208290200E+02 -0.28123959183E+02  0.60422720538E+01  0.37596641424E+02  0.51100000000E-03 0.  1.
         23    2    1    0    0    0 -0.27599001780E+02 -0.12434871119E+02 -0.83316999872E+01  0.93603373690E+02  0.88180742923E+02 0.  0.
         11    1    3    3    0    0 -0.51807291980E+02  0.15689088064E+02 -0.14373972041E+02  0.56006732266E+02  0.51100000000E-03 0. -1.
         22    1    1    0    0    0  0.27599001780E+02  0.12434871119E+02  0.83316999872E+01  0.31396626310E+02  0.00000000000E+00 0.  1.
</event>
<event>
 5    1  0.1717510E-003  0.9118800E+02  0.7818608E-02  0.1130116E+00
         25   -1    0    0    0    0  0.00000000000E+00  0.00000000000E+00  0.99999998245E-14  0.12500000000E+03  0.12500000000E+03 0.  0.
        -11    1    3    3    0    0 -0.12004122173E+02  0.21169370089E+02  0.37810167218E+02  0.44964985538E+02  0.51100000000E-03 0. -1.
         23    2    1    0    0    0  0.26932654920E+02  0.21558660262E+01  0.11683513467E+02  0.95563285742E+02  0.90916563043E+02 0.  0.
         11    1    3    3    0    0  0.38936777093E+02 -0.19013504063E+02 -0.26126653751E+02  0.50598300205E+02  0.51100000000E-03 0.  1.
         22    1    1    0    0    0 -0.26932654920E+02 -0.21558660262E+01 -0.11683513467E+02  0.29436714258E+02  0.00000000000E+00 0.  1.
</event>
<event>
 5    1  0.1717510E-003  0.9118800E+02  0.7818608E-02  0.1130116E+00
         25   -1    0    0    0    0  0.00000000000E+00  0.00000000000E+00  0.99999998245E-14  0.12500000000E+03  0.12500000000E+03 0.  0.
        -11    1    3    3    0    0  0.33425806390E+02 -0.10705955208E+02  0.14460388697E+02  0.37960569691E+02  0.51100000000E-03 0.  1.
         23    2    1    0    0    0  0.17191303717E+01  0.23368154071E+02 -0.18626986388E+02  0.95066896990E+02  0.90231503631E+02 0.  0.
         11    1    3    3    0    0 -0.31706676018E+02  0.34074109279E+02 -0.33087375085E+02  0.57106327299E+02  0.51100000000E-03 0. -1.
         22    1    1    0    0    0 -0.17191303717E+01 -0.23368154071E+02  0.18626986388E+02  0.29933103010E+02  0.00000000000E+00 0. -1.
</event>
<event>
 5    1  0.1717510E-003  0.9118800E+02  0.7818608E-02  0.1130116E+00
         25   -1    0    0    0    0  0.00000000000E+00  0.00000000000E+00  0.99999998245E-14  0.12500000000E+03  0.12500000000E+03 0.  0.
        -11    1    3    3    0    0  0.48877091435E+02  0.12243461359E+02 -0.20979794181E+02  0.54580437679E+02  0.51100000000E-03 0.  1.
         23    2    1    0    0    0  0.19654237865E+02 -0.15991468800E+02 -0.14725552742E+02  0.95693720059E+02  0.91095718971E+02 0.  0.
         11    1    3    3    0    0 -0.29222853570E+02 -0.28234930158E+02  0.62542414388E+01  0.41113282380E+02  0.51100000000E-03 0. -1.
         22    1    1    0    0    0 -0.19654237865E+02  0.15991468800E+02  0.14725552742E+02  0.29306279941E+02  0.00000000000E+00 0.  1.
</event>
<event>
 5    1  0.1717510E-003  0.9118800E+02  0.7818608E-02  0.1130116E+00
         25   -1    0    0    0    0  0.00000000000E+00  0.00000000000E+00  0.99999998245E-14  0.12500000000E+03  0.12500000000E+03 0.  0.
        -11    1    3    3    0    0 -0.21344148754E+02  0.53476049517E+02 -0.16205668810E+02  0.59815418245E+02  0.51100000000E-03 0.  1.
         23    2    1    0    0    0 -0.15290915425E+02  0.18493680687E+02 -0.17434248526E+02  0.95338891768E+02  0.90607521442E+02 0.  0.
         11    1    3    3    0    0  0.60532333295E+01 -0.34982368830E+02 -0.12285797161E+01  0.35523473522E+02  0.51100000000E-03 0. -1.
         22    1    1    0    0    0  0.15290915425E+02 -0.18493680687E+02  0.17434248526E+02  0.29661108232E+02  0.00000000000E+00 0.  1.
</event>
<event>
 5    1  0.1717510E-003  0.9118800E+02  0.7818608E-02  0.1130116E+00
         25   -1    0    0    0    0  0.00000000000E+00  0.00000000000E+00  0.99999998245E-14  0.12500000000E+03  0.12500000000E+03 0.  0.
        -11    1    3    3    0    0 -0.10724807747E+02  0.12518387484E+02  0.52521254740E+02  0.55047377105E+02  0.51100000000E-03 0. -1.
         23    2    1    0    0    0 -0.58257315565E+01  0.25148002475E+02  0.14538530922E+02  0.95373490620E+02  0.90655240638E+02 0.  0.
         11    1    3    3    0    0  0.48990761908E+01  0.12629614991E+02 -0.37982723818E+02  0.40326113516E+02  0.51100000000E-03 0.  1.
         22    1    1    0    0    0  0.58257315565E+01 -0.25148002475E+02 -0.14538530922E+02  0.29626509380E+02  0.00000000000E+00 0. -1.
</event>
<event>
 5    1  0.1717510E-003  0.9118800E+02  0.7818608E-02  0.1130116E+00
         25   -1    0    0    0    0  0.00000000000E+00  0.00000000000E+00  0.99999998245E-14  0.12500000000E+03  0.12500000000E+03 0.  0.
        -11    1    3    3    0    0  0.49180057094E+02  0.32513140989E+02 -0.15290310405E+02  0.60906288224E+02  0.51100000000E-03 0.  1.
         23    2    1    0    0    0  0.28207337012E+02  0.96259915871E+01 -0.75001037378E+00  0.95185974930E+02  0.90396314817E+02 0.  0.
         11    1    3    3    0    0 -0.20972720082E+02 -0.22887149402E+02  0.14540300031E+02  0.34279686706E+02  0.51100000000E-03 0. -1.
         22    1    1    0    0    0 -0.28207337012E+02 -0.96259915871E+01  0.75001037378E+00  0.29814025070E+02  0.00000000000E+00 0.  1.
</event>
<event>
 5    1  0.1717510E-003  0.9118800E+02  0.7818608E-02  0.1130116E+00
         25   -1    0    0    0    0  0.00000000000E+00  0.00000000000E+00  0.99999998245E-14  0.12500000000E+03  0.12500000000E+03 0.  0.
        -11    1    3    3    0    0  0.27370957257E+02  0.28033623774E+01  0.33031427457E+02  0.42989572479E+02  0.51100000000E-03 0.  1.
         23    2    1    0    0    0  0.19260517022E+02 -0.28192911378E+01 -0.20093784721E+02  0.97023651008E+02  0.92902705838E+02 0.  0.
         11    1    3    3    0    0 -0.81104402351E+01 -0.56226535152E+01 -0.53125212178E+02  0.54034078530E+02  0.51100000000E-03 0. -1.
         22    1    1    0    0    0 -0.19260517022E+02  0.28192911378E+01  0.20093784721E+02  0.27976348992E+02  0.00000000000E+00 0. -1.
</event>
<event>
 5    1  0.1717510E-003  0.9118800E+02  0.7818608E-02  0.1130116E+00
         25   -1    0    0    0    0  0.00000000000E+00  0.00000000000E+00  0.99999998245E-14  0.12500000000E+03  0.12500000000E+03 0.  0.
        -11    1    3    3    0    0  0.47270816348E+01 -0.28326040903E+02 -0.27361318853E+02  0.39665497144E+02  0.51100000000E-03 0. -1.
         23    2    1    0    0    0  0.16981939197E+02  0.13069879221E+02 -0.35438407474E+02  0.83586370287E+02  0.72605733738E+02 0.  0.
         11    1    3    3    0    0  0.12254857562E+02  0.41395920124E+02 -0.80770886212E+01  0.43920873143E+02  0.51100000000E-03 0.  1.
         22    1    1    0    0    0 -0.16981939197E+02 -0.13069879221E+02  0.35438407474E+02  0.41413629713E+02  0.00000000000E+00 0.  1.
</event>
<event>
 5    1  0.1717510E-003  0.9118800E+02  0.7818608E-02  0.1130116E+00
         25   -1    0    0    0    0  0.00000000000E+00  0.00000000000E+00  0.99999998245E-14  0.12500000000E+03  0.12500000000E+03 0.  0.
        -11    1    3    3    0    0 -0.16834774499E+02 -0.29237272455E+02  0.42887600918E+02  0.54567151710E+02  0.51100000000E-03 0. -1.
         23    2    1    0    0    0  0.80506904751E+01 -0.25726023755E+02  0.93674163310E+01  0.96462473757E+02  0.92144551870E+02 0.  0.
         11    1    3    3    0    0  0.24885464974E+02  0.35112487005E+01 -0.33520184587E+02  0.41895322047E+02  0.51100000000E-03 0.  1.
         22    1    1    0    0    0 -0.80506904751E+01  0.25726023755E+02 -0.93674163310E+01  0.28537526243E+02  0.00000000000E+00 0. -1.
</event>
<event>
 5    1  0.1717510E-003  0.9118800E+02  0.7818608E-02  0.1130116E+00
         25   -1    0    0    0    0  0.00000000000E+00  0.00000000000E+00  0.99999998245E-14  0.12500000000E+03  0.12500000000E+03 0.  0.
        -11    1    3    3    0    0  0.17184842100E+02 -0.36426779050E+02 -0.40573810716E+00  0.40278948021E+02  0.51100000000E-03 0.  1.
         23    2    1    0    0    0  0.22513693517E+02  0.18659525245E+02 -0.24187274747E+01  0.95658995915E+02  0.91048058621E+02 0.  0.
         11    1    3    3    0    0  0.53288514169E+01  0.55086304295E+02 -0.20129893675E+01  0.55380047894E+02  0.51100000000E-03 0. -1.
         22    1    1    0    0    0 -0.22513693517E+02 -0.18659525245E+02  0.24187274747E+01  0.29341004085E+02  0.00000000000E+00 0.  1.
</event>
<event>
 5    1  0.1717510E-003  0.9118800E+02  0.7818608E-02  0.1130116E+00
         25   -1    0    0    0    0  0.00000000000E+00  0.00000000000E+00  0.99999998245E-14  0.12500000000E+03  0.12500000000E+03 0.  0.
        -11    1    3    3    0    0  0.59261997241E+02  0.24996993569E+01  0.14316931480E+02  0.61018090278E+02  0.51100000000E-03 0.  1.
         23    2    1    0    0    0  0.28246739759E+02 -0.65609912689E+01  0.94921452554E+00  0.95985763466E+02  0.91495578398E+02 0.  0.
         11    1    3    3    0    0 -0.31015257482E+02 -0.90606906258E+01 -0.13367716955E+02  0.34967673188E+02  0.51100000000E-03 0. -1.
         22    1    1    0    0    0 -0.28246739759E+02  0.65609912689E+01 -0.94921452554E+00  0.29014236534E+02  0.00000000000E+00 0.  1.
</event>
<event>
 5    1  0.1717510E-003  0.9118800E+02  0.7818608E-02  0.1130116E+00
         25   -1    0    0    0    0  0.00000000000E+00  0.00000000000E+00  0.99999998245E-14  0.12500000000E+03  0.12500000000E+03 0.  0.
        -11    1    3    3    0    0 -0.24483482064E+02 -0.22205129402E+02 -0.12584072022E+02  0.35367605724E+02  0.51100000000E-03 0. -1.
         23    2    1    0    0    0  0.85287412826E+01  0.16550491931E+02  0.21442838208E+02  0.96601874685E+02  0.92333464525E+02 0.  0.
         11    1    3    3    0    0  0.33012223346E+02  0.38755621332E+02  0.34026910230E+02  0.61234268961E+02  0.51100000000E-03 0.  1.
         22    1    1    0    0    0 -0.85287412826E+01 -0.16550491931E+02 -0.21442838208E+02  0.28398125315E+02  0.00000000000E+00 0.  1.
</event>
<event>
 5    1  0.1717510E-003  0.9118800E+02  0.7818608E-02  0.1130116E+00
         25   -1    0    0    0    0  0.00000000000E+00  0.00000000000E+00  0.99999998245E-14  0.12500000000E+03  0.12500000000E+03 0.  0.
        -11    1    3    3    0    0 -0.43518429612E+02  0.30855165751E+00 -0.19128172809E+02  0.47537731490E+02  0.51100000000E-03 0.  1.
         23    2    1    0    0    0 -0.16598843053E+02 -0.21858255540E+02  0.12706427457E+02  0.94755029763E+02  0.89798426716E+02 0.  0.
         11    1    3    3    0    0  0.26919586559E+02 -0.22166807197E+02  0.31834600266E+02  0.47217298273E+02  0.51100000000E-03 0. -1.
         22    1    1    0    0    0  0.16598843053E+02  0.21858255540E+02 -0.12706427457E+02  0.30244970237E+02  0.00000000000E+00 0. -1.
</event>
<event>
 5    1  0.1717510E-003  0.9118800E+02  0.7818608E-02  0.1130116E+00
         25   -1    0    0    0    0  0.00000000000E+00  0.00000000000E+00  0.99999998245E-14  0.12500000000E+03  0.12500000000E+03 0.  0.
        -11    1    3    3    0    0 -0.27005771232E+01  0.43102523910E+02 -0.36921847680E+01  0.43344583431E+02  0.51100000000E-03 0.  1.
         23    2    1    0    0    0 -0.16672476541E+02 -0.37939766210E+01 -0.23332888194E+02  0.96072687576E+02  0.91614255954E+02 0.  0.
         11    1    3    3    0    0 -0.13971899417E+02 -0.46896500531E+02 -0.19640703426E+02  0.52728104145E+02  0.51100000000E-03 0. -1.
         22    1    1    0    0    0  0.16672476541E+02  0.37939766210E+01  0.23332888194E+02  0.28927312424E+02  0.00000000000E+00 0. -1.
</event>
<event>
 5    1  0.1717510E-003  0.9118800E+02  0.7818608E-02  0.1130116E+00
         25   -1    0    0    0    0  0.00000000000E+00  0.00000000000E+00  0.99999998245E-14  0.12500000000E+03  0.12500000000E+03 0.  0.
        -11    1    3    3    0    0 -0.31838947030E+02  0.45121413223E+02 -0.23283817722E+02  0.59931599738E+02  0.51100000000E-03 0.  1.
         23    2    1    0    0    0 -0.11091833915E+02  0.32974213789E+02 -0.56324131575E+01  0.89757247092E+02  0.82548844770E+02 0.  0.
         11    1    3    3    0    0  0.20747113114E+02 -0.12147199434E+02  0.17651404565E+02  0.29825647353E+02  0.51100000000E-03 0. -1.
         22    1    1    0    0    0  0.11091833915E+02 -0.32974213789E+02  0.56324131575E+01  0.35242752908E+02  0.00000000000E+00 0.  1.
</event>
<event>
 5    1  0.1717510E-003  0.9118800E+02  0.7818608E-02  0.1130116E+00
         25   -1    0    0    0    0  0.00000000000E+00  0.00000000000E+00  0.99999998245E-14  0.12500000000E+03  0.12500000000E+03 0.  0.
        -11    1    3    3    0    0  0.21192632496E+02  0.18755081017E+02 -0.33718428158E+02  0.44020598971E+02  0.51100000000E-03 0. -1.
         23    2    1    0    0    0 -0.29430513552E+01 -0.23452662116E+02 -0.18551709422E+02  0.94952457103E+02  0.90072827622E+02 0.  0.
         11    1    3    3    0    0 -0.24135683851E+02 -0.42207743133E+02  0.15166718735E+02  0.50931858133E+02  0.51100000000E-03 0.  1.
         22    1    1    0    0    0  0.29430513552E+01  0.23452662116E+02  0.18551709422E+02  0.30047542897E+02  0.00000000000E+00 0.  1.
</event>
<event>
 5    1  0.1717510E-003  0.9118800E+02  0.7818608E-02  0.1130116E+00
         25   -1    0    0    0    0  0.00000000000E+00  0.00000000000E+00  0.99999998245E-14  0.12500000000E+03  0.12500000000E+03 0.  0.
        -11    1    3    3    0    0 -0.15653471153E+02 -0.40598011164E+01 -0.43619114369E+02  0.46520321181E+02  0.51100000000E-03 0. -1.
         23    2    1    0    0    0 -0.24650686425E+02 -0.15338646202E+02  0.34606429244E+01  0.95761216544E+02  0.91188289468E+02 0.  0.
         11    1    3    3    0    0 -0.89972152723E+01 -0.11278845086E+02  0.47079757293E+02  0.49240895363E+02  0.51100000000E-03 0.  1.
         22    1    1    0    0    0  0.24650686425E+02  0.15338646202E+02 -0.34606429244E+01  0.29238783456E+02  0.00000000000E+00 0. -1.
</event>
<event>
 5    1  0.1717510E-003  0.9118800E+02  0.7818608E-02  0.1130116E+00
         25   -1    0    0    0    0  0.00000000000E+00  0.00000000000E+00  0.99999998245E-14  0.12500000000E+03  0.12500000000E+03 0.  0.
        -11    1    3    3    0    0 -0.85056873923E+01  0.45095318035E+00  0.60152823898E+02  0.60752878944E+02  0.51100000000E-03 0.  1.
         23    2    1    0    0    0  0.12045559094E+01  0.92616836218E+01  0.28295212726E+02  0.95203208198E+02  0.90420141835E+02 0.  0.
         11    1    3    3    0    0  0.97102433017E+01  0.88107304414E+01 -0.31857611172E+02  0.34450329254E+02  0.51100000000E-03 0. -1.
         22    1    1    0    0    0 -0.12045559094E+01 -0.92616836218E+01 -0.28295212726E+02  0.29796791802E+02  0.00000000000E+00 0.  1.
</event>
<event>
 5    1  0.1717510E-003  0.9118800E+02  0.7818608E-02  0.1130116E+00
         25   -1    0    0    0    0  0.00000000000E+00  0.00000000000E+00  0.99999998245E-14  0.12500000000E+03  0.12500000000E+03 0.  0.
        -11    1    3    3    0    0 -0.12133782789E+02 -0.34854099582E+02 -0.18552102682E+00  0.36906250972E+02  0.51100000000E-03 0.  1.
         23    2    1    0    0    0 -0.18382013768E+02  0.23241817203E+02  0.10270882179E+01  0.95349782341E+02  0.90622544574E+02 0.  0.
         11    1    3    3    0    0 -0.62482309782E+01  0.58095916785E+02  0.12126092447E+01  0.58443531369E+02  0.51100000000E-03 0. -1.
         22    1    1    0    0    0  0.18382013768E+02 -0.23241817203E+02 -0.10270882179E+01  0.29650217659E+02  0.00000000000E+00 0. -1.
</event>
<event>
 5    1  0.1717510E-003  0.9118800E+02  0.7818608E-02  0.1130116E+00
         25   -1    0    0    0    0  0.00000000000E+00  0.00000000000E+00  0.99999998245E-14  0.12500000000E+03  0.12500000000E+03 0.  0.
        -11    1    3    3    0    0  0.77397348256E+01  0.52589842158E+02  0.20666845037E+02  0.57032565061E+02  0.51100000000E-03 0. -1.
         23    2    1    0    0    0  0.63893723831E+01  0.14438840811E+02  0.24977837209E+02  0.95450100592E+02  0.90760812843E+02 0.  0.
         11    1    3    3    0    0 -0.13503624424E+01 -0.38151001347E+02  0.43109921716E+01  0.38417535531E+02  0.51100000000E-03 0.  1.
         22    1    1    0    0    0 -0.63893723831E+01 -0.14438840811E+02 -0.24977837209E+02  0.29549899408E+02  0.00000000000E+00 0. -1.
</event>
<event>
 5    1  0.1717510E-003  0.9118800E+02  0.7818608E-02  0.1130116E+00
         25   -1    0    0    0    0  0.00000000000E+00  0.00000000000E+00  0.99999998245E-14  0.12500000000E+03  0.12500000000E+03 0.  0.
        -11    1    3    3    0    0 -0.47425098776E+01  0.53581810421E+02  0.31274101126E+01  0.53882116720E+02  0.51100000000E-03 0.  1.
         23    2    1    0    0    0 -0.15921739952E+02  0.18070271049E+02  0.18969882926E+02  0.94342326294E+02  0.89222091286E+02 0.  0.
         11    1    3    3    0    0 -0.11179230075E+02 -0.35511539372E+02  0.15842472813E+02  0.40460209574E+02  0.51100000000E-03 0. -1.
         22    1    1    0    0    0  0.15921739952E+02 -0.18070271049E+02 -0.18969882926E+02  0.30657673706E+02  0.00000000000E+00 0.  1.
</event>
<event>
 5    1  0.1717510E-003  0.9118800E+02  0.7818608E-02  0.1130116E+00
         25   -1    0    0    0    0  0.00000000000E+00  0.00000000000E+00  0.99999998245E-14  0.12500000000E+03  0.12500000000E+03 0.  0.
        -11    1    3    3    0    0  0.35400299432E+01  0.11869170646E+01  0.38705741494E+02  0.38885408690E+02  0.51100000000E-03 0.  1.
         23    2    1    0    0    0  0.26556687376E+02  0.21733457708E+01 -0.12897151737E+02  0.95397337971E+02  0.90688116602E+02 0.  0.
         11    1    3    3    0    0  0.23016657433E+02  0.98642870613E+00 -0.51602893231E+02  0.56511929281E+02  0.51100000000E-03 0. -1.
         22    1    1    0    0    0 -0.26556687376E+02 -0.21733457708E+01  0.12897151737E+02  0.29602662029E+02  0.00000000000E+00 0. -1.
</event>
<event>
 5    1  0.1717510E-003  0.9118800E+02  0.7818608E-02  0.1130116E+00
         25   -1    0    0    0    0  0.00000000000E+00  0.00000000000E+00  0.99999998245E-14  0.12500000000E+03  0.12500000000E+03 0.  0.
        -11    1    3    3    0    0 -0.10797105945E+02  0.40340936577E+02 -0.43798061867E+01  0.41989895966E+02  0.51100000000E-03 0.  1.
         23    2    1    0    0    0  0.28794247465E+02  0.42655157722E+01  0.13664668601E+01  0.95859469059E+02  0.91322873721E+02 0.  0.
         11    1    3    3    0    0  0.39591353409E+02 -0.36075420805E+02  0.57462730468E+01  0.53869573093E+02  0.51100000000E-03 0. -1.
         22    1    1    0    0    0 -0.28794247465E+02 -0.42655157722E+01 -0.13664668601E+01  0.29140530941E+02  0.00000000000E+00 0. -1.
</event>
<event>
 5    1  0.1717510E-003  0.9118800E+02  0.7818608E-02  0.1130116E+00
         25   -1    0    0    0    0  0.00000000000E+00  0.00000000000E+00  0.99999998245E-14  0.12500000000E+03  0.12500000000E+03 0.  0.
        -11    1    3    3    0    0  0.14975523216E+01 -0.46011110086E+02 -0.13928708279E+02  0.48096505371E+02  0.51100000000E-03 0. -1.
         23    2    1    0    0    0  0.15440125143E+01  0.43838134292E+00 -0.28250593527E+02  0.96703848540E+02  0.92471412528E+02 0.  0.
         11    1    3    3    0    0  0.46460192734E-01  0.46449491429E+02 -0.14321885248E+02  0.48607343169E+02  0.51100000000E-03 0.  1.
         22    1    1    0    0    0 -0.15440125143E+01 -0.43838134292E+00  0.28250593527E+02  0.28296151460E+02  0.00000000000E+00 0.  1.
</event>
<event>
 5    1  0.1717510E-003  0.9118800E+02  0.7818608E-02  0.1130116E+00
         25   -1    0    0    0    0  0.00000000000E+00  0.00000000000E+00  0.99999998245E-14  0.12500000000E+03  0.12500000000E+03 0.  0.
        -11    1    3    3    0    0 -0.42888607162E+02 -0.29953045439E+02 -0.19954219228E+02  0.55989181283E+02  0.51100000000E-03 0. -1.
         23    2    1    0    0    0 -0.41917900702E+01 -0.26547455172E+02 -0.11618431743E+02  0.95719862769E+02  0.91131584494E+02 0.  0.
         11    1    3    3    0    0  0.38696817092E+02  0.34055902676E+01  0.83357874857E+01  0.39730681487E+02  0.51100000000E-03 0.  1.
         22    1    1    0    0    0  0.41917900702E+01  0.26547455172E+02  0.11618431743E+02  0.29280137231E+02  0.00000000000E+00 0. -1.
</event>
<event>
 5    1  0.1717510E-003  0.9118800E+02  0.7818608E-02  0.1130116E+00
         25   -1    0    0    0    0  0.00000000000E+00  0.00000000000E+00  0.99999998245E-14  0.12500000000E+03  0.12500000000E+03 0.  0.
        -11    1    3    3    0    0  0.15341019408E+02  0.37209166989E+02 -0.70628402029E+01  0.40862607558E+02  0.51100000000E-03 0.  1.
         23    2    1    0    0    0 -0.27910166108E+02  0.40052152368E+01 -0.89367324064E+01  0.95421556712E+02  0.90721492370E+02 0.  0.
         11    1    3    3    0    0 -0.43251185516E+02 -0.33203951752E+02 -0.18738922035E+01  0.54558949153E+02  0.51100000000E-03 0. -1.
         22    1    1    0    0    0  0.27910166108E+02 -0.40052152368E+01  0.89367324064E+01  0.29578443288E+02  0.00000000000E+00 0. -1.
</event>
<event>
 5    1  0.1717510E-003  0.9118800E+02  0.7818608E-02  0.1130116E+00
         25   -1    0    0    0    0  0.00000000000E+00  0.00000000000E+00  0.99999998245E-14  0.12500000000E+03  0.12500000000E+03 0.  0.
        -11    1    3    3    0    0  0.22112189229E+02 -0.25611989459E+02  0.15010994283E+02  0.37016926752E+02  0.51100000000E-03 0. -1.
         23    2    1    0    0    0  0.57177247344E+01  0.12416090311E+02 -0.26205312727E+02  0.95443780859E+02  0.90752108597E+02 0.  0.
         11    1    3    3    0    0 -0.16394464494E+02  0.38028079770E+02 -0.41216307011E+02  0.58426854107E+02  0.51100000000E-03 0.  1.
         22    1    1    0    0    0 -0.57177247344E+01 -0.12416090311E+02  0.26205312727E+02  0.29556219141E+02  0.00000000000E+00 0.  1.
</event>
<event>
 5    1  0.1717510E-003  0.9118800E+02  0.7818608E-02  0.1130116E+00
         25   -1    0    0    0    0  0.00000000000E+00  0.00000000000E+00  0.99999998245E-14  0.12500000000E+03  0.12500000000E+03 0.  0.
        -11    1    3    3    0    0 -0.92731213752E+00 -0.37047871730E+02  0.34848871714E+02  0.50870900990E+02  0.51100000000E-03 0.  1.
         23    2    1    0    0    0  0.16162601829E+02 -0.24906365633E+02 -0.40252281135E+01  0.95037369803E+02  0.90190589591E+02 0.  0.
         11    1    3    3    0    0  0.17089913967E+02  0.12141506097E+02 -0.38874099828E+02  0.44166468813E+02  0.51100000000E-03 0. -1.
         22    1    1    0    0    0 -0.16162601829E+02  0.24906365633E+02  0.40252281135E+01  0.29962630197E+02  0.00000000000E+00 0. -1.
</event>
<event>
 5    1  0.1717510E-003  0.9118800E+02  0.7818608E-02  0.1130116E+00
         25   -1    0    0    0    0  0.00000000000E+00  0.00000000000E+00  0.99999998245E-14  0.12500000000E+03  0.12500000000E+03 0.  0.
        -11    1    3    3    0    0  0.23819082841E+02 -0.40081366157E+02  0.23235515401E+01  0.46682582538E+02  0.51100000000E-03 0. -1.
         23    2    1    0    0    0  0.27407636336E+02  0.83620058141E+01 -0.53172987241E+01  0.95855955385E+02  0.91318064184E+02 0.  0.
         11    1    3    3    0    0  0.35885534953E+01  0.48443371971E+02 -0.76408502641E+01  0.49173372847E+02  0.51100000000E-03 0.  1.
         22    1    1    0    0    0 -0.27407636336E+02 -0.83620058141E+01  0.53172987241E+01  0.29144044615E+02  0.00000000000E+00 0.  1.
</event>
<event>
 5    1  0.1717510E-003  0.9118800E+02  0.7818608E-02  0.1130116E+00
         25   -1    0    0    0    0  0.00000000000E+00  0.00000000000E+00  0.99999998245E-14  0.12500000000E+03  0.12500000000E+03 0.  0.
        -11    1    3    3    0    0  0.18695138025E+02 -0.51181647456E+02  0.15954066599E+02  0.56776768694E+02  0.51100000000E-03 0. -1.
         23    2    1    0    0    0  0.19651575411E+02 -0.41780837586E+02 -0.37976292339E+01  0.78672418655E+02  0.63585412349E+02 0.  0.
         11    1    3    3    0    0  0.95643738688E+00  0.94008098699E+01 -0.19751695832E+02  0.21895649961E+02  0.51100000000E-03 0.  1.
         22    1    1    0    0    0 -0.19651575411E+02  0.41780837586E+02  0.37976292339E+01  0.46327581345E+02  0.00000000000E+00 0. -1.
</event>
<event>
 5    1  0.1717510E-003  0.9118800E+02  0.7818608E-02  0.1130116E+00
         25   -1    0    0    0    0  0.00000000000E+00  0.00000000000E+00  0.99999998245E-14  0.12500000000E+03  0.12500000000E+03 0.  0.
        -11    1    3    3    0    0 -0.28815398990E+02  0.89583769109E+01  0.50665668056E+02  0.58971091695E+02  0.51100000000E-03 0. -1.
         23    2    1    0    0    0 -0.24902238823E+02  0.23565268911E+00  0.14928566089E+02  0.95964864112E+02  0.91467021532E+02 0.  0.
         11    1    3    3    0    0  0.39131601675E+01 -0.87227242218E+01 -0.35737101967E+02  0.36993772417E+02  0.51100000000E-03 0.  1.
         22    1    1    0    0    0  0.24902238823E+02 -0.23565268911E+00 -0.14928566089E+02  0.29035135888E+02  0.00000000000E+00 0. -1.
</event>
<event>
 5    1  0.1717510E-003  0.9118800E+02  0.7818608E-02  0.1130116E+00
         25   -1    0    0    0    0  0.00000000000E+00  0.00000000000E+00  0.99999998245E-14  0.12500000000E+03  0.12500000000E+03 0.  0.
        -11    1    3    3    0    0 -0.39062770667E+02  0.35917010286E+02 -0.90503866497E+01  0.53831600189E+02  0.51100000000E-03 0.  1.
         23    2    1    0    0    0 -0.49614274567E+00  0.31652014065E+02 -0.18962650488E+01  0.93287353104E+02  0.87731626430E+02 0.  0.
         11    1    3    3    0    0  0.38566627921E+02 -0.42649962214E+01  0.71541216010E+01  0.39455752916E+02  0.51100000000E-03 0. -1.
         22    1    1    0    0    0  0.49614274567E+00 -0.31652014065E+02  0.18962650488E+01  0.31712646896E+02  0.00000000000E+00 0.  1.
</event>
<event>
 5    1  0.1717510E-003  0.9118800E+02  0.7818608E-02  0.1130116E+00
         25   -1    0    0    0    0  0.00000000000E+00  0.00000000000E+00  0.99999998245E-14  0.12500000000E+03  0.12500000000E+03 0.  0.
        -11    1    3    3    0    0  0.15453521315E+02 -0.25164946399E+01  0.45450392899E+02  0.48071636973E+02  0.51100000000E-03 0.  1.
         23    2    1    0    0    0 -0.55777980924E+01  0.25694898622E+02  0.14285008049E+02  0.95076746472E+02  0.90245147337E+02 0.  0.
         11    1    3    3    0    0 -0.21031319408E+02  0.28211393262E+02 -0.31165384850E+02  0.47005109498E+02  0.51100000000E-03 0. -1.
         22    1    1    0    0    0  0.55777980924E+01 -0.25694898622E+02 -0.14285008049E+02  0.29923253528E+02  0.00000000000E+00 0.  1.
</event>
<event>
 5    1  0.1717510E-003  0.9118800E+02  0.7818608E-02  0.1130116E+00
         25   -1    0    0    0    0  0.00000000000E+00  0.00000000000E+00  0.99999998245E-14  0.12500000000E+03  0.12500000000E+03 0.  0.
        -11    1    3    3    0    0 -0.37315035488E+02 -0.46069157418E-01 -0.13707734730E+02  0.39753188395E+02  0.51100000000E-03 0. -1.
         23    2    1    0    0    0  0.17034843366E+02  0.14472578275E+02 -0.18181775630E+02  0.96186489706E+02  0.91769398094E+02 0.  0.
         11    1    3    3    0    0  0.54349878854E+02  0.14518647432E+02 -0.44740408995E+01  0.56433301311E+02  0.51100000000E-03 0.  1.
         22    1    1    0    0    0 -0.17034843366E+02 -0.14472578275E+02  0.18181775630E+02  0.28813510294E+02  0.00000000000E+00 0. -1.
</event>
<event>
 5    1  0.1717510E-003  0.9118800E+02  0.7818608E-02  0.1130116E+00
         25   -1    0    0    0    0  0.00000000000E+00  0.00000000000E+00  0.99999998245E-14  0.12500000000E+03  0.12500000000E+03 0.  0.
        -11    1    3    3    0    0  0.49038335781E+01 -0.19702413035E+02  0.33330001508E+02  0.39027191340E+02  0.51100000000E-03 0. -1.
         23    2    1    0    0    0  0.86580585249E+01 -0.14154706676E+02 -0.23490004016E+02  0.96240688688E+02  0.91843193389E+02 0.  0.
         11    1    3    3    0    0  0.37542249468E+01  0.55477063588E+01 -0.56820005523E+02  0.57213497347E+02  0.51100000000E-03 0.  1.
         22    1    1    0    0    0 -0.86580585249E+01  0.14154706676E+02  0.23490004016E+02  0.28759311312E+02  0.00000000000E+00 0.  1.
</event>
<event>
 5    1  0.1717510E-003  0.9118800E+02  0.7818608E-02  0.1130116E+00
         25   -1    0    0    0    0  0.00000000000E+00  0.00000000000E+00  0.99999998245E-14  0.12500000000E+03  0.12500000000E+03 0.  0.
        -11    1    3    3    0    0 -0.31773526266E+02 -0.12670562563E+01  0.15188020271E+02  0.35239727056E+02  0.51100000000E-03 0. -1.
         23    2    1    0    0    0  0.88448675685E+01  0.75965415417E+01 -0.27685022005E+02  0.94960033803E+02  0.90083341694E+02 0.  0.
         11    1    3    3    0    0  0.40618393835E+02  0.88635977979E+01 -0.42873042277E+02  0.59720306747E+02  0.51100000000E-03 0.  1.
         22    1    1    0    0    0 -0.88448675685E+01 -0.75965415417E+01  0.27685022005E+02  0.30039966197E+02  0.00000000000E+00 0.  1.
</event>
<event>
 5    1  0.1717510E-003  0.9118800E+02  0.7818608E-02  0.1130116E+00
         25   -1    0    0    0    0  0.00000000000E+00  0.00000000000E+00  0.99999998245E-14  0.12500000000E+03  0.12500000000E+03 0.  0.
        -11    1    3    3    0    0 -0.52679082633E+01  0.30186831046E+02 -0.15895917286E+02  0.34520657768E+02  0.51100000000E-03 0.  1.
         23    2    1    0    0    0  0.13886762104E+01 -0.40062372874E+01  0.31430297080E+02  0.93284988832E+02  0.87728257751E+02 0.  0.
         11    1    3    3    0    0  0.66565844738E+01 -0.34193068333E+02  0.47326214367E+02  0.58764331064E+02  0.51100000000E-03 0. -1.
         22    1    1    0    0    0 -0.13886762104E+01  0.40062372874E+01 -0.31430297080E+02  0.31715011168E+02  0.00000000000E+00 0. -1.
</event>
<event>
 5    1  0.1717510E-003  0.9118800E+02  0.7818608E-02  0.1130116E+00
         25   -1    0    0    0    0  0.00000000000E+00  0.00000000000E+00  0.99999998245E-14  0.12500000000E+03  0.12500000000E+03 0.  0.
        -11    1    3    3    0    0 -0.15121122482E+02  0.29300684375E+02  0.13929481157E+02  0.35793978482E+02  0.51100000000E-03 0. -1.
         23    2    1    0    0    0  0.20284063901E+02 -0.77529310417E+01 -0.18526115632E+02  0.96455856144E+02  0.92135574215E+02 0.  0.
         11    1    3    3    0    0  0.35405186384E+02 -0.37053615417E+02 -0.32455596789E+02  0.60661877662E+02  0.51100000000E-03 0.  1.
         22    1    1    0    0    0 -0.20284063901E+02  0.77529310417E+01  0.18526115632E+02  0.28544143856E+02  0.00000000000E+00 0.  1.
</event>
<event>
 5    1  0.1717510E-003  0.9118800E+02  0.7818608E-02  0.1130116E+00
         25   -1    0    0    0    0  0.00000000000E+00  0.00000000000E+00  0.99999998245E-14  0.12500000000E+03  0.12500000000E+03 0.  0.
        -11    1    3    3    0    0  0.44959519849E+02  0.23285940599E+02  0.12894805920E+02  0.52248152834E+02  0.51100000000E-03 0.  1.
         23    2    1    0    0    0  0.21377099095E+02 -0.12324463312E+02  0.16817047155E+02  0.95138890901E+02  0.90331183570E+02 0.  0.
         11    1    3    3    0    0 -0.23582420754E+02 -0.35610403911E+02  0.39222412350E+01  0.42890738066E+02  0.51100000000E-03 0. -1.
         22    1    1    0    0    0 -0.21377099095E+02  0.12324463312E+02 -0.16817047155E+02  0.29861109099E+02  0.00000000000E+00 0.  1.
</event>
<event>
 5    1  0.1717510E-003  0.9118800E+02  0.7818608E-02  0.1130116E+00
         25   -1    0    0    0    0  0.00000000000E+00  0.00000000000E+00  0.99999998245E-14  0.12500000000E+03  0.12500000000E+03 0.  0.
        -11    1    3    3    0    0  0.42193729163E+01 -0.13974466019E+02  0.32050170670E+02  0.35217925103E+02  0.51100000000E-03 0. -1.
         23    2    1    0    0    0 -0.14924990472E+00  0.21344347041E+02 -0.18306060360E+02  0.96880340115E+02  0.92709681418E+02 0.  0.
         11    1    3    3    0    0 -0.43686228210E+01  0.35318813060E+02 -0.50356231030E+02  0.61662415012E+02  0.51100000000E-03 0.  1.
         22    1    1    0    0    0  0.14924990472E+00 -0.21344347041E+02  0.18306060360E+02  0.28119659885E+02  0.00000000000E+00 0.  1.
</event>
<event>
 5    1  0.1717510E-003  0.9118800E+02  0.7818608E-02  0.1130116E+00
         25   -1    0    0    0    0  0.00000000000E+00  0.00000000000E+00  0.99999998245E-14  0.12500000000E+03  0.12500000000E+03 0.  0.
        -11    1    3    3    0    0 -0.67806586162E+00  0.46340948157E+02  0.34479731070E+02  0.57764998956E+02  0.51100000000E-03 0.  1.
         23    2    1    0    0    0  0.16491799766E+02  0.17281461440E+02  0.16041851566E+02  0.96225543086E+02  0.91822577679E+02 0.  0.
         11    1    3    3    0    0  0.17169865628E+02 -0.29059486717E+02 -0.18437879504E+02  0.38460544131E+02  0.51100000000E-03 0. -1.
         22    1    1    0    0    0 -0.16491799766E+02 -0.17281461440E+02 -0.16041851566E+02  0.28774456914E+02  0.00000000000E+00 0.  1.
</event>
<event>
 5    1  0.1717510E-003  0.9118800E+02  0.7818608E-02  0.1130116E+00
         25   -1    0    0    0    0  0.00000000000E+00  0.00000000000E+00  0.99999998245E-14  0.12500000000E+03  0.12500000000E+03 0.  0.
        -11    1    3    3    0    0  0.92780413920E+01 -0.16740316755E+02  0.29540045466E+02  0.35198502007E+02  0.51100000000E-03 0. -1.
         23    2    1    0    0    0 -0.66686961938E+01 -0.13560449934E+01 -0.27646780003E+02  0.96527999517E+02  0.92233398936E+02 0.  0.
         11    1    3    3    0    0 -0.15946737586E+02  0.15384271761E+02 -0.57186825470E+02  0.61329497510E+02  0.51100000000E-03 0.  1.
         22    1    1    0    0    0  0.66686961938E+01  0.13560449934E+01  0.27646780003E+02  0.28472000483E+02  0.00000000000E+00 0.  1.
</event>
<event>
 5    1  0.1717510E-003  0.9118800E+02  0.7818608E-02  0.1130116E+00
         25   -1    0    0    0    0  0.00000000000E+00  0.00000000000E+00  0.99999998245E-14  0.12500000000E+03  0.12500000000E+03 0.  0.
        -11    1    3    3    0    0 -0.58457630321E+02  0.16781523174E+02  0.30965380113E+01  0.60897476226E+02  0.51100000000E-03 0.  1.
         23    2    1    0    0    0 -0.22381073278E+02  0.16655484887E+02  0.62788318310E-01  0.97101584986E+02  0.93007506399E+02 0.  0.
         11    1    3    3    0    0  0.36076557042E+02 -0.12603828694E+00 -0.30337496929E+01  0.36204108760E+02  0.51100000000E-03 0. -1.
         22    1    1    0    0    0  0.22381073278E+02 -0.16655484887E+02 -0.62788318310E-01  0.27898415014E+02  0.00000000000E+00 0.  1.
</event>
<event>
 5    1  0.1717510E-003  0.9118800E+02  0.7818608E-02  0.1130116E+00
         25   -1    0    0    0    0  0.00000000000E+00  0.00000000000E+00  0.99999998245E-14  0.12500000000E+03  0.12500000000E+03 0.  0.
        -11    1    3    3    0    0 -0.54190327681E+02 -0.25273805946E+01  0.23316992285E+02  0.59047958443E+02  0.51100000000E-03 0. -1.
         23    2    1    0    0    0 -0.23281447671E+02  0.13338983299E+02  0.12182797949E+02  0.95531799393E+02  0.90873262560E+02 0.  0.
         11    1    3    3    0    0  0.30908880010E+02  0.15866363894E+02 -0.11134194335E+02  0.36483840950E+02  0.51100000000E-03 0.  1.
         22    1    1    0    0    0  0.23281447671E+02 -0.13338983299E+02 -0.12182797949E+02  0.29468200607E+02  0.00000000000E+00 0. -1.
</event>
<event>
 5    1  0.1717510E-003  0.9118800E+02  0.7818608E-02  0.1130116E+00
         25   -1    0    0    0    0  0.00000000000E+00  0.00000000000E+00  0.99999998245E-14  0.12500000000E+03  0.12500000000E+03 0.  0.
        -11    1    3    3    0    0  0.29220328732E+02 -0.17814159169E+02 -0.21765275275E+02  0.40557355513E+02  0.51100000000E-03 0.  1.
         23    2    1    0    0    0 -0.24273345276E+02 -0.13814101595E+02 -0.82828197807E+01  0.95868748786E+02  0.91335574649E+02 0.  0.
         11    1    3    3    0    0 -0.53493674008E+02  0.40000575740E+01  0.13482455495E+02  0.55311393273E+02  0.51100000000E-03 0. -1.
         22    1    1    0    0    0  0.24273345276E+02  0.13814101595E+02  0.82828197807E+01  0.29131251214E+02  0.00000000000E+00 0. -1.
</event>
<event>
 5    1  0.1717510E-003  0.9118800E+02  0.7818608E-02  0.1130116E+00
         25   -1    0    0    0    0  0.00000000000E+00  0.00000000000E+00  0.99999998245E-14  0.12500000000E+03  0.12500000000E+03 0.  0.
        -11    1    3    3    0    0 -0.28454067025E+02  0.19095425834E+02  0.15985006306E+02  0.37812559355E+02  0.51100000000E-03 0. -1.
         23    2    1    0    0    0 -0.32544972040E+01 -0.11239627716E+02 -0.26652648942E+02  0.95891845149E+02  0.91367178391E+02 0.  0.
         11    1    3    3    0    0  0.25199569821E+02 -0.30335053550E+02 -0.42637655247E+02  0.58079285794E+02  0.51100000000E-03 0.  1.
         22    1    1    0    0    0  0.32544972040E+01  0.11239627716E+02  0.26652648942E+02  0.29108154851E+02  0.00000000000E+00 0.  1.
</event>
<event>
 5    1  0.1717510E-003  0.9118800E+02  0.7818608E-02  0.1130116E+00
         25   -1    0    0    0    0  0.00000000000E+00  0.00000000000E+00  0.99999998245E-14  0.12500000000E+03  0.12500000000E+03 0.  0.
        -11    1    3    3    0    0 -0.23284292165E+02 -0.13019073604E+02  0.53178420219E+02  0.59494528458E+02  0.51100000000E-03 0. -1.
         23    2    1    0    0    0 -0.21089352303E+02 -0.51418512517E+01  0.14816547940E+02  0.98718266653E+02  0.95155486775E+02 0.  0.
         11    1    3    3    0    0  0.21949398617E+01  0.78772223521E+01 -0.38361872280E+02  0.39223738196E+02  0.51100000000E-03 0.  1.
         22    1    1    0    0    0  0.21089352303E+02  0.51418512517E+01 -0.14816547940E+02  0.26281733347E+02  0.00000000000E+00 0.  1.
</event>
<event>
 5    1  0.1717510E-003  0.9118800E+02  0.7818608E-02  0.1130116E+00
         25   -1    0    0    0    0  0.00000000000E+00  0.00000000000E+00  0.99999998245E-14  0.12500000000E+03  0.12500000000E+03 0.  0.
        -11    1    3    3    0    0 -0.30784667888E+01 -0.32646162603E+02  0.47555708114E+02  0.57764991690E+02  0.51100000000E-03 0.  1.
         23    2    1    0    0    0 -0.14725149840E+02 -0.38147361062E+01  0.23176656421E+02  0.97277452278E+02  0.93243568515E+02 0.  0.
         11    1    3    3    0    0 -0.11646683051E+02  0.28831426497E+02 -0.24379051693E+02  0.39512460588E+02  0.51100000000E-03 0. -1.
         22    1    1    0    0    0  0.14725149840E+02  0.38147361062E+01 -0.23176656421E+02  0.27722547722E+02  0.00000000000E+00 0.  1.
</event>
<event>
 5    1  0.1717510E-003  0.9118800E+02  0.7818608E-02  0.1130116E+00
         25   -1    0    0    0    0  0.00000000000E+00  0.00000000000E+00  0.99999998245E-14  0.12500000000E+03  0.12500000000E+03 0.  0.
        -11    1    3    3    0    0 -0.48742317158E+02  0.19477717851E+02  0.31246035482E+02  0.61086084407E+02  0.51100000000E-03 0.  1.
         23    2    1    0    0    0 -0.25675983048E+02  0.10859225411E+01  0.19057435832E+02  0.93005919395E+02  0.87329719161E+02 0.  0.
         11    1    3    3    0    0  0.23066334110E+02 -0.18391795310E+02 -0.12188599649E+02  0.31919834988E+02  0.51100000000E-03 0. -1.
         22    1    1    0    0    0  0.25675983048E+02 -0.10859225411E+01 -0.19057435832E+02  0.31994080605E+02  0.00000000000E+00 0.  1.
</event>
<event>
 5    1  0.1717510E-003  0.9118800E+02  0.7818608E-02  0.1130116E+00
         25   -1    0    0    0    0  0.00000000000E+00  0.00000000000E+00  0.99999998245E-14  0.12500000000E+03  0.12500000000E+03 0.  0.
        -11    1    3    3    0    0  0.90641267480E+01  0.28864233944E+02 -0.19497789989E+02  0.35992585481E+02  0.51100000000E-03 0.  1.
         23    2    1    0    0    0 -0.28509280888E+02 -0.11018208341E+02  0.79992914838E+00  0.94425175415E+02  0.89338087363E+02 0.  0.
         11    1    3    3    0    0 -0.37573407636E+02 -0.39882442285E+02  0.20297719137E+02  0.58432589934E+02  0.51100000000E-03 0. -1.
         22    1    1    0    0    0  0.28509280888E+02  0.11018208341E+02 -0.79992914838E+00  0.30574824585E+02  0.00000000000E+00 0. -1.
</event>
<event>
 5    1  0.1717510E-003  0.9118800E+02  0.7818608E-02  0.1130116E+00
         25   -1    0    0    0    0  0.00000000000E+00  0.00000000000E+00  0.99999998245E-14  0.12500000000E+03  0.12500000000E+03 0.  0.
        -11    1    3    3    0    0 -0.22672499980E+02 -0.39102792013E+01 -0.11817739892E+02  0.25864870291E+02  0.51100000000E-03 0. -1.
         23    2    1    0    0    0  0.37474366725E+02  0.11736595525E+01  0.65564722436E+00  0.87501526544E+02  0.79059355146E+02 0.  0.
         11    1    3    3    0    0  0.60146866705E+02  0.50839387537E+01  0.12473387116E+02  0.61636656253E+02  0.51100000000E-03 0.  1.
         22    1    1    0    0    0 -0.37474366725E+02 -0.11736595525E+01 -0.65564722436E+00  0.37498473456E+02  0.00000000000E+00 0.  1.
</event>
<event>
 5    1  0.1717510E-003  0.9118800E+02  0.7818608E-02  0.1130116E+00
         25   -1    0    0    0    0  0.00000000000E+00  0.00000000000E+00  0.99999998245E-14  0.12500000000E+03  0.12500000000E+03 0.  0.
        -11    1    3    3    0    0 -0.35785480014E+02  0.11577346564E+02 -0.25251469222E+02  0.45302011340E+02  0.51100000000E-03 0. -1.
         23    2    1    0    0    0 -0.86401618956E+01  0.23640247317E+02  0.15281562767E+02  0.95554459567E+02  0.90904427240E+02 0.  0.
         11    1    3    3    0    0  0.27145318118E+02  0.12062900753E+02  0.40533031990E+02  0.50252448227E+02  0.51100000000E-03 0.  1.
         22    1    1    0    0    0  0.86401618956E+01 -0.23640247317E+02 -0.15281562767E+02  0.29445540433E+02  0.00000000000E+00 0.  1.
</event>
<event>
 5    1  0.1717510E-003  0.9118800E+02  0.7818608E-02  0.1130116E+00
         25   -1    0    0    0    0  0.00000000000E+00  0.00000000000E+00  0.99999998245E-14  0.12500000000E+03  0.12500000000E+03 0.  0.
        -11    1    3    3    0    0 -0.19988165612E+02 -0.86185063522E+01 -0.30590085801E+02  0.37544090958E+02  0.51100000000E-03 0.  1.
         23    2    1    0    0    0 -0.10837912146E+02  0.27061875259E+02  0.11665815578E+02  0.93601008212E+02  0.88177389692E+02 0.  0.
         11    1    3    3    0    0  0.91502534651E+01  0.35680381611E+02  0.42255901379E+02  0.56056917254E+02  0.51100000000E-03 0. -1.
         22    1    1    0    0    0  0.10837912146E+02 -0.27061875259E+02 -0.11665815578E+02  0.31398991788E+02  0.00000000000E+00 0. -1.
</event>
<event>
 5    1  0.1717510E-003  0.9118800E+02  0.7818608E-02  0.1130116E+00
         25   -1    0    0    0    0  0.00000000000E+00  0.00000000000E+00  0.99999998245E-14  0.12500000000E+03  0.12500000000E+03 0.  0.
        -11    1    3    3    0    0  0.11387494388E+02  0.23850969705E+02  0.23358601437E+02  0.35272766345E+02  0.51100000000E-03 0.  1.
         23    2    1    0    0    0  0.63235173111E+01  0.18248668172E-01 -0.30217003345E+02  0.94128419293E+02  0.88921902944E+02 0.  0.
         11    1    3    3    0    0 -0.50639770765E+01 -0.23832721037E+02 -0.53575604782E+02  0.58855652948E+02  0.51100000000E-03 0. -1.
         22    1    1    0    0    0 -0.63235173111E+01 -0.18248668172E-01  0.30217003345E+02  0.30871580707E+02  0.00000000000E+00 0. -1.
</event>
<event>
 5    1  0.1717510E-003  0.9118800E+02  0.7818608E-02  0.1130116E+00
         25   -1    0    0    0    0  0.00000000000E+00  0.00000000000E+00  0.99999998245E-14  0.12500000000E+03  0.12500000000E+03 0.  0.
        -11    1    3    3    0    0  0.24879400779E+02  0.92191219068E+01  0.26888727601E+02  0.37775394956E+02  0.51100000000E-03 0. -1.
         23    2    1    0    0    0 -0.61126786449E+01  0.18547553389E+02 -0.21477251045E+02  0.95971584794E+02  0.91476205641E+02 0.  0.
         11    1    3    3    0    0 -0.30992079424E+02  0.93284314820E+01 -0.48365978646E+02  0.58196189837E+02  0.51100000000E-03 0.  1.
         22    1    1    0    0    0  0.61126786449E+01 -0.18547553389E+02  0.21477251045E+02  0.29028415206E+02  0.00000000000E+00 0.  1.
</event>
<event>
 5    1  0.1717510E-003  0.9118800E+02  0.7818608E-02  0.1130116E+00
         25   -1    0    0    0    0  0.00000000000E+00  0.00000000000E+00  0.99999998245E-14  0.12500000000E+03  0.12500000000E+03 0.  0.
        -11    1    3    3    0    0 -0.50451528611E+02  0.14337727598E+01  0.99148851842E+01  0.51436537520E+02  0.51100000000E-03 0.  1.
         23    2    1    0    0    0 -0.25662974135E+02 -0.19257712020E+02  0.22199345744E+02  0.85983866604E+02  0.76622233399E+02 0.  0.
         11    1    3    3    0    0  0.24788554476E+02 -0.20691484780E+02  0.12284460559E+02  0.34547329085E+02  0.51100000000E-03 0. -1.
         22    1    1    0    0    0  0.25662974135E+02  0.19257712020E+02 -0.22199345744E+02  0.39016133396E+02  0.00000000000E+00 0.  1.
</event>
<event>
 5    1  0.1717510E-003  0.9118800E+02  0.7818608E-02  0.1130116E+00
         25   -1    0    0    0    0  0.00000000000E+00  0.00000000000E+00  0.99999998245E-14  0.12500000000E+03  0.12500000000E+03 0.  0.
        -11    1    3    3    0    0 -0.72369593984E+01  0.59018895212E+02 -0.31251347206E+01  0.59543010007E+02  0.51100000000E-03 0.  1.
         23    2    1    0    0    0 -0.12837191675E+02  0.24695992334E+02 -0.10779753597E+02  0.95152242713E+02  0.90349657876E+02 0.  0.
         11    1    3    3    0    0 -0.56002322762E+01 -0.34322902878E+02 -0.76546188764E+01  0.35609232707E+02  0.51100000000E-03 0. -1.
         22    1    1    0    0    0  0.12837191675E+02 -0.24695992334E+02  0.10779753597E+02  0.29847757287E+02  0.00000000000E+00 0.  1.
</event>
<event>
 5    1  0.1717510E-003  0.9118800E+02  0.7818608E-02  0.1130116E+00
         25   -1    0    0    0    0  0.00000000000E+00  0.00000000000E+00  0.99999998245E-14  0.12500000000E+03  0.12500000000E+03 0.  0.
        -11    1    3    3    0    0  0.25796441028E+02 -0.27140962647E+02 -0.22036590323E+02  0.43447664337E+02  0.51100000000E-03 0. -1.
         23    2    1    0    0    0 -0.76741329333E+01 -0.19866855536E+02  0.18691218852E+02  0.96663699477E+02  0.92417124329E+02 0.  0.
         11    1    3    3    0    0 -0.33470573961E+02  0.72741071108E+01  0.40727809175E+02  0.53216035139E+02  0.51100000000E-03 0.  1.
         22    1    1    0    0    0  0.76741329333E+01  0.19866855536E+02 -0.18691218852E+02  0.28336300523E+02  0.00000000000E+00 0.  1.
</event>
<event>
 5    1  0.1717510E-003  0.9118800E+02  0.7818608E-02  0.1130116E+00
         25   -1    0    0    0    0  0.00000000000E+00  0.00000000000E+00  0.99999998245E-14  0.12500000000E+03  0.12500000000E+03 0.  0.
        -11    1    3    3    0    0 -0.29765816969E+02 -0.24171982621E+02  0.15451394269E+02  0.41340466722E+02  0.51100000000E-03 0.  1.
         23    2    1    0    0    0 -0.14295149821E+02  0.80028630196E+01 -0.24884699212E+02  0.95206621880E+02  0.90424860907E+02 0.  0.
         11    1    3    3    0    0  0.15470667148E+02  0.32174845640E+02 -0.40336093481E+02  0.53866155158E+02  0.51100000000E-03 0. -1.
         22    1    1    0    0    0  0.14295149821E+02 -0.80028630196E+01  0.24884699212E+02  0.29793378120E+02  0.00000000000E+00 0.  1.
</event>
<event>
 5    1  0.1717510E-003  0.9118800E+02  0.7818608E-02  0.1130116E+00
         25   -1    0    0    0    0  0.00000000000E+00  0.00000000000E+00  0.99999998245E-14  0.12500000000E+03  0.12500000000E+03 0.  0.
        -11    1    3    3    0    0 -0.24371801667E+02  0.17652392474E+02 -0.99257629776E+01  0.31687733391E+02  0.51100000000E-03 0. -1.
         23    2    1    0    0    0  0.63835429093E+01 -0.31992014221E+02 -0.12301175743E+02  0.90135153541E+02  0.83119121658E+02 0.  0.
         11    1    3    3    0    0  0.30755344576E+02 -0.49644406695E+02 -0.23754127654E+01  0.58447420149E+02  0.51100000000E-03 0.  1.
         22    1    1    0    0    0 -0.63835429093E+01  0.31992014221E+02  0.12301175743E+02  0.34864846459E+02  0.00000000000E+00 0.  1.
</event>
<event>
 5    1  0.1717510E-003  0.9118800E+02  0.7818608E-02  0.1130116E+00
         25   -1    0    0    0    0  0.00000000000E+00  0.00000000000E+00  0.99999998245E-14  0.12500000000E+03  0.12500000000E+03 0.  0.
        -11    1    3    3    0    0 -0.31263317649E+02 -0.18065573084E+02  0.40654130797E+02  0.54373875275E+02  0.51100000000E-03 0. -1.
         23    2    1    0    0    0  0.47273288331E+01 -0.20392236564E+02  0.20556206443E+02  0.95661483110E+02  0.91051473231E+02 0.  0.
         11    1    3    3    0    0  0.35990646482E+02 -0.23266634798E+01 -0.20097924355E+02  0.41287607835E+02  0.51100000000E-03 0.  1.
         22    1    1    0    0    0 -0.47273288331E+01  0.20392236564E+02 -0.20556206443E+02  0.29338516890E+02  0.00000000000E+00 0. -1.
</event>
<event>
 5    1  0.1717510E-003  0.9118800E+02  0.7818608E-02  0.1130116E+00
         25   -1    0    0    0    0  0.00000000000E+00  0.00000000000E+00  0.99999998245E-14  0.12500000000E+03  0.12500000000E+03 0.  0.
        -11    1    3    3    0    0 -0.69916340373E+01  0.39402526206E+02 -0.17241121777E+01  0.40055144251E+02  0.51100000000E-03 0.  1.
         23    2    1    0    0    0  0.15755940556E+02 -0.14140059783E+02 -0.14142447231E+02  0.99540232383E+02  0.96229195651E+02 0.  0.
         11    1    3    3    0    0  0.22747574593E+02 -0.53542585989E+02 -0.12418335053E+02  0.59485088131E+02  0.51100000000E-03 0. -1.
         22    1    1    0    0    0 -0.15755940556E+02  0.14140059783E+02  0.14142447231E+02  0.25459767617E+02  0.00000000000E+00 0. -1.
</event>
<event>
 5    1  0.1717510E-003  0.9118800E+02  0.7818608E-02  0.1130116E+00
         25   -1    0    0    0    0  0.00000000000E+00  0.00000000000E+00  0.99999998245E-14  0.12500000000E+03  0.12500000000E+03 0.  0.
        -11    1    3    3    0    0 -0.32730970212E+02 -0.27972345338E+02 -0.38632457090E+02  0.57846652935E+02  0.51100000000E-03 0.  1.
         23    2    1    0    0    0 -0.14266944163E+02 -0.24925021729E+02 -0.57064402381E+01  0.95719189490E+02  0.91130660990E+02 0.  0.
         11    1    3    3    0    0  0.18464026049E+02  0.30473236094E+01  0.32926016852E+02  0.37872536555E+02  0.51100000000E-03 0. -1.
         22    1    1    0    0    0  0.14266944163E+02  0.24925021729E+02  0.57064402381E+01  0.29280810510E+02  0.00000000000E+00 0.  1.
</event>
<event>
 5    1  0.1717510E-003  0.9118800E+02  0.7818608E-02  0.1130116E+00
         25   -1    0    0    0    0  0.00000000000E+00  0.00000000000E+00  0.99999998245E-14  0.12500000000E+03  0.12500000000E+03 0.  0.
        -11    1    3    3    0    0  0.23989914919E+02 -0.11536542327E+02  0.30460694330E+02  0.40453204150E+02  0.51100000000E-03 0.  1.
         23    2    1    0    0    0  0.13384786072E+02  0.23904175233E+02 -0.10512701620E+02  0.95655852592E+02  0.91043743046E+02 0.  0.
         11    1    3    3    0    0 -0.10605128846E+02  0.35440717559E+02 -0.40973395951E+02  0.55202648442E+02  0.51100000000E-03 0. -1.
         22    1    1    0    0    0 -0.13384786072E+02 -0.23904175233E+02  0.10512701620E+02  0.29344147408E+02  0.00000000000E+00 0. -1.
</event>
<event>
 5    1  0.1717510E-003  0.9118800E+02  0.7818608E-02  0.1130116E+00
         25   -1    0    0    0    0  0.00000000000E+00  0.00000000000E+00  0.99999998245E-14  0.12500000000E+03  0.12500000000E+03 0.  0.
        -11    1    3    3    0    0 -0.62281578595E+01  0.50594357352E+02  0.25936823536E+02  0.57195259957E+02  0.51100000000E-03 0. -1.
         23    2    1    0    0    0  0.89154205398E+01  0.27789378966E+02 -0.12662787324E+01  0.95788054352E+02  0.91225071049E+02 0.  0.
         11    1    3    3    0    0  0.15143578399E+02 -0.22804978385E+02 -0.27203102268E+02  0.38592794394E+02  0.51100000000E-03 0.  1.
         22    1    1    0    0    0 -0.89154205398E+01 -0.27789378966E+02  0.12662787324E+01  0.29211945648E+02  0.00000000000E+00 0. -1.
</event>
<event>
 5    1  0.1717510E-003  0.9118800E+02  0.7818608E-02  0.1130116E+00
         25   -1    0    0    0    0  0.00000000000E+00  0.00000000000E+00  0.99999998245E-14  0.12500000000E+03  0.12500000000E+03 0.  0.
        -11    1    3    3    0    0 -0.30260580121E+02  0.32900138025E+02 -0.51642206554E+01  0.44997677346E+02  0.51100000000E-03 0.  1.
         23    2    1    0    0    0 -0.13774800939E+02 -0.15330079016E+02 -0.18085862290E+02  0.97580027748E+02  0.93648315185E+02 0.  0.
         11    1    3    3    0    0  0.16485779182E+02 -0.48230217040E+02 -0.12921641635E+02  0.52582350402E+02  0.51100000000E-03 0. -1.
         22    1    1    0    0    0  0.13774800939E+02  0.15330079016E+02  0.18085862290E+02  0.27419972252E+02  0.00000000000E+00 0.  1.
</event>
<event>
 5    1  0.1717510E-003  0.9118800E+02  0.7818608E-02  0.1130116E+00
         25   -1    0    0    0    0  0.00000000000E+00  0.00000000000E+00  0.99999998245E-14  0.12500000000E+03  0.12500000000E+03 0.  0.
        -11    1    3    3    0    0  0.23848301812E+02  0.35097781326E+02  0.52952925531E+01  0.42762552272E+02  0.51100000000E-03 0.  1.
         23    2    1    0    0    0  0.12030251999E+02 -0.73394409828E+01 -0.25052290697E+02  0.96256102800E+02  0.91864169838E+02 0.  0.
         11    1    3    3    0    0 -0.11818049813E+02 -0.42437222309E+02 -0.30347583250E+02  0.53493550528E+02  0.51100000000E-03 0. -1.
         22    1    1    0    0    0 -0.12030251999E+02  0.73394409828E+01  0.25052290697E+02  0.28743897200E+02  0.00000000000E+00 0. -1.
</event>
<event>
 5    1  0.1717510E-003  0.9118800E+02  0.7818608E-02  0.1130116E+00
         25   -1    0    0    0    0  0.00000000000E+00  0.00000000000E+00  0.99999998245E-14  0.12500000000E+03  0.12500000000E+03 0.  0.
        -11    1    3    3    0    0 -0.63801936541E+01  0.37365209454E+01  0.40204671425E+02  0.40878895099E+02  0.51100000000E-03 0. -1.
         23    2    1    0    0    0  0.22412719253E+02  0.17597074588E+02 -0.48290752153E+01  0.96098322094E+02  0.91649225438E+02 0.  0.
         11    1    3    3    0    0  0.28792912907E+02  0.13860553643E+02 -0.45033746640E+02  0.55219426995E+02  0.51100000000E-03 0.  1.
         22    1    1    0    0    0 -0.22412719253E+02 -0.17597074588E+02  0.48290752153E+01  0.28901677906E+02  0.00000000000E+00 0.  1.
</event>
<event>
 5    1  0.1717510E-003  0.9118800E+02  0.7818608E-02  0.1130116E+00
         25   -1    0    0    0    0  0.00000000000E+00  0.00000000000E+00  0.99999998245E-14  0.12500000000E+03  0.12500000000E+03 0.  0.
        -11    1    3    3    0    0  0.13668494843E+02 -0.24081379298E+02  0.25459775181E+02  0.37615697956E+02  0.51100000000E-03 0. -1.
         23    2    1    0    0    0 -0.18259517849E+02  0.21321037847E+02  0.77176124505E+01  0.95887147359E+02  0.91360751091E+02 0.  0.
         11    1    3    3    0    0 -0.31928012692E+02  0.45402417144E+02 -0.17742162731E+02  0.58271449404E+02  0.51100000000E-03 0.  1.
         22    1    1    0    0    0  0.18259517849E+02 -0.21321037847E+02 -0.77176124505E+01  0.29112852641E+02  0.00000000000E+00 0.  1.
</event>
<event>
 5    1  0.1717510E-003  0.9118800E+02  0.7818608E-02  0.1130116E+00
         25   -1    0    0    0    0  0.00000000000E+00  0.00000000000E+00  0.99999998245E-14  0.12500000000E+03  0.12500000000E+03 0.  0.
        -11    1    3    3    0    0 -0.35929929187E+02 -0.21028253287E+02 -0.25836890274E+02  0.48996858542E+02  0.51100000000E-03 0. -1.
         23    2    1    0    0    0 -0.64566339668E+01  0.13059689573E+02 -0.27269895841E+02  0.94082515738E+02  0.88857351606E+02 0.  0.
         11    1    3    3    0    0  0.29473295220E+02  0.34087942860E+02 -0.14330055669E+01  0.45085657196E+02  0.51100000000E-03 0.  1.
         22    1    1    0    0    0  0.64566339668E+01 -0.13059689573E+02  0.27269895841E+02  0.30917484262E+02  0.00000000000E+00 0. -1.
</event>
<event>
 5    1  0.1717510E-003  0.9118800E+02  0.7818608E-02  0.1130116E+00
         25   -1    0    0    0    0  0.00000000000E+00  0.00000000000E+00  0.99999998245E-14  0.12500000000E+03  0.12500000000E+03 0.  0.
        -11    1    3    3    0    0 -0.19006449690E+02  0.44203540571E+02 -0.39048161686E+02  0.61967387069E+02  0.51100000000E-03 0.  1.
         23    2    1    0    0    0 -0.11340240512E+02  0.13863772018E+02 -0.11070324636E+02  0.10394394821E+03  0.10178893384E+03 0.  0.
         11    1    3    3    0    0  0.76662091782E+01 -0.30339768553E+02  0.27977837050E+02  0.41976561141E+02  0.51100000000E-03 0. -1.
         22    1    1    0    0    0  0.11340240512E+02 -0.13863772018E+02  0.11070324636E+02  0.21056051790E+02  0.00000000000E+00 0.  1.
</event>
<event>
 5    1  0.1717510E-003  0.9118800E+02  0.7818608E-02  0.1130116E+00
         25   -1    0    0    0    0  0.00000000000E+00  0.00000000000E+00  0.99999998245E-14  0.12500000000E+03  0.12500000000E+03 0.  0.
        -11    1    3    3    0    0 -0.30115491050E+02 -0.48198917822E+02 -0.10945926655E+01  0.56844319099E+02  0.51100000000E-03 0. -1.
         23    2    1    0    0    0 -0.69259104317E+01 -0.22036477462E+02 -0.18036200842E+02  0.95693360563E+02  0.91095225675E+02 0.  0.
         11    1    3    3    0    0  0.23189580618E+02  0.26162440360E+02 -0.16941608177E+02  0.38849041464E+02  0.51100000000E-03 0.  1.
         22    1    1    0    0    0  0.69259104317E+01  0.22036477462E+02  0.18036200842E+02  0.29306639437E+02  0.00000000000E+00 0. -1.
</event>
<event>
 5    1  0.1717510E-003  0.9118800E+02  0.7818608E-02  0.1130116E+00
         25   -1    0    0    0    0  0.00000000000E+00  0.00000000000E+00  0.99999998245E-14  0.12500000000E+03  0.12500000000E+03 0.  0.
        -11    1    3    3    0    0  0.14899036269E+02 -0.24170953480E+02 -0.19730991058E+02  0.34576412224E+02  0.51100000000E-03 0. -1.
         23    2    1    0    0    0 -0.76891218441E+01  0.66565857772E+01  0.27702133952E+02  0.95489985523E+02  0.90815727607E+02 0.  0.
         11    1    3    3    0    0 -0.22588158113E+02  0.30827539257E+02  0.47433125010E+02  0.60913573299E+02  0.51100000000E-03 0.  1.
         22    1    1    0    0    0  0.76891218441E+01 -0.66565857772E+01 -0.27702133952E+02  0.29510014477E+02  0.00000000000E+00 0.  1.
</event>
<event>
 5    1  0.1717510E-003  0.9118800E+02  0.7818608E-02  0.1130116E+00
         25   -1    0    0    0    0  0.00000000000E+00  0.00000000000E+00  0.99999998245E-14  0.12500000000E+03  0.12500000000E+03 0.  0.
        -11    1    3    3    0    0 -0.33025647801E+02 -0.11628847327E+02 -0.16110442010E+02  0.38541793482E+02  0.51100000000E-03 0. -1.
         23    2    1    0    0    0  0.13076951122E+02 -0.11778050449E+02  0.20910598812E+02  0.97669023697E+02  0.93767030049E+02 0.  0.
         11    1    3    3    0    0  0.46102598923E+02 -0.14920312211E+00  0.37021040821E+02  0.59127230214E+02  0.51100000000E-03 0.  1.
         22    1    1    0    0    0 -0.13076951122E+02  0.11778050449E+02 -0.20910598812E+02  0.27330976303E+02  0.00000000000E+00 0.  1.
</event>
<event>
 5    1  0.1717510E-003  0.9118800E+02  0.7818608E-02  0.1130116E+00
         25   -1    0    0    0    0  0.00000000000E+00  0.00000000000E+00  0.99999998245E-14  0.12500000000E+03  0.12500000000E+03 0.  0.
        -11    1    3    3    0    0 -0.10531798096E+02  0.18505264840E+02  0.45882998076E+02  0.50582735302E+02  0.51100000000E-03 0.  1.
         23    2    1    0    0    0  0.14424618304E+02  0.24458020519E+02  0.95883514900E+01  0.95030000580E+02  0.90180375610E+02 0.  0.
         11    1    3    3    0    0  0.24956416400E+02  0.59527556785E+01 -0.36294646586E+02  0.44447265278E+02  0.51100000000E-03 0. -1.
         22    1    1    0    0    0 -0.14424618304E+02 -0.24458020519E+02 -0.95883514900E+01  0.29969999420E+02  0.00000000000E+00 0.  1.
</event>
<event>
 5    1  0.1717510E-003  0.9118800E+02  0.7818608E-02  0.1130116E+00
         25   -1    0    0    0    0  0.00000000000E+00  0.00000000000E+00  0.99999998245E-14  0.12500000000E+03  0.12500000000E+03 0.  0.
        -11    1    3    3    0    0 -0.38186377014E+02 -0.32078628152E+02  0.74032422822E+01  0.50418704566E+02  0.51100000000E-03 0.  1.
         23    2    1    0    0    0  0.25944964828E+01 -0.24049177480E+02 -0.13876877502E+02  0.97113406830E+02  0.93023393334E+02 0.  0.
         11    1    3    3    0    0  0.40780873496E+02  0.80294506726E+01 -0.21280119784E+02  0.46694702264E+02  0.51100000000E-03 0. -1.
         22    1    1    0    0    0 -0.25944964828E+01  0.24049177480E+02  0.13876877502E+02  0.27886593170E+02  0.00000000000E+00 0.  1.
</event>
<event>
 5    1  0.1717510E-003  0.9118800E+02  0.7818608E-02  0.1130116E+00
         25   -1    0    0    0    0  0.00000000000E+00  0.00000000000E+00  0.99999998245E-14  0.12500000000E+03  0.12500000000E+03 0.  0.
        -11    1    3    3    0    0  0.23286348134E+02  0.24805550766E+01  0.25173112002E+02  0.34381575459E+02  0.51100000000E-03 0.  1.
         23    2    1    0    0    0 -0.26505124298E+02 -0.73376357982E+01 -0.95649204518E+01  0.95882132351E+02  0.91353889287E+02 0.  0.
         11    1    3    3    0    0 -0.49791472432E+02 -0.98181908748E+01 -0.34738032454E+02  0.61500556892E+02  0.51100000000E-03 0. -1.
         22    1    1    0    0    0  0.26505124298E+02  0.73376357982E+01  0.95649204518E+01  0.29117867649E+02  0.00000000000E+00 0. -1.
</event>
<event>
 5    1  0.1717510E-003  0.9118800E+02  0.7818608E-02  0.1130116E+00
         25   -1    0    0    0    0  0.00000000000E+00  0.00000000000E+00  0.99999998245E-14  0.12500000000E+03  0.12500000000E+03 0.  0.
        -11    1    3    3    0    0  0.52812264278E+02  0.66889946552E+01  0.17827100211E+02  0.56139855805E+02  0.51100000000E-03 0. -1.
         23    2    1    0    0    0  0.24269991650E+02  0.96433853251E+01 -0.10861235340E+02  0.96715838207E+02  0.92487618370E+02 0.  0.
         11    1    3    3    0    0 -0.28542272628E+02  0.29543906699E+01 -0.28688335551E+02  0.40575982402E+02  0.51100000000E-03 0.  1.
         22    1    1    0    0    0 -0.24269991650E+02 -0.96433853251E+01  0.10861235340E+02  0.28284161793E+02  0.00000000000E+00 0. -1.
</event>
<event>
 5    1  0.1717510E-003  0.9118800E+02  0.7818608E-02  0.1130116E+00
         25   -1    0    0    0    0  0.00000000000E+00  0.00000000000E+00  0.99999998245E-14  0.12500000000E+03  0.12500000000E+03 0.  0.
        -11    1    3    3    0    0  0.43359557272E+02 -0.19653600445E+02 -0.34760549273E+02  0.58945831093E+02  0.51100000000E-03 0.  1.
         23    2    1    0    0    0  0.20737884587E+02  0.47879744461E+01 -0.21366312980E+02  0.94842017859E+02  0.89919433188E+02 0.  0.
         11    1    3    3    0    0 -0.22621672685E+02  0.24441574891E+02  0.13394236293E+02  0.35896186766E+02  0.51100000000E-03 0. -1.
         22    1    1    0    0    0 -0.20737884587E+02 -0.47879744461E+01  0.21366312980E+02  0.30157982141E+02  0.00000000000E+00 0.  1.
</event>
<event>
 5    1  0.1717510E-003  0.9118800E+02  0.7818608E-02  0.1130116E+00
         25   -1    0    0    0    0  0.00000000000E+00  0.00000000000E+00  0.99999998245E-14  0.12500000000E+03  0.12500000000E+03 0.  0.
        -11    1    3    3    0    0 -0.27075792461E+02 -0.16729752719E+02  0.18486464885E+02  0.36806691615E+02  0.51100000000E-03 0. -1.
         23    2    1    0    0    0  0.10260302280E+00  0.28297753351E+02 -0.78599037207E+01  0.95630773613E+02  0.91009303938E+02 0.  0.
         11    1    3    3    0    0  0.27178395484E+02  0.45027506070E+02 -0.26346368605E+02  0.58824081998E+02  0.51100000000E-03 0.  1.
         22    1    1    0    0    0 -0.10260302280E+00 -0.28297753351E+02  0.78599037207E+01  0.29369226387E+02  0.00000000000E+00 0.  1.
</event>
<event>
 5    1  0.1717510E-003  0.9118800E+02  0.7818608E-02  0.1130116E+00
         25   -1    0    0    0    0  0.00000000000E+00  0.00000000000E+00  0.99999998245E-14  0.12500000000E+03  0.12500000000E+03 0.  0.
        -11    1    3    3    0    0 -0.10725320747E+00  0.21043999607E+02 -0.25294922904E+02  0.32904324149E+02  0.51100000000E-03 0.  1.
         23    2    1    0    0    0 -0.23222330890E+02  0.23180028026E+01  0.24660957649E+02  0.91046905574E+02  0.84479147684E+02 0.  0.
         11    1    3    3    0    0 -0.23115077683E+02 -0.18725996805E+02  0.49955880553E+02  0.58142581424E+02  0.51100000000E-03 0. -1.
         22    1    1    0    0    0  0.23222330890E+02 -0.23180028026E+01 -0.24660957649E+02  0.33953094426E+02  0.00000000000E+00 0. -1.
</event>
<event>
 5    1  0.1717510E-003  0.9118800E+02  0.7818608E-02  0.1130116E+00
         25   -1    0    0    0    0  0.00000000000E+00  0.00000000000E+00  0.99999998245E-14  0.12500000000E+03  0.12500000000E+03 0.  0.
        -11    1    3    3    0    0 -0.31199005029E+01 -0.32295559082E+02  0.35618650799E+02  0.48181170602E+02  0.51100000000E-03 0. -1.
         23    2    1    0    0    0  0.51469231836E+01 -0.26053389119E+02 -0.11233590013E+02  0.96164892103E+02  0.91739975070E+02 0.  0.
         11    1    3    3    0    0  0.82668236865E+01  0.62421699638E+01 -0.46852240812E+02  0.47983721501E+02  0.51100000000E-03 0.  1.
         22    1    1    0    0    0 -0.51469231836E+01  0.26053389119E+02  0.11233590013E+02  0.28835107897E+02  0.00000000000E+00 0. -1.
</event>
<event>
 5    1  0.1717510E-003  0.9118800E+02  0.7818608E-02  0.1130116E+00
         25   -1    0    0    0    0  0.00000000000E+00  0.00000000000E+00  0.99999998245E-14  0.12500000000E+03  0.12500000000E+03 0.  0.
        -11    1    3    3    0    0  0.13487327386E+01 -0.39706164752E+02 -0.33163436951E+02  0.51751445873E+02  0.51100000000E-03 0.  1.
         23    2    1    0    0    0  0.25240187618E+02 -0.16086646620E+02 -0.71872225939E+01  0.94218456194E+02  0.89048380381E+02 0.  0.
         11    1    3    3    0    0  0.23891454879E+02  0.23619518132E+02  0.25976214357E+02  0.42467010321E+02  0.51100000000E-03 0. -1.
         22    1    1    0    0    0 -0.25240187618E+02  0.16086646620E+02  0.71872225939E+01  0.30781543806E+02  0.00000000000E+00 0.  1.
</event>
<event>
 5    1  0.1717510E-003  0.9118800E+02  0.7818608E-02  0.1130116E+00
         25   -1    0    0    0    0  0.00000000000E+00  0.00000000000E+00  0.99999998245E-14  0.12500000000E+03  0.12500000000E+03 0.  0.
        -11    1    3    3    0    0  0.36213327179E+02  0.43998415015E+01  0.51019961459E+01  0.36834685224E+02  0.51100000000E-03 0.  1.
         23    2    1    0    0    0  0.29566469572E+01 -0.22072987158E+02 -0.26926504770E+02  0.90057258516E+02  0.83001895333E+02 0.  0.
         11    1    3    3    0    0 -0.33256680222E+02 -0.26472828659E+02 -0.32028500916E+02  0.53222573292E+02  0.51100000000E-03 0. -1.
         22    1    1    0    0    0 -0.29566469572E+01  0.22072987158E+02  0.26926504770E+02  0.34942741484E+02  0.00000000000E+00 0. -1.
</event>
<event>
 5    1  0.1717510E-003  0.9118800E+02  0.7818608E-02  0.1130116E+00
         25   -1    0    0    0    0  0.00000000000E+00  0.00000000000E+00  0.99999998245E-14  0.12500000000E+03  0.12500000000E+03 0.  0.
        -11    1    3    3    0    0  0.50840691655E+02 -0.45853587588E+01  0.46526659566E+01  0.51258645551E+02  0.51100000000E-03 0. -1.
         23    2    1    0    0    0  0.17627879134E+02  0.11485393386E+02 -0.20270690382E+02  0.95784297500E+02  0.91219923125E+02 0.  0.
         11    1    3    3    0    0 -0.33212812521E+02  0.16070752145E+02 -0.24923356338E+02  0.44525651949E+02  0.51100000000E-03 0.  1.
         22    1    1    0    0    0 -0.17627879134E+02 -0.11485393386E+02  0.20270690382E+02  0.29215702500E+02  0.00000000000E+00 0. -1.
</event>
<event>
 5    1  0.1717510E-003  0.9118800E+02  0.7818608E-02  0.1130116E+00
         25   -1    0    0    0    0  0.00000000000E+00  0.00000000000E+00  0.99999998245E-14  0.12500000000E+03  0.12500000000E+03 0.  0.
        -11    1    3    3    0    0  0.73125791952E+01  0.22864882338E+02  0.25769597171E+02  0.35218585966E+02  0.51100000000E-03 0. -1.
         23    2    1    0    0    0  0.15559217774E+01 -0.23831118932E+02 -0.14425122118E+02  0.97099690499E+02  0.93004960216E+02 0.  0.
         11    1    3    3    0    0 -0.57566574178E+01 -0.46696001270E+02 -0.40194719289E+02  0.61881104533E+02  0.51100000000E-03 0.  1.
         22    1    1    0    0    0 -0.15559217774E+01  0.23831118932E+02  0.14425122118E+02  0.27900309501E+02  0.00000000000E+00 0.  1.
</event>
<event>
 5    1  0.1717510E-003  0.9118800E+02  0.7818608E-02  0.1130116E+00
         25   -1    0    0    0    0  0.00000000000E+00  0.00000000000E+00  0.99999998245E-14  0.12500000000E+03  0.12500000000E+03 0.  0.
        -11    1    3    3    0    0 -0.48324707092E+02 -0.64581571919E+01 -0.31717508303E+02  0.58163437339E+02  0.51100000000E-03 0. -1.
         23    2    1    0    0    0 -0.25288048598E+02  0.39739346014E+01  0.83916216480E+00  0.99387859299E+02  0.96031061771E+02 0.  0.
         11    1    3    3    0    0  0.23036658494E+02  0.10432091793E+02  0.32556670468E+02  0.41224421960E+02  0.51100000000E-03 0.  1.
         22    1    1    0    0    0  0.25288048598E+02 -0.39739346014E+01 -0.83916216480E+00  0.25612140701E+02  0.00000000000E+00 0. -1.
</event>
<event>
 5    1  0.1717510E-003  0.9118800E+02  0.7818608E-02  0.1130116E+00
         25   -1    0    0    0    0  0.00000000000E+00  0.00000000000E+00  0.99999998245E-14  0.12500000000E+03  0.12500000000E+03 0.  0.
        -11    1    3    3    0    0 -0.73000791158E+01 -0.60438681468E+02  0.17566594760E+01  0.60903294045E+02  0.51100000000E-03 0. -1.
         23    2    1    0    0    0  0.24271363056E+01 -0.27867633279E+02  0.89135333959E+01  0.95641065196E+02  0.91023438185E+02 0.  0.
         11    1    3    3    0    0  0.97272154214E+01  0.32571048189E+02  0.71568739198E+01  0.34737771151E+02  0.51100000000E-03 0.  1.
         22    1    1    0    0    0 -0.24271363056E+01  0.27867633279E+02 -0.89135333959E+01  0.29358934804E+02  0.00000000000E+00 0. -1.
</event>
<event>
 5    1  0.1717510E-003  0.9118800E+02  0.7818608E-02  0.1130116E+00
         25   -1    0    0    0    0  0.00000000000E+00  0.00000000000E+00  0.99999998245E-14  0.12500000000E+03  0.12500000000E+03 0.  0.
        -11    1    3    3    0    0  0.22152029858E+02  0.25489199515E+02 -0.18116227248E+02  0.38322440015E+02  0.51100000000E-03 0.  1.
         23    2    1    0    0    0 -0.28962503612E+02  0.37459384816E+01 -0.69509168354E+01  0.94980441118E+02  0.90111654516E+02 0.  0.
         11    1    3    3    0    0 -0.51114533470E+02 -0.21743261033E+02  0.11165310413E+02  0.56658001104E+02  0.51100000000E-03 0. -1.
         22    1    1    0    0    0  0.28962503612E+02 -0.37459384816E+01  0.69509168354E+01  0.30019558882E+02  0.00000000000E+00 0. -1.
</event>
<event>
 5    1  0.1717510E-003  0.9118800E+02  0.7818608E-02  0.1130116E+00
         25   -1    0    0    0    0  0.00000000000E+00  0.00000000000E+00  0.99999998245E-14  0.12500000000E+03  0.12500000000E+03 0.  0.
        -11    1    3    3    0    0 -0.10166569181E+02 -0.18342520783E+02  0.45051396774E+02  0.49693415551E+02  0.51100000000E-03 0.  1.
         23    2    1    0    0    0 -0.18292660233E+02 -0.19852509235E+02 -0.24363135302E+01  0.97895034312E+02  0.94067840296E+02 0.  0.
         11    1    3    3    0    0 -0.81260910521E+01 -0.15099884522E+01 -0.47487710305E+02  0.48201618761E+02  0.51100000000E-03 0. -1.
         22    1    1    0    0    0  0.18292660233E+02  0.19852509235E+02  0.24363135302E+01  0.27104965688E+02  0.00000000000E+00 0.  1.
</event>
<event>
 5    1  0.1717510E-003  0.9118800E+02  0.7818608E-02  0.1130116E+00
         25   -1    0    0    0    0  0.00000000000E+00  0.00000000000E+00  0.99999998245E-14  0.12500000000E+03  0.12500000000E+03 0.  0.
        -11    1    3    3    0    0  0.20402565004E+02  0.29419342197E+02 -0.52105351669E+01  0.36178889301E+02  0.51100000000E-03 0. -1.
         23    2    1    0    0    0 -0.13258929255E+02 -0.84311940865E+01  0.25231489737E+02  0.95276064980E+02  0.90520805592E+02 0.  0.
         11    1    3    3    0    0 -0.33661494259E+02 -0.37850536284E+02  0.30442024904E+02  0.59097175679E+02  0.51100000000E-03 0.  1.
         22    1    1    0    0    0  0.13258929255E+02  0.84311940865E+01 -0.25231489737E+02  0.29723935020E+02  0.00000000000E+00 0.  1.
</event>
<event>
 5    1  0.1717510E-003  0.9118800E+02  0.7818608E-02  0.1130116E+00
         25   -1    0    0    0    0  0.00000000000E+00  0.00000000000E+00  0.99999998245E-14  0.12500000000E+03  0.12500000000E+03 0.  0.
        -11    1    3    3    0    0 -0.21497667315E+01 -0.13657763626E+02  0.48769137890E+02  0.50691072341E+02  0.51100000000E-03 0. -1.
         23    2    1    0    0    0  0.24897102970E+02 -0.46201431577E+01  0.12699700546E+02  0.96671677546E+02  0.92427914541E+02 0.  0.
         11    1    3    3    0    0  0.27046869702E+02  0.90376204684E+01 -0.36069437344E+02  0.45980605205E+02  0.51100000000E-03 0.  1.
         22    1    1    0    0    0 -0.24897102970E+02  0.46201431577E+01 -0.12699700546E+02  0.28328322454E+02  0.00000000000E+00 0. -1.
</event>
<event>
 5    1  0.1717510E-003  0.9118800E+02  0.7818608E-02  0.1130116E+00
         25   -1    0    0    0    0  0.00000000000E+00  0.00000000000E+00  0.99999998245E-14  0.12500000000E+03  0.12500000000E+03 0.  0.
        -11    1    3    3    0    0  0.40770084996E+02 -0.20879122421E+02  0.23026653020E+02  0.51267575847E+02  0.51100000000E-03 0.  1.
         23    2    1    0    0    0  0.25978100208E+02 -0.14508636559E+01 -0.13872113422E+02  0.95514372543E+02  0.90849288031E+02 0.  0.
         11    1    3    3    0    0 -0.14791984788E+02  0.19428258765E+02 -0.36898766442E+02  0.44246796696E+02  0.51100000000E-03 0. -1.
         22    1    1    0    0    0 -0.25978100208E+02  0.14508636559E+01  0.13872113422E+02  0.29485627457E+02  0.00000000000E+00 0.  1.
</event>
<event>
 5    1  0.1717510E-003  0.9118800E+02  0.7818608E-02  0.1130116E+00
         25   -1    0    0    0    0  0.00000000000E+00  0.00000000000E+00  0.99999998245E-14  0.12500000000E+03  0.12500000000E+03 0.  0.
        -11    1    3    3    0    0 -0.32283428606E+02 -0.20760193854E+02  0.37239921545E+02  0.53479128343E+02  0.51100000000E-03 0. -1.
         23    2    1    0    0    0  0.71161595245E+01 -0.17452789208E+02  0.22436035353E+02  0.95697862538E+02  0.91101403032E+02 0.  0.
         11    1    3    3    0    0  0.39399588130E+02  0.33074046459E+01 -0.14803886192E+02  0.42218734194E+02  0.51100000000E-03 0.  1.
         22    1    1    0    0    0 -0.71161595245E+01  0.17452789208E+02 -0.22436035353E+02  0.29302137462E+02  0.00000000000E+00 0. -1.
</event>
<event>
 5    1  0.1717510E-003  0.9118800E+02  0.7818608E-02  0.1130116E+00
         25   -1    0    0    0    0  0.00000000000E+00  0.00000000000E+00  0.99999998245E-14  0.12500000000E+03  0.12500000000E+03 0.  0.
        -11    1    3    3    0    0 -0.28222313026E+02  0.10134251465E+02 -0.46249759628E+02  0.55120252822E+02  0.51100000000E-03 0.  1.
         23    2    1    0    0    0 -0.26363415761E+01 -0.13344717386E+02 -0.26857686836E+02  0.94894068339E+02  0.89991761205E+02 0.  0.
         11    1    3    3    0    0  0.25585971450E+02 -0.23478968851E+02  0.19392072792E+02  0.39773815517E+02  0.51100000000E-03 0. -1.
         22    1    1    0    0    0  0.26363415761E+01  0.13344717386E+02  0.26857686836E+02  0.30105931661E+02  0.00000000000E+00 0.  1.
</event>
<event>
 5    1  0.1717510E-003  0.9118800E+02  0.7818608E-02  0.1130116E+00
         25   -1    0    0    0    0  0.00000000000E+00  0.00000000000E+00  0.99999998245E-14  0.12500000000E+03  0.12500000000E+03 0.  0.
        -11    1    3    3    0    0  0.38118546942E+02 -0.16135692648E+02  0.10182179549E+02  0.42626998238E+02  0.51100000000E-03 0.  1.
         23    2    1    0    0    0  0.68668756091E+01  0.20126658914E+02 -0.17086987220E+02  0.97719942963E+02  0.93834885521E+02 0.  0.
         11    1    3    3    0    0 -0.31251671333E+02  0.36262351562E+02 -0.27269166769E+02  0.55092944725E+02  0.51100000000E-03 0. -1.
         22    1    1    0    0    0 -0.68668756091E+01 -0.20126658914E+02  0.17086987220E+02  0.27280057037E+02  0.00000000000E+00 0. -1.
</event>
<event>
 5    1  0.1717510E-003  0.9118800E+02  0.7818608E-02  0.1130116E+00
         25   -1    0    0    0    0  0.00000000000E+00  0.00000000000E+00  0.99999998245E-14  0.12500000000E+03  0.12500000000E+03 0.  0.
        -11    1    3    3    0    0  0.10896665429E+02  0.33424684703E+02  0.26279422966E+00  0.35157018162E+02  0.51100000000E-03 0. -1.
         23    2    1    0    0    0  0.38286571505E+02  0.21778475255E+02  0.25434031022E+02  0.74136914407E+02  0.53937265427E+02 0.  0.
         11    1    3    3    0    0  0.27389906076E+02 -0.11646209448E+02  0.25171236792E+02  0.38979896245E+02  0.51100000000E-03 0.  1.
         22    1    1    0    0    0 -0.38286571505E+02 -0.21778475255E+02 -0.25434031022E+02  0.50863085593E+02  0.00000000000E+00 0.  1.
</event>
<event>
 5    1  0.1717510E-003  0.9118800E+02  0.7818608E-02  0.1130116E+00
         25   -1    0    0    0    0  0.00000000000E+00  0.00000000000E+00  0.99999998245E-14  0.12500000000E+03  0.12500000000E+03 0.  0.
        -11    1    3    3    0    0 -0.51692875376E+01  0.21693056908E+02 -0.26695480609E+02  0.34784464016E+02  0.51100000000E-03 0. -1.
         23    2    1    0    0    0  0.19719239642E+02 -0.14629478000E+02  0.15657587393E+02  0.95879043945E+02  0.91349663307E+02 0.  0.
         11    1    3    3    0    0  0.24888527179E+02 -0.36322534907E+02  0.42353068002E+02  0.61094579929E+02  0.51100000000E-03 0.  1.
         22    1    1    0    0    0 -0.19719239642E+02  0.14629478000E+02 -0.15657587393E+02  0.29120956055E+02  0.00000000000E+00 0.  1.
</event>
<event>
 5    1  0.1717510E-003  0.9118800E+02  0.7818608E-02  0.1130116E+00
         25   -1    0    0    0    0  0.00000000000E+00  0.00000000000E+00  0.99999998245E-14  0.12500000000E+03  0.12500000000E+03 0.  0.
        -11    1    3    3    0    0 -0.18224217991E+02  0.28114348216E+02 -0.16532821710E+02  0.37361382348E+02  0.51100000000E-03 0.  1.
         23    2    1    0    0    0 -0.37065347305E+01 -0.18201340574E+02  0.19694336516E+02  0.97927983282E+02  0.94111613632E+02 0.  0.
         11    1    3    3    0    0  0.14517683260E+02 -0.46315688790E+02  0.36227158226E+02  0.60566600934E+02  0.51100000000E-03 0. -1.
         22    1    1    0    0    0  0.37065347305E+01  0.18201340574E+02 -0.19694336516E+02  0.27072016718E+02  0.00000000000E+00 0. -1.
</event>
<event>
 5    1  0.1717510E-003  0.9118800E+02  0.7818608E-02  0.1130116E+00
         25   -1    0    0    0    0  0.00000000000E+00  0.00000000000E+00  0.99999998245E-14  0.12500000000E+03  0.12500000000E+03 0.  0.
        -11    1    3    3    0    0  0.68230664589E+00  0.36698091949E+02  0.16528847540E+02  0.40254419587E+02  0.51100000000E-03 0.  1.
         23    2    1    0    0    0 -0.21031969142E+02  0.71758745814E+01 -0.22210065678E+02  0.93581471718E+02  0.88149690467E+02 0.  0.
         11    1    3    3    0    0 -0.21714275788E+02 -0.29522217368E+02 -0.38738913219E+02  0.53327052130E+02  0.51100000000E-03 0. -1.
         22    1    1    0    0    0  0.21031969142E+02 -0.71758745814E+01  0.22210065678E+02  0.31418528282E+02  0.00000000000E+00 0. -1.
</event>
<event>
 5    1  0.1717510E-003  0.9118800E+02  0.7818608E-02  0.1130116E+00
         25   -1    0    0    0    0  0.00000000000E+00  0.00000000000E+00  0.99999998245E-14  0.12500000000E+03  0.12500000000E+03 0.  0.
        -11    1    3    3    0    0 -0.78578850523E+01 -0.24173495475E+02  0.38781688161E+02  0.46369425033E+02  0.51100000000E-03 0.  1.
         23    2    1    0    0    0  0.63603355479E+01 -0.28409044674E+02 -0.74719616726E+01  0.94944087124E+02  0.90061211300E+02 0.  0.
         11    1    3    3    0    0  0.14218220600E+02 -0.42355491990E+01 -0.46253649834E+02  0.48574662091E+02  0.51100000000E-03 0. -1.
         22    1    1    0    0    0 -0.63603355479E+01  0.28409044674E+02  0.74719616726E+01  0.30055912876E+02  0.00000000000E+00 0. -1.
</event>
<event>
 5    1  0.1717510E-003  0.9118800E+02  0.7818608E-02  0.1130116E+00
         25   -1    0    0    0    0  0.00000000000E+00  0.00000000000E+00  0.99999998245E-14  0.12500000000E+03  0.12500000000E+03 0.  0.
        -11    1    3    3    0    0 -0.25180016258E+02 -0.29915794254E+02  0.14953923379E+01  0.39130859473E+02  0.51100000000E-03 0. -1.
         23    2    1    0    0    0  0.22280519959E+01  0.19124878063E+02 -0.18044525320E+02  0.98611933177E+02  0.95015700252E+02 0.  0.
         11    1    3    3    0    0  0.27408068254E+02  0.49040672317E+02 -0.19539917658E+02  0.59481073704E+02  0.51100000000E-03 0.  1.
         22    1    1    0    0    0 -0.22280519959E+01 -0.19124878063E+02  0.18044525320E+02  0.26388066823E+02  0.00000000000E+00 0.  1.
</event>
<event>
 5    1  0.1717510E-003  0.9118800E+02  0.7818608E-02  0.1130116E+00
         25   -1    0    0    0    0  0.00000000000E+00  0.00000000000E+00  0.99999998245E-14  0.12500000000E+03  0.12500000000E+03 0.  0.
        -11    1    3    3    0    0  0.47469487913E+02 -0.38131844895E+01  0.38226656791E+02  0.61066930071E+02  0.51100000000E-03 0. -1.
         23    2    1    0    0    0  0.20384848041E+02 -0.11056367884E+02  0.18183105932E+02  0.95531192054E+02  0.90872427135E+02 0.  0.
         11    1    3    3    0    0 -0.27084639872E+02 -0.72431833943E+01 -0.20043550859E+02  0.34464261982E+02  0.51100000000E-03 0.  1.
         22    1    1    0    0    0 -0.20384848041E+02  0.11056367884E+02 -0.18183105932E+02  0.29468807946E+02  0.00000000000E+00 0. -1.
</event>
<event>
 5    1  0.1717510E-003  0.9118800E+02  0.7818608E-02  0.1130116E+00
         25   -1    0    0    0    0  0.00000000000E+00  0.00000000000E+00  0.99999998245E-14  0.12500000000E+03  0.12500000000E+03 0.  0.
        -11    1    3    3    0    0  0.35016535403E+01 -0.36042081775E+02 -0.30365812862E+02  0.47258605854E+02  0.51100000000E-03 0.  1.
         23    2    1    0    0    0  0.11375638058E+02  0.99397629679E+01 -0.27037776699E+02  0.94028312963E+02  0.88781069158E+02 0.  0.
         11    1    3    3    0    0  0.78739845182E+01  0.45981844743E+02  0.33280361631E+01  0.46769707110E+02  0.51100000000E-03 0. -1.
         22    1    1    0    0    0 -0.11375638058E+02 -0.99397629679E+01  0.27037776699E+02  0.30971687037E+02  0.00000000000E+00 0. -1.
</event>
<event>
 5    1  0.1717510E-003  0.9118800E+02  0.7818608E-02  0.1130116E+00
         25   -1    0    0    0    0  0.00000000000E+00  0.00000000000E+00  0.99999998245E-14  0.12500000000E+03  0.12500000000E+03 0.  0.
        -11    1    3    3    0    0 -0.35855353168E+02 -0.38623254897E+01  0.35911262423E+02  0.50893444352E+02  0.51100000000E-03 0.  1.
         23    2    1    0    0    0  0.60229153398E+01 -0.11482962241E+02  0.27937762517E+02  0.94199796990E+02  0.89022184019E+02 0.  0.
         11    1    3    3    0    0  0.41878268508E+02 -0.76206367517E+01 -0.79734999058E+01  0.43306352637E+02  0.51100000000E-03 0. -1.
         22    1    1    0    0    0 -0.60229153398E+01  0.11482962241E+02 -0.27937762517E+02  0.30800203010E+02  0.00000000000E+00 0.  1.
</event>
<event>
 5    1  0.1717510E-003  0.9118800E+02  0.7818608E-02  0.1130116E+00
         25   -1    0    0    0    0  0.00000000000E+00  0.00000000000E+00  0.99999998245E-14  0.12500000000E+03  0.12500000000E+03 0.  0.
        -11    1    3    3    0    0 -0.28071154246E+02 -0.19420898774E+02  0.61890685143E+01  0.34691001415E+02  0.51100000000E-03 0. -1.
         23    2    1    0    0    0  0.24071047657E+02  0.13006323081E+02  0.91087087830E+01  0.96163419913E+02  0.91737969120E+02 0.  0.
         11    1    3    3    0    0  0.52142201903E+02  0.32427221854E+02  0.29196402687E+01  0.61472418498E+02  0.51100000000E-03 0.  1.
         22    1    1    0    0    0 -0.24071047657E+02 -0.13006323081E+02 -0.91087087830E+01  0.28836580087E+02  0.00000000000E+00 0.  1.
</event>
<event>
 4    1  0.1717510E-003  0.9118800E+02  0.7818608E-02  0.1130116E+00
         25   -1    0    0    0    0  0.00000000000E+00  0.00000000000E+00  0.99999998245E-14  0.12500000000E+03  0.12500000000E+03 0.  0.
        -11    1    1    0    0    0 -0.26412677269E+02 -0.63635232027E+01  0.11014237847E+02  0.29316162499E+02  0.51100000000E-03 0.  1.
         11    1    1    0    0    0 -0.16076222206E+02  0.30765184411E+02  0.17624910014E+02  0.38930437264E+02  0.51100000000E-03 0. -1.
         22    1    1    0    0    0  0.42488899475E+02 -0.24401661209E+02 -0.28639147861E+02  0.56753400237E+02  0.00000000000E+00 0. -1.
</event>
<event>
 5    1  0.1717510E-003  0.9118800E+02  0.7818608E-02  0.1130116E+00
         25   -1    0    0    0    0  0.00000000000E+00  0.00000000000E+00  0.99999998245E-14  0.12500000000E+03  0.12500000000E+03 0.  0.
        -11    1    3    3    0    0  0.27256738718E+02  0.26564114932E+02  0.94483011103E+01  0.39215461259E+02  0.51100000000E-03 0. -1.
         23    2    1    0    0    0 -0.20987791559E+02  0.12043705132E+02 -0.16327834054E+02  0.95808624686E+02  0.91253252936E+02 0.  0.
         11    1    3    3    0    0 -0.48244530277E+02 -0.14520409799E+02 -0.25776135164E+02  0.56593163427E+02  0.51100000000E-03 0.  1.
         22    1    1    0    0    0  0.20987791559E+02 -0.12043705132E+02  0.16327834054E+02  0.29191375314E+02  0.00000000000E+00 0.  1.
</event>
<event>
 5    1  0.1717510E-003  0.9118800E+02  0.7818608E-02  0.1130116E+00
         25   -1    0    0    0    0  0.00000000000E+00  0.00000000000E+00  0.99999998245E-14  0.12500000000E+03  0.12500000000E+03 0.  0.
        -11    1    3    3    0    0 -0.31545271138E+02  0.26419079744E+02  0.72789825924E+01  0.41785828861E+02  0.51100000000E-03 0. -1.
         23    2    1    0    0    0  0.19479340592E+02  0.15629951538E+02  0.16934901304E+02  0.94824994165E+02  0.89895764868E+02 0.  0.
         11    1    3    3    0    0  0.51024611731E+02 -0.10789128206E+02  0.96559187113E+01  0.53039165304E+02  0.51100000000E-03 0.  1.
         22    1    1    0    0    0 -0.19479340592E+02 -0.15629951538E+02 -0.16934901304E+02  0.30175005835E+02  0.00000000000E+00 0.  1.
</event>
<event>
 5    1  0.1717510E-003  0.9118800E+02  0.7818608E-02  0.1130116E+00
         25   -1    0    0    0    0  0.00000000000E+00  0.00000000000E+00  0.99999998245E-14  0.12500000000E+03  0.12500000000E+03 0.  0.
        -11    1    3    3    0    0 -0.57934283730E+02  0.11211216386E+01 -0.12674374856E+02  0.59315073323E+02  0.51100000000E-03 0. -1.
         23    2    1    0    0    0 -0.24588647347E+02  0.13246068557E+02 -0.11440465876E+02  0.94818148334E+02  0.89886245240E+02 0.  0.
         11    1    3    3    0    0  0.33345636383E+02  0.12124946918E+02  0.12339089803E+01  0.35503075011E+02  0.51100000000E-03 0.  1.
         22    1    1    0    0    0  0.24588647347E+02 -0.13246068557E+02  0.11440465876E+02  0.30181851666E+02  0.00000000000E+00 0. -1.
</event>
<event>
 5    1  0.1717510E-003  0.9118800E+02  0.7818608E-02  0.1130116E+00
         25   -1    0    0    0    0  0.00000000000E+00  0.00000000000E+00  0.99999998245E-14  0.12500000000E+03  0.12500000000E+03 0.  0.
        -11    1    3    3    0    0 -0.99008402802E+01 -0.31228069253E+02 -0.11042750520E+02  0.34571104796E+02  0.51100000000E-03 0.  1.
         23    2    1    0    0    0 -0.35604474304E+01  0.19497103371E+02  0.21960001460E+02  0.95418663150E+02  0.90717505408E+02 0.  0.
         11    1    3    3    0    0  0.63403928498E+01  0.50725172623E+02  0.33002751979E+02  0.60847558354E+02  0.51100000000E-03 0. -1.
         22    1    1    0    0    0  0.35604474304E+01 -0.19497103371E+02 -0.21960001460E+02  0.29581336850E+02  0.00000000000E+00 0. -1.
</event>
<event>
 5    1  0.1717510E-003  0.9118800E+02  0.7818608E-02  0.1130116E+00
         25   -1    0    0    0    0  0.00000000000E+00  0.00000000000E+00  0.99999998245E-14  0.12500000000E+03  0.12500000000E+03 0.  0.
        -11    1    3    3    0    0 -0.10470819844E+02 -0.13168984089E+02 -0.32876517441E+02  0.36931363493E+02  0.51100000000E-03 0. -1.
         23    2    1    0    0    0  0.22050285124E+02 -0.92872137053E+01  0.16323523971E+02  0.96035800593E+02  0.91563912914E+02 0.  0.
         11    1    3    3    0    0  0.32521104968E+02  0.38817703833E+01  0.49200041412E+02  0.59104437100E+02  0.51100000000E-03 0.  1.
         22    1    1    0    0    0 -0.22050285124E+02  0.92872137053E+01 -0.16323523971E+02  0.28964199407E+02  0.00000000000E+00 0.  1.
</event>
<event>
 5    1  0.1717510E-003  0.9118800E+02  0.7818608E-02  0.1130116E+00
         25   -1    0    0    0    0  0.00000000000E+00  0.00000000000E+00  0.99999998245E-14  0.12500000000E+03  0.12500000000E+03 0.  0.
        -11    1    3    3    0    0 -0.16049545710E+02  0.94840408256E+01 -0.34731832954E+02  0.39418715967E+02  0.51100000000E-03 0.  1.
         23    2    1    0    0    0  0.26289382579E+02  0.13903673359E+02  0.13611017579E+01  0.95229269958E+02  0.90456163358E+02 0.  0.
         11    1    3    3    0    0  0.42338928289E+02  0.44196325329E+01  0.36092934712E+02  0.55810553991E+02  0.51100000000E-03 0. -1.
         22    1    1    0    0    0 -0.26289382579E+02 -0.13903673359E+02 -0.13611017579E+01  0.29770730042E+02  0.00000000000E+00 0. -1.
</event>
<event>
 5    1  0.1717510E-003  0.9118800E+02  0.7818608E-02  0.1130116E+00
         25   -1    0    0    0    0  0.00000000000E+00  0.00000000000E+00  0.99999998245E-14  0.12500000000E+03  0.12500000000E+03 0.  0.
        -11    1    3    3    0    0  0.32230671550E+02  0.33987000723E+01 -0.21575296281E+02  0.38934056565E+02  0.51100000000E-03 0.  1.
         23    2    1    0    0    0 -0.22301025355E+02  0.14278030843E+02 -0.13978045455E+02  0.95056993282E+02  0.90217782728E+02 0.  0.
         11    1    3    3    0    0 -0.54531696905E+02  0.10879330770E+02  0.75972508260E+01  0.56122936716E+02  0.51100000000E-03 0. -1.
         22    1    1    0    0    0  0.22301025355E+02 -0.14278030843E+02  0.13978045455E+02  0.29943006718E+02  0.00000000000E+00 0. -1.
</event>
<event>
 5    1  0.1717510E-003  0.9118800E+02  0.7818608E-02  0.1130116E+00
         25   -1    0    0    0    0  0.00000000000E+00  0.00000000000E+00  0.99999998245E-14  0.12500000000E+03  0.12500000000E+03 0.  0.
        -11    1    3    3    0    0  0.32297848597E+02  0.12615032850E+02  0.39645224745E+02  0.52669098370E+02  0.51100000000E-03 0. -1.
         23    2    1    0    0    0 -0.82517192087E+01  0.11143127532E+02  0.26098163917E+02  0.95447092852E+02  0.90756670350E+02 0.  0.
         11    1    3    3    0    0 -0.40549567806E+02 -0.14719053179E+01 -0.13547060829E+02  0.42777994481E+02  0.51100000000E-03 0.  1.
         22    1    1    0    0    0  0.82517192087E+01 -0.11143127532E+02 -0.26098163917E+02  0.29552907148E+02  0.00000000000E+00 0. -1.
</event>
<event>
 5    1  0.1717510E-003  0.9118800E+02  0.7818608E-02  0.1130116E+00
         25   -1    0    0    0    0  0.00000000000E+00  0.00000000000E+00  0.99999998245E-14  0.12500000000E+03  0.12500000000E+03 0.  0.
        -11    1    3    3    0    0  0.34899626796E+02  0.75481934696E+01  0.14629163855E+02  0.38587194904E+02  0.51100000000E-03 0. -1.
         23    2    1    0    0    0  0.25043011432E+00 -0.18224219076E+02 -0.22853459910E+02  0.95768758048E+02  0.91198626701E+02 0.  0.
         11    1    3    3    0    0 -0.34649196682E+02 -0.25772412546E+02 -0.37482623765E+02  0.57181563145E+02  0.51100000000E-03 0.  1.
         22    1    1    0    0    0 -0.25043011432E+00  0.18224219076E+02  0.22853459910E+02  0.29231241952E+02  0.00000000000E+00 0.  1.
</event>
<event>
 5    1  0.1717510E-003  0.9118800E+02  0.7818608E-02  0.1130116E+00
         25   -1    0    0    0    0  0.00000000000E+00  0.00000000000E+00  0.99999998245E-14  0.12500000000E+03  0.12500000000E+03 0.  0.
        -11    1    3    3    0    0 -0.14739819730E+02 -0.24237779610E+01  0.43505751145E+02  0.45998775726E+02  0.51100000000E-03 0. -1.
         23    2    1    0    0    0 -0.29544413681E+02  0.20313607997E+02  0.12909096186E+02  0.86892785277E+02  0.78090949023E+02 0.  0.
         11    1    3    3    0    0 -0.14804593951E+02  0.22737385958E+02 -0.30596654959E+02  0.40894009552E+02  0.51100000000E-03 0.  1.
         22    1    1    0    0    0  0.29544413681E+02 -0.20313607997E+02 -0.12909096186E+02  0.38107214723E+02  0.00000000000E+00 0. -1.
</event>
<event>
 5    1  0.1717510E-003  0.9118800E+02  0.7818608E-02  0.1130116E+00
         25   -1    0    0    0    0  0.00000000000E+00  0.00000000000E+00  0.99999998245E-14  0.12500000000E+03  0.12500000000E+03 0.  0.
        -11    1    3    3    0    0  0.28798946083E+01 -0.62220932191E+02 -0.36831022419E+01  0.62396341544E+02  0.51100000000E-03 0.  1.
         23    2    1    0    0    0  0.38727372984E+01 -0.28875070496E+02 -0.18904374403E+01  0.95805110995E+02  0.91248439705E+02 0.  0.
         11    1    3    3    0    0  0.99284269012E+00  0.33345861696E+02  0.17926648016E+01  0.33408769450E+02  0.51100000000E-03 0. -1.
         22    1    1    0    0    0 -0.38727372984E+01  0.28875070496E+02  0.18904374403E+01  0.29194889005E+02  0.00000000000E+00 0.  1.
</event>
<event>
 5    1  0.1717510E-003  0.9118800E+02  0.7818608E-02  0.1130116E+00
         25   -1    0    0    0    0  0.00000000000E+00  0.00000000000E+00  0.99999998245E-14  0.12500000000E+03  0.12500000000E+03 0.  0.
        -11    1    3    3    0    0  0.10888560381E+02 -0.14267402269E+02 -0.36830288696E+02  0.40970595314E+02  0.51100000000E-03 0. -1.
         23    2    1    0    0    0 -0.26451793822E+02 -0.89000852244E+01  0.42782419700E+01  0.96765052369E+02  0.92554108997E+02 0.  0.
         11    1    3    3    0    0 -0.37340354202E+02  0.53673170442E+01  0.41108530667E+02  0.55794457055E+02  0.51100000000E-03 0.  1.
         22    1    1    0    0    0  0.26451793822E+02  0.89000852244E+01 -0.42782419700E+01  0.28234947631E+02  0.00000000000E+00 0.  1.
</event>
<event>
 5    1  0.1717510E-003  0.9118800E+02  0.7818608E-02  0.1130116E+00
         25   -1    0    0    0    0  0.00000000000E+00  0.00000000000E+00  0.99999998245E-14  0.12500000000E+03  0.12500000000E+03 0.  0.
        -11    1    3    3    0    0  0.11605808297E+02  0.33315631048E+02  0.17487611415E+02  0.39375660142E+02  0.51100000000E-03 0.  1.
         23    2    1    0    0    0  0.13043368075E+02 -0.22407758088E+02  0.14717885110E+02  0.95186358569E+02  0.90396845312E+02 0.  0.
         11    1    3    3    0    0  0.14375597774E+01 -0.55723389136E+02 -0.27697263056E+01  0.55810698427E+02  0.51100000000E-03 0. -1.
         22    1    1    0    0    0 -0.13043368075E+02  0.22407758088E+02 -0.14717885110E+02  0.29813641431E+02  0.00000000000E+00 0. -1.
</event>
<event>
 5    1  0.1717510E-003  0.9118800E+02  0.7818608E-02  0.1130116E+00
         25   -1    0    0    0    0  0.00000000000E+00  0.00000000000E+00  0.99999998245E-14  0.12500000000E+03  0.12500000000E+03 0.  0.
        -11    1    3    3    0    0 -0.32187508242E+02  0.14216955748E+02 -0.33437533019E+02  0.48540973746E+02  0.51100000000E-03 0.  1.
         23    2    1    0    0    0 -0.27590686792E+01 -0.21917123410E+02 -0.12354886173E+02  0.99689607453E+02  0.96423035957E+02 0.  0.
         11    1    3    3    0    0  0.29428439563E+02 -0.36134079158E+02  0.21082646846E+02  0.51148633706E+02  0.51100000000E-03 0. -1.
         22    1    1    0    0    0  0.27590686792E+01  0.21917123410E+02  0.12354886173E+02  0.25310392547E+02  0.00000000000E+00 0. -1.
</event>
<event>
 5    1  0.1717510E-003  0.9118800E+02  0.7818608E-02  0.1130116E+00
         25   -1    0    0    0    0  0.00000000000E+00  0.00000000000E+00  0.99999998245E-14  0.12500000000E+03  0.12500000000E+03 0.  0.
        -11    1    3    3    0    0 -0.59809967453E+02 -0.18680148226E+01 -0.10815204787E+02  0.60808637059E+02  0.51100000000E-03 0.  1.
         23    2    1    0    0    0 -0.28207889507E+02 -0.10844460844E+02 -0.26303135244E+01  0.94665104077E+02  0.89673162202E+02 0.  0.
         11    1    3    3    0    0  0.31602077946E+02 -0.89764460218E+01  0.81848912628E+01  0.33856467018E+02  0.51100000000E-03 0. -1.
         22    1    1    0    0    0  0.28207889507E+02  0.10844460844E+02  0.26303135244E+01  0.30334895923E+02  0.00000000000E+00 0.  1.
</event>
<event>
 5    1  0.1717510E-003  0.9118800E+02  0.7818608E-02  0.1130116E+00
         25   -1    0    0    0    0  0.00000000000E+00  0.00000000000E+00  0.99999998245E-14  0.12500000000E+03  0.12500000000E+03 0.  0.
        -11    1    3    3    0    0  0.15401321207E+02 -0.21318808928E+02  0.23634807912E+02  0.35359531307E+02  0.51100000000E-03 0.  1.
         23    2    1    0    0    0 -0.21095861987E+02  0.19695229049E+02 -0.22390311721E+01  0.96052621865E+02  0.91586873876E+02 0.  0.
         11    1    3    3    0    0 -0.36497183194E+02  0.41014037977E+02 -0.25873839084E+02  0.60693090558E+02  0.51100000000E-03 0. -1.
         22    1    1    0    0    0  0.21095861987E+02 -0.19695229049E+02  0.22390311721E+01  0.28947378135E+02  0.00000000000E+00 0. -1.
</event>
<event>
 5    1  0.1717510E-003  0.9118800E+02  0.7818608E-02  0.1130116E+00
         25   -1    0    0    0    0  0.00000000000E+00  0.00000000000E+00  0.99999998245E-14  0.12500000000E+03  0.12500000000E+03 0.  0.
        -11    1    3    3    0    0 -0.83213222558E+01  0.99561883884E+00 -0.60415336231E+02  0.60993839960E+02  0.51100000000E-03 0.  1.
         23    2    1    0    0    0 -0.11142473069E+02 -0.53418657597E+01 -0.24644176615E+02  0.97431436800E+02  0.93449768325E+02 0.  0.
         11    1    3    3    0    0 -0.28211508135E+01 -0.63374845985E+01  0.35771159615E+02  0.36437596840E+02  0.51100000000E-03 0. -1.
         22    1    1    0    0    0  0.11142473069E+02  0.53418657597E+01  0.24644176615E+02  0.27568563200E+02  0.00000000000E+00 0.  1.
</event>
<event>
 5    1  0.1717510E-003  0.9118800E+02  0.7818608E-02  0.1130116E+00
         25   -1    0    0    0    0  0.00000000000E+00  0.00000000000E+00  0.99999998245E-14  0.12500000000E+03  0.12500000000E+03 0.  0.
        -11    1    3    3    0    0 -0.43291193179E+02  0.17463039322E+02  0.52773206411E+01  0.46978029574E+02  0.51100000000E-03 0.  1.
         23    2    1    0    0    0 -0.19520126999E+02 -0.14528457219E+02 -0.19421134002E+02  0.93866547362E+02  0.88553017117E+02 0.  0.
         11    1    3    3    0    0  0.23771066181E+02 -0.31991496541E+02 -0.24698454643E+02  0.46888517788E+02  0.51100000000E-03 0. -1.
         22    1    1    0    0    0  0.19520126999E+02  0.14528457219E+02  0.19421134002E+02  0.31133452638E+02  0.00000000000E+00 0. -1.
</event>
<event>
 5    1  0.1717510E-003  0.9118800E+02  0.7818608E-02  0.1130116E+00
         25   -1    0    0    0    0  0.00000000000E+00  0.00000000000E+00  0.99999998245E-14  0.12500000000E+03  0.12500000000E+03 0.  0.
        -11    1    3    3    0    0  0.11013484827E+02  0.95533493345E+01  0.34175583465E+02  0.37155535751E+02  0.51100000000E-03 0. -1.
         23    2    1    0    0    0 -0.80738124493E+01 -0.25561277630E+02 -0.96882338477E+01  0.96496890755E+02  0.92191228915E+02 0.  0.
         11    1    3    3    0    0 -0.19087297276E+02 -0.35114626964E+02 -0.43863817313E+02  0.59341355004E+02  0.51100000000E-03 0.  1.
         22    1    1    0    0    0  0.80738124493E+01  0.25561277630E+02  0.96882338477E+01  0.28503109245E+02  0.00000000000E+00 0.  1.
</event>
<event>
 5    1  0.1717510E-003  0.9118800E+02  0.7818608E-02  0.1130116E+00
         25   -1    0    0    0    0  0.00000000000E+00  0.00000000000E+00  0.99999998245E-14  0.12500000000E+03  0.12500000000E+03 0.  0.
        -11    1    3    3    0    0  0.49111709673E+02  0.61895521209E+01 -0.40422266748E+01  0.49664979404E+02  0.51100000000E-03 0.  1.
         23    2    1    0    0    0  0.15827290336E+02 -0.23128211803E+02 -0.11617077142E+02  0.94662337237E+02  0.89669305280E+02 0.  0.
         11    1    3    3    0    0 -0.33284419337E+02 -0.29317763924E+02 -0.75748504674E+01  0.44997357833E+02  0.51100000000E-03 0. -1.
         22    1    1    0    0    0 -0.15827290336E+02  0.23128211803E+02  0.11617077142E+02  0.30337662763E+02  0.00000000000E+00 0.  1.
</event>
<event>
 5    1  0.1717510E-003  0.9118800E+02  0.7818608E-02  0.1130116E+00
         25   -1    0    0    0    0  0.00000000000E+00  0.00000000000E+00  0.99999998245E-14  0.12500000000E+03  0.12500000000E+03 0.  0.
        -11    1    3    3    0    0 -0.17341096946E+02  0.43816638224E+02 -0.63032322604E+00  0.47127579358E+02  0.51100000000E-03 0.  1.
         23    2    1    0    0    0  0.76268927910E+01  0.10514909335E+02 -0.26044954690E+02  0.95895490439E+02  0.91372165400E+02 0.  0.
         11    1    3    3    0    0  0.24967989737E+02 -0.33301728889E+02 -0.25414631464E+02  0.48767911081E+02  0.51100000000E-03 0. -1.
         22    1    1    0    0    0 -0.76268927910E+01 -0.10514909335E+02  0.26044954690E+02  0.29104509561E+02  0.00000000000E+00 0. -1.
</event>
<event>
 5    1  0.1717510E-003  0.9118800E+02  0.7818608E-02  0.1130116E+00
         25   -1    0    0    0    0  0.00000000000E+00  0.00000000000E+00  0.99999998245E-14  0.12500000000E+03  0.12500000000E+03 0.  0.
        -11    1    3    3    0    0 -0.20013768546E+02 -0.96162447248E+01  0.43920861421E+02  0.49214481225E+02  0.51100000000E-03 0.  1.
         23    2    1    0    0    0 -0.23160145739E+02  0.16600898776E+02  0.52738663606E+01  0.96020768519E+02  0.91543389329E+02 0.  0.
         11    1    3    3    0    0 -0.31463771929E+01  0.26217143501E+02 -0.38646995060E+02  0.46806287294E+02  0.51100000000E-03 0. -1.
         22    1    1    0    0    0  0.23160145739E+02 -0.16600898776E+02 -0.52738663606E+01  0.28979231481E+02  0.00000000000E+00 0. -1.
</event>
<event>
 5    1  0.1717510E-003  0.9118800E+02  0.7818608E-02  0.1130116E+00
         25   -1    0    0    0    0  0.00000000000E+00  0.00000000000E+00  0.99999998245E-14  0.12500000000E+03  0.12500000000E+03 0.  0.
        -11    1    3    3    0    0 -0.18061711675E+02  0.28845400453E+02 -0.35547983324E+02  0.49213226622E+02  0.51100000000E-03 0. -1.
         23    2    1    0    0    0 -0.31152931018E+02  0.20422398933E+02 -0.29678150554E+00  0.87748589712E+02  0.79449024084E+02 0.  0.
         11    1    3    3    0    0 -0.13091219344E+02 -0.84230015200E+01  0.35251201819E+02  0.38535363089E+02  0.51100000000E-03 0.  1.
         22    1    1    0    0    0  0.31152931018E+02 -0.20422398933E+02  0.29678150554E+00  0.37251410288E+02  0.00000000000E+00 0. -1.
</event>
<event>
 5    1  0.1717510E-003  0.9118800E+02  0.7818608E-02  0.1130116E+00
         25   -1    0    0    0    0  0.00000000000E+00  0.00000000000E+00  0.99999998245E-14  0.12500000000E+03  0.12500000000E+03 0.  0.
        -11    1    3    3    0    0  0.43647852164E+02  0.16558105082E+02 -0.18935063543E+02  0.50377003425E+02  0.51100000000E-03 0.  1.
         23    2    1    0    0    0 -0.18939093533E+01 -0.12807027042E+02 -0.15684440114E+02  0.10466263301E+03  0.10266770794E+03 0.  0.
         11    1    3    3    0    0 -0.45541761518E+02 -0.29365132123E+02  0.32506234286E+01  0.54285629587E+02  0.51100000000E-03 0. -1.
         22    1    1    0    0    0  0.18939093533E+01  0.12807027042E+02  0.15684440114E+02  0.20337366988E+02  0.00000000000E+00 0. -1.
</event>
<event>
 5    1  0.1717510E-003  0.9118800E+02  0.7818608E-02  0.1130116E+00
         25   -1    0    0    0    0  0.00000000000E+00  0.00000000000E+00  0.99999998245E-14  0.12500000000E+03  0.12500000000E+03 0.  0.
        -11    1    3    3    0    0  0.11544652295E+02  0.29537970684E+02  0.53573758780E+02  0.62256873827E+02  0.51100000000E-03 0.  1.
         23    2    1    0    0    0  0.60917591055E+01  0.17331478860E+02  0.23474851284E+02  0.95191304435E+02  0.90403684155E+02 0.  0.
         11    1    3    3    0    0 -0.54528931894E+01 -0.12206491824E+02 -0.30098907495E+02  0.32934430608E+02  0.51100000000E-03 0. -1.
         22    1    1    0    0    0 -0.60917591055E+01 -0.17331478860E+02 -0.23474851284E+02  0.29808695565E+02  0.00000000000E+00 0.  1.
</event>
<event>
 5    1  0.1717510E-003  0.9118800E+02  0.7818608E-02  0.1130116E+00
         25   -1    0    0    0    0  0.00000000000E+00  0.00000000000E+00  0.99999998245E-14  0.12500000000E+03  0.12500000000E+03 0.  0.
        -11    1    3    3    0    0 -0.12913753872E+01  0.49627227605E+02 -0.11063964044E+02  0.50861976670E+02  0.51100000000E-03 0.  1.
         23    2    1    0    0    0 -0.10154878169E+02  0.18149075314E+02  0.20130350727E+02  0.96056235460E+02  0.91591805665E+02 0.  0.
         11    1    3    3    0    0 -0.88635027813E+01 -0.31478152291E+02  0.31194314771E+02  0.45194258790E+02  0.51100000000E-03 0. -1.
         22    1    1    0    0    0  0.10154878169E+02 -0.18149075314E+02 -0.20130350727E+02  0.28943764540E+02  0.00000000000E+00 0.  1.
</event>
<event>
 5    1  0.1717510E-003  0.9118800E+02  0.7818608E-02  0.1130116E+00
         25   -1    0    0    0    0  0.00000000000E+00  0.00000000000E+00  0.99999998245E-14  0.12500000000E+03  0.12500000000E+03 0.  0.
        -11    1    3    3    0    0  0.21937110362E+02 -0.55222380500E+02  0.53830143919E+00  0.59422536868E+02  0.51100000000E-03 0. -1.
         23    2    1    0    0    0  0.90650976459E+01 -0.25571668459E+02  0.14038013994E+02  0.94452462292E+02  0.89376258442E+02 0.  0.
         11    1    3    3    0    0 -0.12872012716E+02  0.29650712041E+02  0.13499712554E+02  0.35029925424E+02  0.51100000000E-03 0.  1.
         22    1    1    0    0    0 -0.90650976459E+01  0.25571668459E+02 -0.14038013994E+02  0.30547537708E+02  0.00000000000E+00 0. -1.
</event>
<event>
 5    1  0.1717510E-003  0.9118800E+02  0.7818608E-02  0.1130116E+00
         25   -1    0    0    0    0  0.00000000000E+00  0.00000000000E+00  0.99999998245E-14  0.12500000000E+03  0.12500000000E+03 0.  0.
        -11    1    3    3    0    0  0.21414665775E+02  0.30780808232E+02  0.18634690118E+02  0.41872398327E+02  0.51100000000E-03 0. -1.
         23    2    1    0    0    0  0.12299811615E+02 -0.20647105921E+02  0.19410162392E+02  0.94107561560E+02  0.88892577812E+02 0.  0.
         11    1    3    3    0    0 -0.91148541600E+01 -0.51427914153E+02  0.77547227425E+00  0.52235163233E+02  0.51100000000E-03 0.  1.
         22    1    1    0    0    0 -0.12299811615E+02  0.20647105921E+02 -0.19410162392E+02  0.30892438440E+02  0.00000000000E+00 0.  1.
</event>
<event>
 5    1  0.1717510E-003  0.9118800E+02  0.7818608E-02  0.1130116E+00
         25   -1    0    0    0    0  0.00000000000E+00  0.00000000000E+00  0.99999998245E-14  0.12500000000E+03  0.12500000000E+03 0.  0.
        -11    1    3    3    0    0 -0.15472817797E+02 -0.48095013690E+01 -0.59376385986E+02  0.61547498787E+02  0.51100000000E-03 0. -1.
         23    2    1    0    0    0 -0.14588286984E+02 -0.24511093977E+01 -0.25481050038E+02  0.95536294099E+02  0.90879445006E+02 0.  0.
         11    1    3    3    0    0  0.88453081341E+00  0.23583919714E+01  0.33895335948E+02  0.33988795311E+02  0.51100000000E-03 0.  1.
         22    1    1    0    0    0  0.14588286984E+02  0.24511093977E+01  0.25481050038E+02  0.29463705901E+02  0.00000000000E+00 0. -1.
</event>
<event>
 5    1  0.1717510E-003  0.9118800E+02  0.7818608E-02  0.1130116E+00
         25   -1    0    0    0    0  0.00000000000E+00  0.00000000000E+00  0.99999998245E-14  0.12500000000E+03  0.12500000000E+03 0.  0.
        -11    1    3    3    0    0  0.50554202152E+01 -0.50366137762E+02  0.35757733289E+02  0.61975161128E+02  0.51100000000E-03 0.  1.
         23    2    1    0    0    0  0.57868256202E+01 -0.25066565466E+02  0.12296818002E+02  0.96486287719E+02  0.92176851377E+02 0.  0.
         11    1    3    3    0    0  0.73140540500E+00  0.25299572296E+02 -0.23460915287E+02  0.34511126591E+02  0.51100000000E-03 0. -1.
         22    1    1    0    0    0 -0.57868256202E+01  0.25066565466E+02 -0.12296818002E+02  0.28513712281E+02  0.00000000000E+00 0.  1.
</event>
<event>
 5    1  0.1717510E-003  0.9118800E+02  0.7818608E-02  0.1130116E+00
         25   -1    0    0    0    0  0.00000000000E+00  0.00000000000E+00  0.99999998245E-14  0.12500000000E+03  0.12500000000E+03 0.  0.
        -11    1    3    3    0    0  0.37123486169E+02 -0.14053383949E+02  0.16454543489E+02  0.42969789707E+02  0.51100000000E-03 0.  1.
         23    2    1    0    0    0 -0.74832541126E+01 -0.31329093237E+02  0.30624632247E+01  0.92644322659E+02  0.86810602261E+02 0.  0.
         11    1    3    3    0    0 -0.44606740282E+02 -0.17275709288E+02 -0.13392080264E+02  0.49674532952E+02  0.51100000000E-03 0. -1.
         22    1    1    0    0    0  0.74832541126E+01  0.31329093237E+02 -0.30624632247E+01  0.32355677341E+02  0.00000000000E+00 0. -1.
</event>
<event>
 5    1  0.1717510E-003  0.9118800E+02  0.7818608E-02  0.1130116E+00
         25   -1    0    0    0    0  0.00000000000E+00  0.00000000000E+00  0.99999998245E-14  0.12500000000E+03  0.12500000000E+03 0.  0.
        -11    1    3    3    0    0 -0.53460546863E+01 -0.17976097465E+02  0.56662770582E+02  0.59685760036E+02  0.51100000000E-03 0. -1.
         23    2    1    0    0    0 -0.15262950558E+02 -0.16466376284E+02  0.38848594743E+02  0.80130048795E+02  0.66389096987E+02 0.  0.
         11    1    3    3    0    0 -0.99168958716E+01  0.15097211814E+01 -0.17814175839E+02  0.20444288759E+02  0.51100000000E-03 0.  1.
         22    1    1    0    0    0  0.15262950558E+02  0.16466376284E+02 -0.38848594743E+02  0.44869951205E+02  0.00000000000E+00 0. -1.
</event>
<event>
 5    1  0.1717510E-003  0.9118800E+02  0.7818608E-02  0.1130116E+00
         25   -1    0    0    0    0  0.00000000000E+00  0.00000000000E+00  0.99999998245E-14  0.12500000000E+03  0.12500000000E+03 0.  0.
        -11    1    3    3    0    0 -0.15383262852E+02  0.25317556775E+02 -0.54946668832E+02  0.62424032816E+02  0.51100000000E-03 0. -1.
         23    2    1    0    0    0 -0.79502929324E+01  0.98092751879E+01 -0.20536826228E+02  0.10089211189E+03  0.97969525738E+02 0.  0.
         11    1    3    3    0    0  0.74329699195E+01 -0.15508281587E+02  0.34409842604E+02  0.38468079077E+02  0.51100000000E-03 0.  1.
         22    1    1    0    0    0  0.79502929324E+01 -0.98092751879E+01  0.20536826228E+02  0.24107888107E+02  0.00000000000E+00 0. -1.
</event>
<event>
 5    1  0.1717510E-003  0.9118800E+02  0.7818608E-02  0.1130116E+00
         25   -1    0    0    0    0  0.00000000000E+00  0.00000000000E+00  0.99999998245E-14  0.12500000000E+03  0.12500000000E+03 0.  0.
        -11    1    3    3    0    0 -0.38844664883E+02 -0.24933249622E+01 -0.29093363087E+02  0.48595765610E+02  0.51100000000E-03 0. -1.
         23    2    1    0    0    0 -0.28844491239E+02 -0.27518844471E+02 -0.48592089768E+01  0.84839031539E+02  0.74731237678E+02 0.  0.
         11    1    3    3    0    0  0.10000173644E+02 -0.25025519508E+02  0.24234154110E+02  0.36243265930E+02  0.51100000000E-03 0.  1.
         22    1    1    0    0    0  0.28844491239E+02  0.27518844471E+02  0.48592089768E+01  0.40160968461E+02  0.00000000000E+00 0. -1.
</event>
<event>
 5    1  0.1717510E-003  0.9118800E+02  0.7818608E-02  0.1130116E+00
         25   -1    0    0    0    0  0.00000000000E+00  0.00000000000E+00  0.99999998245E-14  0.12500000000E+03  0.12500000000E+03 0.  0.
        -11    1    3    3    0    0 -0.13172295398E+00 -0.27398517474E+02 -0.54245138556E+02  0.60771960376E+02  0.51100000000E-03 0. -1.
         23    2    1    0    0    0  0.29481492868E+01 -0.25200168155E+02 -0.28299475559E+02  0.86992101134E+02  0.78249762195E+02 0.  0.
         11    1    3    3    0    0  0.30798722408E+01  0.21983493195E+01  0.25945662997E+02  0.26220140758E+02  0.51100000000E-03 0.  1.
         22    1    1    0    0    0 -0.29481492868E+01  0.25200168155E+02  0.28299475559E+02  0.38007898866E+02  0.00000000000E+00 0. -1.
</event>
<event>
 5    1  0.1717510E-003  0.9118800E+02  0.7818608E-02  0.1130116E+00
         25   -1    0    0    0    0  0.00000000000E+00  0.00000000000E+00  0.99999998245E-14  0.12500000000E+03  0.12500000000E+03 0.  0.
        -11    1    3    3    0    0 -0.39843864749E+02 -0.17227629137E+02  0.15418919077E+01  0.43436185316E+02  0.51100000000E-03 0. -1.
         23    2    1    0    0    0  0.38929237786E+01 -0.59746628966E+01  0.28222938642E+02  0.95890109621E+02  0.91364803974E+02 0.  0.
         11    1    3    3    0    0  0.43736788528E+02  0.11252966241E+02  0.26681046734E+02  0.52453924306E+02  0.51100000000E-03 0.  1.
         22    1    1    0    0    0 -0.38929237786E+01  0.59746628966E+01 -0.28222938642E+02  0.29109890379E+02  0.00000000000E+00 0.  1.
</event>
<event>
 5    1  0.1717510E-003  0.9118800E+02  0.7818608E-02  0.1130116E+00
         25   -1    0    0    0    0  0.00000000000E+00  0.00000000000E+00  0.99999998245E-14  0.12500000000E+03  0.12500000000E+03 0.  0.
        -11    1    3    3    0    0  0.59316600570E+02  0.11829882805E+01  0.12881880812E+00  0.59328535790E+02  0.51100000000E-03 0. -1.
         23    2    1    0    0    0  0.25416277572E+02 -0.57328001623E+01  0.12538350586E+02  0.96085256378E+02  0.91631403429E+02 0.  0.
         11    1    3    3    0    0 -0.33900322998E+02 -0.69157884428E+01  0.12409531778E+02  0.36756720588E+02  0.51100000000E-03 0.  1.
         22    1    1    0    0    0 -0.25416277572E+02  0.57328001623E+01 -0.12538350586E+02  0.28914743622E+02  0.00000000000E+00 0. -1.
</event>
<event>
 5    1  0.1717510E-003  0.9118800E+02  0.7818608E-02  0.1130116E+00
         25   -1    0    0    0    0  0.00000000000E+00  0.00000000000E+00  0.99999998245E-14  0.12500000000E+03  0.12500000000E+03 0.  0.
        -11    1    3    3    0    0 -0.25054508963E+02 -0.33601139348E+02  0.45701997236E+02  0.62011591952E+02  0.51100000000E-03 0.  1.
         23    2    1    0    0    0 -0.62918424361E+01 -0.15919944489E+02  0.22749905952E+02  0.96529135338E+02  0.92234938253E+02 0.  0.
         11    1    3    3    0    0  0.18762666527E+02  0.17681194859E+02 -0.22952091284E+02  0.34517543386E+02  0.51100000000E-03 0. -1.
         22    1    1    0    0    0  0.62918424361E+01  0.15919944489E+02 -0.22749905952E+02  0.28470864662E+02  0.00000000000E+00 0.  1.
</event>
<event>
 5    1  0.1717510E-003  0.9118800E+02  0.7818608E-02  0.1130116E+00
         25   -1    0    0    0    0  0.00000000000E+00  0.00000000000E+00  0.99999998245E-14  0.12500000000E+03  0.12500000000E+03 0.  0.
        -11    1    3    3    0    0  0.33973194401E+02 -0.50282540553E+01  0.44210938707E+02  0.55982750721E+02  0.51100000000E-03 0. -1.
         23    2    1    0    0    0  0.28629344554E+02 -0.55930986838E+00  0.48475827730E+01  0.95957767719E+02  0.91457322997E+02 0.  0.
         11    1    3    3    0    0 -0.53438498466E+01  0.44689441869E+01 -0.39363355934E+02  0.39975016998E+02  0.51100000000E-03 0.  1.
         22    1    1    0    0    0 -0.28629344554E+02  0.55930986838E+00 -0.48475827730E+01  0.29042232281E+02  0.00000000000E+00 0. -1.
</event>
<event>
 5    1  0.1717510E-003  0.9118800E+02  0.7818608E-02  0.1130116E+00
         25   -1    0    0    0    0  0.00000000000E+00  0.00000000000E+00  0.99999998245E-14  0.12500000000E+03  0.12500000000E+03 0.  0.
        -11    1    3    3    0    0 -0.21359367252E+02 -0.14581640069E+02 -0.30922450317E+02  0.40311843550E+02  0.51100000000E-03 0. -1.
         23    2    1    0    0    0  0.21327183574E+02  0.14877388437E+02 -0.16715134906E+02  0.94087523865E+02  0.88864396505E+02 0.  0.
         11    1    3    3    0    0  0.42686550826E+02  0.29459028506E+02  0.14207315412E+02  0.53775680315E+02  0.51100000000E-03 0.  1.
         22    1    1    0    0    0 -0.21327183574E+02 -0.14877388437E+02  0.16715134906E+02  0.30912476135E+02  0.00000000000E+00 0.  1.
</event>
<event>
 5    1  0.1717510E-003  0.9118800E+02  0.7818608E-02  0.1130116E+00
         25   -1    0    0    0    0  0.00000000000E+00  0.00000000000E+00  0.99999998245E-14  0.12500000000E+03  0.12500000000E+03 0.  0.
        -11    1    3    3    0    0  0.45302687883E+01  0.21836338587E+01 -0.44954603993E+02  0.45235030811E+02  0.51100000000E-03 0.  1.
         23    2    1    0    0    0  0.14283916493E+02 -0.25764751412E+02 -0.47521096623E+01  0.95159838607E+02  0.90360166289E+02 0.  0.
         11    1    3    3    0    0  0.97536477043E+01 -0.27948385271E+02  0.40202494330E+02  0.49924807796E+02  0.51100000000E-03 0. -1.
         22    1    1    0    0    0 -0.14283916493E+02  0.25764751412E+02  0.47521096623E+01  0.29840161393E+02  0.00000000000E+00 0.  1.
</event>
<event>
 5    1  0.1717510E-003  0.9118800E+02  0.7818608E-02  0.1130116E+00
         25   -1    0    0    0    0  0.00000000000E+00  0.00000000000E+00  0.99999998245E-14  0.12500000000E+03  0.12500000000E+03 0.  0.
        -11    1    3    3    0    0  0.11045612111E+02 -0.48041296442E+02 -0.35245456764E+02  0.60598794819E+02  0.51100000000E-03 0.  1.
         23    2    1    0    0    0  0.14912001052E+02 -0.21959449136E+02 -0.11537336782E+02  0.96057033293E+02  0.91592894502E+02 0.  0.
         11    1    3    3    0    0  0.38663889419E+01  0.26081847306E+02  0.23708119982E+02  0.35458238474E+02  0.51100000000E-03 0. -1.
         22    1    1    0    0    0 -0.14912001052E+02  0.21959449136E+02  0.11537336782E+02  0.28942966707E+02  0.00000000000E+00 0.  1.
</event>
<event>
 5    1  0.1717510E-003  0.9118800E+02  0.7818608E-02  0.1130116E+00
         25   -1    0    0    0    0  0.00000000000E+00  0.00000000000E+00  0.99999998245E-14  0.12500000000E+03  0.12500000000E+03 0.  0.
        -11    1    3    3    0    0  0.20305931452E+02 -0.36377113244E+02  0.26688109478E+02  0.49476058936E+02  0.51100000000E-03 0.  1.
         23    2    1    0    0    0  0.28492705464E+02 -0.47567115552E+01 -0.57904873588E+01  0.95538324668E+02  0.90882237907E+02 0.  0.
         11    1    3    3    0    0  0.81867740119E+01  0.31620401688E+02 -0.32478596836E+02  0.46062265732E+02  0.51100000000E-03 0. -1.
         22    1    1    0    0    0 -0.28492705464E+02  0.47567115552E+01  0.57904873588E+01  0.29461675332E+02  0.00000000000E+00 0.  1.
</event>
<event>
 5    1  0.1717510E-003  0.9118800E+02  0.7818608E-02  0.1130116E+00
         25   -1    0    0    0    0  0.00000000000E+00  0.00000000000E+00  0.99999998245E-14  0.12500000000E+03  0.12500000000E+03 0.  0.
        -11    1    3    3    0    0 -0.72745110445E+01 -0.27255058236E+02  0.24604233852E+02  0.37431604749E+02  0.51100000000E-03 0.  1.
         23    2    1    0    0    0  0.19119922000E+02 -0.58857003698E+01 -0.22108135897E+02  0.95184189446E+02  0.90393845817E+02 0.  0.
         11    1    3    3    0    0  0.26394433044E+02  0.21369357867E+02 -0.46712369749E+02  0.57752584697E+02  0.51100000000E-03 0. -1.
         22    1    1    0    0    0 -0.19119922000E+02  0.58857003698E+01  0.22108135897E+02  0.29815810554E+02  0.00000000000E+00 0. -1.
</event>
<event>
 5    1  0.1717510E-003  0.9118800E+02  0.7818608E-02  0.1130116E+00
         25   -1    0    0    0    0  0.00000000000E+00  0.00000000000E+00  0.99999998245E-14  0.12500000000E+03  0.12500000000E+03 0.  0.
        -11    1    3    3    0    0  0.36494422256E+01  0.56068470238E+02  0.86460464183E+01  0.56848446789E+02  0.51100000000E-03 0.  1.
         23    2    1    0    0    0  0.14747955678E+02  0.18894743811E+02  0.15792133747E+02  0.96296254101E+02  0.91918787662E+02 0.  0.
         11    1    3    3    0    0  0.11098513452E+02 -0.37173726427E+02  0.71460873289E+01  0.39447807312E+02  0.51100000000E-03 0. -1.
         22    1    1    0    0    0 -0.14747955678E+02 -0.18894743811E+02 -0.15792133747E+02  0.28703745899E+02  0.00000000000E+00 0.  1.
</event>
<event>
 5    1  0.1717510E-003  0.9118800E+02  0.7818608E-02  0.1130116E+00
         25   -1    0    0    0    0  0.00000000000E+00  0.00000000000E+00  0.99999998245E-14  0.12500000000E+03  0.12500000000E+03 0.  0.
        -11    1    3    3    0    0  0.19906456382E+02 -0.26496558931E+02  0.48246973290E+02  0.58532940067E+02  0.51100000000E-03 0.  1.
         23    2    1    0    0    0 -0.44319429728E+01 -0.19865168179E+02  0.18991050872E+02  0.97162488643E+02  0.93089323560E+02 0.  0.
         11    1    3    3    0    0 -0.24338399354E+02  0.66313907522E+01 -0.29255922418E+02  0.38629548577E+02  0.51100000000E-03 0. -1.
         22    1    1    0    0    0  0.44319429728E+01  0.19865168179E+02 -0.18991050872E+02  0.27837511357E+02  0.00000000000E+00 0.  1.
</event>
<event>
 5    1  0.1717510E-003  0.9118800E+02  0.7818608E-02  0.1130116E+00
         25   -1    0    0    0    0  0.00000000000E+00  0.00000000000E+00  0.99999998245E-14  0.12500000000E+03  0.12500000000E+03 0.  0.
        -11    1    3    3    0    0 -0.20229383824E+01 -0.40025914320E+02  0.86869876562E+01  0.41007680398E+02  0.51100000000E-03 0.  1.
         23    2    1    0    0    0 -0.23992026366E+02  0.92137245865E+01 -0.90256436621E+01  0.97760831632E+02  0.93889338628E+02 0.  0.
         11    1    3    3    0    0 -0.21969087983E+02  0.49239638906E+02 -0.17712631318E+02  0.56753151233E+02  0.51100000000E-03 0. -1.
         22    1    1    0    0    0  0.23992026366E+02 -0.92137245865E+01  0.90256436621E+01  0.27239168368E+02  0.00000000000E+00 0. -1.
</event>
<event>
 5    1  0.1717510E-003  0.9118800E+02  0.7818608E-02  0.1130116E+00
         25   -1    0    0    0    0  0.00000000000E+00  0.00000000000E+00  0.99999998245E-14  0.12500000000E+03  0.12500000000E+03 0.  0.
        -11    1    3    3    0    0 -0.13609229319E+02 -0.14683952387E+02 -0.26387630257E+02  0.33123052565E+02  0.51100000000E-03 0. -1.
         23    2    1    0    0    0  0.24967433241E+02  0.10113522200E+02  0.14363142452E+02  0.94472046989E+02  0.89403645045E+02 0.  0.
         11    1    3    3    0    0  0.38576662559E+02  0.24797474588E+02  0.40750772710E+02  0.61348994424E+02  0.51100000000E-03 0.  1.
         22    1    1    0    0    0 -0.24967433241E+02 -0.10113522200E+02 -0.14363142452E+02  0.30527953011E+02  0.00000000000E+00 0.  1.
</event>
<event>
 5    1  0.1717510E-003  0.9118800E+02  0.7818608E-02  0.1130116E+00
         25   -1    0    0    0    0  0.00000000000E+00  0.00000000000E+00  0.99999998245E-14  0.12500000000E+03  0.12500000000E+03 0.  0.
        -11    1    3    3    0    0  0.45339126686E+01  0.34880956640E+02 -0.11351457552E+01  0.35192698907E+02  0.51100000000E-03 0.  1.
         23    2    1    0    0    0  0.89757597401E+01 -0.26465187571E+02 -0.40170182458E+01  0.96766919196E+02  0.92556630227E+02 0.  0.
         11    1    3    3    0    0  0.44418470714E+01 -0.61346144211E+02 -0.28818724907E+01  0.61574220290E+02  0.51100000000E-03 0. -1.
         22    1    1    0    0    0 -0.89757597401E+01  0.26465187571E+02  0.40170182458E+01  0.28233080804E+02  0.00000000000E+00 0. -1.
</event>
<event>
 5    1  0.1717510E-003  0.9118800E+02  0.7818608E-02  0.1130116E+00
         25   -1    0    0    0    0  0.00000000000E+00  0.00000000000E+00  0.99999998245E-14  0.12500000000E+03  0.12500000000E+03 0.  0.
        -11    1    3    3    0    0 -0.48124684883E+02 -0.12932053099E+02  0.23738759632E+02  0.55197391257E+02  0.51100000000E-03 0. -1.
         23    2    1    0    0    0 -0.36427797402E+02  0.64200416877E+01 -0.39324386442E-01  0.88010773119E+02  0.79860461304E+02 0.  0.
         11    1    3    3    0    0  0.11696887481E+02  0.19352094787E+02 -0.23778084018E+02  0.32813381862E+02  0.51100000000E-03 0.  1.
         22    1    1    0    0    0  0.36427797402E+02 -0.64200416877E+01  0.39324386442E-01  0.36989226881E+02  0.00000000000E+00 0. -1.
</event>
<event>
 5    1  0.1717510E-003  0.9118800E+02  0.7818608E-02  0.1130116E+00
         25   -1    0    0    0    0  0.00000000000E+00  0.00000000000E+00  0.99999998245E-14  0.12500000000E+03  0.12500000000E+03 0.  0.
        -11    1    3    3    0    0 -0.24686602953E+01 -0.34833090429E+02 -0.17796538814E+02  0.39193816687E+02  0.51100000000E-03 0.  1.
         23    2    1    0    0    0  0.31552299907E+02  0.14623900653E+00 -0.19300843799E+02  0.88012277893E+02  0.79862816588E+02 0.  0.
         11    1    3    3    0    0  0.34020960202E+02  0.34979329435E+02 -0.15043049854E+01  0.48818461207E+02  0.51100000000E-03 0. -1.
         22    1    1    0    0    0 -0.31552299907E+02 -0.14623900653E+00  0.19300843799E+02  0.36987722107E+02  0.00000000000E+00 0. -1.
</event>
<event>
 5    1  0.1717510E-003  0.9118800E+02  0.7818608E-02  0.1130116E+00
         25   -1    0    0    0    0  0.00000000000E+00  0.00000000000E+00  0.99999998245E-14  0.12500000000E+03  0.12500000000E+03 0.  0.
        -11    1    3    3    0    0  0.34927825896E+02 -0.30408127703E+02 -0.34179056546E+02  0.57557060026E+02  0.51100000000E-03 0. -1.
         23    2    1    0    0    0  0.12885359460E+02 -0.26209618260E+02 -0.34724629891E+01  0.95588529840E+02  0.90951264202E+02 0.  0.
         11    1    3    3    0    0 -0.22042466435E+02  0.41985094435E+01  0.30706593557E+02  0.38031469814E+02  0.51100000000E-03 0.  1.
         22    1    1    0    0    0 -0.12885359460E+02  0.26209618260E+02  0.34724629891E+01  0.29411470160E+02  0.00000000000E+00 0. -1.
</event>
<event>
 5    1  0.1717510E-003  0.9118800E+02  0.7818608E-02  0.1130116E+00
         25   -1    0    0    0    0  0.00000000000E+00  0.00000000000E+00  0.99999998245E-14  0.12500000000E+03  0.12500000000E+03 0.  0.
        -11    1    3    3    0    0 -0.32157284330E+02 -0.10082814274E+02 -0.37676589565E+02  0.50549772310E+02  0.51100000000E-03 0.  1.
         23    2    1    0    0    0 -0.28206353622E+02  0.10221035238E+02  0.16171267215E+01  0.94955315864E+02  0.90076794826E+02 0.  0.
         11    1    3    3    0    0  0.39509307079E+01  0.20303849512E+02  0.39293716286E+02  0.44405543554E+02  0.51100000000E-03 0. -1.
         22    1    1    0    0    0  0.28206353622E+02 -0.10221035238E+02 -0.16171267215E+01  0.30044684136E+02  0.00000000000E+00 0.  1.
</event>
<event>
 5    1  0.1717510E-003  0.9118800E+02  0.7818608E-02  0.1130116E+00
         25   -1    0    0    0    0  0.00000000000E+00  0.00000000000E+00  0.99999998245E-14  0.12500000000E+03  0.12500000000E+03 0.  0.
        -11    1    3    3    0    0  0.27661776048E+02  0.26111984190E+02 -0.24491891125E+02  0.45242262362E+02  0.51100000000E-03 0. -1.
         23    2    1    0    0    0  0.18575965786E+02  0.30193519244E+01  0.20838700887E+02  0.96920925130E+02  0.92764385852E+02 0.  0.
         11    1    3    3    0    0 -0.90858102624E+01 -0.23092632266E+02  0.45330592012E+02  0.51678662768E+02  0.51100000000E-03 0.  1.
         22    1    1    0    0    0 -0.18575965786E+02 -0.30193519244E+01 -0.20838700887E+02  0.28079074870E+02  0.00000000000E+00 0. -1.
</event>
<event>
 5    1  0.1717510E-003  0.9118800E+02  0.7818608E-02  0.1130116E+00
         25   -1    0    0    0    0  0.00000000000E+00  0.00000000000E+00  0.99999998245E-14  0.12500000000E+03  0.12500000000E+03 0.  0.
        -11    1    3    3    0    0 -0.24333932864E+01 -0.33181522578E+02  0.19513378485E+02  0.38570802216E+02  0.51100000000E-03 0. -1.
         23    2    1    0    0    0 -0.17708353805E+02  0.21094803079E+02  0.96772438630E+01  0.95807097434E+02  0.91251160861E+02 0.  0.
         11    1    3    3    0    0 -0.15274960519E+02  0.54276325657E+02 -0.98361346216E+01  0.57236295218E+02  0.51100000000E-03 0.  1.
         22    1    1    0    0    0  0.17708353805E+02 -0.21094803079E+02 -0.96772438630E+01  0.29192902566E+02  0.00000000000E+00 0. -1.
</event>
<event>
 5    1  0.1717510E-003  0.9118800E+02  0.7818608E-02  0.1130116E+00
         25   -1    0    0    0    0  0.00000000000E+00  0.00000000000E+00  0.99999998245E-14  0.12500000000E+03  0.12500000000E+03 0.  0.
        -11    1    3    3    0    0 -0.38201287015E+02  0.33017131313E+02 -0.28274721042E+02  0.57869932953E+02  0.51100000000E-03 0.  1.
         23    2    1    0    0    0 -0.27130085694E+02  0.11163225253E+02  0.49736808544E+00  0.95658791388E+02  0.91047777825E+02 0.  0.
         11    1    3    3    0    0  0.11071201321E+02 -0.21853906060E+02  0.28772089127E+02  0.37788858434E+02  0.51100000000E-03 0. -1.
         22    1    1    0    0    0  0.27130085694E+02 -0.11163225253E+02 -0.49736808544E+00  0.29341208612E+02  0.00000000000E+00 0.  1.
</event>
<event>
 5    1  0.1717510E-003  0.9118800E+02  0.7818608E-02  0.1130116E+00
         25   -1    0    0    0    0  0.00000000000E+00  0.00000000000E+00  0.99999998245E-14  0.12500000000E+03  0.12500000000E+03 0.  0.
        -11    1    3    3    0    0 -0.30631286055E+02  0.40767519105E+02 -0.19286707222E+01  0.51029266802E+02  0.51100000000E-03 0. -1.
         23    2    1    0    0    0 -0.43502705363E+02  0.21177185644E+02  0.70003095851E+01  0.76112753197E+02  0.58336851982E+02 0.  0.
         11    1    3    3    0    0 -0.12871419308E+02 -0.19590333461E+02  0.89289803073E+01  0.25083486395E+02  0.51100000000E-03 0.  1.
         22    1    1    0    0    0  0.43502705363E+02 -0.21177185644E+02 -0.70003095851E+01  0.48887246803E+02  0.00000000000E+00 0. -1.
</event>
<event>
 5    1  0.1717510E-003  0.9118800E+02  0.7818608E-02  0.1130116E+00
         25   -1    0    0    0    0  0.00000000000E+00  0.00000000000E+00  0.99999998245E-14  0.12500000000E+03  0.12500000000E+03 0.  0.
        -11    1    3    3    0    0  0.35379392500E+02  0.87598246949E+01  0.36272554664E+02  0.51421145110E+02  0.51100000000E-03 0. -1.
         23    2    1    0    0    0  0.19500463061E+02  0.28386532529E+02  0.73994947409E+01  0.89774784443E+02  0.82575396523E+02 0.  0.
         11    1    3    3    0    0 -0.15878929439E+02  0.19626707834E+02 -0.28873059923E+02  0.38353639333E+02  0.51100000000E-03 0.  1.
         22    1    1    0    0    0 -0.19500463061E+02 -0.28386532529E+02 -0.73994947409E+01  0.35225215557E+02  0.00000000000E+00 0. -1.
</event>
<event>
 5    1  0.1717510E-003  0.9118800E+02  0.7818608E-02  0.1130116E+00
         25   -1    0    0    0    0  0.00000000000E+00  0.00000000000E+00  0.99999998245E-14  0.12500000000E+03  0.12500000000E+03 0.  0.
        -11    1    3    3    0    0 -0.28960157192E+02  0.22869331693E+02 -0.98633257904E+01  0.38196625932E+02  0.51100000000E-03 0. -1.
         23    2    1    0    0    0  0.24519049329E+02  0.37970502145E+01  0.98574227309E+01  0.98302244416E+02  0.94607405123E+02 0.  0.
         11    1    3    3    0    0  0.53479206521E+02 -0.19072281479E+02  0.19720748521E+02  0.60105618484E+02  0.51100000000E-03 0.  1.
         22    1    1    0    0    0 -0.24519049329E+02 -0.37970502145E+01 -0.98574227309E+01  0.26697755584E+02  0.00000000000E+00 0.  1.
</event>
<event>
 5    1  0.1717510E-003  0.9118800E+02  0.7818608E-02  0.1130116E+00
         25   -1    0    0    0    0  0.00000000000E+00  0.00000000000E+00  0.99999998245E-14  0.12500000000E+03  0.12500000000E+03 0.  0.
        -11    1    3    3    0    0 -0.15826768350E+02 -0.50331966458E+02  0.26378689062E+02  0.58988377506E+02  0.51100000000E-03 0.  1.
         23    2    1    0    0    0  0.32355911947E+01 -0.16027084717E+02  0.20667264177E+02  0.98647157583E+02  0.95062029200E+02 0.  0.
         11    1    3    3    0    0  0.19062359545E+02  0.34304881741E+02 -0.57114248852E+01  0.39658780076E+02  0.51100000000E-03 0. -1.
         22    1    1    0    0    0 -0.32355911947E+01  0.16027084717E+02 -0.20667264177E+02  0.26352842417E+02  0.00000000000E+00 0.  1.
</event>
<event>
 5    1  0.1717510E-003  0.9118800E+02  0.7818608E-02  0.1130116E+00
         25   -1    0    0    0    0  0.00000000000E+00  0.00000000000E+00  0.99999998245E-14  0.12500000000E+03  0.12500000000E+03 0.  0.
        -11    1    3    3    0    0 -0.35243880377E+01 -0.16576449943E+02  0.44707139356E+02  0.47811382676E+02  0.51100000000E-03 0. -1.
         23    2    1    0    0    0  0.22011479387E+02 -0.18543599049E+02  0.39483136526E+01  0.95949019445E+02  0.91445365445E+02 0.  0.
         11    1    3    3    0    0  0.25535867425E+02 -0.19671491064E+01 -0.40758825703E+02  0.48137636769E+02  0.51100000000E-03 0.  1.
         22    1    1    0    0    0 -0.22011479387E+02  0.18543599049E+02 -0.39483136526E+01  0.29050980555E+02  0.00000000000E+00 0. -1.
</event>
<event>
 5    1  0.1717510E-003  0.9118800E+02  0.7818608E-02  0.1130116E+00
         25   -1    0    0    0    0  0.00000000000E+00  0.00000000000E+00  0.99999998245E-14  0.12500000000E+03  0.12500000000E+03 0.  0.
        -11    1    3    3    0    0  0.36537762898E+02 -0.25152228612E+02  0.38353930968E+02  0.58640146168E+02  0.51100000000E-03 0.  1.
         23    2    1    0    0    0  0.68356861933E+01 -0.23421592564E+02  0.16972391870E+02  0.95278632438E+02  0.90524350921E+02 0.  0.
         11    1    3    3    0    0 -0.29702076705E+02  0.17306360480E+01 -0.21381539098E+02  0.36638486270E+02  0.51100000000E-03 0. -1.
         22    1    1    0    0    0 -0.68356861933E+01  0.23421592564E+02 -0.16972391870E+02  0.29721367562E+02  0.00000000000E+00 0.  1.
</event>
<event>
 5    1  0.1717510E-003  0.9118800E+02  0.7818608E-02  0.1130116E+00
         25   -1    0    0    0    0  0.00000000000E+00  0.00000000000E+00  0.99999998245E-14  0.12500000000E+03  0.12500000000E+03 0.  0.
        -11    1    3    3    0    0  0.40383483665E+01 -0.28100196190E+02 -0.29024497009E+02  0.40599885595E+02  0.51100000000E-03 0.  1.
         23    2    1    0    0    0  0.26229788976E+02 -0.16727131725E+01  0.13571037888E+02  0.95420059695E+02  0.90719429693E+02 0.  0.
         11    1    3    3    0    0  0.22191440609E+02  0.26427483017E+02  0.42595534897E+02  0.54820174100E+02  0.51100000000E-03 0. -1.
         22    1    1    0    0    0 -0.26229788976E+02  0.16727131725E+01 -0.13571037888E+02  0.29579940305E+02  0.00000000000E+00 0. -1.
</event>
<event>
 5    1  0.1717510E-003  0.9118800E+02  0.7818608E-02  0.1130116E+00
         25   -1    0    0    0    0  0.00000000000E+00  0.00000000000E+00  0.99999998245E-14  0.12500000000E+03  0.12500000000E+03 0.  0.
        -11    1    3    3    0    0  0.42685560175E+02  0.82004007725E+01 -0.13132685813E+02  0.45406729206E+02  0.51100000000E-03 0.  1.
         23    2    1    0    0    0 -0.52295992451E+01 -0.20145012745E+02 -0.11758663018E+02  0.10109526401E+03  0.98228386949E+02 0.  0.
         11    1    3    3    0    0 -0.47915159420E+02 -0.28345413518E+02  0.13740227952E+01  0.55688534804E+02  0.51100000000E-03 0. -1.
         22    1    1    0    0    0  0.52295992451E+01  0.20145012745E+02  0.11758663018E+02  0.23904735990E+02  0.00000000000E+00 0.  1.
</event>
<event>
 5    1  0.1717510E-003  0.9118800E+02  0.7818608E-02  0.1130116E+00
         25   -1    0    0    0    0  0.00000000000E+00  0.00000000000E+00  0.99999998245E-14  0.12500000000E+03  0.12500000000E+03 0.  0.
        -11    1    3    3    0    0  0.38616648034E+02 -0.91954098341E+01 -0.21556744245E+02  0.45171830715E+02  0.51100000000E-03 0. -1.
         23    2    1    0    0    0 -0.50203681791E+01 -0.28608517191E+02 -0.66732079883E+01  0.95197599805E+02  0.90412388262E+02 0.  0.
         11    1    3    3    0    0 -0.43637016213E+02 -0.19413107357E+02  0.14883536257E+02  0.50025769090E+02  0.51100000000E-03 0.  1.
         22    1    1    0    0    0  0.50203681791E+01  0.28608517191E+02  0.66732079883E+01  0.29802400195E+02  0.00000000000E+00 0.  1.
</event>
<event>
 5    1  0.1717510E-003  0.9118800E+02  0.7818608E-02  0.1130116E+00
         25   -1    0    0    0    0  0.00000000000E+00  0.00000000000E+00  0.99999998245E-14  0.12500000000E+03  0.12500000000E+03 0.  0.
        -11    1    3    3    0    0  0.15526552686E+02  0.23659560363E+02 -0.24804722303E+02  0.37631408208E+02  0.51100000000E-03 0. -1.
         23    2    1    0    0    0 -0.62041369931E+00  0.79514048803E+01  0.28449200001E+02  0.95453989551E+02  0.90766168740E+02 0.  0.
         11    1    3    3    0    0 -0.16146966386E+02 -0.15708155483E+02  0.53253922305E+02  0.57822581343E+02  0.51100000000E-03 0.  1.
         22    1    1    0    0    0  0.62041369931E+00 -0.79514048803E+01 -0.28449200001E+02  0.29546010449E+02  0.00000000000E+00 0.  1.
</event>
<event>
 5    1  0.1717510E-003  0.9118800E+02  0.7818608E-02  0.1130116E+00
         25   -1    0    0    0    0  0.00000000000E+00  0.00000000000E+00  0.99999998245E-14  0.12500000000E+03  0.12500000000E+03 0.  0.
        -11    1    3    3    0    0 -0.11023801255E+02  0.54735419710E+02  0.18126364971E+02  0.58703112969E+02  0.51100000000E-03 0. -1.
         23    2    1    0    0    0 -0.29927788360E+01  0.29310206858E+02 -0.63086881528E+01  0.94869542031E+02  0.89957687319E+02 0.  0.
         11    1    3    3    0    0  0.80310224189E+01 -0.25425212852E+02 -0.24435053124E+02  0.36166429062E+02  0.51100000000E-03 0.  1.
         22    1    1    0    0    0  0.29927788360E+01 -0.29310206858E+02  0.63086881528E+01  0.30130457969E+02  0.00000000000E+00 0. -1.
</event>
<event>
 5    1  0.1717510E-003  0.9118800E+02  0.7818608E-02  0.1130116E+00
         25   -1    0    0    0    0  0.00000000000E+00  0.00000000000E+00  0.99999998245E-14  0.12500000000E+03  0.12500000000E+03 0.  0.
        -11    1    3    3    0    0 -0.47559746086E+02 -0.33624956940E+02  0.19256594121E+02  0.61346422833E+02  0.51100000000E-03 0.  1.
         23    2    1    0    0    0 -0.20944431865E+02 -0.61686347250E+01  0.27592529197E+01  0.10299239320E+03  0.10061360892E+03 0.  0.
         11    1    3    3    0    0  0.26615314221E+02  0.27456322215E+02 -0.16497341202E+02  0.41645970365E+02  0.51100000000E-03 0. -1.
         22    1    1    0    0    0  0.20944431865E+02  0.61686347250E+01 -0.27592529197E+01  0.22007606803E+02  0.00000000000E+00 0.  1.
</event>
<event>
 5    1  0.1717510E-003  0.9118800E+02  0.7818608E-02  0.1130116E+00
         25   -1    0    0    0    0  0.00000000000E+00  0.00000000000E+00  0.99999998245E-14  0.12500000000E+03  0.12500000000E+03 0.  0.
        -11    1    3    3    0    0  0.45906220459E+01  0.24630482444E+02 -0.32599520319E+02  0.41115242933E+02  0.51100000000E-03 0. -1.
         23    2    1    0    0    0 -0.15018796992E+01  0.17356426745E+02  0.22228400445E+02  0.96758134298E+02  0.92544765246E+02 0.  0.
         11    1    3    3    0    0 -0.60925017451E+01 -0.72740556989E+01  0.54827920764E+02  0.55642891365E+02  0.51100000000E-03 0.  1.
         22    1    1    0    0    0  0.15018796992E+01 -0.17356426745E+02 -0.22228400445E+02  0.28241865702E+02  0.00000000000E+00 0.  1.
</event>
<event>
 5    1  0.1717510E-003  0.9118800E+02  0.7818608E-02  0.1130116E+00
         25   -1    0    0    0    0  0.00000000000E+00  0.00000000000E+00  0.99999998245E-14  0.12500000000E+03  0.12500000000E+03 0.  0.
        -11    1    3    3    0    0  0.52698274198E+01 -0.49378511119E+02  0.14903551557E+02  0.51847124227E+02  0.51100000000E-03 0.  1.
         23    2    1    0    0    0 -0.10447427615E+01 -0.74080307111E+01  0.27803894051E+02  0.96207172232E+02  0.91797565644E+02 0.  0.
         11    1    3    3    0    0 -0.63145701813E+01  0.41970480408E+02  0.12900342494E+02  0.44360048005E+02  0.51100000000E-03 0. -1.
         22    1    1    0    0    0  0.10447427615E+01  0.74080307111E+01 -0.27803894051E+02  0.28792827768E+02  0.00000000000E+00 0.  1.
</event>
<event>
 5    1  0.1717510E-003  0.9118800E+02  0.7818608E-02  0.1130116E+00
         25   -1    0    0    0    0  0.00000000000E+00  0.00000000000E+00  0.99999998245E-14  0.12500000000E+03  0.12500000000E+03 0.  0.
        -11    1    3    3    0    0  0.15771827432E+01 -0.20147434299E+02  0.25965131077E+02  0.32902806056E+02  0.51100000000E-03 0.  1.
         23    2    1    0    0    0 -0.22711290587E+02  0.23311894487E+02 -0.57745782004E+01  0.91945606977E+02  0.85798611552E+02 0.  0.
         11    1    3    3    0    0 -0.24288473331E+02  0.43459328787E+02 -0.31739709278E+02  0.59042800921E+02  0.51100000000E-03 0. -1.
         22    1    1    0    0    0  0.22711290587E+02 -0.23311894487E+02  0.57745782004E+01  0.33054393023E+02  0.00000000000E+00 0. -1.
</event>
<event>
 5    1  0.1717510E-003  0.9118800E+02  0.7818608E-02  0.1130116E+00
         25   -1    0    0    0    0  0.00000000000E+00  0.00000000000E+00  0.99999998245E-14  0.12500000000E+03  0.12500000000E+03 0.  0.
        -11    1    3    3    0    0  0.17471598278E+02 -0.36087078343E+02  0.17212194490E+02  0.43632483417E+02  0.51100000000E-03 0. -1.
         23    2    1    0    0    0  0.24094879053E+02  0.35591579704E+01 -0.16071085141E+02  0.95819345798E+02  0.91267937687E+02 0.  0.
         11    1    3    3    0    0  0.66232807746E+01  0.39646236313E+02 -0.33283279630E+02  0.52186862382E+02  0.51100000000E-03 0.  1.
         22    1    1    0    0    0 -0.24094879053E+02 -0.35591579704E+01  0.16071085141E+02  0.29180654202E+02  0.00000000000E+00 0.  1.
</event>
<event>
 5    1  0.1717510E-003  0.9118800E+02  0.7818608E-02  0.1130116E+00
         25   -1    0    0    0    0  0.00000000000E+00  0.00000000000E+00  0.99999998245E-14  0.12500000000E+03  0.12500000000E+03 0.  0.
        -11    1    3    3    0    0 -0.75268141086E+01 -0.85109230748E+00  0.33535079865E+02  0.34379919583E+02  0.51100000000E-03 0. -1.
         23    2    1    0    0    0  0.50836103124E+01  0.18232176760E+01 -0.27608813669E+02  0.96867922069E+02  0.92692936717E+02 0.  0.
         11    1    3    3    0    0  0.12610424421E+02  0.26743099835E+01 -0.61143893534E+02  0.62488002486E+02  0.51100000000E-03 0.  1.
         22    1    1    0    0    0 -0.50836103124E+01 -0.18232176760E+01  0.27608813669E+02  0.28132077931E+02  0.00000000000E+00 0.  1.
</event>
<event>
 5    1  0.1717510E-003  0.9118800E+02  0.7818608E-02  0.1130116E+00
         25   -1    0    0    0    0  0.00000000000E+00  0.00000000000E+00  0.99999998245E-14  0.12500000000E+03  0.12500000000E+03 0.  0.
        -11    1    3    3    0    0  0.38804178114E+01 -0.62173164393E+01 -0.35195052410E+02  0.35950026154E+02  0.51100000000E-03 0.  1.
         23    2    1    0    0    0  0.48554223729E+01 -0.14081321777E+02  0.24586030503E+02  0.96254015145E+02  0.91861329112E+02 0.  0.
         11    1    3    3    0    0  0.97500456153E+00 -0.78640053378E+01  0.59781082912E+02  0.60303988991E+02  0.51100000000E-03 0. -1.
         22    1    1    0    0    0 -0.48554223729E+01  0.14081321777E+02 -0.24586030503E+02  0.28745984855E+02  0.00000000000E+00 0.  1.
</event>
<event>
 5    1  0.1717510E-003  0.9118800E+02  0.7818608E-02  0.1130116E+00
         25   -1    0    0    0    0  0.00000000000E+00  0.00000000000E+00  0.99999998245E-14  0.12500000000E+03  0.12500000000E+03 0.  0.
        -11    1    3    3    0    0  0.38759755742E+02  0.34186388229E+02 -0.14879893554E+02  0.53781400481E+02  0.51100000000E-03 0. -1.
         23    2    1    0    0    0  0.20442836181E+02  0.99683105386E+01  0.16079571382E+02  0.97146286029E+02  0.93067564207E+02 0.  0.
         11    1    3    3    0    0 -0.18316919561E+02 -0.24218077690E+02  0.30959464936E+02  0.43364885548E+02  0.51100000000E-03 0.  1.
         22    1    1    0    0    0 -0.20442836181E+02 -0.99683105386E+01 -0.16079571382E+02  0.27853713971E+02  0.00000000000E+00 0. -1.
</event>
<event>
 5    1  0.1717510E-003  0.9118800E+02  0.7818608E-02  0.1130116E+00
         25   -1    0    0    0    0  0.00000000000E+00  0.00000000000E+00  0.99999998245E-14  0.12500000000E+03  0.12500000000E+03 0.  0.
        -11    1    3    3    0    0 -0.33992573486E+01  0.54012830761E+02  0.27109602016E+02  0.60529921189E+02  0.51100000000E-03 0.  1.
         23    2    1    0    0    0  0.21286504800E+01  0.29777071415E+02  0.32761938901E+01  0.94967707692E+02  0.90093989383E+02 0.  0.
         11    1    3    3    0    0  0.55279078285E+01 -0.24235759347E+02 -0.23833408126E+02  0.34437786503E+02  0.51100000000E-03 0. -1.
         22    1    1    0    0    0 -0.21286504800E+01 -0.29777071415E+02 -0.32761938901E+01  0.30032292308E+02  0.00000000000E+00 0.  1.
</event>
<event>
 5    1  0.1717510E-003  0.9118800E+02  0.7818608E-02  0.1130116E+00
         25   -1    0    0    0    0  0.00000000000E+00  0.00000000000E+00  0.99999998245E-14  0.12500000000E+03  0.12500000000E+03 0.  0.
        -11    1    3    3    0    0 -0.42551744488E+02 -0.19524728591E+02  0.15870485388E+02  0.49434181416E+02  0.51100000000E-03 0. -1.
         23    2    1    0    0    0  0.20446349603E+01 -0.28141906968E+02  0.90715886468E+01  0.95361491595E+02  0.90638694268E+02 0.  0.
         11    1    3    3    0    0  0.44596379448E+02 -0.86171783769E+01 -0.67988967417E+01  0.45927310179E+02  0.51100000000E-03 0.  1.
         22    1    1    0    0    0 -0.20446349603E+01  0.28141906968E+02 -0.90715886468E+01  0.29638508405E+02  0.00000000000E+00 0. -1.
</event>
<event>
 5    1  0.1717510E-003  0.9118800E+02  0.7818608E-02  0.1130116E+00
         25   -1    0    0    0    0  0.00000000000E+00  0.00000000000E+00  0.99999998245E-14  0.12500000000E+03  0.12500000000E+03 0.  0.
        -11    1    3    3    0    0  0.38037851958E+02 -0.33539400048E+02 -0.66676979673E+01  0.51149073634E+02  0.51100000000E-03 0.  1.
         23    2    1    0    0    0  0.22588175474E+02  0.68517079367E+01 -0.17363340575E+02  0.95697147429E+02  0.91100421828E+02 0.  0.
         11    1    3    3    0    0 -0.15449676485E+02  0.40391107985E+02 -0.10695642608E+02  0.44548073794E+02  0.51100000000E-03 0. -1.
         22    1    1    0    0    0 -0.22588175474E+02 -0.68517079367E+01  0.17363340575E+02  0.29302852571E+02  0.00000000000E+00 0.  1.
</event>
<event>
 5    1  0.1717510E-003  0.9118800E+02  0.7818608E-02  0.1130116E+00
         25   -1    0    0    0    0  0.00000000000E+00  0.00000000000E+00  0.99999998245E-14  0.12500000000E+03  0.12500000000E+03 0.  0.
        -11    1    3    3    0    0 -0.27287808277E+02 -0.29637684645E+01  0.52012438881E+02  0.58810732036E+02  0.51100000000E-03 0.  1.
         23    2    1    0    0    0 -0.21796015710E+02 -0.10271051914E+02  0.15734268498E+02  0.96222786559E+02  0.91818825084E+02 0.  0.
         11    1    3    3    0    0  0.54917925669E+01 -0.73072834498E+01 -0.36278170383E+02  0.37412054523E+02  0.51100000000E-03 0. -1.
         22    1    1    0    0    0  0.21796015710E+02  0.10271051914E+02 -0.15734268498E+02  0.28777213441E+02  0.00000000000E+00 0.  1.
</event>
<event>
 5    1  0.1717510E-003  0.9118800E+02  0.7818608E-02  0.1130116E+00
         25   -1    0    0    0    0  0.00000000000E+00  0.00000000000E+00  0.99999998245E-14  0.12500000000E+03  0.12500000000E+03 0.  0.
        -11    1    3    3    0    0  0.33571004077E+02 -0.97341156597E+00  0.19339272306E+02  0.38755222853E+02  0.51100000000E-03 0. -1.
         23    2    1    0    0    0 -0.12646296476E+02 -0.19274003361E+02 -0.13456117131E+02  0.98307620781E+02  0.94614508376E+02 0.  0.
         11    1    3    3    0    0 -0.46217300552E+02 -0.18300591796E+02 -0.32795389437E+02  0.59552397928E+02  0.51100000000E-03 0.  1.
         22    1    1    0    0    0  0.12646296476E+02  0.19274003361E+02  0.13456117131E+02  0.26692379219E+02  0.00000000000E+00 0.  1.
</event>
<event>
 5    1  0.1717510E-003  0.9118800E+02  0.7818608E-02  0.1130116E+00
         25   -1    0    0    0    0  0.00000000000E+00  0.00000000000E+00  0.99999998245E-14  0.12500000000E+03  0.12500000000E+03 0.  0.
        -11    1    3    3    0    0  0.34737091677E+02  0.10642348097E+02  0.90214661607E+01  0.37434101607E+02  0.51100000000E-03 0.  1.
         23    2    1    0    0    0 -0.11402740164E+02  0.56464693033E+01 -0.26318331751E+02  0.95767147163E+02  0.91196418739E+02 0.  0.
         11    1    3    3    0    0 -0.46139831840E+02 -0.49958787934E+01 -0.35339797912E+02  0.58333045556E+02  0.51100000000E-03 0. -1.
         22    1    1    0    0    0  0.11402740164E+02 -0.56464693033E+01  0.26318331751E+02  0.29232852837E+02  0.00000000000E+00 0. -1.
</event>
<event>
 5    1  0.1717510E-003  0.9118800E+02  0.7818608E-02  0.1130116E+00
         25   -1    0    0    0    0  0.00000000000E+00  0.00000000000E+00  0.99999998245E-14  0.12500000000E+03  0.12500000000E+03 0.  0.
        -11    1    3    3    0    0  0.48350256476E+02  0.17491177026E+02 -0.30919253297E+02  0.59997406609E+02  0.51100000000E-03 0.  1.
         23    2    1    0    0    0  0.14935879258E+02  0.18306651775E+02 -0.14951411365E+02  0.97040052034E+02  0.92924770694E+02 0.  0.
         11    1    3    3    0    0 -0.33414377218E+02  0.81547474891E+00  0.15967841932E+02  0.37042645426E+02  0.51100000000E-03 0. -1.
         22    1    1    0    0    0 -0.14935879258E+02 -0.18306651775E+02  0.14951411365E+02  0.27959947966E+02  0.00000000000E+00 0.  1.
</event>
<event>
 5    1  0.1717510E-003  0.9118800E+02  0.7818608E-02  0.1130116E+00
         25   -1    0    0    0    0  0.00000000000E+00  0.00000000000E+00  0.99999998245E-14  0.12500000000E+03  0.12500000000E+03 0.  0.
        -11    1    3    3    0    0 -0.27083401358E+02 -0.42161860118E+01  0.17632854884E+02  0.32591477801E+02  0.51100000000E-03 0.  1.
         23    2    1    0    0    0  0.14669332350E+02  0.18126209529E+02 -0.20933411736E+02  0.93663814680E+02  0.88266379047E+02 0.  0.
         11    1    3    3    0    0  0.41752733708E+02  0.22342395541E+02 -0.38566266621E+02  0.61072336879E+02  0.51100000000E-03 0. -1.
         22    1    1    0    0    0 -0.14669332350E+02 -0.18126209529E+02  0.20933411736E+02  0.31336185320E+02  0.00000000000E+00 0. -1.
</event>
<event>
 5    1  0.1717510E-003  0.9118800E+02  0.7818608E-02  0.1130116E+00
         25   -1    0    0    0    0  0.00000000000E+00  0.00000000000E+00  0.99999998245E-14  0.12500000000E+03  0.12500000000E+03 0.  0.
        -11    1    3    3    0    0  0.36045805691E+02  0.50290242520E+02 -0.68221237920E+01  0.62249096169E+02  0.51100000000E-03 0.  1.
         23    2    1    0    0    0  0.19819050065E+02  0.22263032036E+02 -0.84740172889E+00  0.95181290595E+02  0.90389837087E+02 0.  0.
         11    1    3    3    0    0 -0.16226755626E+02 -0.28027210484E+02  0.59747220632E+01  0.32932194425E+02  0.51100000000E-03 0. -1.
         22    1    1    0    0    0 -0.19819050065E+02 -0.22263032036E+02  0.84740172889E+00  0.29818709405E+02  0.00000000000E+00 0.  1.
</event>
<event>
 5    1  0.1717510E-003  0.9118800E+02  0.7818608E-02  0.1130116E+00
         25   -1    0    0    0    0  0.00000000000E+00  0.00000000000E+00  0.99999998245E-14  0.12500000000E+03  0.12500000000E+03 0.  0.
        -11    1    3    3    0    0  0.54098857637E+02 -0.95879407547E+01  0.26129674176E+02  0.60838925684E+02  0.51100000000E-03 0.  1.
         23    2    1    0    0    0  0.19587861197E+02 -0.64450227437E+01  0.20455751242E+02  0.95954167540E+02  0.91452402292E+02 0.  0.
         11    1    3    3    0    0 -0.34510996440E+02  0.31429180109E+01 -0.56739229340E+01  0.35115241856E+02  0.51100000000E-03 0. -1.
         22    1    1    0    0    0 -0.19587861197E+02  0.64450227437E+01 -0.20455751242E+02  0.29045832460E+02  0.00000000000E+00 0.  1.
</event>
<event>
 5    1  0.1717510E-003  0.9118800E+02  0.7818608E-02  0.1130116E+00
         25   -1    0    0    0    0  0.00000000000E+00  0.00000000000E+00  0.99999998245E-14  0.12500000000E+03  0.12500000000E+03 0.  0.
        -11    1    3    3    0    0  0.40732921333E+01  0.42559069647E+02  0.41675878268E+02  0.59705485072E+02  0.51100000000E-03 0. -1.
         23    2    1    0    0    0 -0.93174517012E+01  0.24206322054E+02  0.13954868019E+02  0.95546659357E+02  0.90893700768E+02 0.  0.
         11    1    3    3    0    0 -0.13390743834E+02 -0.18352747593E+02 -0.27721010249E+02  0.35841174285E+02  0.51100000000E-03 0.  1.
         22    1    1    0    0    0  0.93174517012E+01 -0.24206322054E+02 -0.13954868019E+02  0.29453340643E+02  0.00000000000E+00 0. -1.
</event>
<event>
 5    1  0.1717510E-003  0.9118800E+02  0.7818608E-02  0.1130116E+00
         25   -1    0    0    0    0  0.00000000000E+00  0.00000000000E+00  0.99999998245E-14  0.12500000000E+03  0.12500000000E+03 0.  0.
        -11    1    3    3    0    0 -0.50618823629E+02  0.23298352799E+02 -0.34771935943E+01  0.55831616708E+02  0.51100000000E-03 0.  1.
         23    2    1    0    0    0 -0.25413755270E+02 -0.49236921982E+01 -0.14611487008E+02  0.95274636178E+02  0.90518832540E+02 0.  0.
         11    1    3    3    0    0  0.25205068359E+02 -0.28222044997E+02 -0.11134293413E+02  0.39443019469E+02  0.51100000000E-03 0. -1.
         22    1    1    0    0    0  0.25413755270E+02  0.49236921982E+01  0.14611487008E+02  0.29725363822E+02  0.00000000000E+00 0.  1.
</event>
<event>
 5    1  0.1717510E-003  0.9118800E+02  0.7818608E-02  0.1130116E+00
         25   -1    0    0    0    0  0.00000000000E+00  0.00000000000E+00  0.99999998245E-14  0.12500000000E+03  0.12500000000E+03 0.  0.
        -11    1    3    3    0    0  0.37351766272E+02  0.33457109445E+02  0.16388314966E+01  0.50171888394E+02  0.51100000000E-03 0.  1.
         23    2    1    0    0    0  0.83537240680E+01  0.17008034778E+02 -0.25549093146E+02  0.93190974340E+02  0.87594198353E+02 0.  0.
         11    1    3    3    0    0 -0.28998042204E+02 -0.16449074667E+02 -0.27187924643E+02  0.43019085947E+02  0.51100000000E-03 0. -1.
         22    1    1    0    0    0 -0.83537240680E+01 -0.17008034778E+02  0.25549093146E+02  0.31809025660E+02  0.00000000000E+00 0.  1.
</event>
<event>
 5    1  0.1717510E-003  0.9118800E+02  0.7818608E-02  0.1130116E+00
         25   -1    0    0    0    0  0.00000000000E+00  0.00000000000E+00  0.99999998245E-14  0.12500000000E+03  0.12500000000E+03 0.  0.
        -11    1    3    3    0    0  0.54708278474E+01 -0.36520040904E+02  0.32495103400E+02  0.49189176556E+02  0.51100000000E-03 0. -1.
         23    2    1    0    0    0  0.19055054126E+02 -0.18244939117E+02 -0.94998641096E+01  0.96960379652E+02  0.92817535590E+02 0.  0.
         11    1    3    3    0    0  0.13584226279E+02  0.18275101788E+02 -0.41994967509E+02  0.47771203097E+02  0.51100000000E-03 0.  1.
         22    1    1    0    0    0 -0.19055054126E+02  0.18244939117E+02  0.94998641096E+01  0.28039620348E+02  0.00000000000E+00 0. -1.
</event>
<event>
 5    1  0.1717510E-003  0.9118800E+02  0.7818608E-02  0.1130116E+00
         25   -1    0    0    0    0  0.00000000000E+00  0.00000000000E+00  0.99999998245E-14  0.12500000000E+03  0.12500000000E+03 0.  0.
        -11    1    3    3    0    0  0.28277925012E+02  0.43700944754E+02 -0.24030297082E+02  0.57331220059E+02  0.51100000000E-03 0. -1.
         23    2    1    0    0    0  0.14046764908E+02  0.86124474548E+01 -0.24825494698E+02  0.95204177431E+02  0.90421481728E+02 0.  0.
         11    1    3    3    0    0 -0.14231160103E+02 -0.35088497299E+02 -0.79519761564E+00  0.37872957372E+02  0.51100000000E-03 0.  1.
         22    1    1    0    0    0 -0.14046764908E+02 -0.86124474548E+01  0.24825494698E+02  0.29795822569E+02  0.00000000000E+00 0. -1.
</event>
<event>
 4    1  0.1717510E-003  0.9118800E+02  0.7818608E-02  0.1130116E+00
         25   -1    0    0    0    0  0.00000000000E+00  0.00000000000E+00  0.99999998245E-14  0.12500000000E+03  0.12500000000E+03 0.  0.
        -11    1    1    0    0    0 -0.42446627751E+02  0.19501335880E+02  0.38801109827E+02  0.60725154859E+02  0.51100000000E-03 0. -1.
         11    1    1    0    0    0  0.77739042159E+00 -0.14476551217E+01 -0.10799175467E+02  0.10923471621E+02  0.51100000000E-03 0.  1.
         22    1    1    0    0    0  0.41669237330E+02 -0.18053680759E+02 -0.28001934360E+02  0.53351373520E+02  0.00000000000E+00 0. -1.
</event>
<event>
 5    1  0.1717510E-003  0.9118800E+02  0.7818608E-02  0.1130116E+00
         25   -1    0    0    0    0  0.00000000000E+00  0.00000000000E+00  0.99999998245E-14  0.12500000000E+03  0.12500000000E+03 0.  0.
        -11    1    3    3    0    0 -0.24376583225E+01  0.15448229809E+01  0.31890419986E+02  0.32020736145E+02  0.51100000000E-03 0. -1.
         23    2    1    0    0    0  0.36433012002E+02 -0.11986138308E+02 -0.37464955715E+01  0.86463418624E+02  0.77400611471E+02 0.  0.
         11    1    3    3    0    0  0.38870670324E+02 -0.13530961288E+02 -0.35636915557E+02  0.54442682479E+02  0.51100000000E-03 0.  1.
         22    1    1    0    0    0 -0.36433012002E+02  0.11986138308E+02  0.37464955715E+01  0.38536581376E+02  0.00000000000E+00 0.  1.
</event>
<event>
 5    1  0.1717510E-003  0.9118800E+02  0.7818608E-02  0.1130116E+00
         25   -1    0    0    0    0  0.00000000000E+00  0.00000000000E+00  0.99999998245E-14  0.12500000000E+03  0.12500000000E+03 0.  0.
        -11    1    3    3    0    0 -0.37887952909E+02 -0.84738204147E+01  0.44235124655E+02  0.58856170973E+02  0.51100000000E-03 0. -1.
         23    2    1    0    0    0 -0.72972690927E+01 -0.13601573743E+02  0.25790331059E+02  0.94943484556E+02  0.90060374966E+02 0.  0.
         11    1    3    3    0    0  0.30590683817E+02 -0.51277533280E+01 -0.18444793596E+02  0.36087313583E+02  0.51100000000E-03 0.  1.
         22    1    1    0    0    0  0.72972690927E+01  0.13601573743E+02 -0.25790331059E+02  0.30056515444E+02  0.00000000000E+00 0. -1.
</event>
<event>
 5    1  0.1717510E-003  0.9118800E+02  0.7818608E-02  0.1130116E+00
         25   -1    0    0    0    0  0.00000000000E+00  0.00000000000E+00  0.99999998245E-14  0.12500000000E+03  0.12500000000E+03 0.  0.
        -11    1    3    3    0    0  0.10133984058E+02  0.48354445534E+02 -0.29945106862E+02  0.57771614665E+02  0.51100000000E-03 0. -1.
         23    2    1    0    0    0  0.20401563298E+02  0.19048948526E+02 -0.74649229937E+01  0.96106898743E+02  0.91660922348E+02 0.  0.
         11    1    3    3    0    0  0.10267579240E+02 -0.29305497008E+02  0.22480183868E+02  0.38335284078E+02  0.51100000000E-03 0.  1.
         22    1    1    0    0    0 -0.20401563298E+02 -0.19048948526E+02  0.74649229937E+01  0.28893101257E+02  0.00000000000E+00 0. -1.
</event>
<event>
 5    1  0.1717510E-003  0.9118800E+02  0.7818608E-02  0.1130116E+00
         25   -1    0    0    0    0  0.00000000000E+00  0.00000000000E+00  0.99999998245E-14  0.12500000000E+03  0.12500000000E+03 0.  0.
        -11    1    3    3    0    0 -0.31259218445E+02 -0.40816627283E+02 -0.33513522883E+02  0.61370123161E+02  0.51100000000E-03 0.  1.
         23    2    1    0    0    0 -0.20839494534E+02 -0.13500908975E+02 -0.16310738566E+02  0.95291427699E+02  0.90542017455E+02 0.  0.
         11    1    3    3    0    0  0.10419723911E+02  0.27315718308E+02  0.17202784317E+02  0.33921304538E+02  0.51100000000E-03 0. -1.
         22    1    1    0    0    0  0.20839494534E+02  0.13500908975E+02  0.16310738566E+02  0.29708572301E+02  0.00000000000E+00 0.  1.
</event>
<event>
 5    1  0.1717510E-003  0.9118800E+02  0.7818608E-02  0.1130116E+00
         25   -1    0    0    0    0  0.00000000000E+00  0.00000000000E+00  0.99999998245E-14  0.12500000000E+03  0.12500000000E+03 0.  0.
        -11    1    3    3    0    0  0.25271451855E+02  0.49470912047E+02  0.82545796652E+00  0.55558066909E+02  0.51100000000E-03 0. -1.
         23    2    1    0    0    0  0.26658415254E+02  0.80788308592E+01 -0.20211827686E+01  0.97071093976E+02  0.92966518134E+02 0.  0.
         11    1    3    3    0    0  0.13869633994E+01 -0.41392081187E+02 -0.28466407351E+01  0.41513027067E+02  0.51100000000E-03 0.  1.
         22    1    1    0    0    0 -0.26658415254E+02 -0.80788308592E+01  0.20211827686E+01  0.27928906024E+02  0.00000000000E+00 0. -1.
</event>
<event>
 5    1  0.1717510E-003  0.9118800E+02  0.7818608E-02  0.1130116E+00
         25   -1    0    0    0    0  0.00000000000E+00  0.00000000000E+00  0.99999998245E-14  0.12500000000E+03  0.12500000000E+03 0.  0.
        -11    1    3    3    0    0 -0.27764043169E+02 -0.32440458701E+02 -0.45422913093E+02  0.62341531004E+02  0.51100000000E-03 0.  1.
         23    2    1    0    0    0 -0.16888387230E+02 -0.15818290338E+02 -0.21764797975E+02  0.93232998830E+02  0.87654148262E+02 0.  0.
         11    1    3    3    0    0  0.10875655939E+02  0.16622168364E+02  0.23658115118E+02  0.30891467825E+02  0.51100000000E-03 0. -1.
         22    1    1    0    0    0  0.16888387230E+02  0.15818290338E+02  0.21764797975E+02  0.31767001170E+02  0.00000000000E+00 0.  1.
</event>
<event>
 5    1  0.1717510E-003  0.9118800E+02  0.7818608E-02  0.1130116E+00
         25   -1    0    0    0    0  0.00000000000E+00  0.00000000000E+00  0.99999998245E-14  0.12500000000E+03  0.12500000000E+03 0.  0.
        -11    1    3    3    0    0  0.22943093301E+02 -0.76076287534E+01  0.49549901994E+02  0.55131246434E+02  0.51100000000E-03 0.  1.
         23    2    1    0    0    0  0.23440214496E+02  0.11851049986E+02  0.15091517010E+02  0.94707345328E+02  0.89732025119E+02 0.  0.
         11    1    3    3    0    0  0.49712119470E+00  0.19458678740E+02 -0.34458384983E+02  0.39576098894E+02  0.51100000000E-03 0. -1.
         22    1    1    0    0    0 -0.23440214496E+02 -0.11851049986E+02 -0.15091517010E+02  0.30292654672E+02  0.00000000000E+00 0.  1.
</event>
<event>
 5    1  0.1717510E-003  0.9118800E+02  0.7818608E-02  0.1130116E+00
         25   -1    0    0    0    0  0.00000000000E+00  0.00000000000E+00  0.99999998245E-14  0.12500000000E+03  0.12500000000E+03 0.  0.
        -11    1    3    3    0    0 -0.71283039627E+01 -0.15355635475E+02  0.14960664422E+02  0.22592692147E+02  0.51100000000E-03 0.  1.
         23    2    1    0    0    0  0.77175258981E+01  0.19188861123E+02 -0.34532121669E+02  0.84747794792E+02  0.74578473422E+02 0.  0.
         11    1    3    3    0    0  0.14845829861E+02  0.34544496598E+02 -0.49492786091E+02  0.62155102645E+02  0.51100000000E-03 0. -1.
         22    1    1    0    0    0 -0.77175258981E+01 -0.19188861123E+02  0.34532121669E+02  0.40252205208E+02  0.00000000000E+00 0. -1.
</event>
<event>
 5    1  0.1717510E-003  0.9118800E+02  0.7818608E-02  0.1130116E+00
         25   -1    0    0    0    0  0.00000000000E+00  0.00000000000E+00  0.99999998245E-14  0.12500000000E+03  0.12500000000E+03 0.  0.
        -11    1    3    3    0    0  0.29920793806E+02  0.19258143572E+02 -0.33688563426E+02  0.49000503077E+02  0.51100000000E-03 0.  1.
         23    2    1    0    0    0 -0.12050778469E+02  0.96572785122E+01 -0.28784502313E+02  0.92334546332E+02  0.86363398398E+02 0.  0.
         11    1    3    3    0    0 -0.41971572275E+02 -0.96008650603E+01  0.49040611131E+01  0.43334043254E+02  0.51100000000E-03 0. -1.
         22    1    1    0    0    0  0.12050778469E+02 -0.96572785122E+01  0.28784502313E+02  0.32665453668E+02  0.00000000000E+00 0. -1.
</event>
<event>
 5    1  0.1717510E-003  0.9118800E+02  0.7818608E-02  0.1130116E+00
         25   -1    0    0    0    0  0.00000000000E+00  0.00000000000E+00  0.99999998245E-14  0.12500000000E+03  0.12500000000E+03 0.  0.
        -11    1    3    3    0    0 -0.65411194215E+01  0.17127620797E+02 -0.35657359622E+02  0.40094749443E+02  0.51100000000E-03 0.  1.
         23    2    1    0    0    0 -0.48776787454E+01 -0.27556319691E+02 -0.44184689380E+00  0.97011828685E+02  0.92886797616E+02 0.  0.
         11    1    3    3    0    0  0.16634406761E+01 -0.44683940488E+02  0.35215512728E+02  0.56917079242E+02  0.51100000000E-03 0. -1.
         22    1    1    0    0    0  0.48776787454E+01  0.27556319691E+02  0.44184689380E+00  0.27988171315E+02  0.00000000000E+00 0. -1.
</event>
<event>
 5    1  0.1717510E-003  0.9118800E+02  0.7818608E-02  0.1130116E+00
         25   -1    0    0    0    0  0.00000000000E+00  0.00000000000E+00  0.99999998245E-14  0.12500000000E+03  0.12500000000E+03 0.  0.
        -11    1    3    3    0    0  0.20652851545E+02  0.15924763871E+02  0.20054265494E+02  0.32898509785E+02  0.51100000000E-03 0. -1.
         23    2    1    0    0    0 -0.23022318694E+02 -0.15688081127E+02 -0.10918693220E+02  0.95077418074E+02  0.90246077579E+02 0.  0.
         11    1    3    3    0    0 -0.43675170239E+02 -0.31612844998E+02 -0.30972958714E+02  0.62178908289E+02  0.51100000000E-03 0.  1.
         22    1    1    0    0    0  0.23022318694E+02  0.15688081127E+02  0.10918693220E+02  0.29922581926E+02  0.00000000000E+00 0.  1.
</event>
