<event>
 5    1  0.6622940E-004  0.9118800E+02  0.7818608E-02  0.1130116E+00
         25   -1    0    0    0    0  0.00000000000E+00  0.00000000000E+00  0.99999998245E-14  0.12500000000E+03  0.12500000000E+03 0.  0.
        -11    1    3    3    0    0 -0.31893440830E+02 -0.24277762448E+02 -0.57385598301E+01  0.40491139607E+02  0.51100000000E-03 0.  1.
         23    2    1    0    0    0 -0.10899836750E+02  0.18228390688E+02  0.21177681104E+02  0.95007086751E+02  0.90148608906E+02 0.  0.
         11    1    3    3    0    0  0.20993604080E+02  0.42506153136E+02  0.26916240934E+02  0.54515947144E+02  0.51100000000E-03 0. -1.
         22    1    1    0    0    0  0.10899836750E+02 -0.18228390688E+02 -0.21177681104E+02  0.29992913249E+02  0.00000000000E+00 0. -1.
</event>
<event>
 5    1  0.6622940E-004  0.9118800E+02  0.7818608E-02  0.1130116E+00
         25   -1    0    0    0    0  0.00000000000E+00  0.00000000000E+00  0.99999998245E-14  0.12500000000E+03  0.12500000000E+03 0.  0.
        -11    1    3    3    0    0  0.40205125832E+02  0.16093837170E+02  0.18572499791E+02  0.47121136306E+02  0.51100000000E-03 0. -1.
         23    2    1    0    0    0 -0.23159312214E+01  0.29313969514E+02 -0.56756617362E+00  0.95589211547E+02  0.90952201109E+02 0.  0.
         11    1    3    3    0    0 -0.42521057053E+02  0.13220132344E+02 -0.19140065965E+02  0.48468075240E+02  0.51100000000E-03 0.  1.
         22    1    1    0    0    0  0.23159312214E+01 -0.29313969514E+02  0.56756617362E+00  0.29410788453E+02  0.00000000000E+00 0.  1.
</event>
<event>
 5    1  0.6622940E-004  0.9118800E+02  0.7818608E-02  0.1130116E+00
         25   -1    0    0    0    0  0.00000000000E+00  0.00000000000E+00  0.99999998245E-14  0.12500000000E+03  0.12500000000E+03 0.  0.
        -11    1    3    3    0    0  0.32462572070E+02  0.16748172522E+02 -0.98992160267E+00  0.36541754381E+02  0.51100000000E-03 0. -1.
         23    2    1    0    0    0 -0.78083172115E+01 -0.24123407330E+02 -0.14911789534E+02  0.95584526759E+02  0.90945762352E+02 0.  0.
         11    1    3    3    0    0 -0.40270889281E+02 -0.40871579852E+02 -0.13921867931E+02  0.59042772378E+02  0.51100000000E-03 0.  1.
         22    1    1    0    0    0  0.78083172115E+01  0.24123407330E+02  0.14911789534E+02  0.29415473241E+02  0.00000000000E+00 0.  1.
</event>
<event>
 5    1  0.6622940E-004  0.9118800E+02  0.7818608E-02  0.1130116E+00
         25   -1    0    0    0    0  0.00000000000E+00  0.00000000000E+00  0.99999998245E-14  0.12500000000E+03  0.12500000000E+03 0.  0.
        -11    1    3    3    0    0  0.78778904993E+01 -0.33080958375E+02  0.70100800584E+00  0.34013267679E+02  0.51100000000E-03 0.  1.
         23    2    1    0    0    0 -0.24487702882E+02  0.16658330811E+02  0.92592183563E+01  0.93969680917E+02  0.88698479294E+02 0.  0.
         11    1    3    3    0    0 -0.32365593381E+02  0.49739289186E+02  0.85582103504E+01  0.59956413238E+02  0.51100000000E-03 0. -1.
         22    1    1    0    0    0  0.24487702882E+02 -0.16658330811E+02 -0.92592183563E+01  0.31030319083E+02  0.00000000000E+00 0. -1.
</event>
<event>
 5    1  0.6622940E-004  0.9118800E+02  0.7818608E-02  0.1130116E+00
         25   -1    0    0    0    0  0.00000000000E+00  0.00000000000E+00  0.99999998245E-14  0.12500000000E+03  0.12500000000E+03 0.  0.
        -11    1    3    3    0    0  0.11376507064E+02  0.17448558192E+02 -0.56698610470E+02  0.60403721122E+02  0.51100000000E-03 0.  1.
         23    2    1    0    0    0 -0.47187110764E+01  0.13362963387E+02 -0.22728619763E+02  0.98215206160E+02  0.94492335880E+02 0.  0.
         11    1    3    3    0    0 -0.16095218140E+02 -0.40855948048E+01  0.33969990707E+02  0.37811485038E+02  0.51100000000E-03 0. -1.
         22    1    1    0    0    0  0.47187110764E+01 -0.13362963387E+02  0.22728619763E+02  0.26784793840E+02  0.00000000000E+00 0.  1.
</event>
<event>
 5    1  0.6622940E-004  0.9118800E+02  0.7818608E-02  0.1130116E+00
         25   -1    0    0    0    0  0.00000000000E+00  0.00000000000E+00  0.99999998245E-14  0.12500000000E+03  0.12500000000E+03 0.  0.
        -11    1    3    3    0    0  0.22914871995E+02  0.10586232281E+02  0.27054206245E+02  0.37001212794E+02  0.51100000000E-03 0. -1.
         23    2    1    0    0    0 -0.18203799788E+02 -0.21791920675E+02 -0.13966514161E+01  0.96570846501E+02  0.92291449362E+02 0.  0.
         11    1    3    3    0    0 -0.41118671783E+02 -0.32378152956E+02 -0.28450857661E+02  0.59569633707E+02  0.51100000000E-03 0.  1.
         22    1    1    0    0    0  0.18203799788E+02  0.21791920675E+02  0.13966514161E+01  0.28429153499E+02  0.00000000000E+00 0.  1.
</event>
<event>
 5    1  0.6622940E-004  0.9118800E+02  0.7818608E-02  0.1130116E+00
         25   -1    0    0    0    0  0.00000000000E+00  0.00000000000E+00  0.99999998245E-14  0.12500000000E+03  0.12500000000E+03 0.  0.
        -11    1    3    3    0    0 -0.20740640877E+02  0.10166428984E+02 -0.27133126188E+02  0.35633369182E+02  0.51100000000E-03 0. -1.
         23    2    1    0    0    0 -0.91487700331E+00 -0.22834270773E+02  0.18686992721E+02  0.95479759171E+02  0.90801650826E+02 0.  0.
         11    1    3    3    0    0  0.19825763874E+02 -0.33000699756E+02  0.45820118909E+02  0.59846389989E+02  0.51100000000E-03 0.  1.
         22    1    1    0    0    0  0.91487700331E+00  0.22834270773E+02 -0.18686992721E+02  0.29520240829E+02  0.00000000000E+00 0.  1.
</event>
<event>
 5    1  0.6622940E-004  0.9118800E+02  0.7818608E-02  0.1130116E+00
         25   -1    0    0    0    0  0.00000000000E+00  0.00000000000E+00  0.99999998245E-14  0.12500000000E+03  0.12500000000E+03 0.  0.
        -11    1    3    3    0    0  0.82680121417E+01 -0.84380931392E+01 -0.38459069867E+02  0.40232592458E+02  0.51100000000E-03 0. -1.
         23    2    1    0    0    0 -0.14240509838E+02 -0.22573922481E+02  0.10801902533E+02  0.96206681418E+02  0.91796897303E+02 0.  0.
         11    1    3    3    0    0 -0.22508521980E+02 -0.14135829342E+02  0.49260972400E+02  0.55974088960E+02  0.51100000000E-03 0.  1.
         22    1    1    0    0    0  0.14240509838E+02  0.22573922481E+02 -0.10801902533E+02  0.28793318582E+02  0.00000000000E+00 0.  1.
</event>
<event>
 5    1  0.6622940E-004  0.9118800E+02  0.7818608E-02  0.1130116E+00
         25   -1    0    0    0    0  0.00000000000E+00  0.00000000000E+00  0.99999998245E-14  0.12500000000E+03  0.12500000000E+03 0.  0.
        -11    1    3    3    0    0  0.12863167936E+02  0.46340405034E+02  0.23204535383E+02  0.53397983957E+02  0.51100000000E-03 0. -1.
         23    2    1    0    0    0 -0.11880700570E+01  0.61545048006E+01  0.28062580929E+02  0.96245906584E+02  0.91850294752E+02 0.  0.
         11    1    3    3    0    0 -0.14051237993E+02 -0.40185900233E+02  0.48580455455E+01  0.42847922627E+02  0.51100000000E-03 0.  1.
         22    1    1    0    0    0  0.11880700570E+01 -0.61545048006E+01 -0.28062580929E+02  0.28754093416E+02  0.00000000000E+00 0. -1.
</event>
<event>
 5    1  0.6622940E-004  0.9118800E+02  0.7818608E-02  0.1130116E+00
         25   -1    0    0    0    0  0.00000000000E+00  0.00000000000E+00  0.99999998245E-14  0.12500000000E+03  0.12500000000E+03 0.  0.
        -11    1    3    3    0    0 -0.11552720496E+02 -0.26404844491E+02 -0.54101359763E+02  0.61299578236E+02  0.51100000000E-03 0. -1.
         23    2    1    0    0    0 -0.12540162778E+02 -0.73659267800E+01 -0.22349745003E+02  0.98334973064E+02  0.94650637958E+02 0.  0.
         11    1    3    3    0    0 -0.98744228197E+00  0.19038917711E+02  0.31751614760E+02  0.37035394827E+02  0.51100000000E-03 0.  1.
         22    1    1    0    0    0  0.12540162778E+02  0.73659267800E+01  0.22349745003E+02  0.26665026936E+02  0.00000000000E+00 0. -1.
</event>
<event>
 5    1  0.6622940E-004  0.9118800E+02  0.7818608E-02  0.1130116E+00
         25   -1    0    0    0    0  0.00000000000E+00  0.00000000000E+00  0.99999998245E-14  0.12500000000E+03  0.12500000000E+03 0.  0.
        -11    1    3    3    0    0 -0.88510609045E+01 -0.59956813736E+02 -0.97732009683E+00  0.60614486283E+02  0.51100000000E-03 0.  1.
         23    2    1    0    0    0  0.65137104776E+01 -0.29855107842E+02 -0.13490531389E+01  0.94412815873E+02  0.89320792474E+02 0.  0.
         11    1    3    3    0    0  0.15364771382E+02  0.30101705894E+02 -0.37173304204E+00  0.33798329590E+02  0.51100000000E-03 0. -1.
         22    1    1    0    0    0 -0.65137104776E+01  0.29855107842E+02  0.13490531389E+01  0.30587184127E+02  0.00000000000E+00 0.  1.
</event>
<event>
 5    1  0.6622940E-004  0.9118800E+02  0.7818608E-02  0.1130116E+00
         25   -1    0    0    0    0  0.00000000000E+00  0.00000000000E+00  0.99999998245E-14  0.12500000000E+03  0.12500000000E+03 0.  0.
        -11    1    3    3    0    0  0.28302236153E+01  0.39148990242E+02 -0.29970155729E+02  0.49384854332E+02  0.51100000000E-03 0.  1.
         23    2    1    0    0    0  0.20796261699E+02  0.17304467248E+02  0.80519017612E+01  0.96773023376E+02  0.92564873704E+02 0.  0.
         11    1    3    3    0    0  0.17966038083E+02 -0.21844522994E+02  0.38022057490E+02  0.47388169044E+02  0.51100000000E-03 0. -1.
         22    1    1    0    0    0 -0.20796261699E+02 -0.17304467248E+02 -0.80519017612E+01  0.28226976624E+02  0.00000000000E+00 0.  1.
</event>
<event>
 5    1  0.6622940E-004  0.9118800E+02  0.7818608E-02  0.1130116E+00
         25   -1    0    0    0    0  0.00000000000E+00  0.00000000000E+00  0.99999998245E-14  0.12500000000E+03  0.12500000000E+03 0.  0.
        -11    1    3    3    0    0 -0.29260370549E+02  0.17121299513E+02  0.20371033186E+02  0.39551070466E+02  0.51100000000E-03 0.  1.
         23    2    1    0    0    0  0.31399815695E+01  0.13471358062E+02 -0.25594662007E+02  0.95906638291E+02  0.91387414739E+02 0.  0.
         11    1    3    3    0    0  0.32400352119E+02 -0.36499414507E+01 -0.45965695193E+02  0.56355567825E+02  0.51100000000E-03 0. -1.
         22    1    1    0    0    0 -0.31399815695E+01 -0.13471358062E+02  0.25594662007E+02  0.29093361709E+02  0.00000000000E+00 0. -1.
</event>
<event>
 5    1  0.6622940E-004  0.9118800E+02  0.7818608E-02  0.1130116E+00
         25   -1    0    0    0    0  0.00000000000E+00  0.00000000000E+00  0.99999998245E-14  0.12500000000E+03  0.12500000000E+03 0.  0.
        -11    1    3    3    0    0  0.41245002115E+02  0.24487714117E+02 -0.29740379507E+02  0.56438360320E+02  0.51100000000E-03 0. -1.
         23    2    1    0    0    0  0.97592616281E+01  0.27039192836E+02 -0.68510996544E+01  0.95448372241E+02  0.90758432447E+02 0.  0.
         11    1    3    3    0    0 -0.31485740487E+02  0.25514787188E+01  0.22889279853E+02  0.39010011921E+02  0.51100000000E-03 0.  1.
         22    1    1    0    0    0 -0.97592616281E+01 -0.27039192836E+02  0.68510996544E+01  0.29551627759E+02  0.00000000000E+00 0.  1.
</event>
<event>
 5    1  0.6622940E-004  0.9118800E+02  0.7818608E-02  0.1130116E+00
         25   -1    0    0    0    0  0.00000000000E+00  0.00000000000E+00  0.99999998245E-14  0.12500000000E+03  0.12500000000E+03 0.  0.
        -11    1    3    3    0    0  0.10624115501E+02 -0.18571955907E+02  0.25454669522E+02  0.33252512344E+02  0.51100000000E-03 0.  1.
         23    2    1    0    0    0  0.32281949495E+02  0.20897134023E+02 -0.28623453361E+01  0.86438263857E+02  0.77359976500E+02 0.  0.
         11    1    3    3    0    0  0.21657833994E+02  0.39469089930E+02 -0.28317014859E+02  0.53185751513E+02  0.51100000000E-03 0. -1.
         22    1    1    0    0    0 -0.32281949495E+02 -0.20897134023E+02  0.28623453361E+01  0.38561736143E+02  0.00000000000E+00 0. -1.
</event>
<event>
 5    1  0.6622940E-004  0.9118800E+02  0.7818608E-02  0.1130116E+00
         25   -1    0    0    0    0  0.00000000000E+00  0.00000000000E+00  0.99999998245E-14  0.12500000000E+03  0.12500000000E+03 0.  0.
        -11    1    3    3    0    0 -0.92663057421E+01 -0.37013442350E+02 -0.14132687282E+01  0.38181889233E+02  0.51100000000E-03 0. -1.
         23    2    1    0    0    0  0.11781481814E+02  0.11970395249E+02 -0.23687515803E+02  0.95962230094E+02  0.91463421779E+02 0.  0.
         11    1    3    3    0    0  0.21047787556E+02  0.48983837599E+02 -0.22274247075E+02  0.57780340861E+02  0.51100000000E-03 0.  1.
         22    1    1    0    0    0 -0.11781481814E+02 -0.11970395249E+02  0.23687515803E+02  0.29037769906E+02  0.00000000000E+00 0.  1.
</event>
<event>
 5    1  0.6622940E-004  0.9118800E+02  0.7818608E-02  0.1130116E+00
         25   -1    0    0    0    0  0.00000000000E+00  0.00000000000E+00  0.99999998245E-14  0.12500000000E+03  0.12500000000E+03 0.  0.
        -11    1    3    3    0    0  0.10616822884E+02 -0.53831913697E+02  0.14409423230E+01  0.54887778015E+02  0.51100000000E-03 0.  1.
         23    2    1    0    0    0  0.23513425595E+02 -0.16407510913E+02  0.84957717597E+01  0.95095723795E+02  0.90271429304E+02 0.  0.
         11    1    3    3    0    0  0.12896602711E+02  0.37424402783E+02  0.70548294367E+01  0.40207945779E+02  0.51100000000E-03 0. -1.
         22    1    1    0    0    0 -0.23513425595E+02  0.16407510913E+02 -0.84957717597E+01  0.29904276205E+02  0.00000000000E+00 0.  1.
</event>
<event>
 5    1  0.6622940E-004  0.9118800E+02  0.7818608E-02  0.1130116E+00
         25   -1    0    0    0    0  0.00000000000E+00  0.00000000000E+00  0.99999998245E-14  0.12500000000E+03  0.12500000000E+03 0.  0.
        -11    1    3    3    0    0  0.54717302310E+01 -0.26272144972E+02  0.37907925576E+02  0.46445411559E+02  0.51100000000E-03 0. -1.
         23    2    1    0    0    0 -0.97259819029E+01 -0.64139714110E+01 -0.15612562291E+02  0.10551960333E+03  0.10370583798E+03 0.  0.
         11    1    3    3    0    0 -0.15197712134E+02  0.19858173561E+02 -0.53520487867E+02  0.59074191768E+02  0.51100000000E-03 0.  1.
         22    1    1    0    0    0  0.97259819029E+01  0.64139714110E+01  0.15612562291E+02  0.19480396672E+02  0.00000000000E+00 0.  1.
</event>
<event>
 5    1  0.6622940E-004  0.9118800E+02  0.7818608E-02  0.1130116E+00
         25   -1    0    0    0    0  0.00000000000E+00  0.00000000000E+00  0.99999998245E-14  0.12500000000E+03  0.12500000000E+03 0.  0.
        -11    1    3    3    0    0  0.14953258420E+02 -0.49264185710E+02  0.38163656476E+01  0.51624844582E+02  0.51100000000E-03 0. -1.
         23    2    1    0    0    0 -0.19319623812E+02 -0.23222804481E+02  0.24883264165E+01  0.94689304189E+02  0.89706889631E+02 0.  0.
         11    1    3    3    0    0 -0.34272882232E+02  0.26041381229E+02 -0.13280392311E+01  0.43064459607E+02  0.51100000000E-03 0.  1.
         22    1    1    0    0    0  0.19319623812E+02  0.23222804481E+02 -0.24883264165E+01  0.30310695811E+02  0.00000000000E+00 0.  1.
</event>
<event>
 5    1  0.6622940E-004  0.9118800E+02  0.7818608E-02  0.1130116E+00
         25   -1    0    0    0    0  0.00000000000E+00  0.00000000000E+00  0.99999998245E-14  0.12500000000E+03  0.12500000000E+03 0.  0.
        -11    1    3    3    0    0 -0.23229886563E+02 -0.98664953203E+01  0.34630750046E+02  0.42851653512E+02  0.51100000000E-03 0. -1.
         23    2    1    0    0    0  0.12207865694E+02  0.23071595720E+02  0.12725794511E+02  0.95960778940E+02  0.91461438513E+02 0.  0.
         11    1    3    3    0    0  0.35437752258E+02  0.32938091040E+02 -0.21904955536E+02  0.53109125428E+02  0.51100000000E-03 0.  1.
         22    1    1    0    0    0 -0.12207865694E+02 -0.23071595720E+02 -0.12725794511E+02  0.29039221060E+02  0.00000000000E+00 0.  1.
</event>
<event>
 5    1  0.6622940E-004  0.9118800E+02  0.7818608E-02  0.1130116E+00
         25   -1    0    0    0    0  0.00000000000E+00  0.00000000000E+00  0.99999998245E-14  0.12500000000E+03  0.12500000000E+03 0.  0.
        -11    1    3    3    0    0  0.50002292057E+01  0.54379859448E+02 -0.23958218920E+02  0.59633611829E+02  0.51100000000E-03 0.  1.
         23    2    1    0    0    0 -0.11113133049E+02  0.22617315906E+02 -0.10146474847E+02  0.97833924524E+02  0.93986600806E+02 0.  0.
         11    1    3    3    0    0 -0.16113362255E+02 -0.31762543542E+02  0.13811744073E+02  0.38200312696E+02  0.51100000000E-03 0. -1.
         22    1    1    0    0    0  0.11113133049E+02 -0.22617315906E+02  0.10146474847E+02  0.27166075476E+02  0.00000000000E+00 0.  1.
</event>
<event>
 5    1  0.6622940E-004  0.9118800E+02  0.7818608E-02  0.1130116E+00
         25   -1    0    0    0    0  0.00000000000E+00  0.00000000000E+00  0.99999998245E-14  0.12500000000E+03  0.12500000000E+03 0.  0.
        -11    1    3    3    0    0  0.96798970978E+01 -0.22781803491E+02  0.36686852823E+02  0.44256481428E+02  0.51100000000E-03 0.  1.
         23    2    1    0    0    0  0.10392366618E+02 -0.23905590510E+02 -0.14305198787E+02  0.95265890734E+02  0.90506754905E+02 0.  0.
         11    1    3    3    0    0  0.71246952004E+00 -0.11237870192E+01 -0.50992051609E+02  0.51009409305E+02  0.51100000000E-03 0. -1.
         22    1    1    0    0    0 -0.10392366618E+02  0.23905590510E+02  0.14305198787E+02  0.29734109266E+02  0.00000000000E+00 0. -1.
</event>
<event>
 5    1  0.6622940E-004  0.9118800E+02  0.7818608E-02  0.1130116E+00
         25   -1    0    0    0    0  0.00000000000E+00  0.00000000000E+00  0.99999998245E-14  0.12500000000E+03  0.12500000000E+03 0.  0.
        -11    1    3    3    0    0 -0.55479268997E+02  0.57698819994E+00 -0.18069621532E+02  0.58350607764E+02  0.51100000000E-03 0.  1.
         23    2    1    0    0    0 -0.27853957334E+02  0.23558226892E+01  0.75242493684E+01  0.96051646536E+02  0.91585542713E+02 0.  0.
         11    1    3    3    0    0  0.27625311663E+02  0.17788344893E+01  0.25593870900E+02  0.37701038772E+02  0.51100000000E-03 0. -1.
         22    1    1    0    0    0  0.27853957334E+02 -0.23558226892E+01 -0.75242493684E+01  0.28948353464E+02  0.00000000000E+00 0.  1.
</event>
<event>
 5    1  0.6622940E-004  0.9118800E+02  0.7818608E-02  0.1130116E+00
         25   -1    0    0    0    0  0.00000000000E+00  0.00000000000E+00  0.99999998245E-14  0.12500000000E+03  0.12500000000E+03 0.  0.
        -11    1    3    3    0    0 -0.48690134574E+01 -0.60066533575E+01 -0.41417697714E+02  0.42133274983E+02  0.51100000000E-03 0.  1.
         23    2    1    0    0    0 -0.79388143223E+01  0.27970086444E+02  0.17151001523E+00  0.95924582131E+02  0.91411955087E+02 0.  0.
         11    1    3    3    0    0 -0.30698008650E+01  0.33976739802E+02  0.41589207729E+02  0.53791307148E+02  0.51100000000E-03 0. -1.
         22    1    1    0    0    0  0.79388143223E+01 -0.27970086444E+02 -0.17151001523E+00  0.29075417869E+02  0.00000000000E+00 0.  1.
</event>
<event>
 5    1  0.6622940E-004  0.9118800E+02  0.7818608E-02  0.1130116E+00
         25   -1    0    0    0    0  0.00000000000E+00  0.00000000000E+00  0.99999998245E-14  0.12500000000E+03  0.12500000000E+03 0.  0.
        -11    1    3    3    0    0 -0.54496582019E+01  0.12275156360E+02 -0.54791670224E+02  0.56413698376E+02  0.51100000000E-03 0. -1.
         23    2    1    0    0    0 -0.18891654539E+02  0.16121512275E+02 -0.22972938265E+02  0.91168747262E+02  0.84659239399E+02 0.  0.
         11    1    3    3    0    0 -0.13441996337E+02  0.38463559151E+01  0.31818731959E+02  0.34755048887E+02  0.51100000000E-03 0.  1.
         22    1    1    0    0    0  0.18891654539E+02 -0.16121512275E+02  0.22972938265E+02  0.33831252738E+02  0.00000000000E+00 0.  1.
</event>
<event>
 5    1  0.6622940E-004  0.9118800E+02  0.7818608E-02  0.1130116E+00
         25   -1    0    0    0    0  0.00000000000E+00  0.00000000000E+00  0.99999998245E-14  0.12500000000E+03  0.12500000000E+03 0.  0.
        -11    1    3    3    0    0  0.29578534837E+02 -0.24570546168E+02 -0.10417066928E+02  0.39838633834E+02  0.51100000000E-03 0. -1.
         23    2    1    0    0    0  0.13415378135E+02  0.18183832518E+02  0.20066860822E+02  0.94779095997E+02  0.89831920825E+02 0.  0.
         11    1    3    3    0    0 -0.16163156702E+02  0.42754378686E+02  0.30483927750E+02  0.54940462163E+02  0.51100000000E-03 0.  1.
         22    1    1    0    0    0 -0.13415378135E+02 -0.18183832518E+02 -0.20066860822E+02  0.30220904003E+02  0.00000000000E+00 0.  1.
</event>
<event>
 5    1  0.6622940E-004  0.9118800E+02  0.7818608E-02  0.1130116E+00
         25   -1    0    0    0    0  0.00000000000E+00  0.00000000000E+00  0.99999998245E-14  0.12500000000E+03  0.12500000000E+03 0.  0.
        -11    1    3    3    0    0  0.94164179236E+01 -0.18980025005E+02  0.32676332998E+02  0.38944229536E+02  0.51100000000E-03 0. -1.
         23    2    1    0    0    0  0.21650988930E+02  0.65393408626E+00 -0.19396114743E+02  0.95924198746E+02  0.91411430831E+02 0.  0.
         11    1    3    3    0    0  0.12234571006E+02  0.19633959091E+02 -0.52072447740E+02  0.56979969211E+02  0.51100000000E-03 0.  1.
         22    1    1    0    0    0 -0.21650988930E+02 -0.65393408626E+00  0.19396114743E+02  0.29075801254E+02  0.00000000000E+00 0.  1.
</event>
<event>
 5    1  0.6622940E-004  0.9118800E+02  0.7818608E-02  0.1130116E+00
         25   -1    0    0    0    0  0.00000000000E+00  0.00000000000E+00  0.99999998245E-14  0.12500000000E+03  0.12500000000E+03 0.  0.
        -11    1    3    3    0    0 -0.43501640200E+02 -0.32988714327E+02 -0.11533474966E+00  0.54595432734E+02  0.51100000000E-03 0.  1.
         23    2    1    0    0    0 -0.27385522785E+02  0.55149945887E+01  0.49071362841E+01  0.96636960494E+02  0.92380951085E+02 0.  0.
         11    1    3    3    0    0  0.16116117415E+02  0.38503708916E+02  0.50224710338E+01  0.42041527760E+02  0.51100000000E-03 0. -1.
         22    1    1    0    0    0  0.27385522785E+02 -0.55149945887E+01 -0.49071362841E+01  0.28363039506E+02  0.00000000000E+00 0.  1.
</event>
<event>
 5    1  0.6622940E-004  0.9118800E+02  0.7818608E-02  0.1130116E+00
         25   -1    0    0    0    0  0.00000000000E+00  0.00000000000E+00  0.99999998245E-14  0.12500000000E+03  0.12500000000E+03 0.  0.
        -11    1    3    3    0    0  0.33000208783E+02  0.16443878325E+02  0.36830179209E+00  0.36872083757E+02  0.51100000000E-03 0. -1.
         23    2    1    0    0    0 -0.91978513824E+01 -0.83131937290E+00  0.31559487967E+02  0.92116982458E+02  0.86047926265E+02 0.  0.
         11    1    3    3    0    0 -0.42198060165E+02 -0.17275197698E+02  0.31191186175E+02  0.55244898701E+02  0.51100000000E-03 0.  1.
         22    1    1    0    0    0  0.91978513824E+01  0.83131937290E+00 -0.31559487967E+02  0.32883017542E+02  0.00000000000E+00 0.  1.
</event>
<event>
 5    1  0.6622940E-004  0.9118800E+02  0.7818608E-02  0.1130116E+00
         25   -1    0    0    0    0  0.00000000000E+00  0.00000000000E+00  0.99999998245E-14  0.12500000000E+03  0.12500000000E+03 0.  0.
        -11    1    3    3    0    0 -0.34125112560E+01 -0.69471379011E+01 -0.38133991546E+02  0.38911557018E+02  0.51100000000E-03 0.  1.
         23    2    1    0    0    0 -0.29973574896E+02 -0.29483280784E+02 -0.17038021115E+02  0.79635110478E+02  0.65450573866E+02 0.  0.
         11    1    3    3    0    0 -0.26561063640E+02 -0.22536142883E+02  0.21095970430E+02  0.40723553460E+02  0.51100000000E-03 0. -1.
         22    1    1    0    0    0  0.29973574896E+02  0.29483280784E+02  0.17038021115E+02  0.45364889522E+02  0.00000000000E+00 0.  1.
</event>
<event>
 5    1  0.6622940E-004  0.9118800E+02  0.7818608E-02  0.1130116E+00
         25   -1    0    0    0    0  0.00000000000E+00  0.00000000000E+00  0.99999998245E-14  0.12500000000E+03  0.12500000000E+03 0.  0.
        -11    1    3    3    0    0 -0.49324561613E+02  0.36109640238E+01  0.27906811609E+02  0.56786808097E+02  0.51100000000E-03 0.  1.
         23    2    1    0    0    0 -0.58337716327E+01 -0.69283344271E+01  0.21083165447E+02  0.10205365880E+03  0.99440508340E+02 0.  0.
         11    1    3    3    0    0  0.43490789980E+02 -0.10539298451E+02 -0.68236461618E+01  0.45266850698E+02  0.51100000000E-03 0. -1.
         22    1    1    0    0    0  0.58337716327E+01  0.69283344271E+01 -0.21083165447E+02  0.22946341205E+02  0.00000000000E+00 0.  1.
</event>
<event>
 5    1  0.6622940E-004  0.9118800E+02  0.7818608E-02  0.1130116E+00
         25   -1    0    0    0    0  0.00000000000E+00  0.00000000000E+00  0.99999998245E-14  0.12500000000E+03  0.12500000000E+03 0.  0.
        -11    1    3    3    0    0 -0.22328647958E+02  0.53516101769E+02 -0.19809869422E+02  0.61277831187E+02  0.51100000000E-03 0.  1.
         23    2    1    0    0    0 -0.11944416636E+02  0.93017105360E+01 -0.44995387966E+01  0.10920643305E+03  0.10805835582E+03 0.  0.
         11    1    3    3    0    0  0.10384231322E+02 -0.44214391233E+02  0.15310330626E+02  0.47928601862E+02  0.51100000000E-03 0. -1.
         22    1    1    0    0    0  0.11944416636E+02 -0.93017105360E+01  0.44995387966E+01  0.15793566951E+02  0.00000000000E+00 0.  1.
</event>
<event>
 5    1  0.6622940E-004  0.9118800E+02  0.7818608E-02  0.1130116E+00
         25   -1    0    0    0    0  0.00000000000E+00  0.00000000000E+00  0.99999998245E-14  0.12500000000E+03  0.12500000000E+03 0.  0.
        -11    1    3    3    0    0  0.40957622154E+02 -0.35946162654E+02  0.23456307892E+02  0.59328338948E+02  0.51100000000E-03 0.  1.
         23    2    1    0    0    0  0.10317416942E+02 -0.15985941365E+02  0.21983823823E+02  0.95926164279E+02  0.91414118547E+02 0.  0.
         11    1    3    3    0    0 -0.30640205212E+02  0.19960221289E+02 -0.14724840692E+01  0.36597825331E+02  0.51100000000E-03 0. -1.
         22    1    1    0    0    0 -0.10317416942E+02  0.15985941365E+02 -0.21983823823E+02  0.29073835721E+02  0.00000000000E+00 0.  1.
</event>
<event>
 5    1  0.6622940E-004  0.9118800E+02  0.7818608E-02  0.1130116E+00
         25   -1    0    0    0    0  0.00000000000E+00  0.00000000000E+00  0.99999998245E-14  0.12500000000E+03  0.12500000000E+03 0.  0.
        -11    1    3    3    0    0 -0.18834315602E+02  0.55463648607E+01  0.49039137333E+02  0.52823579943E+02  0.51100000000E-03 0.  1.
         23    2    1    0    0    0 -0.11481405132E+02  0.24888572243E+02  0.12369154718E+02  0.94929089130E+02  0.90040392506E+02 0.  0.
         11    1    3    3    0    0  0.73529104703E+01  0.19342207382E+02 -0.36669982614E+02  0.42105509188E+02  0.51100000000E-03 0. -1.
         22    1    1    0    0    0  0.11481405132E+02 -0.24888572243E+02 -0.12369154718E+02  0.30070910870E+02  0.00000000000E+00 0.  1.
</event>
<event>
 5    1  0.6622940E-004  0.9118800E+02  0.7818608E-02  0.1130116E+00
         25   -1    0    0    0    0  0.00000000000E+00  0.00000000000E+00  0.99999998245E-14  0.12500000000E+03  0.12500000000E+03 0.  0.
        -11    1    3    3    0    0 -0.49185821274E+02  0.25472810454E+02 -0.28563049552E+02  0.62321399911E+02  0.51100000000E-03 0.  1.
         23    2    1    0    0    0 -0.22280961187E+02  0.15267726985E+02 -0.13341888623E+02  0.94874417670E+02  0.89964461970E+02 0.  0.
         11    1    3    3    0    0  0.26904860087E+02 -0.10205083470E+02  0.15221160930E+02  0.32553017759E+02  0.51100000000E-03 0. -1.
         22    1    1    0    0    0  0.22280961187E+02 -0.15267726985E+02  0.13341888623E+02  0.30125582330E+02  0.00000000000E+00 0.  1.
</event>
<event>
 5    1  0.6622940E-004  0.9118800E+02  0.7818608E-02  0.1130116E+00
         25   -1    0    0    0    0  0.00000000000E+00  0.00000000000E+00  0.99999998245E-14  0.12500000000E+03  0.12500000000E+03 0.  0.
        -11    1    3    3    0    0  0.98654900962E+01  0.35378745901E+02  0.38193677409E+02  0.52988117071E+02  0.51100000000E-03 0.  1.
         23    2    1    0    0    0  0.26493754624E+02  0.68379162367E+01  0.12103437526E+02  0.95080619450E+02  0.90250511702E+02 0.  0.
         11    1    3    3    0    0  0.16628264528E+02 -0.28540829664E+02 -0.26090239884E+02  0.42092502380E+02  0.51100000000E-03 0. -1.
         22    1    1    0    0    0 -0.26493754624E+02 -0.68379162367E+01 -0.12103437526E+02  0.29919380550E+02  0.00000000000E+00 0.  1.
</event>
<event>
 5    1  0.6622940E-004  0.9118800E+02  0.7818608E-02  0.1130116E+00
         25   -1    0    0    0    0  0.00000000000E+00  0.00000000000E+00  0.99999998245E-14  0.12500000000E+03  0.12500000000E+03 0.  0.
        -11    1    3    3    0    0 -0.12886111132E+02 -0.37979109642E+02 -0.36804154416E+02  0.54433541239E+02  0.51100000000E-03 0.  1.
         23    2    1    0    0    0 -0.20607063255E+02 -0.10029365802E+01 -0.21536037797E+02  0.95176219862E+02  0.90382824505E+02 0.  0.
         11    1    3    3    0    0 -0.77209521221E+01  0.36976173062E+02  0.15268116619E+02  0.40742678622E+02  0.51100000000E-03 0. -1.
         22    1    1    0    0    0  0.20607063255E+02  0.10029365802E+01  0.21536037797E+02  0.29823780138E+02  0.00000000000E+00 0.  1.
</event>
<event>
 5    1  0.6622940E-004  0.9118800E+02  0.7818608E-02  0.1130116E+00
         25   -1    0    0    0    0  0.00000000000E+00  0.00000000000E+00  0.99999998245E-14  0.12500000000E+03  0.12500000000E+03 0.  0.
        -11    1    3    3    0    0 -0.44225086710E+02  0.25109679258E+02  0.12835408928E+02  0.52450948605E+02  0.51100000000E-03 0. -1.
         23    2    1    0    0    0  0.11098103385E+00  0.25808668478E+02  0.11318055422E+02  0.96818480099E+02  0.92626238316E+02 0.  0.
         11    1    3    3    0    0  0.44336067744E+02  0.69898922012E+00 -0.15173535059E+01  0.44367531494E+02  0.51100000000E-03 0.  1.
         22    1    1    0    0    0 -0.11098103385E+00 -0.25808668478E+02 -0.11318055422E+02  0.28181519901E+02  0.00000000000E+00 0. -1.
</event>
<event>
 5    1  0.6622940E-004  0.9118800E+02  0.7818608E-02  0.1130116E+00
         25   -1    0    0    0    0  0.00000000000E+00  0.00000000000E+00  0.99999998245E-14  0.12500000000E+03  0.12500000000E+03 0.  0.
        -11    1    3    3    0    0  0.15837619482E+02 -0.18923997804E+02 -0.25472117589E+02  0.35465147095E+02  0.51100000000E-03 0.  1.
         23    2    1    0    0    0 -0.18327847405E+02  0.23088427976E+02  0.48841647351E+00  0.95517394152E+02  0.90853445383E+02 0.  0.
         11    1    3    3    0    0 -0.34165466887E+02  0.42012425781E+02  0.25960534062E+02  0.60052247057E+02  0.51100000000E-03 0. -1.
         22    1    1    0    0    0  0.18327847405E+02 -0.23088427976E+02 -0.48841647351E+00  0.29482605848E+02  0.00000000000E+00 0. -1.
</event>
<event>
 5    1  0.6622940E-004  0.9118800E+02  0.7818608E-02  0.1130116E+00
         25   -1    0    0    0    0  0.00000000000E+00  0.00000000000E+00  0.99999998245E-14  0.12500000000E+03  0.12500000000E+03 0.  0.
        -11    1    3    3    0    0  0.27526173326E+02 -0.25197281381E+02 -0.87812926683E+01  0.38336722710E+02  0.51100000000E-03 0. -1.
         23    2    1    0    0    0  0.17717345297E+02  0.17727672614E+02  0.21666153523E+02  0.91869999861E+02  0.85688388743E+02 0.  0.
         11    1    3    3    0    0 -0.98088280286E+01  0.42924953995E+02  0.30447446191E+02  0.53533277152E+02  0.51100000000E-03 0.  1.
         22    1    1    0    0    0 -0.17717345297E+02 -0.17727672614E+02 -0.21666153523E+02  0.33130000139E+02  0.00000000000E+00 0.  1.
</event>
<event>
 5    1  0.6622940E-004  0.9118800E+02  0.7818608E-02  0.1130116E+00
         25   -1    0    0    0    0  0.00000000000E+00  0.00000000000E+00  0.99999998245E-14  0.12500000000E+03  0.12500000000E+03 0.  0.
        -11    1    3    3    0    0  0.17185492308E+01 -0.31937059727E+02  0.26417860205E+02  0.41482918575E+02  0.51100000000E-03 0.  1.
         23    2    1    0    0    0 -0.78665913756E+00  0.20817469489E+02  0.22339773353E+02  0.94454110882E+02  0.89378564100E+02 0.  0.
         11    1    3    3    0    0 -0.25052083684E+01  0.52754529216E+02 -0.40780868513E+01  0.52971192307E+02  0.51100000000E-03 0. -1.
         22    1    1    0    0    0  0.78665913756E+00 -0.20817469489E+02 -0.22339773353E+02  0.30545889118E+02  0.00000000000E+00 0. -1.
</event>
<event>
 5    1  0.6622940E-004  0.9118800E+02  0.7818608E-02  0.1130116E+00
         25   -1    0    0    0    0  0.00000000000E+00  0.00000000000E+00  0.99999998245E-14  0.12500000000E+03  0.12500000000E+03 0.  0.
        -11    1    3    3    0    0 -0.54820309676E+02  0.14375002328E+02  0.16192945595E+02  0.58941653626E+02  0.51100000000E-03 0.  1.
         23    2    1    0    0    0 -0.28761275057E+02 -0.60871879044E+01  0.51334136604E+00  0.95597137574E+02  0.90963093579E+02 0.  0.
         11    1    3    3    0    0  0.26059034619E+02 -0.20462190232E+02 -0.15679604229E+02  0.36655483947E+02  0.51100000000E-03 0. -1.
         22    1    1    0    0    0  0.28761275057E+02  0.60871879044E+01 -0.51334136604E+00  0.29402862426E+02  0.00000000000E+00 0.  1.
</event>
<event>
 5    1  0.6622940E-004  0.9118800E+02  0.7818608E-02  0.1130116E+00
         25   -1    0    0    0    0  0.00000000000E+00  0.00000000000E+00  0.99999998245E-14  0.12500000000E+03  0.12500000000E+03 0.  0.
        -11    1    3    3    0    0  0.25448908973E+02 -0.40537685060E+02 -0.33793367356E+02  0.58591318089E+02  0.51100000000E-03 0.  1.
         23    2    1    0    0    0  0.15683634843E+02 -0.36434176777E+02 -0.10827305864E+02  0.83882410193E+02  0.73113627650E+02 0.  0.
         11    1    3    3    0    0 -0.97652741296E+01  0.41035082830E+01  0.22966061492E+02  0.25291092104E+02  0.51100000000E-03 0. -1.
         22    1    1    0    0    0 -0.15683634843E+02  0.36434176777E+02  0.10827305864E+02  0.41117589807E+02  0.00000000000E+00 0.  1.
</event>
<event>
 5    1  0.6622940E-004  0.9118800E+02  0.7818608E-02  0.1130116E+00
         25   -1    0    0    0    0  0.00000000000E+00  0.00000000000E+00  0.99999998245E-14  0.12500000000E+03  0.12500000000E+03 0.  0.
        -11    1    3    3    0    0  0.48263451125E+02 -0.15307106903E+02  0.28897386337E+02  0.58298603531E+02  0.51100000000E-03 0. -1.
         23    2    1    0    0    0  0.13341702943E+02 -0.59890589100E+00  0.25337596892E+02  0.96358185428E+02  0.92002969284E+02 0.  0.
         11    1    3    3    0    0 -0.34921748182E+02  0.14708201012E+02 -0.35597894450E+01  0.38059581898E+02  0.51100000000E-03 0.  1.
         22    1    1    0    0    0 -0.13341702943E+02  0.59890589100E+00 -0.25337596892E+02  0.28641814572E+02  0.00000000000E+00 0. -1.
</event>
<event>
 5    1  0.6622940E-004  0.9118800E+02  0.7818608E-02  0.1130116E+00
         25   -1    0    0    0    0  0.00000000000E+00  0.00000000000E+00  0.99999998245E-14  0.12500000000E+03  0.12500000000E+03 0.  0.
        -11    1    3    3    0    0  0.32445334314E+01 -0.28010399160E+02  0.37283517450E+02  0.46745803362E+02  0.51100000000E-03 0.  1.
         23    2    1    0    0    0 -0.10182216879E+02  0.16590383329E+02  0.21669547574E+02  0.95871188634E+02  0.91338913714E+02 0.  0.
         11    1    3    3    0    0 -0.13426750310E+02  0.44600782489E+02 -0.15613969876E+02  0.49125385271E+02  0.51100000000E-03 0. -1.
         22    1    1    0    0    0  0.10182216879E+02 -0.16590383329E+02 -0.21669547574E+02  0.29128811366E+02  0.00000000000E+00 0. -1.
</event>
<event>
 5    1  0.6622940E-004  0.9118800E+02  0.7818608E-02  0.1130116E+00
         25   -1    0    0    0    0  0.00000000000E+00  0.00000000000E+00  0.99999998245E-14  0.12500000000E+03  0.12500000000E+03 0.  0.
        -11    1    3    3    0    0 -0.34810183370E+02  0.32877045844E+02 -0.12902918386E+02  0.49589659334E+02  0.51100000000E-03 0. -1.
         23    2    1    0    0    0 -0.22750628336E+02 -0.13292536288E+02 -0.74437147258E+01  0.97619505126E+02  0.93700994026E+02 0.  0.
         11    1    3    3    0    0  0.12059555034E+02 -0.46169582132E+02  0.54592036605E+01  0.48029845791E+02  0.51100000000E-03 0.  1.
         22    1    1    0    0    0  0.22750628336E+02  0.13292536288E+02  0.74437147258E+01  0.27380494874E+02  0.00000000000E+00 0. -1.
</event>
<event>
 5    1  0.6622940E-004  0.9118800E+02  0.7818608E-02  0.1130116E+00
         25   -1    0    0    0    0  0.00000000000E+00  0.00000000000E+00  0.99999998245E-14  0.12500000000E+03  0.12500000000E+03 0.  0.
        -11    1    3    3    0    0 -0.17585404490E+02  0.57839974224E+02 -0.11210860240E+02  0.61484896169E+02  0.51100000000E-03 0. -1.
         23    2    1    0    0    0 -0.88972532042E+01  0.27814443122E+02  0.26492153264E+01  0.95677266454E+02  0.91073138815E+02 0.  0.
         11    1    3    3    0    0  0.86881512858E+01 -0.30025531103E+02  0.13860075566E+02  0.34192370285E+02  0.51100000000E-03 0.  1.
         22    1    1    0    0    0  0.88972532042E+01 -0.27814443122E+02 -0.26492153264E+01  0.29322733546E+02  0.00000000000E+00 0. -1.
</event>
<event>
 5    1  0.6622940E-004  0.9118800E+02  0.7818608E-02  0.1130116E+00
         25   -1    0    0    0    0  0.00000000000E+00  0.00000000000E+00  0.99999998245E-14  0.12500000000E+03  0.12500000000E+03 0.  0.
        -11    1    3    3    0    0 -0.42138862192E+02 -0.43465542422E+02  0.99563057940E+01  0.61351977232E+02  0.51100000000E-03 0.  1.
         23    2    1    0    0    0 -0.17015297033E+02 -0.23331731031E+02 -0.28101310662E+01  0.95986436919E+02  0.91496498457E+02 0.  0.
         11    1    3    3    0    0  0.25123565160E+02  0.20133811391E+02 -0.12766436860E+02  0.34634459687E+02  0.51100000000E-03 0. -1.
         22    1    1    0    0    0  0.17015297033E+02  0.23331731031E+02  0.28101310662E+01  0.29013563081E+02  0.00000000000E+00 0.  1.
</event>
<event>
 5    1  0.6622940E-004  0.9118800E+02  0.7818608E-02  0.1130116E+00
         25   -1    0    0    0    0  0.00000000000E+00  0.00000000000E+00  0.99999998245E-14  0.12500000000E+03  0.12500000000E+03 0.  0.
        -11    1    3    3    0    0  0.45859085837E+02 -0.33529764381E+02 -0.13039092953E+02  0.58286523301E+02  0.51100000000E-03 0.  1.
         23    2    1    0    0    0  0.29233356689E+02 -0.17461566798E+01 -0.28432497808E+01  0.95576841166E+02  0.90935198309E+02 0.  0.
         11    1    3    3    0    0 -0.16625729148E+02  0.31783607701E+02  0.10195843172E+02  0.37290317865E+02  0.51100000000E-03 0. -1.
         22    1    1    0    0    0 -0.29233356689E+02  0.17461566798E+01  0.28432497808E+01  0.29423158834E+02  0.00000000000E+00 0.  1.
</event>
<event>
 5    1  0.6622940E-004  0.9118800E+02  0.7818608E-02  0.1130116E+00
         25   -1    0    0    0    0  0.00000000000E+00  0.00000000000E+00  0.99999998245E-14  0.12500000000E+03  0.12500000000E+03 0.  0.
        -11    1    3    3    0    0  0.38218390265E+02  0.28229945046E+02 -0.21453255721E+02  0.52132689678E+02  0.51100000000E-03 0. -1.
         23    2    1    0    0    0 -0.30594152572E+00  0.15307454785E+02 -0.27803391653E+02  0.93259798999E+02  0.87692358559E+02 0.  0.
         11    1    3    3    0    0 -0.38524331791E+02 -0.12922490261E+02 -0.63501359318E+01  0.41127109321E+02  0.51100000000E-03 0.  1.
         22    1    1    0    0    0  0.30594152572E+00 -0.15307454785E+02  0.27803391653E+02  0.31740201001E+02  0.00000000000E+00 0. -1.
</event>
<event>
 5    1  0.6622940E-004  0.9118800E+02  0.7818608E-02  0.1130116E+00
         25   -1    0    0    0    0  0.00000000000E+00  0.00000000000E+00  0.99999998245E-14  0.12500000000E+03  0.12500000000E+03 0.  0.
        -11    1    3    3    0    0 -0.33418454411E+02  0.12600114562E+02  0.13432964815E+02  0.38157574952E+02  0.51100000000E-03 0. -1.
         23    2    1    0    0    0  0.22236816593E+02  0.17366823240E+02 -0.36012607515E+01  0.96556166914E+02  0.92271565113E+02 0.  0.
         11    1    3    3    0    0  0.55655271004E+02  0.47667086778E+01 -0.17034225566E+02  0.58398591962E+02  0.51100000000E-03 0.  1.
         22    1    1    0    0    0 -0.22236816593E+02 -0.17366823240E+02  0.36012607515E+01  0.28443833086E+02  0.00000000000E+00 0.  1.
</event>
<event>
 5    1  0.6622940E-004  0.9118800E+02  0.7818608E-02  0.1130116E+00
         25   -1    0    0    0    0  0.00000000000E+00  0.00000000000E+00  0.99999998245E-14  0.12500000000E+03  0.12500000000E+03 0.  0.
        -11    1    3    3    0    0 -0.44651816252E+01  0.34437591781E+02  0.45094744151E+02  0.56915916271E+02  0.51100000000E-03 0.  1.
         23    2    1    0    0    0  0.64292356246E+01  0.22998769508E+01  0.30309100489E+02  0.93931268498E+02  0.88644329342E+02 0.  0.
         11    1    3    3    0    0  0.10894417250E+02 -0.32137714830E+02 -0.14785643662E+02  0.37015352227E+02  0.51100000000E-03 0. -1.
         22    1    1    0    0    0 -0.64292356246E+01 -0.22998769508E+01 -0.30309100489E+02  0.31068731502E+02  0.00000000000E+00 0.  1.
</event>
<event>
 5    1  0.6622940E-004  0.9118800E+02  0.7818608E-02  0.1130116E+00
         25   -1    0    0    0    0  0.00000000000E+00  0.00000000000E+00  0.99999998245E-14  0.12500000000E+03  0.12500000000E+03 0.  0.
        -11    1    3    3    0    0  0.32387753773E+02 -0.28668670723E+02 -0.36035693161E+02  0.56297694956E+02  0.51100000000E-03 0.  1.
         23    2    1    0    0    0  0.51390321147E+01 -0.26911437787E+02 -0.58806012214E+01  0.96978283322E+02  0.92841643838E+02 0.  0.
         11    1    3    3    0    0 -0.27248721658E+02  0.17572329361E+01  0.30155091940E+02  0.40680588366E+02  0.51100000000E-03 0. -1.
         22    1    1    0    0    0 -0.51390321147E+01  0.26911437787E+02  0.58806012214E+01  0.28021716678E+02  0.00000000000E+00 0. -1.
</event>
<event>
 5    1  0.6622940E-004  0.9118800E+02  0.7818608E-02  0.1130116E+00
         25   -1    0    0    0    0  0.00000000000E+00  0.00000000000E+00  0.99999998245E-14  0.12500000000E+03  0.12500000000E+03 0.  0.
        -11    1    3    3    0    0 -0.30409673847E+01  0.25569053222E+02 -0.23750574327E+02  0.35030183363E+02  0.51100000000E-03 0.  1.
         23    2    1    0    0    0  0.15019586452E+02 -0.17424548471E+02  0.16547207093E+02  0.96662517240E+02  0.92415525265E+02 0.  0.
         11    1    3    3    0    0  0.18060553837E+02 -0.42993601693E+02  0.40297781420E+02  0.61632333877E+02  0.51100000000E-03 0. -1.
         22    1    1    0    0    0 -0.15019586452E+02  0.17424548471E+02 -0.16547207093E+02  0.28337482760E+02  0.00000000000E+00 0. -1.
</event>
<event>
 5    1  0.6622940E-004  0.9118800E+02  0.7818608E-02  0.1130116E+00
         25   -1    0    0    0    0  0.00000000000E+00  0.00000000000E+00  0.99999998245E-14  0.12500000000E+03  0.12500000000E+03 0.  0.
        -11    1    3    3    0    0 -0.50795631607E+02  0.27585993765E+02  0.10806832709E+02  0.58804514077E+02  0.51100000000E-03 0.  1.
         23    2    1    0    0    0 -0.26812352204E+02  0.23299612539E+01  0.15490393661E+02  0.93947089574E+02  0.88666636304E+02 0.  0.
         11    1    3    3    0    0  0.23983279403E+02 -0.25256032511E+02  0.46835609513E+01  0.35142575497E+02  0.51100000000E-03 0. -1.
         22    1    1    0    0    0  0.26812352204E+02 -0.23299612539E+01 -0.15490393661E+02  0.31052910426E+02  0.00000000000E+00 0.  1.
</event>
<event>
 5    1  0.6622940E-004  0.9118800E+02  0.7818608E-02  0.1130116E+00
         25   -1    0    0    0    0  0.00000000000E+00  0.00000000000E+00  0.99999998245E-14  0.12500000000E+03  0.12500000000E+03 0.  0.
        -11    1    3    3    0    0  0.19938820251E+02 -0.21246107761E+02 -0.67083162073E+01  0.29899082839E+02  0.51100000000E-03 0. -1.
         23    2    1    0    0    0 -0.19092308523E+02  0.26616921192E+02  0.15402254379E+01  0.92207485109E+02  0.86179297266E+02 0.  0.
         11    1    3    3    0    0 -0.39031128774E+02  0.47863028953E+02  0.82485416452E+01  0.62308402270E+02  0.51100000000E-03 0.  1.
         22    1    1    0    0    0  0.19092308523E+02 -0.26616921192E+02 -0.15402254379E+01  0.32792514891E+02  0.00000000000E+00 0.  1.
</event>
<event>
 5    1  0.6622940E-004  0.9118800E+02  0.7818608E-02  0.1130116E+00
         25   -1    0    0    0    0  0.00000000000E+00  0.00000000000E+00  0.99999998245E-14  0.12500000000E+03  0.12500000000E+03 0.  0.
        -11    1    3    3    0    0  0.19399560077E+02  0.11882134999E+02  0.39961138818E+02  0.45982830265E+02  0.51100000000E-03 0. -1.
         23    2    1    0    0    0  0.27069695270E+02  0.10016484937E+02 -0.83645464669E+01  0.94948976555E+02  0.90067997307E+02 0.  0.
         11    1    3    3    0    0  0.76701351925E+01 -0.18656500628E+01 -0.48325685284E+02  0.48966146290E+02  0.51100000000E-03 0.  1.
         22    1    1    0    0    0 -0.27069695270E+02 -0.10016484937E+02  0.83645464669E+01  0.30051023445E+02  0.00000000000E+00 0.  1.
</event>
<event>
 5    1  0.6622940E-004  0.9118800E+02  0.7818608E-02  0.1130116E+00
         25   -1    0    0    0    0  0.00000000000E+00  0.00000000000E+00  0.99999998245E-14  0.12500000000E+03  0.12500000000E+03 0.  0.
        -11    1    3    3    0    0 -0.47501569389E+01  0.37481570917E+02 -0.93955341185E+00  0.37793053730E+02  0.51100000000E-03 0.  1.
         23    2    1    0    0    0  0.18194393364E+02 -0.16659681737E+02  0.11315920550E+02  0.97859053013E+02  0.94020015174E+02 0.  0.
         11    1    3    3    0    0  0.22944550303E+02 -0.54141252654E+02  0.12255473962E+02  0.60065999283E+02  0.51100000000E-03 0. -1.
         22    1    1    0    0    0 -0.18194393364E+02  0.16659681737E+02 -0.11315920550E+02  0.27140946987E+02  0.00000000000E+00 0. -1.
</event>
<event>
 5    1  0.6622940E-004  0.9118800E+02  0.7818608E-02  0.1130116E+00
         25   -1    0    0    0    0  0.00000000000E+00  0.00000000000E+00  0.99999998245E-14  0.12500000000E+03  0.12500000000E+03 0.  0.
        -11    1    3    3    0    0  0.28901696191E+02  0.47521390963E+01  0.18686140420E+02  0.34742808073E+02  0.51100000000E-03 0. -1.
         23    2    1    0    0    0 -0.16554718792E+02  0.10081273378E+02 -0.21786905621E+02  0.95839066480E+02  0.91294943015E+02 0.  0.
         11    1    3    3    0    0 -0.45456414983E+02  0.53291342814E+01 -0.40473046041E+02  0.61096258408E+02  0.51100000000E-03 0.  1.
         22    1    1    0    0    0  0.16554718792E+02 -0.10081273378E+02  0.21786905621E+02  0.29160933520E+02  0.00000000000E+00 0.  1.
</event>
<event>
 5    1  0.6622940E-004  0.9118800E+02  0.7818608E-02  0.1130116E+00
         25   -1    0    0    0    0  0.00000000000E+00  0.00000000000E+00  0.99999998245E-14  0.12500000000E+03  0.12500000000E+03 0.  0.
        -11    1    3    3    0    0 -0.24806417561E+02  0.15668033200E+02  0.14372263229E+02  0.32671203944E+02  0.51100000000E-03 0. -1.
         23    2    1    0    0    0  0.12044034803E+02  0.31504423219E+01 -0.30492588109E+02  0.92063971236E+02  0.85970883496E+02 0.  0.
         11    1    3    3    0    0  0.36850452364E+02 -0.12517590879E+02 -0.44864851337E+02  0.59392767292E+02  0.51100000000E-03 0.  1.
         22    1    1    0    0    0 -0.12044034803E+02 -0.31504423219E+01  0.30492588109E+02  0.32936028764E+02  0.00000000000E+00 0.  1.
</event>
<event>
 5    1  0.6622940E-004  0.9118800E+02  0.7818608E-02  0.1130116E+00
         25   -1    0    0    0    0  0.00000000000E+00  0.00000000000E+00  0.99999998245E-14  0.12500000000E+03  0.12500000000E+03 0.  0.
        -11    1    3    3    0    0 -0.62813934084E+01  0.39268742701E+02  0.31182504984E+02  0.50535518933E+02  0.51100000000E-03 0. -1.
         23    2    1    0    0    0  0.23758721074E+02  0.10328189723E+02  0.12201446795E+02  0.96363945211E+02  0.92010794490E+02 0.  0.
         11    1    3    3    0    0  0.30040114483E+02 -0.28940552979E+02 -0.18981058189E+02  0.45828426278E+02  0.51100000000E-03 0.  1.
         22    1    1    0    0    0 -0.23758721074E+02 -0.10328189723E+02 -0.12201446795E+02  0.28636054789E+02  0.00000000000E+00 0. -1.
</event>
<event>
 5    1  0.6622940E-004  0.9118800E+02  0.7818608E-02  0.1130116E+00
         25   -1    0    0    0    0  0.00000000000E+00  0.00000000000E+00  0.99999998245E-14  0.12500000000E+03  0.12500000000E+03 0.  0.
        -11    1    3    3    0    0 -0.18001885744E+02 -0.23862716300E+02  0.18122234636E+02  0.34955865144E+02  0.51100000000E-03 0.  1.
         23    2    1    0    0    0  0.14811731802E+02  0.11183994988E+02 -0.21062279635E+02  0.96927081265E+02  0.92772680872E+02 0.  0.
         11    1    3    3    0    0  0.32813617546E+02  0.35046711288E+02 -0.39184514271E+02  0.61971216121E+02  0.51100000000E-03 0. -1.
         22    1    1    0    0    0 -0.14811731802E+02 -0.11183994988E+02  0.21062279635E+02  0.28072918735E+02  0.00000000000E+00 0. -1.
</event>
<event>
 5    1  0.6622940E-004  0.9118800E+02  0.7818608E-02  0.1130116E+00
         25   -1    0    0    0    0  0.00000000000E+00  0.00000000000E+00  0.99999998245E-14  0.12500000000E+03  0.12500000000E+03 0.  0.
        -11    1    3    3    0    0 -0.55383860673E+02  0.47871379669E+01  0.26441448162E+02  0.61558418547E+02  0.51100000000E-03 0.  1.
         23    2    1    0    0    0 -0.27747054969E+02  0.91352127353E+01  0.94191426648E+01  0.94306818026E+02  0.89172330386E+02 0.  0.
         11    1    3    3    0    0  0.27636805704E+02  0.43480747684E+01 -0.17022305497E+02  0.32748399478E+02  0.51100000000E-03 0. -1.
         22    1    1    0    0    0  0.27747054969E+02 -0.91352127353E+01 -0.94191426648E+01  0.30693181974E+02  0.00000000000E+00 0.  1.
</event>
<event>
 5    1  0.6622940E-004  0.9118800E+02  0.7818608E-02  0.1130116E+00
         25   -1    0    0    0    0  0.00000000000E+00  0.00000000000E+00  0.99999998245E-14  0.12500000000E+03  0.12500000000E+03 0.  0.
        -11    1    3    3    0    0  0.60473007004E+02  0.12891748029E+01  0.12405952184E+02  0.61745884054E+02  0.51100000000E-03 0.  1.
         23    2    1    0    0    0  0.26611242089E+02 -0.34207370998E+01  0.11116737830E+02  0.95957935545E+02  0.91457552374E+02 0.  0.
         11    1    3    3    0    0 -0.33861764915E+02 -0.47099119027E+01 -0.12892143537E+01  0.34212051491E+02  0.51100000000E-03 0. -1.
         22    1    1    0    0    0 -0.26611242089E+02  0.34207370998E+01 -0.11116737830E+02  0.29042064455E+02  0.00000000000E+00 0.  1.
</event>
<event>
 5    1  0.6622940E-004  0.9118800E+02  0.7818608E-02  0.1130116E+00
         25   -1    0    0    0    0  0.00000000000E+00  0.00000000000E+00  0.99999998245E-14  0.12500000000E+03  0.12500000000E+03 0.  0.
        -11    1    3    3    0    0  0.30265149189E+02 -0.95744522331E+01 -0.60260819006E+01  0.32310417118E+02  0.51100000000E-03 0. -1.
         23    2    1    0    0    0 -0.27698176157E+02  0.24535424823E+01  0.12742721532E+02  0.94412653185E+02  0.89320564800E+02 0.  0.
         11    1    3    3    0    0 -0.57963325346E+02  0.12027994715E+02  0.18768803433E+02  0.62102236067E+02  0.51100000000E-03 0.  1.
         22    1    1    0    0    0  0.27698176157E+02 -0.24535424823E+01 -0.12742721532E+02  0.30587346815E+02  0.00000000000E+00 0.  1.
</event>
<event>
 5    1  0.6622940E-004  0.9118800E+02  0.7818608E-02  0.1130116E+00
         25   -1    0    0    0    0  0.00000000000E+00  0.00000000000E+00  0.99999998245E-14  0.12500000000E+03  0.12500000000E+03 0.  0.
        -11    1    3    3    0    0  0.10546941593E+02  0.11110278017E+02  0.31728373385E+02  0.35233023323E+02  0.51100000000E-03 0.  1.
         23    2    1    0    0    0 -0.38774979156E+01 -0.23538358973E+02 -0.16241555251E+02  0.96140383749E+02  0.91706575212E+02 0.  0.
         11    1    3    3    0    0 -0.14424439509E+02 -0.34648636989E+02 -0.47969928636E+02  0.60907360425E+02  0.51100000000E-03 0. -1.
         22    1    1    0    0    0  0.38774979156E+01  0.23538358973E+02  0.16241555251E+02  0.28859616251E+02  0.00000000000E+00 0. -1.
</event>
<event>
 5    1  0.6622940E-004  0.9118800E+02  0.7818608E-02  0.1130116E+00
         25   -1    0    0    0    0  0.00000000000E+00  0.00000000000E+00  0.99999998245E-14  0.12500000000E+03  0.12500000000E+03 0.  0.
        -11    1    3    3    0    0 -0.23732969932E+02  0.19898232973E+02  0.14768368578E+02  0.34311780017E+02  0.51100000000E-03 0. -1.
         23    2    1    0    0    0  0.73467083580E+01 -0.19984875785E+02 -0.20089804912E+02  0.95725956117E+02  0.91139942009E+02 0.  0.
         11    1    3    3    0    0  0.31079678290E+02 -0.39883108757E+02 -0.34858173490E+02  0.61414176100E+02  0.51100000000E-03 0.  1.
         22    1    1    0    0    0 -0.73467083580E+01  0.19984875785E+02  0.20089804912E+02  0.29274043883E+02  0.00000000000E+00 0.  1.
</event>
<event>
 5    1  0.6622940E-004  0.9118800E+02  0.7818608E-02  0.1130116E+00
         25   -1    0    0    0    0  0.00000000000E+00  0.00000000000E+00  0.99999998245E-14  0.12500000000E+03  0.12500000000E+03 0.  0.
        -11    1    3    3    0    0  0.21930363868E+02  0.33442230831E+01 -0.24878741796E+02  0.33332813878E+02  0.51100000000E-03 0.  1.
         23    2    1    0    0    0 -0.26147977321E+02  0.26751621884E+01  0.14047341266E+02  0.95197298656E+02  0.90411971907E+02 0.  0.
         11    1    3    3    0    0 -0.48078341189E+02 -0.66906089471E+00  0.38926083062E+02  0.61864484778E+02  0.51100000000E-03 0. -1.
         22    1    1    0    0    0  0.26147977321E+02 -0.26751621884E+01 -0.14047341266E+02  0.29802701344E+02  0.00000000000E+00 0. -1.
</event>
<event>
 4    1  0.6622940E-004  0.9118800E+02  0.7818608E-02  0.1130116E+00
         25   -1    0    0    0    0  0.00000000000E+00  0.00000000000E+00  0.99999998245E-14  0.12500000000E+03  0.12500000000E+03 0.  0.
        -11    1    1    0    0    0  0.54158174824E+01  0.37414152391E+02 -0.44549963554E+02  0.58428153582E+02  0.51100000000E-03 0. -1.
         11    1    1    0    0    0  0.65525803945E+01 -0.38324648489E+01 -0.20838577121E+01  0.78718841372E+01  0.51100000000E-03 0.  1.
         22    1    1    0    0    0 -0.11968397877E+02 -0.33581687542E+02  0.46633821266E+02  0.58699962281E+02  0.00000000000E+00 0. -1.
</event>
<event>
 5    1  0.6622940E-004  0.9118800E+02  0.7818608E-02  0.1130116E+00
         25   -1    0    0    0    0  0.00000000000E+00  0.00000000000E+00  0.99999998245E-14  0.12500000000E+03  0.12500000000E+03 0.  0.
        -11    1    3    3    0    0  0.10030999145E+02  0.39719066579E+02  0.15264011260E+02  0.43717447704E+02  0.51100000000E-03 0.  1.
         23    2    1    0    0    0 -0.17147168624E+02 -0.34970566190E+01  0.23780052232E+02  0.95474660358E+02  0.90794631391E+02 0.  0.
         11    1    3    3    0    0 -0.27178167768E+02 -0.43216123198E+02  0.85160409721E+01  0.51757212653E+02  0.51100000000E-03 0. -1.
         22    1    1    0    0    0  0.17147168624E+02  0.34970566190E+01 -0.23780052232E+02  0.29525339642E+02  0.00000000000E+00 0. -1.
</event>
<event>
 5    1  0.6622940E-004  0.9118800E+02  0.7818608E-02  0.1130116E+00
         25   -1    0    0    0    0  0.00000000000E+00  0.00000000000E+00  0.99999998245E-14  0.12500000000E+03  0.12500000000E+03 0.  0.
        -11    1    3    3    0    0 -0.48179922504E+02  0.33863139178E+02  0.24900585209E+01  0.58942493324E+02  0.51100000000E-03 0.  1.
         23    2    1    0    0    0 -0.25674735913E+02  0.51778606820E+01 -0.92139125442E+01  0.97234941207E+02  0.93186561808E+02 0.  0.
         11    1    3    3    0    0  0.22505186591E+02 -0.28685278496E+02 -0.11703971065E+02  0.38292447883E+02  0.51100000000E-03 0. -1.
         22    1    1    0    0    0  0.25674735913E+02 -0.51778606820E+01  0.92139125442E+01  0.27765058793E+02  0.00000000000E+00 0.  1.
</event>
<event>
 5    1  0.6622940E-004  0.9118800E+02  0.7818608E-02  0.1130116E+00
         25   -1    0    0    0    0  0.00000000000E+00  0.00000000000E+00  0.99999998245E-14  0.12500000000E+03  0.12500000000E+03 0.  0.
        -11    1    3    3    0    0 -0.29551930763E+02 -0.20405025878E+02  0.50430449265E+02  0.61910515313E+02  0.51100000000E-03 0. -1.
         23    2    1    0    0    0 -0.14186323623E+02 -0.34708399228E+01  0.24446725188E+02  0.96522976276E+02  0.92226590900E+02 0.  0.
         11    1    3    3    0    0  0.15365607140E+02  0.16934185956E+02 -0.25983724077E+02  0.34612460963E+02  0.51100000000E-03 0.  1.
         22    1    1    0    0    0  0.14186323623E+02  0.34708399228E+01 -0.24446725188E+02  0.28477023724E+02  0.00000000000E+00 0. -1.
</event>
<event>
 5    1  0.6622940E-004  0.9118800E+02  0.7818608E-02  0.1130116E+00
         25   -1    0    0    0    0  0.00000000000E+00  0.00000000000E+00  0.99999998245E-14  0.12500000000E+03  0.12500000000E+03 0.  0.
        -11    1    3    3    0    0  0.22513103316E+01 -0.17932668629E+02 -0.56639927972E+02  0.59453599078E+02  0.51100000000E-03 0.  1.
         23    2    1    0    0    0 -0.72928978371E+01 -0.18123055689E+02 -0.21134991521E+02  0.96219461906E+02  0.91814298867E+02 0.  0.
         11    1    3    3    0    0 -0.95442081687E+01 -0.19038706006E+00  0.35504936451E+02  0.36765862828E+02  0.51100000000E-03 0. -1.
         22    1    1    0    0    0  0.72928978371E+01  0.18123055689E+02  0.21134991521E+02  0.28780538094E+02  0.00000000000E+00 0.  1.
</event>
<event>
 5    1  0.6622940E-004  0.9118800E+02  0.7818608E-02  0.1130116E+00
         25   -1    0    0    0    0  0.00000000000E+00  0.00000000000E+00  0.99999998245E-14  0.12500000000E+03  0.12500000000E+03 0.  0.
        -11    1    3    3    0    0 -0.46716543349E+02  0.21507950498E+02 -0.84875249506E+01  0.52125477813E+02  0.51100000000E-03 0. -1.
         23    2    1    0    0    0 -0.24364151068E+02 -0.79398108235E+01 -0.21735936521E+02  0.91397866293E+02  0.84996862138E+02 0.  0.
         11    1    3    3    0    0  0.22352392281E+02 -0.29447761322E+02 -0.13248411571E+02  0.39272388481E+02  0.51100000000E-03 0.  1.
         22    1    1    0    0    0  0.24364151068E+02  0.79398108235E+01  0.21735936521E+02  0.33602133707E+02  0.00000000000E+00 0. -1.
</event>
<event>
 5    1  0.6622940E-004  0.9118800E+02  0.7818608E-02  0.1130116E+00
         25   -1    0    0    0    0  0.00000000000E+00  0.00000000000E+00  0.99999998245E-14  0.12500000000E+03  0.12500000000E+03 0.  0.
        -11    1    3    3    0    0  0.14181656771E+02 -0.15006156297E+02 -0.41499601130E+02  0.46352141373E+02  0.51100000000E-03 0.  1.
         23    2    1    0    0    0  0.27207630302E+02  0.69257767096E+01  0.20793809566E+01  0.96847817938E+02  0.92665821555E+02 0.  0.
         11    1    3    3    0    0  0.13025973531E+02  0.21931933007E+02  0.43578982087E+02  0.50495676566E+02  0.51100000000E-03 0. -1.
         22    1    1    0    0    0 -0.27207630302E+02 -0.69257767096E+01 -0.20793809566E+01  0.28152182062E+02  0.00000000000E+00 0. -1.
</event>
<event>
 5    1  0.6622940E-004  0.9118800E+02  0.7818608E-02  0.1130116E+00
         25   -1    0    0    0    0  0.00000000000E+00  0.00000000000E+00  0.99999998245E-14  0.12500000000E+03  0.12500000000E+03 0.  0.
        -11    1    3    3    0    0  0.16162880185E+01 -0.53460986525E+02 -0.31722133574E+02  0.62185072372E+02  0.51100000000E-03 0.  1.
         23    2    1    0    0    0 -0.33276975266E+00 -0.22936023709E+02 -0.18599917588E+02  0.95468172194E+02  0.90785698479E+02 0.  0.
         11    1    3    3    0    0 -0.19490577711E+01  0.30524962815E+02  0.13122215986E+02  0.33283099821E+02  0.51100000000E-03 0. -1.
         22    1    1    0    0    0  0.33276975266E+00  0.22936023709E+02  0.18599917588E+02  0.29531827806E+02  0.00000000000E+00 0.  1.
</event>
<event>
 5    1  0.6622940E-004  0.9118800E+02  0.7818608E-02  0.1130116E+00
         25   -1    0    0    0    0  0.00000000000E+00  0.00000000000E+00  0.99999998245E-14  0.12500000000E+03  0.12500000000E+03 0.  0.
        -11    1    3    3    0    0 -0.42673507088E+02 -0.15393027311E+02  0.35261108217E+02  0.57457107915E+02  0.51100000000E-03 0.  1.
         23    2    1    0    0    0 -0.15135904846E+02 -0.23246438717E+02  0.10413826289E+02  0.95369942516E+02  0.90650348201E+02 0.  0.
         11    1    3    3    0    0  0.27537602242E+02 -0.78534114066E+01 -0.24847281928E+02  0.37912834600E+02  0.51100000000E-03 0. -1.
         22    1    1    0    0    0  0.15135904846E+02  0.23246438717E+02 -0.10413826289E+02  0.29630057484E+02  0.00000000000E+00 0.  1.
</event>
<event>
 5    1  0.6622940E-004  0.9118800E+02  0.7818608E-02  0.1130116E+00
         25   -1    0    0    0    0  0.00000000000E+00  0.00000000000E+00  0.99999998245E-14  0.12500000000E+03  0.12500000000E+03 0.  0.
        -11    1    3    3    0    0  0.34536397087E+02 -0.91579167352E+01 -0.67375883972E+01  0.36359665295E+02  0.51100000000E-03 0. -1.
         23    2    1    0    0    0 -0.18320260362E+02  0.14383935895E+02 -0.18315776196E+02  0.95368982312E+02  0.90649024143E+02 0.  0.
         11    1    3    3    0    0 -0.52856657449E+02  0.23541852630E+02 -0.11578187799E+02  0.59009317018E+02  0.51100000000E-03 0.  1.
         22    1    1    0    0    0  0.18320260362E+02 -0.14383935895E+02  0.18315776196E+02  0.29631017688E+02  0.00000000000E+00 0.  1.
</event>
<event>
 5    1  0.6622940E-004  0.9118800E+02  0.7818608E-02  0.1130116E+00
         25   -1    0    0    0    0  0.00000000000E+00  0.00000000000E+00  0.99999998245E-14  0.12500000000E+03  0.12500000000E+03 0.  0.
        -11    1    3    3    0    0  0.32893881751E+01 -0.31406836760E+02 -0.25545070191E+02  0.40617238719E+02  0.51100000000E-03 0.  1.
         23    2    1    0    0    0 -0.26631142931E+02  0.97301232387E+01 -0.22711089434E+01  0.96556178037E+02  0.92271580182E+02 0.  0.
         11    1    3    3    0    0 -0.29920531106E+02  0.41136959999E+02  0.23273961247E+02  0.55938939318E+02  0.51100000000E-03 0. -1.
         22    1    1    0    0    0  0.26631142931E+02 -0.97301232387E+01  0.22711089434E+01  0.28443821963E+02  0.00000000000E+00 0.  1.
</event>
<event>
 5    1  0.6622940E-004  0.9118800E+02  0.7818608E-02  0.1130116E+00
         25   -1    0    0    0    0  0.00000000000E+00  0.00000000000E+00  0.99999998245E-14  0.12500000000E+03  0.12500000000E+03 0.  0.
        -11    1    3    3    0    0 -0.40464381813E+02  0.10243636790E+02  0.20615120763E+02  0.46554070655E+02  0.51100000000E-03 0.  1.
         23    2    1    0    0    0  0.74237920586E+01  0.21959064890E+02  0.17505672354E+02  0.95952422064E+02  0.91450016491E+02 0.  0.
         11    1    3    3    0    0  0.47888173872E+02  0.11715428099E+02 -0.31094484094E+01  0.49398351409E+02  0.51100000000E-03 0. -1.
         22    1    1    0    0    0 -0.74237920586E+01 -0.21959064890E+02 -0.17505672354E+02  0.29047577936E+02  0.00000000000E+00 0.  1.
</event>
<event>
 5    1  0.6622940E-004  0.9118800E+02  0.7818608E-02  0.1130116E+00
         25   -1    0    0    0    0  0.00000000000E+00  0.00000000000E+00  0.99999998245E-14  0.12500000000E+03  0.12500000000E+03 0.  0.
        -11    1    3    3    0    0 -0.33382201551E+02 -0.45314574597E+02 -0.63210717173E+01  0.56636896094E+02  0.51100000000E-03 0.  1.
         23    2    1    0    0    0 -0.28343070134E+02 -0.81200665049E+01  0.31534566172E+01  0.95348534719E+02  0.90620823654E+02 0.  0.
         11    1    3    3    0    0  0.50391314167E+01  0.37194508092E+02  0.94745283345E+01  0.38711638625E+02  0.51100000000E-03 0. -1.
         22    1    1    0    0    0  0.28343070134E+02  0.81200665049E+01 -0.31534566172E+01  0.29651465281E+02  0.00000000000E+00 0.  1.
</event>
<event>
 5    1  0.6622940E-004  0.9118800E+02  0.7818608E-02  0.1130116E+00
         25   -1    0    0    0    0  0.00000000000E+00  0.00000000000E+00  0.99999998245E-14  0.12500000000E+03  0.12500000000E+03 0.  0.
        -11    1    3    3    0    0  0.81134743427E+01  0.27482627556E+02 -0.24930377337E+02  0.37982193167E+02  0.51100000000E-03 0.  1.
         23    2    1    0    0    0 -0.16714273611E+02 -0.22051146839E+02 -0.11766918181E+02  0.94932070528E+02  0.90044531383E+02 0.  0.
         11    1    3    3    0    0 -0.24827747954E+02 -0.49533774395E+02  0.13163459156E+02  0.56949877361E+02  0.51100000000E-03 0. -1.
         22    1    1    0    0    0  0.16714273611E+02  0.22051146839E+02  0.11766918181E+02  0.30067929472E+02  0.00000000000E+00 0. -1.
</event>
<event>
 5    1  0.6622940E-004  0.9118800E+02  0.7818608E-02  0.1130116E+00
         25   -1    0    0    0    0  0.00000000000E+00  0.00000000000E+00  0.99999998245E-14  0.12500000000E+03  0.12500000000E+03 0.  0.
        -11    1    3    3    0    0  0.55136801026E+02 -0.10633685447E+02  0.12235644901E+02  0.57470454148E+02  0.51100000000E-03 0. -1.
         23    2    1    0    0    0  0.20815381807E+02 -0.21966904238E+02  0.51620970702E+01  0.94300289126E+02  0.89163177835E+02 0.  0.
         11    1    3    3    0    0 -0.34321419219E+02 -0.11333218791E+02 -0.70735478312E+01  0.36829834978E+02  0.51100000000E-03 0.  1.
         22    1    1    0    0    0 -0.20815381807E+02  0.21966904238E+02 -0.51620970702E+01  0.30699710874E+02  0.00000000000E+00 0. -1.
</event>
<event>
 5    1  0.6622940E-004  0.9118800E+02  0.7818608E-02  0.1130116E+00
         25   -1    0    0    0    0  0.00000000000E+00  0.00000000000E+00  0.99999998245E-14  0.12500000000E+03  0.12500000000E+03 0.  0.
        -11    1    3    3    0    0 -0.30240536263E+02  0.46776876013E+02 -0.20425351439E+02  0.59327574910E+02  0.51100000000E-03 0.  1.
         23    2    1    0    0    0 -0.16580789874E+02  0.22397810209E+02  0.44978158785E+01  0.96772091068E+02  0.92563614703E+02 0.  0.
         11    1    3    3    0    0  0.13659746389E+02 -0.24379065804E+02  0.24923167318E+02  0.37444516158E+02  0.51100000000E-03 0. -1.
         22    1    1    0    0    0  0.16580789874E+02 -0.22397810209E+02 -0.44978158785E+01  0.28227908932E+02  0.00000000000E+00 0.  1.
</event>
<event>
 5    1  0.6622940E-004  0.9118800E+02  0.7818608E-02  0.1130116E+00
         25   -1    0    0    0    0  0.00000000000E+00  0.00000000000E+00  0.99999998245E-14  0.12500000000E+03  0.12500000000E+03 0.  0.
        -11    1    3    3    0    0 -0.22131002416E+02  0.23548121186E+02  0.25347125853E+02  0.41070330758E+02  0.51100000000E-03 0.  1.
         23    2    1    0    0    0  0.23626795878E+02 -0.44721929936E+01  0.17416818115E+02  0.95308729450E+02  0.90565900660E+02 0.  0.
         11    1    3    3    0    0  0.45757798295E+02 -0.28020314180E+02 -0.79303077373E+01  0.54238398691E+02  0.51100000000E-03 0. -1.
         22    1    1    0    0    0 -0.23626795878E+02  0.44721929936E+01 -0.17416818115E+02  0.29691270550E+02  0.00000000000E+00 0. -1.
</event>
<event>
 5    1  0.6622940E-004  0.9118800E+02  0.7818608E-02  0.1130116E+00
         25   -1    0    0    0    0  0.00000000000E+00  0.00000000000E+00  0.99999998245E-14  0.12500000000E+03  0.12500000000E+03 0.  0.
        -11    1    3    3    0    0 -0.33650227992E+02  0.93886361505E+01  0.43744640648E+02  0.55982835926E+02  0.51100000000E-03 0. -1.
         23    2    1    0    0    0 -0.41654770535E+01 -0.66574513674E+01  0.32773915978E+02  0.91298331995E+02  0.84850356504E+02 0.  0.
         11    1    3    3    0    0  0.29484750938E+02 -0.16046087518E+02 -0.10970724670E+02  0.35315496069E+02  0.51100000000E-03 0.  1.
         22    1    1    0    0    0  0.41654770535E+01  0.66574513674E+01 -0.32773915978E+02  0.33701668005E+02  0.00000000000E+00 0. -1.
</event>
<event>
 5    1  0.6622940E-004  0.9118800E+02  0.7818608E-02  0.1130116E+00
         25   -1    0    0    0    0  0.00000000000E+00  0.00000000000E+00  0.99999998245E-14  0.12500000000E+03  0.12500000000E+03 0.  0.
        -11    1    3    3    0    0  0.35263528883E+02  0.37273472519E+01 -0.13335855460E+02  0.37884754558E+02  0.51100000000E-03 0. -1.
         23    2    1    0    0    0 -0.99188990379E+01  0.15345660567E+02  0.21994713774E+02  0.96405572390E+02  0.92067329154E+02 0.  0.
         11    1    3    3    0    0 -0.45182427921E+02  0.11618313315E+02  0.35330569234E+02  0.58520817832E+02  0.51100000000E-03 0.  1.
         22    1    1    0    0    0  0.99188990379E+01 -0.15345660567E+02 -0.21994713774E+02  0.28594427610E+02  0.00000000000E+00 0.  1.
</event>
<event>
 5    1  0.6622940E-004  0.9118800E+02  0.7818608E-02  0.1130116E+00
         25   -1    0    0    0    0  0.00000000000E+00  0.00000000000E+00  0.99999998245E-14  0.12500000000E+03  0.12500000000E+03 0.  0.
        -11    1    3    3    0    0  0.32171507030E+02 -0.17396825189E+02  0.56136338575E+01  0.37002273938E+02  0.51100000000E-03 0. -1.
         23    2    1    0    0    0 -0.18325872408E+02 -0.20039827173E+01 -0.21769902217E+02  0.96473132160E+02  0.92159009543E+02 0.  0.
         11    1    3    3    0    0 -0.50497379438E+02  0.15392842472E+02 -0.27383536074E+02  0.59470858222E+02  0.51100000000E-03 0.  1.
         22    1    1    0    0    0  0.18325872408E+02  0.20039827173E+01  0.21769902217E+02  0.28526867840E+02  0.00000000000E+00 0.  1.
</event>
<event>
 5    1  0.6622940E-004  0.9118800E+02  0.7818608E-02  0.1130116E+00
         25   -1    0    0    0    0  0.00000000000E+00  0.00000000000E+00  0.99999998245E-14  0.12500000000E+03  0.12500000000E+03 0.  0.
        -11    1    3    3    0    0  0.40055153917E+02  0.44318089118E+02  0.17280204901E+02  0.62186122729E+02  0.51100000000E-03 0.  1.
         23    2    1    0    0    0  0.13872618884E+02  0.21741560094E+02  0.64418299237E+01  0.98417258178E+02  0.94759245166E+02 0.  0.
         11    1    3    3    0    0 -0.26182535033E+02 -0.22576529023E+02 -0.10838374977E+02  0.36231135449E+02  0.51100000000E-03 0. -1.
         22    1    1    0    0    0 -0.13872618884E+02 -0.21741560094E+02 -0.64418299237E+01  0.26582741822E+02  0.00000000000E+00 0.  1.
</event>
<event>
 5    1  0.6622940E-004  0.9118800E+02  0.7818608E-02  0.1130116E+00
         25   -1    0    0    0    0  0.00000000000E+00  0.00000000000E+00  0.99999998245E-14  0.12500000000E+03  0.12500000000E+03 0.  0.
        -11    1    3    3    0    0 -0.16692845331E+02  0.23040865193E+02 -0.17536306199E+02  0.33422366604E+02  0.51100000000E-03 0.  1.
         23    2    1    0    0    0  0.16823698569E+02 -0.24446847171E+02  0.32376863657E+01  0.95147566546E+02  0.90343188102E+02 0.  0.
         11    1    3    3    0    0  0.33516543900E+02 -0.47487712364E+02  0.20773992564E+02  0.61725199942E+02  0.51100000000E-03 0. -1.
         22    1    1    0    0    0 -0.16823698569E+02  0.24446847171E+02 -0.32376863657E+01  0.29852433454E+02  0.00000000000E+00 0. -1.
</event>
<event>
 5    1  0.6622940E-004  0.9118800E+02  0.7818608E-02  0.1130116E+00
         25   -1    0    0    0    0  0.00000000000E+00  0.00000000000E+00  0.99999998245E-14  0.12500000000E+03  0.12500000000E+03 0.  0.
        -11    1    3    3    0    0  0.89792850370E+00 -0.14568495907E+02  0.44026936365E+02  0.46383385759E+02  0.51100000000E-03 0. -1.
         23    2    1    0    0    0  0.18351123433E+02  0.14628192213E+02  0.62903596853E+00  0.10152355596E+03  0.98771903846E+02 0.  0.
         11    1    3    3    0    0  0.17453194929E+02  0.29196688119E+02 -0.43397900396E+02  0.55140170198E+02  0.51100000000E-03 0.  1.
         22    1    1    0    0    0 -0.18351123433E+02 -0.14628192213E+02 -0.62903596853E+00  0.23476444043E+02  0.00000000000E+00 0.  1.
</event>
<event>
 5    1  0.6622940E-004  0.9118800E+02  0.7818608E-02  0.1130116E+00
         25   -1    0    0    0    0  0.00000000000E+00  0.00000000000E+00  0.99999998245E-14  0.12500000000E+03  0.12500000000E+03 0.  0.
        -11    1    3    3    0    0  0.12569746445E+02 -0.31099723131E+02  0.28641655597E+02  0.44108227579E+02  0.51100000000E-03 0. -1.
         23    2    1    0    0    0 -0.26973312745E+02 -0.31727289091E+01  0.84988381217E+01  0.96542029963E+02  0.92252411843E+02 0.  0.
         11    1    3    3    0    0 -0.39543059190E+02  0.27926994222E+02 -0.20142817476E+02  0.52433802385E+02  0.51100000000E-03 0.  1.
         22    1    1    0    0    0  0.26973312745E+02  0.31727289091E+01 -0.84988381217E+01  0.28457970037E+02  0.00000000000E+00 0.  1.
</event>
<event>
 5    1  0.6622940E-004  0.9118800E+02  0.7818608E-02  0.1130116E+00
         25   -1    0    0    0    0  0.00000000000E+00  0.00000000000E+00  0.99999998245E-14  0.12500000000E+03  0.12500000000E+03 0.  0.
        -11    1    3    3    0    0  0.19218234352E+02  0.97442299494E+01  0.42811963225E+02  0.47928642212E+02  0.51100000000E-03 0.  1.
         23    2    1    0    0    0  0.16814949707E+02  0.20768147374E+01 -0.12578239378E+02  0.10389863040E+03  0.10173326693E+03 0.  0.
         11    1    3    3    0    0 -0.24032846442E+01 -0.76674152120E+01 -0.55390202603E+02  0.55969988188E+02  0.51100000000E-03 0. -1.
         22    1    1    0    0    0 -0.16814949707E+02 -0.20768147374E+01  0.12578239378E+02  0.21101369600E+02  0.00000000000E+00 0.  1.
</event>
<event>
 5    1  0.6622940E-004  0.9118800E+02  0.7818608E-02  0.1130116E+00
         25   -1    0    0    0    0  0.00000000000E+00  0.00000000000E+00  0.99999998245E-14  0.12500000000E+03  0.12500000000E+03 0.  0.
        -11    1    3    3    0    0 -0.29292486267E+02  0.55001072801E+01 -0.20389912473E+02  0.36111625036E+02  0.51100000000E-03 0. -1.
         23    2    1    0    0    0  0.46558439284E+01 -0.23075834664E+02  0.18456011797E+02  0.95086869111E+02  0.90259167278E+02 0.  0.
         11    1    3    3    0    0  0.33948330196E+02 -0.28575941944E+02  0.38845924270E+02  0.58975244075E+02  0.51100000000E-03 0.  1.
         22    1    1    0    0    0 -0.46558439284E+01  0.23075834664E+02 -0.18456011797E+02  0.29913130889E+02  0.00000000000E+00 0.  1.
</event>
<event>
 5    1  0.6622940E-004  0.9118800E+02  0.7818608E-02  0.1130116E+00
         25   -1    0    0    0    0  0.00000000000E+00  0.00000000000E+00  0.99999998245E-14  0.12500000000E+03  0.12500000000E+03 0.  0.
        -11    1    3    3    0    0 -0.25659045110E+01  0.36010558517E+02  0.11449074090E+02  0.37873810060E+02  0.51100000000E-03 0. -1.
         23    2    1    0    0    0 -0.28831511834E+01 -0.19076327338E+02  0.23833391283E+02  0.94336514133E+02  0.89213948087E+02 0.  0.
         11    1    3    3    0    0 -0.31724667233E+00 -0.55086885855E+02  0.12384317192E+02  0.56462704073E+02  0.51100000000E-03 0.  1.
         22    1    1    0    0    0  0.28831511834E+01  0.19076327338E+02 -0.23833391283E+02  0.30663485867E+02  0.00000000000E+00 0.  1.
</event>
<event>
 5    1  0.6622940E-004  0.9118800E+02  0.7818608E-02  0.1130116E+00
         25   -1    0    0    0    0  0.00000000000E+00  0.00000000000E+00  0.99999998245E-14  0.12500000000E+03  0.12500000000E+03 0.  0.
        -11    1    3    3    0    0 -0.39915153892E+02  0.42307272942E+02  0.14185154854E+02  0.59869386772E+02  0.51100000000E-03 0.  1.
         23    2    1    0    0    0 -0.27606294174E+02  0.11338411299E+02  0.30748414642E+01  0.94997971755E+02  0.90135969172E+02 0.  0.
         11    1    3    3    0    0  0.12308859718E+02 -0.30968861643E+02 -0.11110313390E+02  0.35128584983E+02  0.51100000000E-03 0. -1.
         22    1    1    0    0    0  0.27606294174E+02 -0.11338411299E+02 -0.30748414642E+01  0.30002028245E+02  0.00000000000E+00 0.  1.
</event>
<event>
 5    1  0.6622940E-004  0.9118800E+02  0.7818608E-02  0.1130116E+00
         25   -1    0    0    0    0  0.00000000000E+00  0.00000000000E+00  0.99999998245E-14  0.12500000000E+03  0.12500000000E+03 0.  0.
        -11    1    3    3    0    0  0.44774057165E+02 -0.17051145303E+02 -0.37928974151E+02  0.61106994948E+02  0.51100000000E-03 0. -1.
         23    2    1    0    0    0  0.24945978963E+02 -0.11070440612E+02 -0.98773141745E+01  0.95975564483E+02  0.91481643628E+02 0.  0.
         11    1    3    3    0    0 -0.19828078202E+02  0.59807046910E+01  0.28051659976E+02  0.34868569536E+02  0.51100000000E-03 0.  1.
         22    1    1    0    0    0 -0.24945978963E+02  0.11070440612E+02  0.98773141745E+01  0.29024435517E+02  0.00000000000E+00 0. -1.
</event>
<event>
 5    1  0.6622940E-004  0.9118800E+02  0.7818608E-02  0.1130116E+00
         25   -1    0    0    0    0  0.00000000000E+00  0.00000000000E+00  0.99999998245E-14  0.12500000000E+03  0.12500000000E+03 0.  0.
        -11    1    3    3    0    0  0.61426337791E+01 -0.48003514389E+02  0.98012992834E+01  0.49377472711E+02  0.51100000000E-03 0. -1.
         23    2    1    0    0    0  0.18997463569E+02 -0.42682482927E+01  0.21045280869E+02  0.96329014450E+02  0.91963327542E+02 0.  0.
         11    1    3    3    0    0  0.12854829790E+02  0.43735266097E+02  0.11243981586E+02  0.46951541739E+02  0.51100000000E-03 0.  1.
         22    1    1    0    0    0 -0.18997463569E+02  0.42682482927E+01 -0.21045280869E+02  0.28670985550E+02  0.00000000000E+00 0.  1.
</event>
<event>
 5    1  0.6622940E-004  0.9118800E+02  0.7818608E-02  0.1130116E+00
         25   -1    0    0    0    0  0.00000000000E+00  0.00000000000E+00  0.99999998245E-14  0.12500000000E+03  0.12500000000E+03 0.  0.
        -11    1    3    3    0    0 -0.10427411027E+02  0.18764593513E+02 -0.28423737397E+02  0.35619513168E+02  0.51100000000E-03 0. -1.
         23    2    1    0    0    0  0.20150185384E+02  0.69125280017E+00  0.20611006780E+02  0.96167355273E+02  0.91743331193E+02 0.  0.
         11    1    3    3    0    0  0.30577596412E+02 -0.18073340713E+02  0.49034744177E+02  0.60547842105E+02  0.51100000000E-03 0.  1.
         22    1    1    0    0    0 -0.20150185384E+02 -0.69125280017E+00 -0.20611006780E+02  0.28832644727E+02  0.00000000000E+00 0.  1.
</event>
<event>
 5    1  0.6622940E-004  0.9118800E+02  0.7818608E-02  0.1130116E+00
         25   -1    0    0    0    0  0.00000000000E+00  0.00000000000E+00  0.99999998245E-14  0.12500000000E+03  0.12500000000E+03 0.  0.
        -11    1    3    3    0    0  0.91913216742E+01 -0.25279113257E+02  0.26907001633E+02  0.38046033937E+02  0.51100000000E-03 0.  1.
         23    2    1    0    0    0  0.16815980067E+02  0.24980009837E+02  0.15656068706E+01  0.94846572302E+02  0.89925764247E+02 0.  0.
         11    1    3    3    0    0  0.76246583927E+01  0.50259123094E+02 -0.25341394762E+02  0.56800538365E+02  0.51100000000E-03 0. -1.
         22    1    1    0    0    0 -0.16815980067E+02 -0.24980009837E+02 -0.15656068706E+01  0.30153427698E+02  0.00000000000E+00 0. -1.
</event>
<event>
 5    1  0.6622940E-004  0.9118800E+02  0.7818608E-02  0.1130116E+00
         25   -1    0    0    0    0  0.00000000000E+00  0.00000000000E+00  0.99999998245E-14  0.12500000000E+03  0.12500000000E+03 0.  0.
        -11    1    3    3    0    0 -0.13409202303E+02  0.41931129402E+02 -0.28077080082E+02  0.52214449586E+02  0.51100000000E-03 0. -1.
         23    2    1    0    0    0 -0.25346374389E+02  0.13494390758E+02  0.31611924812E+01  0.96111759927E+02  0.91667551411E+02 0.  0.
         11    1    3    3    0    0 -0.11937172086E+02 -0.28436738645E+02  0.31238272564E+02  0.43897310341E+02  0.51100000000E-03 0.  1.
         22    1    1    0    0    0  0.25346374389E+02 -0.13494390758E+02 -0.31611924812E+01  0.28888240073E+02  0.00000000000E+00 0. -1.
</event>
<event>
 5    1  0.6622940E-004  0.9118800E+02  0.7818608E-02  0.1130116E+00
         25   -1    0    0    0    0  0.00000000000E+00  0.00000000000E+00  0.99999998245E-14  0.12500000000E+03  0.12500000000E+03 0.  0.
        -11    1    3    3    0    0  0.39384124104E+02  0.45541661580E+02 -0.16039154682E+02  0.62308961266E+02  0.51100000000E-03 0. -1.
         23    2    1    0    0    0  0.15852567272E+02  0.23283029625E+02 -0.62420269250E+01  0.96149241643E+02  0.91718648108E+02 0.  0.
         11    1    3    3    0    0 -0.23531556832E+02 -0.22258631955E+02  0.97971277566E+01  0.33840280377E+02  0.51100000000E-03 0.  1.
         22    1    1    0    0    0 -0.15852567272E+02 -0.23283029625E+02  0.62420269250E+01  0.28850758357E+02  0.00000000000E+00 0. -1.
</event>
<event>
 5    1  0.6622940E-004  0.9118800E+02  0.7818608E-02  0.1130116E+00
         25   -1    0    0    0    0  0.00000000000E+00  0.00000000000E+00  0.99999998245E-14  0.12500000000E+03  0.12500000000E+03 0.  0.
        -11    1    3    3    0    0  0.64148556498E+01 -0.29554020595E+02 -0.21455556363E+02  0.37080067495E+02  0.51100000000E-03 0.  1.
         23    2    1    0    0    0  0.15550649087E+02  0.18453807754E+02  0.13671524713E+02  0.97264169463E+02  0.93225760204E+02 0.  0.
         11    1    3    3    0    0  0.91357934368E+01  0.48007828349E+02  0.35127081076E+02  0.60184101968E+02  0.51100000000E-03 0. -1.
         22    1    1    0    0    0 -0.15550649087E+02 -0.18453807754E+02 -0.13671524713E+02  0.27735830537E+02  0.00000000000E+00 0. -1.
</event>
<event>
 5    1  0.6622940E-004  0.9118800E+02  0.7818608E-02  0.1130116E+00
         25   -1    0    0    0    0  0.00000000000E+00  0.00000000000E+00  0.99999998245E-14  0.12500000000E+03  0.12500000000E+03 0.  0.
        -11    1    3    3    0    0  0.34623430350E+02  0.17277053706E+02 -0.13019969229E+01  0.38716581851E+02  0.51100000000E-03 0.  1.
         23    2    1    0    0    0 -0.20967914618E+02  0.16850712120E+02 -0.12356397100E+02  0.95397964738E+02  0.90688980502E+02 0.  0.
         11    1    3    3    0    0 -0.55591344968E+02 -0.42634158659E+00 -0.11054400177E+02  0.56681382887E+02  0.51100000000E-03 0. -1.
         22    1    1    0    0    0  0.20967914618E+02 -0.16850712120E+02  0.12356397100E+02  0.29602035262E+02  0.00000000000E+00 0. -1.
</event>
<event>
 5    1  0.6622940E-004  0.9118800E+02  0.7818608E-02  0.1130116E+00
         25   -1    0    0    0    0  0.00000000000E+00  0.00000000000E+00  0.99999998245E-14  0.12500000000E+03  0.12500000000E+03 0.  0.
        -11    1    3    3    0    0  0.29068429160E+02 -0.14982998572E+02 -0.25808454316E+02  0.41659814384E+02  0.51100000000E-03 0. -1.
         23    2    1    0    0    0  0.12218246782E+02  0.26608950595E+02  0.38754494067E+01  0.95464582037E+02  0.90780755169E+02 0.  0.
         11    1    3    3    0    0 -0.16850182379E+02  0.41591949166E+02  0.29683903723E+02  0.53804767653E+02  0.51100000000E-03 0.  1.
         22    1    1    0    0    0 -0.12218246782E+02 -0.26608950595E+02 -0.38754494067E+01  0.29535417963E+02  0.00000000000E+00 0.  1.
</event>
<event>
 5    1  0.6622940E-004  0.9118800E+02  0.7818608E-02  0.1130116E+00
         25   -1    0    0    0    0  0.00000000000E+00  0.00000000000E+00  0.99999998245E-14  0.12500000000E+03  0.12500000000E+03 0.  0.
        -11    1    3    3    0    0  0.11935255006E+02  0.37997244566E+02  0.84353327829E-01  0.39827729315E+02  0.51100000000E-03 0.  1.
         23    2    1    0    0    0  0.19004242283E+01 -0.98085140977E+01  0.27428879835E+02  0.95808185907E+02  0.91252651889E+02 0.  0.
         11    1    3    3    0    0 -0.10034830777E+02 -0.47805758664E+02  0.27344526507E+02  0.55980456592E+02  0.51100000000E-03 0. -1.
         22    1    1    0    0    0 -0.19004242283E+01  0.98085140977E+01 -0.27428879835E+02  0.29191814093E+02  0.00000000000E+00 0. -1.
</event>
<event>
 5    1  0.6622940E-004  0.9118800E+02  0.7818608E-02  0.1130116E+00
         25   -1    0    0    0    0  0.00000000000E+00  0.00000000000E+00  0.99999998245E-14  0.12500000000E+03  0.12500000000E+03 0.  0.
        -11    1    3    3    0    0 -0.12717564974E+02  0.56938010391E+01  0.47132284340E+02  0.49148835760E+02  0.51100000000E-03 0.  1.
         23    2    1    0    0    0 -0.23291624242E+02  0.19001643617E+02  0.50693475287E+01  0.94516225556E+02  0.89465392130E+02 0.  0.
         11    1    3    3    0    0 -0.10574059268E+02  0.13307842578E+02 -0.42062936812E+02  0.45367389797E+02  0.51100000000E-03 0. -1.
         22    1    1    0    0    0  0.23291624242E+02 -0.19001643617E+02 -0.50693475287E+01  0.30483774444E+02  0.00000000000E+00 0. -1.
</event>
<event>
 5    1  0.6622940E-004  0.9118800E+02  0.7818608E-02  0.1130116E+00
         25   -1    0    0    0    0  0.00000000000E+00  0.00000000000E+00  0.99999998245E-14  0.12500000000E+03  0.12500000000E+03 0.  0.
        -11    1    3    3    0    0  0.90658181270E+01  0.32816174286E+01 -0.52534980026E+02  0.53412378695E+02  0.51100000000E-03 0.  1.
         23    2    1    0    0    0  0.77299722120E+01 -0.21336827076E+02 -0.17080502799E+02  0.96596545352E+02  0.92326249453E+02 0.  0.
         11    1    3    3    0    0 -0.13358459150E+01 -0.24618444505E+02  0.35454477227E+02  0.43184166657E+02  0.51100000000E-03 0. -1.
         22    1    1    0    0    0 -0.77299722120E+01  0.21336827076E+02  0.17080502799E+02  0.28403454648E+02  0.00000000000E+00 0.  1.
</event>
<event>
 5    1  0.6622940E-004  0.9118800E+02  0.7818608E-02  0.1130116E+00
         25   -1    0    0    0    0  0.00000000000E+00  0.00000000000E+00  0.99999998245E-14  0.12500000000E+03  0.12500000000E+03 0.  0.
        -11    1    3    3    0    0 -0.99752300458E+01 -0.31075207974E+02  0.31364112309E+02  0.45264570100E+02  0.51100000000E-03 0.  1.
         23    2    1    0    0    0  0.13760129631E+02  0.42002028105E+01  0.34221016350E+02  0.87877758269E+02  0.79651990354E+02 0.  0.
         11    1    3    3    0    0  0.23735359677E+02  0.35275410785E+02  0.28569040402E+01  0.42613188169E+02  0.51100000000E-03 0. -1.
         22    1    1    0    0    0 -0.13760129631E+02 -0.42002028105E+01 -0.34221016350E+02  0.37122241731E+02  0.00000000000E+00 0.  1.
</event>
<event>
 5    1  0.6622940E-004  0.9118800E+02  0.7818608E-02  0.1130116E+00
         25   -1    0    0    0    0  0.00000000000E+00  0.00000000000E+00  0.99999998245E-14  0.12500000000E+03  0.12500000000E+03 0.  0.
        -11    1    3    3    0    0  0.31780946615E+02  0.12351194355E+02 -0.49959746521E+02  0.60486005343E+02  0.51100000000E-03 0.  1.
         23    2    1    0    0    0  0.76084929573E+01 -0.24251432537E+00 -0.29409311332E+02  0.94621461996E+02  0.89612306627E+02 0.  0.
         11    1    3    3    0    0 -0.24172453658E+02 -0.12593708680E+02  0.20550435189E+02  0.34135456652E+02  0.51100000000E-03 0. -1.
         22    1    1    0    0    0 -0.76084929573E+01  0.24251432537E+00  0.29409311332E+02  0.30378538004E+02  0.00000000000E+00 0.  1.
</event>
<event>
 5    1  0.6622940E-004  0.9118800E+02  0.7818608E-02  0.1130116E+00
         25   -1    0    0    0    0  0.00000000000E+00  0.00000000000E+00  0.99999998245E-14  0.12500000000E+03  0.12500000000E+03 0.  0.
        -11    1    3    3    0    0 -0.10355629909E+02  0.18713392095E+02 -0.34413766717E+02  0.40518359474E+02  0.51100000000E-03 0.  1.
         23    2    1    0    0    0  0.26834283432E+02 -0.87713610360E+01 -0.25992689786E+01  0.96649131566E+02  0.92397418208E+02 0.  0.
         11    1    3    3    0    0  0.37189913341E+02 -0.27484753131E+02  0.31814497739E+02  0.56130772092E+02  0.51100000000E-03 0. -1.
         22    1    1    0    0    0 -0.26834283432E+02  0.87713610360E+01  0.25992689786E+01  0.28350868434E+02  0.00000000000E+00 0. -1.
</event>
<event>
 5    1  0.6622940E-004  0.9118800E+02  0.7818608E-02  0.1130116E+00
         25   -1    0    0    0    0  0.00000000000E+00  0.00000000000E+00  0.99999998245E-14  0.12500000000E+03  0.12500000000E+03 0.  0.
        -11    1    3    3    0    0  0.13324996825E+02 -0.55809166346E+02  0.15276762210E+02  0.59376746732E+02  0.51100000000E-03 0.  1.
         23    2    1    0    0    0  0.10889900448E+02 -0.22057869369E+02 -0.64229579449E+01  0.99575721807E+02  0.96275284741E+02 0.  0.
         11    1    3    3    0    0 -0.24350963776E+01  0.33751296977E+02 -0.21699720155E+02  0.40198975075E+02  0.51100000000E-03 0. -1.
         22    1    1    0    0    0 -0.10889900448E+02  0.22057869369E+02  0.64229579449E+01  0.25424278193E+02  0.00000000000E+00 0.  1.
</event>
<event>
 5    1  0.6622940E-004  0.9118800E+02  0.7818608E-02  0.1130116E+00
         25   -1    0    0    0    0  0.00000000000E+00  0.00000000000E+00  0.99999998245E-14  0.12500000000E+03  0.12500000000E+03 0.  0.
        -11    1    3    3    0    0  0.65048703280E+00  0.36252117659E+02 -0.14653955736E+02  0.39107257474E+02  0.51100000000E-03 0.  1.
         23    2    1    0    0    0 -0.29587844685E+02 -0.58990539362E+01  0.46807732984E+01  0.94468884247E+02  0.89399222938E+02 0.  0.
         11    1    3    3    0    0 -0.30238331718E+02 -0.42151171595E+02  0.19334729034E+02  0.55361626774E+02  0.51100000000E-03 0. -1.
         22    1    1    0    0    0  0.29587844685E+02  0.58990539362E+01 -0.46807732984E+01  0.30531115753E+02  0.00000000000E+00 0. -1.
</event>
<event>
 5    1  0.6622940E-004  0.9118800E+02  0.7818608E-02  0.1130116E+00
         25   -1    0    0    0    0  0.00000000000E+00  0.00000000000E+00  0.99999998245E-14  0.12500000000E+03  0.12500000000E+03 0.  0.
        -11    1    3    3    0    0 -0.10418030696E+01  0.48543409025E+02 -0.70243030928E+00  0.48559667648E+02  0.51100000000E-03 0. -1.
         23    2    1    0    0    0  0.21348662077E+02  0.10779474666E+02 -0.17287224265E+02  0.95490500355E+02  0.90816436225E+02 0.  0.
         11    1    3    3    0    0  0.22390465146E+02 -0.37763934360E+02 -0.16584793956E+02  0.46930832707E+02  0.51100000000E-03 0.  1.
         22    1    1    0    0    0 -0.21348662077E+02 -0.10779474666E+02  0.17287224265E+02  0.29509499645E+02  0.00000000000E+00 0.  1.
</event>
<event>
 5    1  0.6622940E-004  0.9118800E+02  0.7818608E-02  0.1130116E+00
         25   -1    0    0    0    0  0.00000000000E+00  0.00000000000E+00  0.99999998245E-14  0.12500000000E+03  0.12500000000E+03 0.  0.
        -11    1    3    3    0    0 -0.14113477965E+02  0.16362797313E+02  0.30939193593E+02  0.37738111991E+02  0.51100000000E-03 0. -1.
         23    2    1    0    0    0  0.13140288413E+02  0.16576433381E+02 -0.20241110999E+02  0.95722911728E+02  0.91135766481E+02 0.  0.
         11    1    3    3    0    0  0.27253766378E+02  0.21363606769E+00 -0.51180304592E+02  0.57984799737E+02  0.51100000000E-03 0.  1.
         22    1    1    0    0    0 -0.13140288413E+02 -0.16576433381E+02  0.20241110999E+02  0.29277088272E+02  0.00000000000E+00 0.  1.
</event>
<event>
 5    1  0.6622940E-004  0.9118800E+02  0.7818608E-02  0.1130116E+00
         25   -1    0    0    0    0  0.00000000000E+00  0.00000000000E+00  0.99999998245E-14  0.12500000000E+03  0.12500000000E+03 0.  0.
        -11    1    3    3    0    0 -0.14761383433E+02  0.39605089548E+02  0.16319121584E+02  0.45307563259E+02  0.51100000000E-03 0. -1.
         23    2    1    0    0    0 -0.11476586007E+02  0.73197454348E+01 -0.24208508864E+02  0.97226944694E+02  0.93175834707E+02 0.  0.
         11    1    3    3    0    0  0.32847974254E+01 -0.32285344113E+02 -0.40527630448E+02  0.51919381435E+02  0.51100000000E-03 0.  1.
         22    1    1    0    0    0  0.11476586007E+02 -0.73197454348E+01  0.24208508864E+02  0.27773055306E+02  0.00000000000E+00 0.  1.
</event>
<event>
 5    1  0.6622940E-004  0.9118800E+02  0.7818608E-02  0.1130116E+00
         25   -1    0    0    0    0  0.00000000000E+00  0.00000000000E+00  0.99999998245E-14  0.12500000000E+03  0.12500000000E+03 0.  0.
        -11    1    3    3    0    0 -0.96106164819E+01 -0.60114913782E+02  0.10668439385E+01  0.60887642132E+02  0.51100000000E-03 0.  1.
         23    2    1    0    0    0 -0.99767370340E+01 -0.21132933491E+02 -0.68084656530E+01  0.10065885450E+03  0.97671457574E+02 0.  0.
         11    1    3    3    0    0 -0.36612055208E+00  0.38981980291E+02 -0.78753095915E+01  0.39771212366E+02  0.51100000000E-03 0. -1.
         22    1    1    0    0    0  0.99767370340E+01  0.21132933491E+02  0.68084656530E+01  0.24341145501E+02  0.00000000000E+00 0.  1.
</event>
<event>
 5    1  0.6622940E-004  0.9118800E+02  0.7818608E-02  0.1130116E+00
         25   -1    0    0    0    0  0.00000000000E+00  0.00000000000E+00  0.99999998245E-14  0.12500000000E+03  0.12500000000E+03 0.  0.
        -11    1    3    3    0    0 -0.29819034556E+01 -0.35234021853E+02  0.20494535954E+02  0.40869965114E+02  0.51100000000E-03 0. -1.
         23    2    1    0    0    0 -0.28153507131E+02  0.92630736279E+01  0.17895571322E+01  0.95307795441E+02  0.90564611523E+02 0.  0.
         11    1    3    3    0    0 -0.25171603676E+02  0.44497095481E+02 -0.18704978822E+02  0.54437830328E+02  0.51100000000E-03 0.  1.
         22    1    1    0    0    0  0.28153507131E+02 -0.92630736279E+01 -0.17895571322E+01  0.29692204559E+02  0.00000000000E+00 0.  1.
</event>
<event>
 5    1  0.6622940E-004  0.9118800E+02  0.7818608E-02  0.1130116E+00
         25   -1    0    0    0    0  0.00000000000E+00  0.00000000000E+00  0.99999998245E-14  0.12500000000E+03  0.12500000000E+03 0.  0.
        -11    1    3    3    0    0 -0.41081611250E+02  0.33846361480E+02 -0.17754523149E+02  0.56111478869E+02  0.51100000000E-03 0.  1.
         23    2    1    0    0    0 -0.25182027630E+02  0.74642213314E+01  0.93287319681E+01  0.97127534093E+02  0.93042374879E+02 0.  0.
         11    1    3    3    0    0  0.15899583621E+02 -0.26382140149E+02  0.27083255117E+02  0.41016055224E+02  0.51100000000E-03 0. -1.
         22    1    1    0    0    0  0.25182027630E+02 -0.74642213314E+01 -0.93287319681E+01  0.27872465907E+02  0.00000000000E+00 0.  1.
</event>
<event>
 5    1  0.6622940E-004  0.9118800E+02  0.7818608E-02  0.1130116E+00
         25   -1    0    0    0    0  0.00000000000E+00  0.00000000000E+00  0.99999998245E-14  0.12500000000E+03  0.12500000000E+03 0.  0.
        -11    1    3    3    0    0  0.62497179235E+01  0.44234153819E+02 -0.16824891176E+02  0.47736739537E+02  0.51100000000E-03 0. -1.
         23    2    1    0    0    0 -0.21505676480E+02  0.16830771034E+02  0.10906139300E+02  0.95593999781E+02  0.90958781573E+02 0.  0.
         11    1    3    3    0    0 -0.27755394403E+02 -0.27403382785E+02  0.27731030476E+02  0.47857260244E+02  0.51100000000E-03 0.  1.
         22    1    1    0    0    0  0.21505676480E+02 -0.16830771034E+02 -0.10906139300E+02  0.29406000219E+02  0.00000000000E+00 0.  1.
</event>
<event>
 5    1  0.6622940E-004  0.9118800E+02  0.7818608E-02  0.1130116E+00
         25   -1    0    0    0    0  0.00000000000E+00  0.00000000000E+00  0.99999998245E-14  0.12500000000E+03  0.12500000000E+03 0.  0.
        -11    1    3    3    0    0 -0.15795598338E+02  0.57931318777E+01  0.39117625778E+02  0.42582272727E+02  0.51100000000E-03 0. -1.
         23    2    1    0    0    0  0.22643598034E+02 -0.29377105356E+01 -0.48757470944E+01  0.10165186121E+03  0.98934146296E+02 0.  0.
         11    1    3    3    0    0  0.38439196372E+02 -0.87308424133E+01 -0.43993372872E+02  0.59069588486E+02  0.51100000000E-03 0.  1.
         22    1    1    0    0    0 -0.22643598034E+02  0.29377105356E+01  0.48757470944E+01  0.23348138787E+02  0.00000000000E+00 0.  1.
</event>
<event>
 5    1  0.6622940E-004  0.9118800E+02  0.7818608E-02  0.1130116E+00
         25   -1    0    0    0    0  0.00000000000E+00  0.00000000000E+00  0.99999998245E-14  0.12500000000E+03  0.12500000000E+03 0.  0.
        -11    1    3    3    0    0  0.23423348508E+02  0.25341206757E+02 -0.44490775405E+01  0.34794026879E+02  0.51100000000E-03 0. -1.
         23    2    1    0    0    0 -0.72925341598E+01 -0.25780622589E+02 -0.13302104626E+02  0.95087334739E+02  0.90259812124E+02 0.  0.
         11    1    3    3    0    0 -0.30715882668E+02 -0.51121829346E+02 -0.88530270860E+01  0.60293307859E+02  0.51100000000E-03 0.  1.
         22    1    1    0    0    0  0.72925341598E+01  0.25780622589E+02  0.13302104626E+02  0.29912665261E+02  0.00000000000E+00 0.  1.
</event>
<event>
 5    1  0.6622940E-004  0.9118800E+02  0.7818608E-02  0.1130116E+00
         25   -1    0    0    0    0  0.00000000000E+00  0.00000000000E+00  0.99999998245E-14  0.12500000000E+03  0.12500000000E+03 0.  0.
        -11    1    3    3    0    0  0.14353775336E+02  0.21911121145E+02 -0.36202134354E+02  0.44684702396E+02  0.51100000000E-03 0.  1.
         23    2    1    0    0    0  0.27589061305E+02  0.44892111504E-01  0.84594911276E+01  0.96143089058E+02  0.91710262590E+02 0.  0.
         11    1    3    3    0    0  0.13235285970E+02 -0.21866229033E+02  0.44661625482E+02  0.51458386661E+02  0.51100000000E-03 0. -1.
         22    1    1    0    0    0 -0.27589061305E+02 -0.44892111504E-01 -0.84594911276E+01  0.28856910942E+02  0.00000000000E+00 0.  1.
</event>
<event>
 5    1  0.6622940E-004  0.9118800E+02  0.7818608E-02  0.1130116E+00
         25   -1    0    0    0    0  0.00000000000E+00  0.00000000000E+00  0.99999998245E-14  0.12500000000E+03  0.12500000000E+03 0.  0.
        -11    1    3    3    0    0 -0.25615971752E+02 -0.43607581797E+01  0.50468334160E+02  0.56764839239E+02  0.51100000000E-03 0. -1.
         23    2    1    0    0    0 -0.23746257228E+02 -0.10624978770E+02  0.11026511321E+02  0.96744755211E+02  0.92526692379E+02 0.  0.
         11    1    3    3    0    0  0.18697145237E+01 -0.62642205905E+01 -0.39441822839E+02  0.39979915972E+02  0.51100000000E-03 0.  1.
         22    1    1    0    0    0  0.23746257228E+02  0.10624978770E+02 -0.11026511321E+02  0.28255244789E+02  0.00000000000E+00 0. -1.
</event>
<event>
 5    1  0.6622940E-004  0.9118800E+02  0.7818608E-02  0.1130116E+00
         25   -1    0    0    0    0  0.00000000000E+00  0.00000000000E+00  0.99999998245E-14  0.12500000000E+03  0.12500000000E+03 0.  0.
        -11    1    3    3    0    0 -0.20191137761E+02  0.17770696366E+02  0.25217052302E+02  0.36869762957E+02  0.51100000000E-03 0. -1.
         23    2    1    0    0    0 -0.11489498838E+02 -0.17637748102E+02 -0.20682719958E+02  0.95489431613E+02  0.90814965194E+02 0.  0.
         11    1    3    3    0    0  0.87016389231E+01 -0.35408444468E+02 -0.45899772260E+02  0.58619668656E+02  0.51100000000E-03 0.  1.
         22    1    1    0    0    0  0.11489498838E+02  0.17637748102E+02  0.20682719958E+02  0.29510568387E+02  0.00000000000E+00 0.  1.
</event>
<event>
 5    1  0.6622940E-004  0.9118800E+02  0.7818608E-02  0.1130116E+00
         25   -1    0    0    0    0  0.00000000000E+00  0.00000000000E+00  0.99999998245E-14  0.12500000000E+03  0.12500000000E+03 0.  0.
        -11    1    3    3    0    0 -0.11108716172E+02  0.29219860242E+02  0.16667070514E+02  0.35425909266E+02  0.51100000000E-03 0. -1.
         23    2    1    0    0    0 -0.11283378610E+02 -0.17856128126E+02 -0.20621086642E+02  0.95480766290E+02  0.90803037243E+02 0.  0.
         11    1    3    3    0    0 -0.17466243857E+00 -0.47075988368E+02 -0.37288157156E+02  0.60054857024E+02  0.51100000000E-03 0.  1.
         22    1    1    0    0    0  0.11283378610E+02  0.17856128126E+02  0.20621086642E+02  0.29519233710E+02  0.00000000000E+00 0.  1.
</event>
<event>
 5    1  0.6622940E-004  0.9118800E+02  0.7818608E-02  0.1130116E+00
         25   -1    0    0    0    0  0.00000000000E+00  0.00000000000E+00  0.99999998245E-14  0.12500000000E+03  0.12500000000E+03 0.  0.
        -11    1    3    3    0    0  0.39375347104E+02 -0.17310162729E+02  0.16272698397E+02  0.45987611448E+02  0.51100000000E-03 0. -1.
         23    2    1    0    0    0 -0.67162237322E+01 -0.11681215175E+02  0.28040917669E+02  0.93889687998E+02  0.88585676040E+02 0.  0.
         11    1    3    3    0    0 -0.46091570836E+02  0.56289475538E+01  0.11768219271E+02  0.47902076550E+02  0.51100000000E-03 0.  1.
         22    1    1    0    0    0  0.67162237322E+01  0.11681215175E+02 -0.28040917669E+02  0.31110312002E+02  0.00000000000E+00 0. -1.
</event>
<event>
 5    1  0.6622940E-004  0.9118800E+02  0.7818608E-02  0.1130116E+00
         25   -1    0    0    0    0  0.00000000000E+00  0.00000000000E+00  0.99999998245E-14  0.12500000000E+03  0.12500000000E+03 0.  0.
        -11    1    3    3    0    0 -0.36583779726E+02  0.30323498433E+02  0.24119498649E+02  0.53288251159E+02  0.51100000000E-03 0.  1.
         23    2    1    0    0    0  0.14025441433E+01  0.29285056103E+02  0.13347717935E+02  0.92785977974E+02  0.87014334989E+02 0.  0.
         11    1    3    3    0    0  0.37986323869E+02 -0.10384423301E+01 -0.10771780714E+02  0.39497726815E+02  0.51100000000E-03 0. -1.
         22    1    1    0    0    0 -0.14025441433E+01 -0.29285056103E+02 -0.13347717935E+02  0.32214022026E+02  0.00000000000E+00 0.  1.
</event>
<event>
 5    1  0.6622940E-004  0.9118800E+02  0.7818608E-02  0.1130116E+00
         25   -1    0    0    0    0  0.00000000000E+00  0.00000000000E+00  0.99999998245E-14  0.12500000000E+03  0.12500000000E+03 0.  0.
        -11    1    3    3    0    0  0.16985654908E+02  0.30966403482E+02  0.30903083928E+01  0.35453922541E+02  0.51100000000E-03 0.  1.
         23    2    1    0    0    0  0.67607225960E+01 -0.27849745239E+02  0.76852902773E+01  0.95328812519E+02  0.90593615282E+02 0.  0.
         11    1    3    3    0    0 -0.10224932312E+02 -0.58816148721E+02  0.45949818845E+01  0.59874889979E+02  0.51100000000E-03 0. -1.
         22    1    1    0    0    0 -0.67607225960E+01  0.27849745239E+02 -0.76852902773E+01  0.29671187481E+02  0.00000000000E+00 0. -1.
</event>
<event>
 5    1  0.6622940E-004  0.9118800E+02  0.7818608E-02  0.1130116E+00
         25   -1    0    0    0    0  0.00000000000E+00  0.00000000000E+00  0.99999998245E-14  0.12500000000E+03  0.12500000000E+03 0.  0.
        -11    1    3    3    0    0  0.18812584409E+02 -0.38398008686E+02 -0.12126574484E+02  0.44445182103E+02  0.51100000000E-03 0.  1.
         23    2    1    0    0    0 -0.22346984080E+02 -0.93131067504E+01 -0.17496761205E+02  0.95129306880E+02  0.90317920259E+02 0.  0.
         11    1    3    3    0    0 -0.41159568488E+02  0.29084901935E+02 -0.53701867216E+01  0.50684124777E+02  0.51100000000E-03 0. -1.
         22    1    1    0    0    0  0.22346984080E+02  0.93131067504E+01  0.17496761205E+02  0.29870693120E+02  0.00000000000E+00 0. -1.
</event>
<event>
 5    1  0.6622940E-004  0.9118800E+02  0.7818608E-02  0.1130116E+00
         25   -1    0    0    0    0  0.00000000000E+00  0.00000000000E+00  0.99999998245E-14  0.12500000000E+03  0.12500000000E+03 0.  0.
        -11    1    3    3    0    0 -0.13061286066E+02 -0.30999243429E+02  0.43733868122E+02  0.55174283032E+02  0.51100000000E-03 0.  1.
         23    2    1    0    0    0  0.13860638587E+02 -0.21389893301E+02  0.24631105136E+02  0.89555167123E+02  0.82242274900E+02 0.  0.
         11    1    3    3    0    0  0.26921924653E+02  0.96093501277E+01 -0.19102762986E+02  0.34380884091E+02  0.51100000000E-03 0. -1.
         22    1    1    0    0    0 -0.13860638587E+02  0.21389893301E+02 -0.24631105136E+02  0.35444832877E+02  0.00000000000E+00 0.  1.
</event>
<event>
 5    1  0.6622940E-004  0.9118800E+02  0.7818608E-02  0.1130116E+00
         25   -1    0    0    0    0  0.00000000000E+00  0.00000000000E+00  0.99999998245E-14  0.12500000000E+03  0.12500000000E+03 0.  0.
        -11    1    3    3    0    0  0.38846612968E+02  0.40570686927E+02 -0.19106273223E+02  0.59330343448E+02  0.51100000000E-03 0.  1.
         23    2    1    0    0    0  0.25171400818E+02  0.12279645437E+02  0.15758526054E+01  0.96948753635E+02  0.92801877183E+02 0.  0.
         11    1    3    3    0    0 -0.13675212150E+02 -0.28291041490E+02  0.20682125829E+02  0.37618410187E+02  0.51100000000E-03 0. -1.
         22    1    1    0    0    0 -0.25171400818E+02 -0.12279645437E+02 -0.15758526054E+01  0.28051246365E+02  0.00000000000E+00 0.  1.
</event>
<event>
 5    1  0.6622940E-004  0.9118800E+02  0.7818608E-02  0.1130116E+00
         25   -1    0    0    0    0  0.00000000000E+00  0.00000000000E+00  0.99999998245E-14  0.12500000000E+03  0.12500000000E+03 0.  0.
        -11    1    3    3    0    0  0.13184764076E+02  0.48711691405E+02  0.33984184713E+02  0.60840707541E+02  0.51100000000E-03 0. -1.
         23    2    1    0    0    0  0.10521086742E+02  0.16147283528E+02  0.22266028161E+02  0.95551671667E+02  0.90900593599E+02 0.  0.
         11    1    3    3    0    0 -0.26636773340E+01 -0.32564407876E+02 -0.11718156552E+02  0.34710964126E+02  0.51100000000E-03 0.  1.
         22    1    1    0    0    0 -0.10521086742E+02 -0.16147283528E+02 -0.22266028161E+02  0.29448328333E+02  0.00000000000E+00 0. -1.
</event>
<event>
 5    1  0.6622940E-004  0.9118800E+02  0.7818608E-02  0.1130116E+00
         25   -1    0    0    0    0  0.00000000000E+00  0.00000000000E+00  0.99999998245E-14  0.12500000000E+03  0.12500000000E+03 0.  0.
        -11    1    3    3    0    0 -0.19426427086E+02 -0.81945965632E+01 -0.39467314775E+02  0.44746021252E+02  0.51100000000E-03 0. -1.
         23    2    1    0    0    0 -0.27612461914E+01 -0.28746357459E+02  0.42133216815E+01  0.95815592737E+02  0.91262797372E+02 0.  0.
         11    1    3    3    0    0  0.16665180894E+02 -0.20551760896E+02  0.43680636456E+02  0.51069571485E+02  0.51100000000E-03 0.  1.
         22    1    1    0    0    0  0.27612461914E+01  0.28746357459E+02 -0.42133216815E+01  0.29184407263E+02  0.00000000000E+00 0.  1.
</event>
<event>
 5    1  0.6622940E-004  0.9118800E+02  0.7818608E-02  0.1130116E+00
         25   -1    0    0    0    0  0.00000000000E+00  0.00000000000E+00  0.99999998245E-14  0.12500000000E+03  0.12500000000E+03 0.  0.
        -11    1    3    3    0    0  0.21073798066E+02 -0.96340784612E+01 -0.43730307594E+02  0.49490001366E+02  0.51100000000E-03 0. -1.
         23    2    1    0    0    0  0.78056069561E+00  0.23042216234E+02 -0.15113688727E+02  0.97432327067E+02  0.93450959154E+02 0.  0.
         11    1    3    3    0    0 -0.20293237371E+02  0.32676294696E+02  0.28616618867E+02  0.47942325701E+02  0.51100000000E-03 0.  1.
         22    1    1    0    0    0 -0.78056069561E+00 -0.23042216234E+02  0.15113688727E+02  0.27567672933E+02  0.00000000000E+00 0.  1.
</event>
<event>
 5    1  0.6622940E-004  0.9118800E+02  0.7818608E-02  0.1130116E+00
         25   -1    0    0    0    0  0.00000000000E+00  0.00000000000E+00  0.99999998245E-14  0.12500000000E+03  0.12500000000E+03 0.  0.
        -11    1    3    3    0    0 -0.32473990833E+02  0.37550673278E+02 -0.54144402585E+01  0.49939256180E+02  0.51100000000E-03 0. -1.
         23    2    1    0    0    0  0.97769347845E+01  0.29189264114E+02  0.37969058611E+01  0.93983583582E+02  0.88718069723E+02 0.  0.
         11    1    3    3    0    0  0.42250925617E+02 -0.83614091633E+01  0.92113461196E+01  0.44044327402E+02  0.51100000000E-03 0.  1.
         22    1    1    0    0    0 -0.97769347845E+01 -0.29189264114E+02 -0.37969058611E+01  0.31016416418E+02  0.00000000000E+00 0. -1.
</event>
<event>
 5    1  0.6622940E-004  0.9118800E+02  0.7818608E-02  0.1130116E+00
         25   -1    0    0    0    0  0.00000000000E+00  0.00000000000E+00  0.99999998245E-14  0.12500000000E+03  0.12500000000E+03 0.  0.
        -11    1    3    3    0    0 -0.35550656417E+01  0.38948167320E+02 -0.22740619986E+01  0.39176135434E+02  0.51100000000E-03 0. -1.
         23    2    1    0    0    0  0.16875252256E+02 -0.92306854344E+01  0.21063258999E+02  0.96475614434E+02  0.92162376317E+02 0.  0.
         11    1    3    3    0    0  0.20430317898E+02 -0.48178852754E+02  0.23337320997E+02  0.57299479000E+02  0.51100000000E-03 0.  1.
         22    1    1    0    0    0 -0.16875252256E+02  0.92306854344E+01 -0.21063258999E+02  0.28524385566E+02  0.00000000000E+00 0.  1.
</event>
<event>
 5    1  0.6622940E-004  0.9118800E+02  0.7818608E-02  0.1130116E+00
         25   -1    0    0    0    0  0.00000000000E+00  0.00000000000E+00  0.99999998245E-14  0.12500000000E+03  0.12500000000E+03 0.  0.
        -11    1    3    3    0    0 -0.21445562225E+02 -0.16796607899E+02 -0.24577601219E+02  0.36689189933E+02  0.51100000000E-03 0.  1.
         23    2    1    0    0    0 -0.10843420121E+02  0.16713887471E+02  0.22181229792E+02  0.95184890586E+02  0.90394815374E+02 0.  0.
         11    1    3    3    0    0  0.10602142104E+02  0.33510495370E+02  0.46758831010E+02  0.58495700652E+02  0.51100000000E-03 0. -1.
         22    1    1    0    0    0  0.10843420121E+02 -0.16713887471E+02 -0.22181229792E+02  0.29815109414E+02  0.00000000000E+00 0. -1.
</event>
<event>
 5    1  0.6622940E-004  0.9118800E+02  0.7818608E-02  0.1130116E+00
         25   -1    0    0    0    0  0.00000000000E+00  0.00000000000E+00  0.99999998245E-14  0.12500000000E+03  0.12500000000E+03 0.  0.
        -11    1    3    3    0    0 -0.13281116518E+02  0.17705899222E+02 -0.34994617119E+02  0.41406643800E+02  0.51100000000E-03 0.  1.
         23    2    1    0    0    0 -0.15628745712E+02  0.17012918026E+02  0.18774373935E+02  0.95231322016E+02  0.90458999021E+02 0.  0.
         11    1    3    3    0    0 -0.23476291939E+01 -0.69298119648E+00  0.53768991054E+02  0.53824678215E+02  0.51100000000E-03 0. -1.
         22    1    1    0    0    0  0.15628745712E+02 -0.17012918026E+02 -0.18774373935E+02  0.29768677984E+02  0.00000000000E+00 0. -1.
</event>
<event>
 5    1  0.6622940E-004  0.9118800E+02  0.7818608E-02  0.1130116E+00
         25   -1    0    0    0    0  0.00000000000E+00  0.00000000000E+00  0.99999998245E-14  0.12500000000E+03  0.12500000000E+03 0.  0.
        -11    1    3    3    0    0  0.44899191174E+02  0.11415848860E+02  0.35755125173E+02  0.58520833467E+02  0.51100000000E-03 0.  1.
         23    2    1    0    0    0  0.14126859091E+02  0.19634727910E+02  0.14975458633E+02  0.96550833947E+02  0.92264340277E+02 0.  0.
         11    1    3    3    0    0 -0.30772332083E+02  0.82188790495E+01 -0.20779666541E+02  0.38030000480E+02  0.51100000000E-03 0. -1.
         22    1    1    0    0    0 -0.14126859091E+02 -0.19634727910E+02 -0.14975458633E+02  0.28449166053E+02  0.00000000000E+00 0.  1.
</event>
<event>
 5    1  0.6622940E-004  0.9118800E+02  0.7818608E-02  0.1130116E+00
         25   -1    0    0    0    0  0.00000000000E+00  0.00000000000E+00  0.99999998245E-14  0.12500000000E+03  0.12500000000E+03 0.  0.
        -11    1    3    3    0    0  0.41418707817E+01 -0.24194695830E+02 -0.23314527618E+02  0.33854181399E+02  0.51100000000E-03 0.  1.
         23    2    1    0    0    0 -0.71486230387E+01 -0.10060886457E+01  0.30567948554E+02  0.93591171552E+02  0.88163444170E+02 0.  0.
         11    1    3    3    0    0 -0.11290493820E+02  0.23188607184E+02  0.53882476172E+02  0.59736990153E+02  0.51100000000E-03 0. -1.
         22    1    1    0    0    0  0.71486230387E+01  0.10060886457E+01 -0.30567948554E+02  0.31408828448E+02  0.00000000000E+00 0. -1.
</event>
<event>
 5    1  0.6622940E-004  0.9118800E+02  0.7818608E-02  0.1130116E+00
         25   -1    0    0    0    0  0.00000000000E+00  0.00000000000E+00  0.99999998245E-14  0.12500000000E+03  0.12500000000E+03 0.  0.
        -11    1    3    3    0    0 -0.34593701894E+02  0.18859719035E+02  0.16445885952E+02  0.42695203218E+02  0.51100000000E-03 0.  1.
         23    2    1    0    0    0  0.91777672098E+01  0.25105366191E+02 -0.12447497758E+02  0.95513545093E+02  0.90848149531E+02 0.  0.
         11    1    3    3    0    0  0.43771469104E+02  0.62456471563E+01 -0.28893383710E+02  0.52818341875E+02  0.51100000000E-03 0. -1.
         22    1    1    0    0    0 -0.91777672098E+01 -0.25105366191E+02  0.12447497758E+02  0.29486454907E+02  0.00000000000E+00 0. -1.
</event>
<event>
 5    1  0.6622940E-004  0.9118800E+02  0.7818608E-02  0.1130116E+00
         25   -1    0    0    0    0  0.00000000000E+00  0.00000000000E+00  0.99999998245E-14  0.12500000000E+03  0.12500000000E+03 0.  0.
        -11    1    3    3    0    0 -0.19153516962E+02 -0.28838411573E+02 -0.84355673783E+01  0.35632428928E+02  0.51100000000E-03 0. -1.
         23    2    1    0    0    0 -0.19766764191E+02  0.26332835021E+02  0.28538712967E+01  0.91950223174E+02  0.85805336627E+02 0.  0.
         11    1    3    3    0    0 -0.61324722913E+00  0.55171246594E+02  0.11289438675E+02  0.56317794246E+02  0.51100000000E-03 0.  1.
         22    1    1    0    0    0  0.19766764191E+02 -0.26332835021E+02 -0.28538712967E+01  0.33049776826E+02  0.00000000000E+00 0.  1.
</event>
<event>
 5    1  0.6622940E-004  0.9118800E+02  0.7818608E-02  0.1130116E+00
         25   -1    0    0    0    0  0.00000000000E+00  0.00000000000E+00  0.99999998245E-14  0.12500000000E+03  0.12500000000E+03 0.  0.
        -11    1    3    3    0    0  0.33993436576E+02 -0.31199577714E+02 -0.86407625039E+01  0.46942839248E+02  0.51100000000E-03 0. -1.
         23    2    1    0    0    0  0.21078530288E+02  0.67886041657E+01  0.19127647146E+02  0.95738139653E+02  0.91156650407E+02 0.  0.
         11    1    3    3    0    0 -0.12914906288E+02  0.37988181880E+02  0.27768409650E+02  0.48795300406E+02  0.51100000000E-03 0.  1.
         22    1    1    0    0    0 -0.21078530288E+02 -0.67886041657E+01 -0.19127647146E+02  0.29261860347E+02  0.00000000000E+00 0. -1.
</event>
<event>
 5    1  0.6622940E-004  0.9118800E+02  0.7818608E-02  0.1130116E+00
         25   -1    0    0    0    0  0.00000000000E+00  0.00000000000E+00  0.99999998245E-14  0.12500000000E+03  0.12500000000E+03 0.  0.
        -11    1    3    3    0    0  0.27212900852E+02 -0.46830744626E+01  0.33345317949E+02  0.43294149588E+02  0.51100000000E-03 0.  1.
         23    2    1    0    0    0  0.35926742186E+01 -0.22737902497E+02 -0.13155052036E+02  0.98486325941E+02  0.94850310940E+02 0.  0.
         11    1    3    3    0    0 -0.23620226634E+02 -0.18054828034E+02 -0.46500369985E+02  0.55192176353E+02  0.51100000000E-03 0. -1.
         22    1    1    0    0    0 -0.35926742186E+01  0.22737902497E+02  0.13155052036E+02  0.26513674059E+02  0.00000000000E+00 0. -1.
</event>
<event>
 5    1  0.6622940E-004  0.9118800E+02  0.7818608E-02  0.1130116E+00
         25   -1    0    0    0    0  0.00000000000E+00  0.00000000000E+00  0.99999998245E-14  0.12500000000E+03  0.12500000000E+03 0.  0.
        -11    1    3    3    0    0  0.39846211441E+02  0.32587252297E+02 -0.89797912486E+01  0.52252140909E+02  0.51100000000E-03 0.  1.
         23    2    1    0    0    0  0.27100733707E+02 -0.77528096662E+01  0.40587005742E+01  0.96521431294E+02  0.92224496873E+02 0.  0.
         11    1    3    3    0    0 -0.12745477733E+02 -0.40340061964E+02  0.13038491823E+02  0.44269290385E+02  0.51100000000E-03 0. -1.
         22    1    1    0    0    0 -0.27100733707E+02  0.77528096662E+01 -0.40587005742E+01  0.28478568706E+02  0.00000000000E+00 0.  1.
</event>
<event>
 5    1  0.6622940E-004  0.9118800E+02  0.7818608E-02  0.1130116E+00
         25   -1    0    0    0    0  0.00000000000E+00  0.00000000000E+00  0.99999998245E-14  0.12500000000E+03  0.12500000000E+03 0.  0.
        -11    1    3    3    0    0 -0.26002262793E+02  0.48158418845E+02 -0.83143270285E+01  0.55357736679E+02  0.51100000000E-03 0. -1.
         23    2    1    0    0    0  0.56265366082E-01  0.23353776525E+02 -0.21087312743E+02  0.93534514107E+02  0.88083077414E+02 0.  0.
         11    1    3    3    0    0  0.26058528160E+02 -0.24804642320E+02 -0.12772985715E+02  0.38176777428E+02  0.51100000000E-03 0.  1.
         22    1    1    0    0    0 -0.56265366082E-01 -0.23353776525E+02  0.21087312743E+02  0.31465485893E+02  0.00000000000E+00 0. -1.
</event>
<event>
 5    1  0.6622940E-004  0.9118800E+02  0.7818608E-02  0.1130116E+00
         25   -1    0    0    0    0  0.00000000000E+00  0.00000000000E+00  0.99999998245E-14  0.12500000000E+03  0.12500000000E+03 0.  0.
        -11    1    3    3    0    0 -0.27290558290E+02  0.25228411444E+02 -0.47641099960E+02  0.60422857607E+02  0.51100000000E-03 0.  1.
         23    2    1    0    0    0 -0.86646681214E+01  0.21720518755E+02 -0.18515079413E+02  0.95172737733E+02  0.90378008572E+02 0.  0.
         11    1    3    3    0    0  0.18625890169E+02 -0.35078926888E+01  0.29126020546E+02  0.34749880127E+02  0.51100000000E-03 0. -1.
         22    1    1    0    0    0  0.86646681214E+01 -0.21720518755E+02  0.18515079413E+02  0.29827262267E+02  0.00000000000E+00 0.  1.
</event>
<event>
 5    1  0.6622940E-004  0.9118800E+02  0.7818608E-02  0.1130116E+00
         25   -1    0    0    0    0  0.00000000000E+00  0.00000000000E+00  0.99999998245E-14  0.12500000000E+03  0.12500000000E+03 0.  0.
        -11    1    3    3    0    0 -0.16012635500E+02 -0.14018219673E+02  0.27197781962E+02  0.34534538108E+02  0.51100000000E-03 0.  1.
         23    2    1    0    0    0  0.10888036348E+02  0.26366708678E+02 -0.90165623825E+01  0.95082596048E+02  0.90253249316E+02 0.  0.
         11    1    3    3    0    0  0.26900671848E+02  0.40384928350E+02 -0.36214344344E+02  0.60548057940E+02  0.51100000000E-03 0. -1.
         22    1    1    0    0    0 -0.10888036348E+02 -0.26366708678E+02  0.90165623825E+01  0.29917403952E+02  0.00000000000E+00 0. -1.
</event>
<event>
 5    1  0.6622940E-004  0.9118800E+02  0.7818608E-02  0.1130116E+00
         25   -1    0    0    0    0  0.00000000000E+00  0.00000000000E+00  0.99999998245E-14  0.12500000000E+03  0.12500000000E+03 0.  0.
        -11    1    3    3    0    0  0.44741848695E+02 -0.10459232065E+02  0.40542518065E+02  0.61277437376E+02  0.51100000000E-03 0. -1.
         23    2    1    0    0    0  0.17204050866E+02 -0.11659937231E+01  0.26065289706E+02  0.93747188366E+02  0.88384371309E+02 0.  0.
         11    1    3    3    0    0 -0.27537797829E+02  0.92932383419E+01 -0.14477228359E+02  0.32469750991E+02  0.51100000000E-03 0.  1.
         22    1    1    0    0    0 -0.17204050866E+02  0.11659937231E+01 -0.26065289706E+02  0.31252811634E+02  0.00000000000E+00 0. -1.
</event>
<event>
 5    1  0.6622940E-004  0.9118800E+02  0.7818608E-02  0.1130116E+00
         25   -1    0    0    0    0  0.00000000000E+00  0.00000000000E+00  0.99999998245E-14  0.12500000000E+03  0.12500000000E+03 0.  0.
        -11    1    3    3    0    0  0.10410397561E+02  0.79501647235E+01  0.29681605820E+02  0.32443477323E+02  0.51100000000E-03 0. -1.
         23    2    1    0    0    0 -0.34599993526E+02 -0.48065771959E+01 -0.36373872295E+01  0.89878876410E+02  0.82732817567E+02 0.  0.
         11    1    3    3    0    0 -0.45010391087E+02 -0.12756741919E+02 -0.33318993049E+02  0.57435399087E+02  0.51100000000E-03 0.  1.
         22    1    1    0    0    0  0.34599993526E+02  0.48065771959E+01  0.36373872295E+01  0.35121123590E+02  0.00000000000E+00 0.  1.
</event>
<event>
 5    1  0.6622940E-004  0.9118800E+02  0.7818608E-02  0.1130116E+00
         25   -1    0    0    0    0  0.00000000000E+00  0.00000000000E+00  0.99999998245E-14  0.12500000000E+03  0.12500000000E+03 0.  0.
        -11    1    3    3    0    0  0.55371681593E+02  0.64336632164E+01  0.10080090893E+02  0.56648242492E+02  0.51100000000E-03 0.  1.
         23    2    1    0    0    0  0.24089528866E+02 -0.15707941143E+02  0.14108334119E+00  0.96241267058E+02  0.91843980556E+02 0.  0.
         11    1    3    3    0    0 -0.31282152727E+02 -0.22141604360E+02 -0.99390075520E+01  0.39593024566E+02  0.51100000000E-03 0. -1.
         22    1    1    0    0    0 -0.24089528866E+02  0.15707941143E+02 -0.14108334119E+00  0.28758732942E+02  0.00000000000E+00 0.  1.
</event>
<event>
 5    1  0.6622940E-004  0.9118800E+02  0.7818608E-02  0.1130116E+00
         25   -1    0    0    0    0  0.00000000000E+00  0.00000000000E+00  0.99999998245E-14  0.12500000000E+03  0.12500000000E+03 0.  0.
        -11    1    3    3    0    0 -0.28092293452E+02 -0.10471306997E+02 -0.19571429151E+02  0.35803157136E+02  0.51100000000E-03 0.  1.
         23    2    1    0    0    0  0.90140880573E+01  0.19748374764E+02  0.18123098664E+02  0.96721053865E+02  0.92494667231E+02 0.  0.
         11    1    3    3    0    0  0.37106381509E+02  0.30219681761E+02  0.37694527815E+02  0.60917896729E+02  0.51100000000E-03 0. -1.
         22    1    1    0    0    0 -0.90140880573E+01 -0.19748374764E+02 -0.18123098664E+02  0.28278946135E+02  0.00000000000E+00 0. -1.
</event>
<event>
 5    1  0.6622940E-004  0.9118800E+02  0.7818608E-02  0.1130116E+00
         25   -1    0    0    0    0  0.00000000000E+00  0.00000000000E+00  0.99999998245E-14  0.12500000000E+03  0.12500000000E+03 0.  0.
        -11    1    3    3    0    0  0.51033561748E+01  0.18284905432E+02 -0.57621852382E+02  0.60668442234E+02  0.51100000000E-03 0. -1.
         23    2    1    0    0    0 -0.62835053001E+01  0.26290938311E+01 -0.28920130355E+02  0.95288579418E+02  0.90538085105E+02 0.  0.
         11    1    3    3    0    0 -0.11386861475E+02 -0.15655811601E+02  0.28701722026E+02  0.34620137184E+02  0.51100000000E-03 0.  1.
         22    1    1    0    0    0  0.62835053001E+01 -0.26290938311E+01  0.28920130355E+02  0.29711420582E+02  0.00000000000E+00 0. -1.
</event>
<event>
 5    1  0.6622940E-004  0.9118800E+02  0.7818608E-02  0.1130116E+00
         25   -1    0    0    0    0  0.00000000000E+00  0.00000000000E+00  0.99999998245E-14  0.12500000000E+03  0.12500000000E+03 0.  0.
        -11    1    3    3    0    0 -0.45757897007E+02  0.33776339698E+02  0.25472761076E+02  0.62317636501E+02  0.51100000000E-03 0. -1.
         23    2    1    0    0    0 -0.14002651356E+02  0.91817809956E+01  0.10775506802E+02  0.10508792090E+03  0.10318420531E+03 0.  0.
         11    1    3    3    0    0  0.31755245651E+02 -0.24594558703E+02 -0.14697254274E+02  0.42770284399E+02  0.51100000000E-03 0.  1.
         22    1    1    0    0    0  0.14002651356E+02 -0.91817809956E+01 -0.10775506802E+02  0.19912079100E+02  0.00000000000E+00 0. -1.
</event>
<event>
 5    1  0.6622940E-004  0.9118800E+02  0.7818608E-02  0.1130116E+00
         25   -1    0    0    0    0  0.00000000000E+00  0.00000000000E+00  0.99999998245E-14  0.12500000000E+03  0.12500000000E+03 0.  0.
        -11    1    3    3    0    0  0.94181162165E+01  0.15958315784E+02 -0.41230067170E+02  0.45202734374E+02  0.51100000000E-03 0.  1.
         23    2    1    0    0    0 -0.56574611656E+01 -0.10469655254E+02  0.12994257622E+02  0.10737980479E+03  0.10592427105E+03 0.  0.
         11    1    3    3    0    0 -0.15075577382E+02 -0.26427971038E+02  0.54224324792E+02  0.62177070420E+02  0.51100000000E-03 0. -1.
         22    1    1    0    0    0  0.56574611656E+01  0.10469655254E+02 -0.12994257622E+02  0.17620195206E+02  0.00000000000E+00 0. -1.
</event>
<event>
 5    1  0.6622940E-004  0.9118800E+02  0.7818608E-02  0.1130116E+00
         25   -1    0    0    0    0  0.00000000000E+00  0.00000000000E+00  0.99999998245E-14  0.12500000000E+03  0.12500000000E+03 0.  0.
        -11    1    3    3    0    0 -0.13542803344E+02 -0.25739757045E+02  0.18528570525E+02  0.34485512047E+02  0.51100000000E-03 0.  1.
         23    2    1    0    0    0  0.66168803696E+01  0.10514485445E+02 -0.26514113266E+02  0.95719704369E+02  0.91131367224E+02 0.  0.
         11    1    3    3    0    0  0.20159683714E+02  0.36254242490E+02 -0.45042683791E+02  0.61234192322E+02  0.51100000000E-03 0. -1.
         22    1    1    0    0    0 -0.66168803696E+01 -0.10514485445E+02  0.26514113266E+02  0.29280295631E+02  0.00000000000E+00 0. -1.
</event>
<event>
 5    1  0.6622940E-004  0.9118800E+02  0.7818608E-02  0.1130116E+00
         25   -1    0    0    0    0  0.00000000000E+00  0.00000000000E+00  0.99999998245E-14  0.12500000000E+03  0.12500000000E+03 0.  0.
        -11    1    3    3    0    0  0.40206657103E+02 -0.16176472819E+02  0.32271693904E+02  0.54034394380E+02  0.51100000000E-03 0.  1.
         23    2    1    0    0    0  0.57170834384E+01  0.63742868485E+01  0.28300056376E+02  0.95432961482E+02  0.90737204995E+02 0.  0.
         11    1    3    3    0    0 -0.34489573665E+02  0.22550759668E+02 -0.39716375283E+01  0.41398567102E+02  0.51100000000E-03 0. -1.
         22    1    1    0    0    0 -0.57170834384E+01 -0.63742868485E+01 -0.28300056376E+02  0.29567038518E+02  0.00000000000E+00 0.  1.
</event>
<event>
 5    1  0.6622940E-004  0.9118800E+02  0.7818608E-02  0.1130116E+00
         25   -1    0    0    0    0  0.00000000000E+00  0.00000000000E+00  0.99999998245E-14  0.12500000000E+03  0.12500000000E+03 0.  0.
        -11    1    3    3    0    0 -0.22313278394E+02 -0.15513059068E+02 -0.32227449147E+02  0.42156208002E+02  0.51100000000E-03 0. -1.
         23    2    1    0    0    0  0.32902463835E+00  0.27592701184E+02 -0.10491082587E+02  0.95478343040E+02  0.90799701321E+02 0.  0.
         11    1    3    3    0    0  0.22642303032E+02  0.43105760252E+02  0.21736366560E+02  0.53322135038E+02  0.51100000000E-03 0.  1.
         22    1    1    0    0    0 -0.32902463835E+00 -0.27592701184E+02  0.10491082587E+02  0.29521656960E+02  0.00000000000E+00 0.  1.
</event>
<event>
 5    1  0.6622940E-004  0.9118800E+02  0.7818608E-02  0.1130116E+00
         25   -1    0    0    0    0  0.00000000000E+00  0.00000000000E+00  0.99999998245E-14  0.12500000000E+03  0.12500000000E+03 0.  0.
        -11    1    3    3    0    0 -0.59532609512E+02  0.11762924601E+02  0.75602419081E+01  0.61152720695E+02  0.51100000000E-03 0. -1.
         23    2    1    0    0    0 -0.25380117974E+02 -0.22599042739E+01 -0.24414480847E+01  0.99402769204E+02  0.96050467468E+02 0.  0.
         11    1    3    3    0    0  0.34152491538E+02 -0.14022828875E+02 -0.10001689993E+02  0.38250048508E+02  0.51100000000E-03 0.  1.
         22    1    1    0    0    0  0.25380117974E+02  0.22599042739E+01  0.24414480847E+01  0.25597230796E+02  0.00000000000E+00 0. -1.
</event>
<event>
 5    1  0.6622940E-004  0.9118800E+02  0.7818608E-02  0.1130116E+00
         25   -1    0    0    0    0  0.00000000000E+00  0.00000000000E+00  0.99999998245E-14  0.12500000000E+03  0.12500000000E+03 0.  0.
        -11    1    3    3    0    0  0.38565474504E+02  0.18144473830E+02  0.42198058828E+02  0.59976611470E+02  0.51100000000E-03 0.  1.
         23    2    1    0    0    0  0.26824029107E+02  0.57293742173E+01  0.11200384508E+02  0.95372261653E+02  0.90653546060E+02 0.  0.
         11    1    3    3    0    0 -0.11741445397E+02 -0.12415099613E+02 -0.30997674320E+02  0.35395650183E+02  0.51100000000E-03 0. -1.
         22    1    1    0    0    0 -0.26824029107E+02 -0.57293742173E+01 -0.11200384508E+02  0.29627738347E+02  0.00000000000E+00 0.  1.
</event>
<event>
 5    1  0.6622940E-004  0.9118800E+02  0.7818608E-02  0.1130116E+00
         25   -1    0    0    0    0  0.00000000000E+00  0.00000000000E+00  0.99999998245E-14  0.12500000000E+03  0.12500000000E+03 0.  0.
        -11    1    3    3    0    0  0.91495817829E+01 -0.39232646208E+02  0.46517634754E+02  0.61537027217E+02  0.51100000000E-03 0. -1.
         23    2    1    0    0    0  0.11361493143E+02 -0.19312919259E+02  0.18745258131E+02  0.95786012269E+02  0.91222272869E+02 0.  0.
         11    1    3    3    0    0  0.22119113597E+01  0.19919726949E+02 -0.27772376623E+02  0.34248985053E+02  0.51100000000E-03 0.  1.
         22    1    1    0    0    0 -0.11361493143E+02  0.19312919259E+02 -0.18745258131E+02  0.29213987731E+02  0.00000000000E+00 0. -1.
</event>
<event>
 5    1  0.6622940E-004  0.9118800E+02  0.7818608E-02  0.1130116E+00
         25   -1    0    0    0    0  0.00000000000E+00  0.00000000000E+00  0.99999998245E-14  0.12500000000E+03  0.12500000000E+03 0.  0.
        -11    1    3    3    0    0  0.21337447771E+02 -0.41184575517E+00  0.27690306446E+02  0.34960111065E+02  0.51100000000E-03 0.  1.
         23    2    1    0    0    0  0.41921388112E+02  0.26553440337E+02  0.65141317949E+01  0.74950805321E+02  0.55791588347E+02 0.  0.
         11    1    3    3    0    0  0.20583940341E+02  0.26965286092E+02 -0.21176174651E+02  0.39990694257E+02  0.51100000000E-03 0. -1.
         22    1    1    0    0    0 -0.41921388112E+02 -0.26553440337E+02 -0.65141317949E+01  0.50049194679E+02  0.00000000000E+00 0.  1.
</event>
<event>
 5    1  0.6622940E-004  0.9118800E+02  0.7818608E-02  0.1130116E+00
         25   -1    0    0    0    0  0.00000000000E+00  0.00000000000E+00  0.99999998245E-14  0.12500000000E+03  0.12500000000E+03 0.  0.
        -11    1    3    3    0    0 -0.21447342231E+02  0.34866305689E+02 -0.22185427112E+02  0.46560078797E+02  0.51100000000E-03 0. -1.
         23    2    1    0    0    0  0.20354189848E+02  0.12147261848E+02 -0.19661564524E+02  0.94203472041E+02  0.89027344172E+02 0.  0.
         11    1    3    3    0    0  0.41801532079E+02 -0.22719043840E+02  0.25238625879E+01  0.47643393244E+02  0.51100000000E-03 0.  1.
         22    1    1    0    0    0 -0.20354189848E+02 -0.12147261848E+02  0.19661564524E+02  0.30796527959E+02  0.00000000000E+00 0.  1.
</event>
<event>
 5    1  0.6622940E-004  0.9118800E+02  0.7818608E-02  0.1130116E+00
         25   -1    0    0    0    0  0.00000000000E+00  0.00000000000E+00  0.99999998245E-14  0.12500000000E+03  0.12500000000E+03 0.  0.
        -11    1    3    3    0    0 -0.89704709548E+01  0.26487139185E+02  0.36785185233E+02  0.46208091762E+02  0.51100000000E-03 0.  1.
         23    2    1    0    0    0  0.26897656270E+02  0.71061258517E+01  0.82139466873E+01  0.95992244871E+02  0.91504432777E+02 0.  0.
         11    1    3    3    0    0  0.35868127225E+02 -0.19381013334E+02 -0.28571238546E+02  0.49784153109E+02  0.51100000000E-03 0. -1.
         22    1    1    0    0    0 -0.26897656270E+02 -0.71061258517E+01 -0.82139466873E+01  0.29007755129E+02  0.00000000000E+00 0. -1.
</event>
<event>
 5    1  0.6622940E-004  0.9118800E+02  0.7818608E-02  0.1130116E+00
         25   -1    0    0    0    0  0.00000000000E+00  0.00000000000E+00  0.99999998245E-14  0.12500000000E+03  0.12500000000E+03 0.  0.
        -11    1    3    3    0    0 -0.21601217862E+02 -0.53184608231E+01  0.41875683374E+02  0.47418050328E+02  0.51100000000E-03 0. -1.
         23    2    1    0    0    0  0.18455738564E+02  0.50255938147E+01  0.28071305004E+02  0.91031352047E+02  0.84456130694E+02 0.  0.
         11    1    3    3    0    0  0.40056956425E+02  0.10344054638E+02 -0.13804378369E+02  0.43613301719E+02  0.51100000000E-03 0.  1.
         22    1    1    0    0    0 -0.18455738564E+02 -0.50255938147E+01 -0.28071305004E+02  0.33968647953E+02  0.00000000000E+00 0.  1.
</event>
<event>
 5    1  0.6622940E-004  0.9118800E+02  0.7818608E-02  0.1130116E+00
         25   -1    0    0    0    0  0.00000000000E+00  0.00000000000E+00  0.99999998245E-14  0.12500000000E+03  0.12500000000E+03 0.  0.
        -11    1    3    3    0    0  0.21357217866E+02  0.32622526022E+02 -0.61568601965E+01  0.39474889320E+02  0.51100000000E-03 0.  1.
         23    2    1    0    0    0 -0.12212460077E+02 -0.65306583278E+01 -0.26646024847E+02  0.94969943066E+02  0.90097090777E+02 0.  0.
         11    1    3    3    0    0 -0.33569677943E+02 -0.39153184350E+02 -0.20489164650E+02  0.55495053746E+02  0.51100000000E-03 0. -1.
         22    1    1    0    0    0  0.12212460077E+02  0.65306583278E+01  0.26646024847E+02  0.30030056934E+02  0.00000000000E+00 0. -1.
</event>
<event>
 5    1  0.6622940E-004  0.9118800E+02  0.7818608E-02  0.1130116E+00
         25   -1    0    0    0    0  0.00000000000E+00  0.00000000000E+00  0.99999998245E-14  0.12500000000E+03  0.12500000000E+03 0.  0.
        -11    1    3    3    0    0 -0.77412908989E+01  0.13272752147E+01 -0.40217111932E+02  0.40976887836E+02  0.51100000000E-03 0. -1.
         23    2    1    0    0    0 -0.24828433877E+02 -0.15302412448E+02  0.79914824792E+01  0.94759650337E+02  0.89804858356E+02 0.  0.
         11    1    3    3    0    0 -0.17087142978E+02 -0.16629687663E+02  0.48208594411E+02  0.53782762501E+02  0.51100000000E-03 0.  1.
         22    1    1    0    0    0  0.24828433877E+02  0.15302412448E+02 -0.79914824792E+01  0.30240349663E+02  0.00000000000E+00 0.  1.
</event>
<event>
 5    1  0.6622940E-004  0.9118800E+02  0.7818608E-02  0.1130116E+00
         25   -1    0    0    0    0  0.00000000000E+00  0.00000000000E+00  0.99999998245E-14  0.12500000000E+03  0.12500000000E+03 0.  0.
        -11    1    3    3    0    0 -0.52905703681E+01 -0.15664118030E+00  0.38958124534E+02  0.39316029031E+02  0.51100000000E-03 0. -1.
         23    2    1    0    0    0  0.61483613988E+01  0.31640419504E+02 -0.23464977263E+01  0.92682442143E+02  0.86865473784E+02 0.  0.
         11    1    3    3    0    0  0.11438931767E+02  0.31797060684E+02 -0.41304622261E+02  0.53366413112E+02  0.51100000000E-03 0.  1.
         22    1    1    0    0    0 -0.61483613988E+01 -0.31640419504E+02  0.23464977263E+01  0.32317557857E+02  0.00000000000E+00 0. -1.
</event>
<event>
 5    1  0.6622940E-004  0.9118800E+02  0.7818608E-02  0.1130116E+00
         25   -1    0    0    0    0  0.00000000000E+00  0.00000000000E+00  0.99999998245E-14  0.12500000000E+03  0.12500000000E+03 0.  0.
        -11    1    3    3    0    0  0.18908225052E+02 -0.39230473004E+02 -0.22988960641E+02  0.49244728635E+02  0.51100000000E-03 0.  1.
         23    2    1    0    0    0 -0.15579835686E+02 -0.22436323336E+02  0.56382275945E+01  0.97108971061E+02  0.93017432588E+02 0.  0.
         11    1    3    3    0    0 -0.34488060738E+02  0.16794149667E+02  0.28627188235E+02  0.47864242426E+02  0.51100000000E-03 0. -1.
         22    1    1    0    0    0  0.15579835686E+02  0.22436323336E+02 -0.56382275945E+01  0.27891028939E+02  0.00000000000E+00 0. -1.
</event>
<event>
 5    1  0.6622940E-004  0.9118800E+02  0.7818608E-02  0.1130116E+00
         25   -1    0    0    0    0  0.00000000000E+00  0.00000000000E+00  0.99999998245E-14  0.12500000000E+03  0.12500000000E+03 0.  0.
        -11    1    3    3    0    0 -0.35415679896E+02  0.28279585118E+02  0.25751648299E+02  0.52126314922E+02  0.51100000000E-03 0.  1.
         23    2    1    0    0    0  0.17379023945E+01  0.25505160489E+01  0.27475393350E+02  0.97351805184E+02  0.93343190946E+02 0.  0.
         11    1    3    3    0    0  0.37153582290E+02 -0.25729069069E+02  0.17237450518E+01  0.45225490262E+02  0.51100000000E-03 0. -1.
         22    1    1    0    0    0 -0.17379023945E+01 -0.25505160489E+01 -0.27475393350E+02  0.27648194816E+02  0.00000000000E+00 0.  1.
</event>
<event>
 5    1  0.6622940E-004  0.9118800E+02  0.7818608E-02  0.1130116E+00
         25   -1    0    0    0    0  0.00000000000E+00  0.00000000000E+00  0.99999998245E-14  0.12500000000E+03  0.12500000000E+03 0.  0.
        -11    1    3    3    0    0  0.42518229395E+02  0.21410291044E+01 -0.36059456732E+02  0.55791291942E+02  0.51100000000E-03 0.  1.
         23    2    1    0    0    0  0.23771139237E+02  0.16930157265E+02 -0.43379689715E+01  0.95495504403E+02  0.90823323550E+02 0.  0.
         11    1    3    3    0    0 -0.18747090158E+02  0.14789128161E+02  0.31721487760E+02  0.39704212461E+02  0.51100000000E-03 0. -1.
         22    1    1    0    0    0 -0.23771139237E+02 -0.16930157265E+02  0.43379689715E+01  0.29504495597E+02  0.00000000000E+00 0.  1.
</event>
<event>
 5    1  0.6622940E-004  0.9118800E+02  0.7818608E-02  0.1130116E+00
         25   -1    0    0    0    0  0.00000000000E+00  0.00000000000E+00  0.99999998245E-14  0.12500000000E+03  0.12500000000E+03 0.  0.
        -11    1    3    3    0    0 -0.12105042780E+02 -0.12667618642E+02  0.27251231732E+02  0.32397997684E+02  0.51100000000E-03 0. -1.
         23    2    1    0    0    0  0.42918768531E+00  0.10677089039E+02 -0.28737525996E+02  0.94340094051E+02  0.89218963862E+02 0.  0.
         11    1    3    3    0    0  0.12534230465E+02  0.23344707681E+02 -0.55988757728E+02  0.61942096367E+02  0.51100000000E-03 0.  1.
         22    1    1    0    0    0 -0.42918768531E+00 -0.10677089039E+02  0.28737525996E+02  0.30659905949E+02  0.00000000000E+00 0.  1.
</event>
<event>
 5    1  0.6622940E-004  0.9118800E+02  0.7818608E-02  0.1130116E+00
         25   -1    0    0    0    0  0.00000000000E+00  0.00000000000E+00  0.99999998245E-14  0.12500000000E+03  0.12500000000E+03 0.  0.
        -11    1    3    3    0    0 -0.87978473480E+01 -0.24848596328E+02 -0.19765429818E+02  0.32947337883E+02  0.51100000000E-03 0. -1.
         23    2    1    0    0    0  0.38290722957E+01  0.27666822739E+02  0.10853739962E+02  0.95034710976E+02  0.90186904504E+02 0.  0.
         11    1    3    3    0    0  0.12626919644E+02  0.52515419067E+02  0.30619169780E+02  0.62087373094E+02  0.51100000000E-03 0.  1.
         22    1    1    0    0    0 -0.38290722957E+01 -0.27666822739E+02 -0.10853739962E+02  0.29965289024E+02  0.00000000000E+00 0.  1.
</event>
<event>
 5    1  0.6622940E-004  0.9118800E+02  0.7818608E-02  0.1130116E+00
         25   -1    0    0    0    0  0.00000000000E+00  0.00000000000E+00  0.99999998245E-14  0.12500000000E+03  0.12500000000E+03 0.  0.
        -11    1    3    3    0    0  0.48504177558E+02 -0.17551752906E+01  0.29218583871E+02  0.56652109621E+02  0.51100000000E-03 0.  1.
         23    2    1    0    0    0  0.26054417784E+02 -0.15136607627E+02  0.13802943207E+01  0.94836200688E+02  0.89911346180E+02 0.  0.
         11    1    3    3    0    0 -0.22449759773E+02 -0.13381432337E+02 -0.27838289550E+02  0.38184091067E+02  0.51100000000E-03 0. -1.
         22    1    1    0    0    0 -0.26054417784E+02  0.15136607627E+02 -0.13802943207E+01  0.30163799312E+02  0.00000000000E+00 0.  1.
</event>
<event>
 5    1  0.6622940E-004  0.9118800E+02  0.7818608E-02  0.1130116E+00
         25   -1    0    0    0    0  0.00000000000E+00  0.00000000000E+00  0.99999998245E-14  0.12500000000E+03  0.12500000000E+03 0.  0.
        -11    1    3    3    0    0  0.35271647817E+02  0.15057013107E+02  0.14775355364E+02  0.41098831003E+02  0.51100000000E-03 0. -1.
         23    2    1    0    0    0  0.12994768254E+02 -0.26374042127E+02 -0.95887521181E+01  0.94074310562E+02  0.88845808232E+02 0.  0.
         11    1    3    3    0    0 -0.22276879563E+02 -0.41431055233E+02 -0.24364107482E+02  0.52975479559E+02  0.51100000000E-03 0.  1.
         22    1    1    0    0    0 -0.12994768254E+02  0.26374042127E+02  0.95887521181E+01  0.30925689438E+02  0.00000000000E+00 0.  1.
</event>
<event>
 5    1  0.6622940E-004  0.9118800E+02  0.7818608E-02  0.1130116E+00
         25   -1    0    0    0    0  0.00000000000E+00  0.00000000000E+00  0.99999998245E-14  0.12500000000E+03  0.12500000000E+03 0.  0.
        -11    1    3    3    0    0  0.25660628329E+01  0.28849925516E+02 -0.34337521410E+02  0.44921801584E+02  0.51100000000E-03 0. -1.
         23    2    1    0    0    0 -0.12598369560E+02 -0.17108337072E+02 -0.21011845761E+02  0.95118370607E+02  0.90302783189E+02 0.  0.
         11    1    3    3    0    0 -0.15164432393E+02 -0.45958262588E+02  0.13325675649E+02  0.50196569023E+02  0.51100000000E-03 0.  1.
         22    1    1    0    0    0  0.12598369560E+02  0.17108337072E+02  0.21011845761E+02  0.29881629393E+02  0.00000000000E+00 0.  1.
</event>
<event>
 5    1  0.6622940E-004  0.9118800E+02  0.7818608E-02  0.1130116E+00
         25   -1    0    0    0    0  0.00000000000E+00  0.00000000000E+00  0.99999998245E-14  0.12500000000E+03  0.12500000000E+03 0.  0.
        -11    1    3    3    0    0 -0.28249493330E+02  0.52147014430E+02  0.44379876746E+01  0.59473025164E+02  0.51100000000E-03 0.  1.
         23    2    1    0    0    0 -0.17275632423E+02  0.21732268667E+02 -0.10791677784E+02  0.95214109273E+02  0.90435210611E+02 0.  0.
         11    1    3    3    0    0  0.10973860907E+02 -0.30414745763E+02 -0.15229665458E+02  0.35741084109E+02  0.51100000000E-03 0. -1.
         22    1    1    0    0    0  0.17275632423E+02 -0.21732268667E+02  0.10791677784E+02  0.29785890727E+02  0.00000000000E+00 0.  1.
</event>
<event>
 5    1  0.6622940E-004  0.9118800E+02  0.7818608E-02  0.1130116E+00
         25   -1    0    0    0    0  0.00000000000E+00  0.00000000000E+00  0.99999998245E-14  0.12500000000E+03  0.12500000000E+03 0.  0.
        -11    1    3    3    0    0  0.10277998596E+02 -0.49857051114E+02  0.16581421670E+02  0.53537896351E+02  0.51100000000E-03 0.  1.
         23    2    1    0    0    0  0.19088134059E+00 -0.24401282047E+02 -0.15788613751E+02  0.95935600378E+02  0.91427020592E+02 0.  0.
         11    1    3    3    0    0 -0.10087117255E+02  0.25455769066E+02 -0.32370035421E+02  0.42397704026E+02  0.51100000000E-03 0. -1.
         22    1    1    0    0    0 -0.19088134059E+00  0.24401282047E+02  0.15788613751E+02  0.29064399622E+02  0.00000000000E+00 0.  1.
</event>
<event>
 4    1  0.6622940E-004  0.9118800E+02  0.7818608E-02  0.1130116E+00
         25   -1    0    0    0    0  0.00000000000E+00  0.00000000000E+00  0.99999998245E-14  0.12500000000E+03  0.12500000000E+03 0.  0.
        -11    1    1    0    0    0 -0.39142713623E+02  0.20286235189E+02  0.36107263052E+02  0.56986119479E+02  0.51100000000E-03 0.  1.
         11    1    1    0    0    0  0.97832796424E+00 -0.88787099979E+01  0.54384878336E+01  0.10457808901E+02  0.51100000000E-03 0. -1.
         22    1    1    0    0    0  0.38164385659E+02 -0.11407525191E+02 -0.41545750885E+02  0.57556071620E+02  0.00000000000E+00 0.  1.
</event>
<event>
 5    1  0.6622940E-004  0.9118800E+02  0.7818608E-02  0.1130116E+00
         25   -1    0    0    0    0  0.00000000000E+00  0.00000000000E+00  0.99999998245E-14  0.12500000000E+03  0.12500000000E+03 0.  0.
        -11    1    3    3    0    0  0.48400080020E+01 -0.30081725381E+02 -0.16841553449E+02  0.34813414113E+02  0.51100000000E-03 0.  1.
         23    2    1    0    0    0  0.12597989522E+02  0.10630553910E+02  0.25868055251E+02  0.94326325637E+02  0.89199671576E+02 0.  0.
         11    1    3    3    0    0  0.77579815200E+01  0.40712279292E+02  0.42709608701E+02  0.59512911524E+02  0.51100000000E-03 0. -1.
         22    1    1    0    0    0 -0.12597989522E+02 -0.10630553910E+02 -0.25868055251E+02  0.30673674363E+02  0.00000000000E+00 0. -1.
</event>
<event>
 5    1  0.6622940E-004  0.9118800E+02  0.7818608E-02  0.1130116E+00
         25   -1    0    0    0    0  0.00000000000E+00  0.00000000000E+00  0.99999998245E-14  0.12500000000E+03  0.12500000000E+03 0.  0.
        -11    1    3    3    0    0  0.23835785871E+02  0.38259782131E+02  0.10994215593E+02  0.46398581805E+02  0.51100000000E-03 0.  1.
         23    2    1    0    0    0  0.21766247431E+02  0.81592465910E+01  0.33630627306E+02  0.84117706459E+02  0.73514805412E+02 0.  0.
         11    1    3    3    0    0 -0.20695384404E+01 -0.30100535540E+02  0.22636411713E+02  0.37719124654E+02  0.51100000000E-03 0. -1.
         22    1    1    0    0    0 -0.21766247431E+02 -0.81592465910E+01 -0.33630627306E+02  0.40882293541E+02  0.00000000000E+00 0. -1.
</event>
<event>
 5    1  0.6622940E-004  0.9118800E+02  0.7818608E-02  0.1130116E+00
         25   -1    0    0    0    0  0.00000000000E+00  0.00000000000E+00  0.99999998245E-14  0.12500000000E+03  0.12500000000E+03 0.  0.
        -11    1    3    3    0    0  0.74040924543E+01  0.40835444653E+02 -0.18168474736E+02  0.45303946843E+02  0.51100000000E-03 0. -1.
         23    2    1    0    0    0 -0.25095091543E+02  0.39607945616E+01 -0.16926876035E+02  0.94471805730E+02  0.89403307726E+02 0.  0.
         11    1    3    3    0    0 -0.32499183997E+02 -0.36874650092E+02  0.12415987006E+01  0.49167858886E+02  0.51100000000E-03 0.  1.
         22    1    1    0    0    0  0.25095091543E+02 -0.39607945616E+01  0.16926876035E+02  0.30528194270E+02  0.00000000000E+00 0. -1.
</event>
<event>
 5    1  0.6622940E-004  0.9118800E+02  0.7818608E-02  0.1130116E+00
         25   -1    0    0    0    0  0.00000000000E+00  0.00000000000E+00  0.99999998245E-14  0.12500000000E+03  0.12500000000E+03 0.  0.
        -11    1    3    3    0    0 -0.48277812143E+02 -0.21354575308E+02 -0.17980243471E+02  0.55767859807E+02  0.51100000000E-03 0.  1.
         23    2    1    0    0    0 -0.26922360062E+02  0.10169591367E+02 -0.75625262631E+01  0.95243893680E+02  0.90476369400E+02 0.  0.
         11    1    3    3    0    0  0.21355452081E+02  0.31524166675E+02  0.10417717208E+02  0.39476033872E+02  0.51100000000E-03 0. -1.
         22    1    1    0    0    0  0.26922360062E+02 -0.10169591367E+02  0.75625262631E+01  0.29756106320E+02  0.00000000000E+00 0.  1.
</event>
<event>
 5    1  0.6622940E-004  0.9118800E+02  0.7818608E-02  0.1130116E+00
         25   -1    0    0    0    0  0.00000000000E+00  0.00000000000E+00  0.99999998245E-14  0.12500000000E+03  0.12500000000E+03 0.  0.
        -11    1    3    3    0    0 -0.87894791336E+01 -0.23679366458E+02 -0.44780828329E+02  0.51412935390E+02  0.51100000000E-03 0. -1.
         23    2    1    0    0    0 -0.24972528633E+02  0.45205205266E+01 -0.14904210859E+02  0.95568761605E+02  0.90924091423E+02 0.  0.
         11    1    3    3    0    0 -0.16183049499E+02  0.28199886985E+02  0.29876617470E+02  0.44155826215E+02  0.51100000000E-03 0.  1.
         22    1    1    0    0    0  0.24972528633E+02 -0.45205205266E+01  0.14904210859E+02  0.29431238395E+02  0.00000000000E+00 0. -1.
</event>
<event>
 5    1  0.6622940E-004  0.9118800E+02  0.7818608E-02  0.1130116E+00
         25   -1    0    0    0    0  0.00000000000E+00  0.00000000000E+00  0.99999998245E-14  0.12500000000E+03  0.12500000000E+03 0.  0.
        -11    1    3    3    0    0 -0.32229466752E+02  0.88725348036E+01 -0.11553208554E+02  0.35368588170E+02  0.51100000000E-03 0.  1.
         23    2    1    0    0    0  0.21318915560E+02 -0.78324588906E+01  0.15357099676E+02  0.97583142350E+02  0.93652472405E+02 0.  0.
         11    1    3    3    0    0  0.53548382312E+02 -0.16704993694E+02  0.26910308230E+02  0.62214554180E+02  0.51100000000E-03 0. -1.
         22    1    1    0    0    0 -0.21318915560E+02  0.78324588906E+01 -0.15357099676E+02  0.27416857650E+02  0.00000000000E+00 0. -1.
</event>
<event>
 5    1  0.6622940E-004  0.9118800E+02  0.7818608E-02  0.1130116E+00
         25   -1    0    0    0    0  0.00000000000E+00  0.00000000000E+00  0.99999998245E-14  0.12500000000E+03  0.12500000000E+03 0.  0.
        -11    1    3    3    0    0  0.53321821964E+02 -0.53884865792E+01 -0.27048090483E+02  0.60032088788E+02  0.51100000000E-03 0. -1.
         23    2    1    0    0    0  0.31695127106E+02  0.28582896470E+00 -0.25472518257E+01  0.93201395120E+02  0.87609067910E+02 0.  0.
         11    1    3    3    0    0 -0.21626694859E+02  0.56743155439E+01  0.24500838657E+02  0.33169306332E+02  0.51100000000E-03 0.  1.
         22    1    1    0    0    0 -0.31695127106E+02 -0.28582896470E+00  0.25472518257E+01  0.31798604880E+02  0.00000000000E+00 0. -1.
</event>
<event>
 5    1  0.6622940E-004  0.9118800E+02  0.7818608E-02  0.1130116E+00
         25   -1    0    0    0    0  0.00000000000E+00  0.00000000000E+00  0.99999998245E-14  0.12500000000E+03  0.12500000000E+03 0.  0.
        -11    1    3    3    0    0  0.36025755621E+02 -0.13929149221E+02  0.21413183967E+01  0.38684124790E+02  0.51100000000E-03 0. -1.
         23    2    1    0    0    0 -0.38093520304E+01  0.26167541422E+02 -0.10409600992E+02  0.96581499340E+02  0.92305876493E+02 0.  0.
         11    1    3    3    0    0 -0.39835107651E+02  0.40096690642E+02 -0.12550919388E+02  0.57897374550E+02  0.51100000000E-03 0.  1.
         22    1    1    0    0    0  0.38093520304E+01 -0.26167541422E+02  0.10409600992E+02  0.28418500660E+02  0.00000000000E+00 0.  1.
</event>
<event>
 5    1  0.6622940E-004  0.9118800E+02  0.7818608E-02  0.1130116E+00
         25   -1    0    0    0    0  0.00000000000E+00  0.00000000000E+00  0.99999998245E-14  0.12500000000E+03  0.12500000000E+03 0.  0.
        -11    1    3    3    0    0  0.12467751675E+02  0.47582346783E+01 -0.59662939378E+02  0.61137156988E+02  0.51100000000E-03 0. -1.
         23    2    1    0    0    0  0.11732337971E+02  0.88636755431E+01 -0.25417016698E+02  0.95636123617E+02  0.91016651797E+02 0.  0.
         11    1    3    3    0    0 -0.73541370361E+00  0.41054408648E+01  0.34245922680E+02  0.34498966629E+02  0.51100000000E-03 0.  1.
         22    1    1    0    0    0 -0.11732337971E+02 -0.88636755431E+01  0.25417016698E+02  0.29363876383E+02  0.00000000000E+00 0. -1.
</event>
<event>
 5    1  0.6622940E-004  0.9118800E+02  0.7818608E-02  0.1130116E+00
         25   -1    0    0    0    0  0.00000000000E+00  0.00000000000E+00  0.99999998245E-14  0.12500000000E+03  0.12500000000E+03 0.  0.
        -11    1    3    3    0    0 -0.28741355923E+02  0.29223951760E+02 -0.37975866135E+02  0.55877287924E+02  0.51100000000E-03 0. -1.
         23    2    1    0    0    0  0.42617499866E+01  0.23100526574E+02 -0.20995929364E+02  0.93494034044E+02  0.88025612812E+02 0.  0.
         11    1    3    3    0    0  0.33003105910E+02 -0.61234251854E+01  0.16979936770E+02  0.37616746120E+02  0.51100000000E-03 0.  1.
         22    1    1    0    0    0 -0.42617499866E+01 -0.23100526574E+02  0.20995929364E+02  0.31505965956E+02  0.00000000000E+00 0. -1.
</event>
<event>
 5    1  0.6622940E-004  0.9118800E+02  0.7818608E-02  0.1130116E+00
         25   -1    0    0    0    0  0.00000000000E+00  0.00000000000E+00  0.99999998245E-14  0.12500000000E+03  0.12500000000E+03 0.  0.
        -11    1    3    3    0    0 -0.25315327791E+02 -0.36419383792E+01 -0.56222450875E+02  0.61766443308E+02  0.51100000000E-03 0. -1.
         23    2    1    0    0    0 -0.74460857607E+01 -0.66380973595E+01 -0.27713751519E+02  0.95545619121E+02  0.90892270190E+02 0.  0.
         11    1    3    3    0    0  0.17869242030E+02 -0.29961589803E+01  0.28508699356E+02  0.33779175813E+02  0.51100000000E-03 0.  1.
         22    1    1    0    0    0  0.74460857607E+01  0.66380973595E+01  0.27713751519E+02  0.29454380879E+02  0.00000000000E+00 0. -1.
</event>
<event>
 5    1  0.6622940E-004  0.9118800E+02  0.7818608E-02  0.1130116E+00
         25   -1    0    0    0    0  0.00000000000E+00  0.00000000000E+00  0.99999998245E-14  0.12500000000E+03  0.12500000000E+03 0.  0.
        -11    1    3    3    0    0  0.51190503946E+01 -0.63417672166E+00  0.42989772632E+02  0.43298122457E+02  0.51100000000E-03 0.  1.
         23    2    1    0    0    0  0.15801119347E+02  0.25336976073E+02 -0.58036319904E+00  0.95134057012E+02  0.90324494203E+02 0.  0.
         11    1    3    3    0    0  0.10682068952E+02  0.25971152794E+02 -0.43570135831E+02  0.51835934555E+02  0.51100000000E-03 0. -1.
         22    1    1    0    0    0 -0.15801119347E+02 -0.25336976073E+02  0.58036319904E+00  0.29865942988E+02  0.00000000000E+00 0. -1.
</event>
<event>
 5    1  0.6622940E-004  0.9118800E+02  0.7818608E-02  0.1130116E+00
         25   -1    0    0    0    0  0.00000000000E+00  0.00000000000E+00  0.99999998245E-14  0.12500000000E+03  0.12500000000E+03 0.  0.
        -11    1    3    3    0    0 -0.39203598848E+02  0.11500075819E+02  0.38759175734E+02  0.56315607165E+02  0.51100000000E-03 0. -1.
         23    2    1    0    0    0 -0.14099071803E+02  0.23237940377E+02  0.10596903759E+02  0.95826723393E+02  0.91278041436E+02 0.  0.
         11    1    3    3    0    0  0.25104527045E+02  0.11737864559E+02 -0.28162271975E+02  0.39511116228E+02  0.51100000000E-03 0.  1.
         22    1    1    0    0    0  0.14099071803E+02 -0.23237940377E+02 -0.10596903759E+02  0.29173276607E+02  0.00000000000E+00 0. -1.
</event>
<event>
 5    1  0.6622940E-004  0.9118800E+02  0.7818608E-02  0.1130116E+00
         25   -1    0    0    0    0  0.00000000000E+00  0.00000000000E+00  0.99999998245E-14  0.12500000000E+03  0.12500000000E+03 0.  0.
        -11    1    3    3    0    0 -0.30234709749E+02 -0.21912917856E+02 -0.21826071334E+02  0.43251485901E+02  0.51100000000E-03 0.  1.
         23    2    1    0    0    0 -0.16320052318E+02  0.88394468945E+01  0.20472220604E+02  0.97366836129E+02  0.93363317380E+02 0.  0.
         11    1    3    3    0    0  0.13914657431E+02  0.30752364750E+02  0.42298291938E+02  0.54115350228E+02  0.51100000000E-03 0. -1.
         22    1    1    0    0    0  0.16320052318E+02 -0.88394468945E+01 -0.20472220604E+02  0.27633163871E+02  0.00000000000E+00 0.  1.
</event>
<event>
 5    1  0.6622940E-004  0.9118800E+02  0.7818608E-02  0.1130116E+00
         25   -1    0    0    0    0  0.00000000000E+00  0.00000000000E+00  0.99999998245E-14  0.12500000000E+03  0.12500000000E+03 0.  0.
        -11    1    3    3    0    0  0.10811842918E+02 -0.37902664324E+02  0.22716305960E+02  0.45492180283E+02  0.51100000000E-03 0.  1.
         23    2    1    0    0    0  0.54701389284E+01 -0.24747580658E+02 -0.21394922830E+02  0.91832125615E+02  0.85633120950E+02 0.  0.
         11    1    3    3    0    0 -0.53417039893E+01  0.13155083666E+02 -0.44111228790E+02  0.46339945332E+02  0.51100000000E-03 0. -1.
         22    1    1    0    0    0 -0.54701389284E+01  0.24747580658E+02  0.21394922830E+02  0.33167874385E+02  0.00000000000E+00 0.  1.
</event>
<event>
 5    1  0.6622940E-004  0.9118800E+02  0.7818608E-02  0.1130116E+00
         25   -1    0    0    0    0  0.00000000000E+00  0.00000000000E+00  0.99999998245E-14  0.12500000000E+03  0.12500000000E+03 0.  0.
        -11    1    3    3    0    0 -0.44289475607E+02  0.22975490818E+02  0.30420658330E+02  0.58436694648E+02  0.51100000000E-03 0. -1.
         23    2    1    0    0    0 -0.96452045153E+01  0.18285526230E+02  0.22809423980E+02  0.94215908947E+02  0.89044804659E+02 0.  0.
         11    1    3    3    0    0  0.34644271091E+02 -0.46899645881E+01 -0.76112343493E+01  0.35779214299E+02  0.51100000000E-03 0.  1.
         22    1    1    0    0    0  0.96452045153E+01 -0.18285526230E+02 -0.22809423980E+02  0.30784091053E+02  0.00000000000E+00 0. -1.
</event>
<event>
 5    1  0.6622940E-004  0.9118800E+02  0.7818608E-02  0.1130116E+00
         25   -1    0    0    0    0  0.00000000000E+00  0.00000000000E+00  0.99999998245E-14  0.12500000000E+03  0.12500000000E+03 0.  0.
        -11    1    3    3    0    0  0.36557613242E+02 -0.45696628702E+02  0.47911032003E+00  0.58522393216E+02  0.51100000000E-03 0.  1.
         23    2    1    0    0    0  0.85650132696E+01 -0.22172320060E+02 -0.13495829275E+02  0.97666711926E+02  0.93763948197E+02 0.  0.
         11    1    3    3    0    0 -0.27992599973E+02  0.23524308642E+02 -0.13974939595E+02  0.39144318710E+02  0.51100000000E-03 0. -1.
         22    1    1    0    0    0 -0.85650132696E+01  0.22172320060E+02  0.13495829275E+02  0.27333288074E+02  0.00000000000E+00 0.  1.
</event>
<event>
 5    1  0.6622940E-004  0.9118800E+02  0.7818608E-02  0.1130116E+00
         25   -1    0    0    0    0  0.00000000000E+00  0.00000000000E+00  0.99999998245E-14  0.12500000000E+03  0.12500000000E+03 0.  0.
        -11    1    3    3    0    0 -0.17057978937E+01  0.45831281553E+02 -0.16921165198E+02  0.48884986930E+02  0.51100000000E-03 0.  1.
         23    2    1    0    0    0 -0.18622473178E+02  0.15682226627E+02  0.15384167722E+02  0.96200670915E+02  0.91788712426E+02 0.  0.
         11    1    3    3    0    0 -0.16916675284E+02 -0.30149054926E+02  0.32305332920E+02  0.47315683985E+02  0.51100000000E-03 0. -1.
         22    1    1    0    0    0  0.18622473178E+02 -0.15682226627E+02 -0.15384167722E+02  0.28799329085E+02  0.00000000000E+00 0.  1.
</event>
<event>
 5    1  0.6622940E-004  0.9118800E+02  0.7818608E-02  0.1130116E+00
         25   -1    0    0    0    0  0.00000000000E+00  0.00000000000E+00  0.99999998245E-14  0.12500000000E+03  0.12500000000E+03 0.  0.
        -11    1    3    3    0    0  0.34557113104E+02  0.27216740395E+02 -0.59037537133E+01  0.44382421430E+02  0.51100000000E-03 0.  1.
         23    2    1    0    0    0  0.56598117346E+01 -0.13249377226E+02 -0.23757337552E+02  0.97215282019E+02  0.93160187337E+02 0.  0.
         11    1    3    3    0    0 -0.28897301370E+02 -0.40466117621E+02 -0.17853583839E+02  0.52832860588E+02  0.51100000000E-03 0. -1.
         22    1    1    0    0    0 -0.56598117346E+01  0.13249377226E+02  0.23757337552E+02  0.27784717981E+02  0.00000000000E+00 0. -1.
</event>
<event>
 5    1  0.6622940E-004  0.9118800E+02  0.7818608E-02  0.1130116E+00
         25   -1    0    0    0    0  0.00000000000E+00  0.00000000000E+00  0.99999998245E-14  0.12500000000E+03  0.12500000000E+03 0.  0.
        -11    1    3    3    0    0  0.37943334343E+02 -0.20441712894E+02  0.39556895765E+02  0.58500497860E+02  0.51100000000E-03 0.  1.
         23    2    1    0    0    0  0.20090151017E+02  0.60489207661E+01  0.20328175884E+02  0.95786332906E+02  0.91222712229E+02 0.  0.
         11    1    3    3    0    0 -0.17853183326E+02  0.26490633660E+02 -0.19228719881E+02  0.37285835046E+02  0.51100000000E-03 0. -1.
         22    1    1    0    0    0 -0.20090151017E+02 -0.60489207661E+01 -0.20328175884E+02  0.29213667094E+02  0.00000000000E+00 0.  1.
</event>
<event>
 5    1  0.6622940E-004  0.9118800E+02  0.7818608E-02  0.1130116E+00
         25   -1    0    0    0    0  0.00000000000E+00  0.00000000000E+00  0.99999998245E-14  0.12500000000E+03  0.12500000000E+03 0.  0.
        -11    1    3    3    0    0  0.86048459931E+01  0.44777485876E+02 -0.12553069954E+02  0.47293193818E+02  0.51100000000E-03 0. -1.
         23    2    1    0    0    0 -0.25876971320E+02  0.14156415258E+02  0.13918248970E+01  0.95471049558E+02  0.90789660146E+02 0.  0.
         11    1    3    3    0    0 -0.34481817313E+02 -0.30621070618E+02  0.13944894851E+02  0.48177855740E+02  0.51100000000E-03 0.  1.
         22    1    1    0    0    0  0.25876971320E+02 -0.14156415258E+02 -0.13918248970E+01  0.29528950442E+02  0.00000000000E+00 0. -1.
</event>
<event>
 5    1  0.6622940E-004  0.9118800E+02  0.7818608E-02  0.1130116E+00
         25   -1    0    0    0    0  0.00000000000E+00  0.00000000000E+00  0.99999998245E-14  0.12500000000E+03  0.12500000000E+03 0.  0.
        -11    1    3    3    0    0  0.28794154564E+02  0.12274642707E+02  0.19695157976E+02  0.36982015069E+02  0.51100000000E-03 0.  1.
         23    2    1    0    0    0  0.49024870544E+01 -0.11329741073E+02 -0.27470306230E+02  0.94883308009E+02  0.89976813692E+02 0.  0.
         11    1    3    3    0    0 -0.23891667509E+02 -0.23604383780E+02 -0.47165464207E+02  0.57901292940E+02  0.51100000000E-03 0. -1.
         22    1    1    0    0    0 -0.49024870544E+01  0.11329741073E+02  0.27470306230E+02  0.30116691991E+02  0.00000000000E+00 0. -1.
</event>
<event>
 5    1  0.6622940E-004  0.9118800E+02  0.7818608E-02  0.1130116E+00
         25   -1    0    0    0    0  0.00000000000E+00  0.00000000000E+00  0.99999998245E-14  0.12500000000E+03  0.12500000000E+03 0.  0.
        -11    1    3    3    0    0  0.11972159625E+02 -0.21185034371E+02  0.21393341446E+02  0.32400823228E+02  0.51100000000E-03 0. -1.
         23    2    1    0    0    0 -0.10235729589E+02  0.22578041657E+02 -0.17194945564E+02  0.94830408053E+02  0.89903292561E+02 0.  0.
         11    1    3    3    0    0 -0.22207889214E+02  0.43763076028E+02 -0.38588287010E+02  0.62429584825E+02  0.51100000000E-03 0.  1.
         22    1    1    0    0    0  0.10235729589E+02 -0.22578041657E+02  0.17194945564E+02  0.30169591947E+02  0.00000000000E+00 0.  1.
</event>
<event>
 5    1  0.6622940E-004  0.9118800E+02  0.7818608E-02  0.1130116E+00
         25   -1    0    0    0    0  0.00000000000E+00  0.00000000000E+00  0.99999998245E-14  0.12500000000E+03  0.12500000000E+03 0.  0.
        -11    1    3    3    0    0 -0.48311052801E+02 -0.14259367744E+00 -0.18277387771E+02  0.51653083739E+02  0.51100000000E-03 0.  1.
         23    2    1    0    0    0 -0.60862760246E+01  0.92539264926E+01 -0.27031208891E+02  0.95787602538E+02  0.91224451955E+02 0.  0.
         11    1    3    3    0    0  0.42224776777E+02  0.93965201701E+01 -0.87538211194E+01  0.44134518799E+02  0.51100000000E-03 0. -1.
         22    1    1    0    0    0  0.60862760246E+01 -0.92539264926E+01  0.27031208891E+02  0.29212397462E+02  0.00000000000E+00 0.  1.
</event>
<event>
 5    1  0.6622940E-004  0.9118800E+02  0.7818608E-02  0.1130116E+00
         25   -1    0    0    0    0  0.00000000000E+00  0.00000000000E+00  0.99999998245E-14  0.12500000000E+03  0.12500000000E+03 0.  0.
        -11    1    3    3    0    0 -0.46956906447E+01 -0.51455569848E+02  0.27566878647E+02  0.58563281821E+02  0.51100000000E-03 0.  1.
         23    2    1    0    0    0 -0.17027109241E+02 -0.19535789179E+02  0.15248740596E+02  0.94931850777E+02  0.90044226323E+02 0.  0.
         11    1    3    3    0    0 -0.12331418597E+02  0.31919780669E+02 -0.12318138051E+02  0.36368568956E+02  0.51100000000E-03 0. -1.
         22    1    1    0    0    0  0.17027109241E+02  0.19535789179E+02 -0.15248740596E+02  0.30068149223E+02  0.00000000000E+00 0.  1.
</event>
<event>
 5    1  0.6622940E-004  0.9118800E+02  0.7818608E-02  0.1130116E+00
         25   -1    0    0    0    0  0.00000000000E+00  0.00000000000E+00  0.99999998245E-14  0.12500000000E+03  0.12500000000E+03 0.  0.
        -11    1    3    3    0    0  0.15953115610E+02 -0.30602879879E+02 -0.10817489783E+02  0.36167060152E+02  0.51100000000E-03 0. -1.
         23    2    1    0    0    0 -0.20561030455E+02  0.57242811778E+00  0.22429569372E+02  0.94566971404E+02  0.89536265563E+02 0.  0.
         11    1    3    3    0    0 -0.36514146065E+02  0.31175307997E+02  0.33247059155E+02  0.58399911252E+02  0.51100000000E-03 0.  1.
         22    1    1    0    0    0  0.20561030455E+02 -0.57242811778E+00 -0.22429569372E+02  0.30433028596E+02  0.00000000000E+00 0.  1.
</event>
<event>
 5    1  0.6622940E-004  0.9118800E+02  0.7818608E-02  0.1130116E+00
         25   -1    0    0    0    0  0.00000000000E+00  0.00000000000E+00  0.99999998245E-14  0.12500000000E+03  0.12500000000E+03 0.  0.
        -11    1    3    3    0    0  0.18749414331E+02 -0.43407487024E+02  0.37213311145E+02  0.60171263857E+02  0.51100000000E-03 0.  1.
         23    2    1    0    0    0  0.11792671559E+01 -0.23570014306E+02  0.28347656605E+02  0.88114692892E+02  0.80022954351E+02 0.  0.
         11    1    3    3    0    0 -0.17570147175E+02  0.19837472718E+02 -0.88656545397E+01  0.27943429035E+02  0.51100000000E-03 0. -1.
         22    1    1    0    0    0 -0.11792671559E+01  0.23570014306E+02 -0.28347656605E+02  0.36885307108E+02  0.00000000000E+00 0.  1.
</event>
<event>
 5    1  0.6622940E-004  0.9118800E+02  0.7818608E-02  0.1130116E+00
         25   -1    0    0    0    0  0.00000000000E+00  0.00000000000E+00  0.99999998245E-14  0.12500000000E+03  0.12500000000E+03 0.  0.
        -11    1    3    3    0    0 -0.23880917487E+02  0.57061809723E+02  0.80288228973E+00  0.61862694486E+02  0.51100000000E-03 0.  1.
         23    2    1    0    0    0 -0.18330172961E+02  0.27471330797E+02  0.52054672267E+00  0.91970615727E+02  0.85835039068E+02 0.  0.
         11    1    3    3    0    0  0.55507445256E+01 -0.29590478925E+02 -0.28233556706E+00  0.30107921241E+02  0.51100000000E-03 0. -1.
         22    1    1    0    0    0  0.18330172961E+02 -0.27471330797E+02 -0.52054672267E+00  0.33029384273E+02  0.00000000000E+00 0.  1.
</event>
<event>
 5    1  0.6622940E-004  0.9118800E+02  0.7818608E-02  0.1130116E+00
         25   -1    0    0    0    0  0.00000000000E+00  0.00000000000E+00  0.99999998245E-14  0.12500000000E+03  0.12500000000E+03 0.  0.
        -11    1    3    3    0    0  0.53289835662E+02  0.31393176958E+01 -0.25677783294E+02  0.59236901131E+02  0.51100000000E-03 0.  1.
         23    2    1    0    0    0  0.23135495125E+02 -0.11424071452E+02 -0.17845692070E+02  0.93627571521E+02  0.88215037722E+02 0.  0.
         11    1    3    3    0    0 -0.30154340537E+02 -0.14563389148E+02  0.78320912242E+01  0.34390670390E+02  0.51100000000E-03 0. -1.
         22    1    1    0    0    0 -0.23135495125E+02  0.11424071452E+02  0.17845692070E+02  0.31372428479E+02  0.00000000000E+00 0.  1.
</event>
<event>
 5    1  0.6622940E-004  0.9118800E+02  0.7818608E-02  0.1130116E+00
         25   -1    0    0    0    0  0.00000000000E+00  0.00000000000E+00  0.99999998245E-14  0.12500000000E+03  0.12500000000E+03 0.  0.
        -11    1    3    3    0    0 -0.43018084638E+02  0.16423992892E+02  0.21389861036E+02  0.50772328131E+02  0.51100000000E-03 0.  1.
         23    2    1    0    0    0  0.57289519700E+00  0.16673268880E+02  0.25467849391E+02  0.94554352419E+02  0.89518646687E+02 0.  0.
         11    1    3    3    0    0  0.43590979835E+02  0.24927598818E+00  0.40779883549E+01  0.43782024288E+02  0.51100000000E-03 0. -1.
         22    1    1    0    0    0 -0.57289519700E+00 -0.16673268880E+02 -0.25467849391E+02  0.30445647581E+02  0.00000000000E+00 0.  1.
</event>
<event>
 5    1  0.6622940E-004  0.9118800E+02  0.7818608E-02  0.1130116E+00
         25   -1    0    0    0    0  0.00000000000E+00  0.00000000000E+00  0.99999998245E-14  0.12500000000E+03  0.12500000000E+03 0.  0.
        -11    1    3    3    0    0 -0.15551597922E+02  0.17339772615E+02 -0.47155595842E+02  0.52594392588E+02  0.51100000000E-03 0. -1.
         23    2    1    0    0    0  0.55029767014E+01 -0.12889798595E+02 -0.26980927094E+02  0.94596051453E+02  0.89576854506E+02 0.  0.
         11    1    3    3    0    0  0.21054574623E+02 -0.30229571210E+02  0.20174668747E+02  0.42001658865E+02  0.51100000000E-03 0.  1.
         22    1    1    0    0    0 -0.55029767014E+01  0.12889798595E+02  0.26980927094E+02  0.30403948547E+02  0.00000000000E+00 0. -1.
</event>
<event>
 5    1  0.6622940E-004  0.9118800E+02  0.7818608E-02  0.1130116E+00
         25   -1    0    0    0    0  0.00000000000E+00  0.00000000000E+00  0.99999998245E-14  0.12500000000E+03  0.12500000000E+03 0.  0.
        -11    1    3    3    0    0  0.31381771354E+02  0.82517164006E+01  0.23466628497E+02  0.40044837996E+02  0.51100000000E-03 0. -1.
         23    2    1    0    0    0 -0.13120794176E+02  0.27823409485E+02 -0.47048022739E+00  0.94234455850E+02  0.89070836768E+02 0.  0.
         11    1    3    3    0    0 -0.44502565529E+02  0.19571693085E+02 -0.23937108724E+02  0.54189617854E+02  0.51100000000E-03 0.  1.
         22    1    1    0    0    0  0.13120794176E+02 -0.27823409485E+02  0.47048022739E+00  0.30765544150E+02  0.00000000000E+00 0.  1.
</event>
<event>
 5    1  0.6622940E-004  0.9118800E+02  0.7818608E-02  0.1130116E+00
         25   -1    0    0    0    0  0.00000000000E+00  0.00000000000E+00  0.99999998245E-14  0.12500000000E+03  0.12500000000E+03 0.  0.
        -11    1    3    3    0    0 -0.47711332822E+01 -0.14292045049E+02  0.57654710653E+02  0.59591038968E+02  0.51100000000E-03 0. -1.
         23    2    1    0    0    0 -0.13285619888E+02  0.10520619647E+01  0.25927441365E+02  0.95847868930E+02  0.91306994434E+02 0.  0.
         11    1    3    3    0    0 -0.85144866053E+01  0.15344107014E+02 -0.31727269288E+02  0.36256829963E+02  0.51100000000E-03 0.  1.
         22    1    1    0    0    0  0.13285619888E+02 -0.10520619647E+01 -0.25927441365E+02  0.29152131070E+02  0.00000000000E+00 0. -1.
</event>
<event>
 5    1  0.6622940E-004  0.9118800E+02  0.7818608E-02  0.1130116E+00
         25   -1    0    0    0    0  0.00000000000E+00  0.00000000000E+00  0.99999998245E-14  0.12500000000E+03  0.12500000000E+03 0.  0.
        -11    1    3    3    0    0 -0.33782532763E+02  0.13666173322E+02  0.17715911499E+02  0.40520085558E+02  0.51100000000E-03 0.  1.
         23    2    1    0    0    0  0.18408869622E+02 -0.62413129738E+01  0.20884729971E+02  0.96469097205E+02  0.92153536563E+02 0.  0.
         11    1    3    3    0    0  0.52191402384E+02 -0.19907486296E+02  0.31688184712E+01  0.55949011646E+02  0.51100000000E-03 0. -1.
         22    1    1    0    0    0 -0.18408869622E+02  0.62413129738E+01 -0.20884729971E+02  0.28530902795E+02  0.00000000000E+00 0. -1.
</event>
<event>
 5    1  0.6622940E-004  0.9118800E+02  0.7818608E-02  0.1130116E+00
         25   -1    0    0    0    0  0.00000000000E+00  0.00000000000E+00  0.99999998245E-14  0.12500000000E+03  0.12500000000E+03 0.  0.
        -11    1    3    3    0    0 -0.18918450247E+01 -0.43177120800E+02  0.90292276901E+01  0.44151668045E+02  0.51100000000E-03 0. -1.
         23    2    1    0    0    0 -0.28880824198E+02  0.54535530134E+00  0.49288980668E+01  0.95696528279E+02  0.91099572281E+02 0.  0.
         11    1    3    3    0    0 -0.26988979173E+02  0.43722476102E+02 -0.41003296233E+01  0.51544860234E+02  0.51100000000E-03 0.  1.
         22    1    1    0    0    0  0.28880824198E+02 -0.54535530134E+00 -0.49288980668E+01  0.29303471721E+02  0.00000000000E+00 0.  1.
</event>
<event>
 5    1  0.6622940E-004  0.9118800E+02  0.7818608E-02  0.1130116E+00
         25   -1    0    0    0    0  0.00000000000E+00  0.00000000000E+00  0.99999998245E-14  0.12500000000E+03  0.12500000000E+03 0.  0.
        -11    1    3    3    0    0  0.17942233895E+02  0.39543415004E+02  0.31974648572E+02  0.53925722794E+02  0.51100000000E-03 0.  1.
         23    2    1    0    0    0  0.27351144196E+02  0.83761727330E+01  0.55383745769E+01  0.95863786254E+02  0.91328782777E+02 0.  0.
         11    1    3    3    0    0  0.94089103015E+01 -0.31167242271E+02 -0.26436273995E+02  0.41938063460E+02  0.51100000000E-03 0. -1.
         22    1    1    0    0    0 -0.27351144196E+02 -0.83761727330E+01 -0.55383745769E+01  0.29136213746E+02  0.00000000000E+00 0.  1.
</event>
<event>
 5    1  0.6622940E-004  0.9118800E+02  0.7818608E-02  0.1130116E+00
         25   -1    0    0    0    0  0.00000000000E+00  0.00000000000E+00  0.99999998245E-14  0.12500000000E+03  0.12500000000E+03 0.  0.
        -11    1    3    3    0    0  0.38259400725E+02 -0.13462840534E+02 -0.36283548234E+02  0.54419901614E+02  0.51100000000E-03 0.  1.
         23    2    1    0    0    0  0.19327669083E+02 -0.21115387130E+02  0.36374072185E+00  0.96372204536E+02  0.92022014398E+02 0.  0.
         11    1    3    3    0    0 -0.18931731641E+02 -0.76525465960E+01  0.36647288955E+02  0.41952302921E+02  0.51100000000E-03 0. -1.
         22    1    1    0    0    0 -0.19327669083E+02  0.21115387130E+02 -0.36374072185E+00  0.28627795464E+02  0.00000000000E+00 0.  1.
</event>
<event>
 5    1  0.6622940E-004  0.9118800E+02  0.7818608E-02  0.1130116E+00
         25   -1    0    0    0    0  0.00000000000E+00  0.00000000000E+00  0.99999998245E-14  0.12500000000E+03  0.12500000000E+03 0.  0.
        -11    1    3    3    0    0  0.54060874822E+02  0.61370668942E+01  0.28028039856E+02  0.61203045635E+02  0.51100000000E-03 0. -1.
         23    2    1    0    0    0  0.28137973377E+02  0.21221747211E+00  0.49152516144E+01  0.96435156566E+02  0.92107486891E+02 0.  0.
         11    1    3    3    0    0 -0.25922901446E+02 -0.59248494221E+01 -0.23112788241E+02  0.35232110930E+02  0.51100000000E-03 0.  1.
         22    1    1    0    0    0 -0.28137973377E+02 -0.21221747211E+00 -0.49152516144E+01  0.28564843434E+02  0.00000000000E+00 0. -1.
</event>
<event>
 5    1  0.6622940E-004  0.9118800E+02  0.7818608E-02  0.1130116E+00
         25   -1    0    0    0    0  0.00000000000E+00  0.00000000000E+00  0.99999998245E-14  0.12500000000E+03  0.12500000000E+03 0.  0.
        -11    1    3    3    0    0  0.41607250118E+02  0.36745502732E+02  0.22233421223E+02  0.59797326469E+02  0.51100000000E-03 0. -1.
         23    2    1    0    0    0  0.24054056289E+02  0.81992287628E+01  0.18604967445E+02  0.93504448093E+02  0.88040399950E+02 0.  0.
         11    1    3    3    0    0 -0.17553193828E+02 -0.28546273969E+02 -0.36284537776E+01  0.33707121624E+02  0.51100000000E-03 0.  1.
         22    1    1    0    0    0 -0.24054056289E+02 -0.81992287628E+01 -0.18604967445E+02  0.31495551907E+02  0.00000000000E+00 0. -1.
</event>
<event>
 5    1  0.6622940E-004  0.9118800E+02  0.7818608E-02  0.1130116E+00
         25   -1    0    0    0    0  0.00000000000E+00  0.00000000000E+00  0.99999998245E-14  0.12500000000E+03  0.12500000000E+03 0.  0.
        -11    1    3    3    0    0 -0.20102004635E+02 -0.25408105951E+02 -0.32687922382E+02  0.46023501695E+02  0.51100000000E-03 0. -1.
         23    2    1    0    0    0 -0.27489340897E+02  0.21093819771E+01  0.85389701264E+01  0.96137786535E+02  0.91703035031E+02 0.  0.
         11    1    3    3    0    0 -0.73873362616E+01  0.27517487928E+02  0.41226892508E+02  0.50114284840E+02  0.51100000000E-03 0.  1.
         22    1    1    0    0    0  0.27489340897E+02 -0.21093819771E+01 -0.85389701264E+01  0.28862213465E+02  0.00000000000E+00 0.  1.
</event>
<event>
 5    1  0.6622940E-004  0.9118800E+02  0.7818608E-02  0.1130116E+00
         25   -1    0    0    0    0  0.00000000000E+00  0.00000000000E+00  0.99999998245E-14  0.12500000000E+03  0.12500000000E+03 0.  0.
        -11    1    3    3    0    0 -0.77405901148E+01  0.38527099215E+02  0.41381656076E+02  0.57067465066E+02  0.51100000000E-03 0.  1.
         23    2    1    0    0    0  0.14923509896E+02  0.16725730851E+02  0.16564200496E+02  0.97128258788E+02  0.93043348483E+02 0.  0.
         11    1    3    3    0    0  0.22664100011E+02 -0.21801368364E+02 -0.24817455580E+02  0.40060793721E+02  0.51100000000E-03 0. -1.
         22    1    1    0    0    0 -0.14923509896E+02 -0.16725730851E+02 -0.16564200496E+02  0.27871741212E+02  0.00000000000E+00 0.  1.
</event>
<event>
 5    1  0.6622940E-004  0.9118800E+02  0.7818608E-02  0.1130116E+00
         25   -1    0    0    0    0  0.00000000000E+00  0.00000000000E+00  0.99999998245E-14  0.12500000000E+03  0.12500000000E+03 0.  0.
        -11    1    3    3    0    0  0.98283491198E+01 -0.17278840602E+02  0.33230685373E+01  0.20154343545E+02  0.51100000000E-03 0. -1.
         23    2    1    0    0    0 -0.31242456072E+02 -0.57780505274E+01 -0.35167763675E+02  0.77605395547E+02  0.61452004742E+02 0.  0.
         11    1    3    3    0    0 -0.41070805192E+02  0.11500790075E+02 -0.38490832213E+02  0.57451052002E+02  0.51100000000E-03 0.  1.
         22    1    1    0    0    0  0.31242456072E+02  0.57780505274E+01  0.35167763675E+02  0.47394604453E+02  0.00000000000E+00 0.  1.
</event>
<event>
 5    1  0.6622940E-004  0.9118800E+02  0.7818608E-02  0.1130116E+00
         25   -1    0    0    0    0  0.00000000000E+00  0.00000000000E+00  0.99999998245E-14  0.12500000000E+03  0.12500000000E+03 0.  0.
        -11    1    3    3    0    0  0.31458033987E+02 -0.29611376678E+02 -0.36226873030E+02  0.56381094889E+02  0.51100000000E-03 0. -1.
         23    2    1    0    0    0  0.56460944004E+01 -0.28225715913E+02 -0.70442802325E+01  0.95365707284E+02  0.90644507947E+02 0.  0.
         11    1    3    3    0    0 -0.25811939586E+02  0.13856607651E+01  0.29182592798E+02  0.38984612395E+02  0.51100000000E-03 0.  1.
         22    1    1    0    0    0 -0.56460944004E+01  0.28225715913E+02  0.70442802325E+01  0.29634292716E+02  0.00000000000E+00 0. -1.
</event>
<event>
 5    1  0.6622940E-004  0.9118800E+02  0.7818608E-02  0.1130116E+00
         25   -1    0    0    0    0  0.00000000000E+00  0.00000000000E+00  0.99999998245E-14  0.12500000000E+03  0.12500000000E+03 0.  0.
        -11    1    3    3    0    0  0.41112474455E+02  0.29195491851E+00  0.16890526658E+02  0.44447842293E+02  0.51100000000E-03 0. -1.
         23    2    1    0    0    0  0.10134079791E+02 -0.28505810553E+02 -0.82370861464E+01  0.93645089752E+02  0.88239857423E+02 0.  0.
         11    1    3    3    0    0 -0.30978394664E+02 -0.28797765471E+02 -0.25127612804E+02  0.49197247459E+02  0.51100000000E-03 0.  1.
         22    1    1    0    0    0 -0.10134079791E+02  0.28505810553E+02  0.82370861464E+01  0.31354910248E+02  0.00000000000E+00 0. -1.
</event>
<event>
 5    1  0.6622940E-004  0.9118800E+02  0.7818608E-02  0.1130116E+00
         25   -1    0    0    0    0  0.00000000000E+00  0.00000000000E+00  0.99999998245E-14  0.12500000000E+03  0.12500000000E+03 0.  0.
        -11    1    3    3    0    0 -0.41099168437E+02 -0.11419682881E+02  0.40197768396E+02  0.58612382544E+02  0.51100000000E-03 0. -1.
         23    2    1    0    0    0 -0.64067970056E+01 -0.99632135354E+01  0.26561456741E+02  0.95916952429E+02  0.91401521362E+02 0.  0.
         11    1    3    3    0    0  0.34692371431E+02  0.14564693454E+01 -0.13636311655E+02  0.37304569885E+02  0.51100000000E-03 0.  1.
         22    1    1    0    0    0  0.64067970056E+01  0.99632135354E+01 -0.26561456741E+02  0.29083047571E+02  0.00000000000E+00 0.  1.
</event>
<event>
 5    1  0.6622940E-004  0.9118800E+02  0.7818608E-02  0.1130116E+00
         25   -1    0    0    0    0  0.00000000000E+00  0.00000000000E+00  0.99999998245E-14  0.12500000000E+03  0.12500000000E+03 0.  0.
        -11    1    3    3    0    0  0.34466940520E+02  0.32132963605E+01 -0.41186591655E+02  0.53801771297E+02  0.51100000000E-03 0. -1.
         23    2    1    0    0    0  0.66254596660E+01 -0.20223901302E+02 -0.19308034162E+02  0.96264950272E+02  0.91876207845E+02 0.  0.
         11    1    3    3    0    0 -0.27841480854E+02 -0.23437197663E+02  0.21878557493E+02  0.42463178975E+02  0.51100000000E-03 0.  1.
         22    1    1    0    0    0 -0.66254596660E+01  0.20223901302E+02  0.19308034162E+02  0.28735049728E+02  0.00000000000E+00 0. -1.
</event>
<event>
 5    1  0.6622940E-004  0.9118800E+02  0.7818608E-02  0.1130116E+00
         25   -1    0    0    0    0  0.00000000000E+00  0.00000000000E+00  0.99999998245E-14  0.12500000000E+03  0.12500000000E+03 0.  0.
        -11    1    3    3    0    0  0.36306634808E+02 -0.53840966000E+01  0.16277669433E+01  0.36739758474E+02  0.51100000000E-03 0. -1.
         23    2    1    0    0    0 -0.10776226573E+02  0.27720087908E+02  0.66832872806E+01  0.94517272733E+02  0.89466855222E+02 0.  0.
         11    1    3    3    0    0 -0.47082861381E+02  0.33104184508E+02  0.50555203373E+01  0.57777514258E+02  0.51100000000E-03 0.  1.
         22    1    1    0    0    0  0.10776226573E+02 -0.27720087908E+02 -0.66832872806E+01  0.30482727267E+02  0.00000000000E+00 0.  1.
</event>
<event>
 5    1  0.6622940E-004  0.9118800E+02  0.7818608E-02  0.1130116E+00
         25   -1    0    0    0    0  0.00000000000E+00  0.00000000000E+00  0.99999998245E-14  0.12500000000E+03  0.12500000000E+03 0.  0.
        -11    1    3    3    0    0 -0.24830108197E+02 -0.66318555809E+01 -0.50535032108E+02  0.56694843257E+02  0.51100000000E-03 0. -1.
         23    2    1    0    0    0 -0.25868737670E+02  0.26523602552E+01 -0.11974194014E+02  0.96371204603E+02  0.92020656109E+02 0.  0.
         11    1    3    3    0    0 -0.10386294732E+01  0.92842158361E+01  0.38560838094E+02  0.39676361346E+02  0.51100000000E-03 0.  1.
         22    1    1    0    0    0  0.25868737670E+02 -0.26523602552E+01  0.11974194014E+02  0.28628795397E+02  0.00000000000E+00 0. -1.
</event>
<event>
 5    1  0.6622940E-004  0.9118800E+02  0.7818608E-02  0.1130116E+00
         25   -1    0    0    0    0  0.00000000000E+00  0.00000000000E+00  0.99999998245E-14  0.12500000000E+03  0.12500000000E+03 0.  0.
        -11    1    3    3    0    0 -0.11095978021E+02 -0.42890510896E+02 -0.15232582361E+02  0.46848139972E+02  0.51100000000E-03 0.  1.
         23    2    1    0    0    0 -0.15248156573E+02  0.51911472054E+01 -0.24194765052E+02  0.95933852266E+02  0.91424630524E+02 0.  0.
         11    1    3    3    0    0 -0.41521785520E+01  0.48081658102E+02 -0.89621826914E+01  0.49085712294E+02  0.51100000000E-03 0. -1.
         22    1    1    0    0    0  0.15248156573E+02 -0.51911472054E+01  0.24194765052E+02  0.29066147734E+02  0.00000000000E+00 0.  1.
</event>
<event>
 4    1  0.6622940E-004  0.9118800E+02  0.7818608E-02  0.1130116E+00
         25   -1    0    0    0    0  0.00000000000E+00  0.00000000000E+00  0.99999998245E-14  0.12500000000E+03  0.12500000000E+03 0.  0.
        -11    1    1    0    0    0  0.37913207435E+02  0.63683303781E+01  0.24222564651E+02  0.45438965309E+02  0.51100000000E-03 0.  1.
         11    1    1    0    0    0  0.16431902023E+02 -0.61778619555E+01 -0.17523663795E+02  0.24804277363E+02  0.51100000000E-03 0. -1.
         22    1    1    0    0    0 -0.54345109459E+02 -0.19046842256E+00 -0.66989008561E+01  0.54756757327E+02  0.00000000000E+00 0.  1.
</event>
<event>
 5    1  0.6622940E-004  0.9118800E+02  0.7818608E-02  0.1130116E+00
         25   -1    0    0    0    0  0.00000000000E+00  0.00000000000E+00  0.99999998245E-14  0.12500000000E+03  0.12500000000E+03 0.  0.
        -11    1    3    3    0    0 -0.42164341436E+02 -0.26741474236E+02  0.11811717274E+02  0.51307453632E+02  0.51100000000E-03 0.  1.
         23    2    1    0    0    0 -0.76336926495E+01 -0.45696981756E+01  0.28150857975E+02  0.95476683627E+02  0.90797416851E+02 0.  0.
         11    1    3    3    0    0  0.34530648786E+02  0.22171776060E+02  0.16339140701E+02  0.44169229995E+02  0.51100000000E-03 0. -1.
         22    1    1    0    0    0  0.76336926495E+01  0.45696981756E+01 -0.28150857975E+02  0.29523316373E+02  0.00000000000E+00 0.  1.
</event>
<event>
 5    1  0.6622940E-004  0.9118800E+02  0.7818608E-02  0.1130116E+00
         25   -1    0    0    0    0  0.00000000000E+00  0.00000000000E+00  0.99999998245E-14  0.12500000000E+03  0.12500000000E+03 0.  0.
        -11    1    3    3    0    0  0.38120574952E+02  0.23011309542E+02  0.54221136185E+01  0.44856414456E+02  0.51100000000E-03 0.  1.
         23    2    1    0    0    0  0.16134084993E+02 -0.22022551732E+02 -0.76510269208E+01  0.96647933122E+02  0.92395796876E+02 0.  0.
         11    1    3    3    0    0 -0.21986489959E+02 -0.45033861273E+02 -0.13073140539E+02  0.51791518666E+02  0.51100000000E-03 0. -1.
         22    1    1    0    0    0 -0.16134084993E+02  0.22022551732E+02  0.76510269208E+01  0.28352066878E+02  0.00000000000E+00 0. -1.
</event>
<event>
 5    1  0.6622940E-004  0.9118800E+02  0.7818608E-02  0.1130116E+00
         25   -1    0    0    0    0  0.00000000000E+00  0.00000000000E+00  0.99999998245E-14  0.12500000000E+03  0.12500000000E+03 0.  0.
        -11    1    3    3    0    0  0.31702777978E+02  0.13053220680E+02 -0.46412493086E+02  0.57702445497E+02  0.51100000000E-03 0. -1.
         23    2    1    0    0    0  0.30445391737E+01  0.18798393054E+02 -0.22915254498E+02  0.95204737140E+02  0.90422255474E+02 0.  0.
         11    1    3    3    0    0 -0.28658238804E+02  0.57451723740E+01  0.23497238587E+02  0.37502291643E+02  0.51100000000E-03 0.  1.
         22    1    1    0    0    0 -0.30445391737E+01 -0.18798393054E+02  0.22915254498E+02  0.29795262860E+02  0.00000000000E+00 0. -1.
</event>
<event>
 5    1  0.6622940E-004  0.9118800E+02  0.7818608E-02  0.1130116E+00
         25   -1    0    0    0    0  0.00000000000E+00  0.00000000000E+00  0.99999998245E-14  0.12500000000E+03  0.12500000000E+03 0.  0.
        -11    1    3    3    0    0  0.54675432903E+02 -0.11374233284E+02  0.22290737655E+02  0.60130301274E+02  0.51100000000E-03 0.  1.
         23    2    1    0    0    0  0.21906665916E+02  0.35713176949E+01  0.18042303219E+02  0.96396136151E+02  0.92054516662E+02 0.  0.
         11    1    3    3    0    0 -0.32768766987E+02  0.14945550979E+02 -0.42484344360E+01  0.36265834877E+02  0.51100000000E-03 0. -1.
         22    1    1    0    0    0 -0.21906665916E+02 -0.35713176949E+01 -0.18042303219E+02  0.28603863849E+02  0.00000000000E+00 0.  1.
</event>
<event>
 5    1  0.6622940E-004  0.9118800E+02  0.7818608E-02  0.1130116E+00
         25   -1    0    0    0    0  0.00000000000E+00  0.00000000000E+00  0.99999998245E-14  0.12500000000E+03  0.12500000000E+03 0.  0.
        -11    1    3    3    0    0  0.31957906472E+02 -0.47078481879E+01 -0.16518114015E+02  0.36281120594E+02  0.51100000000E-03 0.  1.
         23    2    1    0    0    0 -0.62802282311E+01 -0.85430786718E+00  0.28690565613E+02  0.95617698120E+02  0.90991343160E+02 0.  0.
         11    1    3    3    0    0 -0.38238134704E+02  0.38535403207E+01  0.45208679628E+02  0.59336577527E+02  0.51100000000E-03 0. -1.
         22    1    1    0    0    0  0.62802282311E+01  0.85430786718E+00 -0.28690565613E+02  0.29382301880E+02  0.00000000000E+00 0. -1.
</event>
<event>
 5    1  0.6622940E-004  0.9118800E+02  0.7818608E-02  0.1130116E+00
         25   -1    0    0    0    0  0.00000000000E+00  0.00000000000E+00  0.99999998245E-14  0.12500000000E+03  0.12500000000E+03 0.  0.
        -11    1    3    3    0    0  0.14046881101E+02  0.57779376303E+02  0.21415195934E+01  0.59500901683E+02  0.51100000000E-03 0. -1.
         23    2    1    0    0    0  0.14819829509E+02  0.34306810659E+02  0.13076768946E+02  0.85407241946E+02  0.75675692838E+02 0.  0.
         11    1    3    3    0    0  0.77294840814E+00 -0.23472565644E+02  0.10935249352E+02  0.25906340263E+02  0.51100000000E-03 0.  1.
         22    1    1    0    0    0 -0.14819829509E+02 -0.34306810659E+02 -0.13076768946E+02  0.39592758054E+02  0.00000000000E+00 0. -1.
</event>
<event>
 5    1  0.6622940E-004  0.9118800E+02  0.7818608E-02  0.1130116E+00
         25   -1    0    0    0    0  0.00000000000E+00  0.00000000000E+00  0.99999998245E-14  0.12500000000E+03  0.12500000000E+03 0.  0.
        -11    1    3    3    0    0 -0.18849231447E+02  0.51809147857E+01  0.35624735986E+02  0.40635664366E+02  0.51100000000E-03 0. -1.
         23    2    1    0    0    0 -0.22114958046E+02 -0.48448509486E+01 -0.18490846215E+02  0.95768931873E+02  0.91198864951E+02 0.  0.
         11    1    3    3    0    0 -0.32657265991E+01 -0.10025765734E+02 -0.54115582201E+02  0.55133267507E+02  0.51100000000E-03 0.  1.
         22    1    1    0    0    0  0.22114958046E+02  0.48448509486E+01  0.18490846215E+02  0.29231068127E+02  0.00000000000E+00 0.  1.
</event>
<event>
 5    1  0.6622940E-004  0.9118800E+02  0.7818608E-02  0.1130116E+00
         25   -1    0    0    0    0  0.00000000000E+00  0.00000000000E+00  0.99999998245E-14  0.12500000000E+03  0.12500000000E+03 0.  0.
        -11    1    3    3    0    0  0.33634614978E+02  0.22534387204E+02  0.18468472350E+01  0.40527728487E+02  0.51100000000E-03 0.  1.
         23    2    1    0    0    0  0.90116227787E+01 -0.26543972847E+02  0.81757912189E+01  0.95800078739E+02  0.91241545826E+02 0.  0.
         11    1    3    3    0    0 -0.24622992199E+02 -0.49078360051E+02  0.63289439839E+01  0.55272350252E+02  0.51100000000E-03 0. -1.
         22    1    1    0    0    0 -0.90116227787E+01  0.26543972847E+02 -0.81757912189E+01  0.29199921261E+02  0.00000000000E+00 0. -1.
</event>
<event>
 5    1  0.6622940E-004  0.9118800E+02  0.7818608E-02  0.1130116E+00
         25   -1    0    0    0    0  0.00000000000E+00  0.00000000000E+00  0.99999998245E-14  0.12500000000E+03  0.12500000000E+03 0.  0.
        -11    1    3    3    0    0  0.43136124377E+02 -0.78357512933E+01  0.11925913348E+02  0.45435136557E+02  0.51100000000E-03 0. -1.
         23    2    1    0    0    0  0.12900118280E+02  0.23292222868E+02 -0.12882417399E+02  0.95421335801E+02  0.90721187989E+02 0.  0.
         11    1    3    3    0    0 -0.30236006097E+02  0.31127974162E+02 -0.24808330746E+02  0.49986199243E+02  0.51100000000E-03 0.  1.
         22    1    1    0    0    0 -0.12900118280E+02 -0.23292222868E+02  0.12882417399E+02  0.29578664199E+02  0.00000000000E+00 0. -1.
</event>
<event>
 5    1  0.6622940E-004  0.9118800E+02  0.7818608E-02  0.1130116E+00
         25   -1    0    0    0    0  0.00000000000E+00  0.00000000000E+00  0.99999998245E-14  0.12500000000E+03  0.12500000000E+03 0.  0.
        -11    1    3    3    0    0  0.22268209063E+02  0.19798401089E+01  0.35789449308E+02  0.42198075593E+02  0.51100000000E-03 0.  1.
         23    2    1    0    0    0 -0.18581590861E+02  0.21616764671E+02  0.78836327665E+01  0.95424474656E+02  0.90725512751E+02 0.  0.
         11    1    3    3    0    0 -0.40849799924E+02  0.19636924563E+02 -0.27905816542E+02  0.53226399063E+02  0.51100000000E-03 0. -1.
         22    1    1    0    0    0  0.18581590861E+02 -0.21616764671E+02 -0.78836327665E+01  0.29575525344E+02  0.00000000000E+00 0. -1.
</event>
<event>
 5    1  0.6622940E-004  0.9118800E+02  0.7818608E-02  0.1130116E+00
         25   -1    0    0    0    0  0.00000000000E+00  0.00000000000E+00  0.99999998245E-14  0.12500000000E+03  0.12500000000E+03 0.  0.
        -11    1    3    3    0    0  0.30561683550E+02  0.23736461821E+00  0.27004472730E+02  0.40783751557E+02  0.51100000000E-03 0.  1.
         23    2    1    0    0    0 -0.51348204632E+01  0.28351607514E+02 -0.41682733319E+01  0.95887210157E+02  0.91360837011E+02 0.  0.
         11    1    3    3    0    0 -0.35696504014E+02  0.28114242896E+02 -0.31172746062E+02  0.55103458600E+02  0.51100000000E-03 0. -1.
         22    1    1    0    0    0  0.51348204632E+01 -0.28351607514E+02  0.41682733319E+01  0.29112789843E+02  0.00000000000E+00 0. -1.
</event>
<event>
 5    1  0.6622940E-004  0.9118800E+02  0.7818608E-02  0.1130116E+00
         25   -1    0    0    0    0  0.00000000000E+00  0.00000000000E+00  0.99999998245E-14  0.12500000000E+03  0.12500000000E+03 0.  0.
        -11    1    3    3    0    0  0.13606457961E+02 -0.30273254417E+02 -0.10452821997E+02  0.34797515992E+02  0.51100000000E-03 0.  1.
         23    2    1    0    0    0 -0.77301364421E+01  0.25764844953E+02  0.69172126686E+01  0.97225369922E+02  0.93173722049E+02 0.  0.
         11    1    3    3    0    0 -0.21336594403E+02  0.56038099370E+02  0.17370034666E+02  0.62427853930E+02  0.51100000000E-03 0. -1.
         22    1    1    0    0    0  0.77301364421E+01 -0.25764844953E+02 -0.69172126686E+01  0.27774630078E+02  0.00000000000E+00 0. -1.
</event>
<event>
 5    1  0.6622940E-004  0.9118800E+02  0.7818608E-02  0.1130116E+00
         25   -1    0    0    0    0  0.00000000000E+00  0.00000000000E+00  0.99999998245E-14  0.12500000000E+03  0.12500000000E+03 0.  0.
        -11    1    3    3    0    0 -0.49588507229E+02 -0.13325808674E+02 -0.44413292603E+01  0.51539524948E+02  0.51100000000E-03 0. -1.
         23    2    1    0    0    0 -0.10403918541E+02 -0.27193650918E+02  0.77752236847E+01  0.94863804576E+02  0.89949714530E+02 0.  0.
         11    1    3    3    0    0  0.39184588688E+02 -0.13867842244E+02  0.12216552945E+02  0.43324279628E+02  0.51100000000E-03 0.  1.
         22    1    1    0    0    0  0.10403918541E+02  0.27193650918E+02 -0.77752236847E+01  0.30136195424E+02  0.00000000000E+00 0. -1.
</event>
<event>
 5    1  0.6622940E-004  0.9118800E+02  0.7818608E-02  0.1130116E+00
         25   -1    0    0    0    0  0.00000000000E+00  0.00000000000E+00  0.99999998245E-14  0.12500000000E+03  0.12500000000E+03 0.  0.
        -11    1    3    3    0    0 -0.13924988729E+02 -0.13123701854E+02 -0.45381052566E+02  0.49250145113E+02  0.51100000000E-03 0.  1.
         23    2    1    0    0    0  0.22496558348E+02 -0.42171082120E+01 -0.20704164926E+02  0.94136727580E+02  0.88933581369E+02 0.  0.
         11    1    3    3    0    0  0.36421547076E+02  0.89065936418E+01  0.24676887640E+02  0.44886582467E+02  0.51100000000E-03 0. -1.
         22    1    1    0    0    0 -0.22496558348E+02  0.42171082120E+01  0.20704164926E+02  0.30863272420E+02  0.00000000000E+00 0.  1.
</event>
<event>
 5    1  0.6622940E-004  0.9118800E+02  0.7818608E-02  0.1130116E+00
         25   -1    0    0    0    0  0.00000000000E+00  0.00000000000E+00  0.99999998245E-14  0.12500000000E+03  0.12500000000E+03 0.  0.
        -11    1    3    3    0    0 -0.49859625623E+01 -0.21851010115E+02 -0.56165902115E+02  0.60472597317E+02  0.51100000000E-03 0.  1.
         23    2    1    0    0    0  0.40599841473E+01 -0.18663275198E+02 -0.22458228883E+02  0.95518253835E+02  0.90854628164E+02 0.  0.
         11    1    3    3    0    0  0.90459467095E+01  0.31877349168E+01  0.33707673232E+02  0.35045656517E+02  0.51100000000E-03 0. -1.
         22    1    1    0    0    0 -0.40599841473E+01  0.18663275198E+02  0.22458228883E+02  0.29481746165E+02  0.00000000000E+00 0.  1.
</event>
<event>
 5    1  0.6622940E-004  0.9118800E+02  0.7818608E-02  0.1130116E+00
         25   -1    0    0    0    0  0.00000000000E+00  0.00000000000E+00  0.99999998245E-14  0.12500000000E+03  0.12500000000E+03 0.  0.
        -11    1    3    3    0    0  0.47972384386E+01 -0.17998589800E+02 -0.43502768378E+02  0.47322865384E+02  0.51100000000E-03 0.  1.
         23    2    1    0    0    0 -0.42807294347E+01 -0.29684939121E+02  0.17730562634E+01  0.94955633080E+02  0.90077235026E+02 0.  0.
         11    1    3    3    0    0 -0.90779678733E+01 -0.11686349321E+02  0.45275824641E+02  0.47632767696E+02  0.51100000000E-03 0. -1.
         22    1    1    0    0    0  0.42807294347E+01  0.29684939121E+02 -0.17730562634E+01  0.30044366920E+02  0.00000000000E+00 0. -1.
</event>
<event>
 5    1  0.6622940E-004  0.9118800E+02  0.7818608E-02  0.1130116E+00
         25   -1    0    0    0    0  0.00000000000E+00  0.00000000000E+00  0.99999998245E-14  0.12500000000E+03  0.12500000000E+03 0.  0.
        -11    1    3    3    0    0 -0.34298873476E+02 -0.10923689663E+02 -0.41338174271E+02  0.54814089155E+02  0.51100000000E-03 0. -1.
         23    2    1    0    0    0 -0.10565863627E+02  0.16754702914E+02 -0.18877218666E+02  0.97637490457E+02  0.93724983938E+02 0.  0.
         11    1    3    3    0    0  0.23733009849E+02  0.27678392577E+02  0.22460955604E+02  0.42823401302E+02  0.51100000000E-03 0.  1.
         22    1    1    0    0    0  0.10565863627E+02 -0.16754702914E+02  0.18877218666E+02  0.27362509543E+02  0.00000000000E+00 0. -1.
</event>
<event>
 5    1  0.6622940E-004  0.9118800E+02  0.7818608E-02  0.1130116E+00
         25   -1    0    0    0    0  0.00000000000E+00  0.00000000000E+00  0.99999998245E-14  0.12500000000E+03  0.12500000000E+03 0.  0.
        -11    1    3    3    0    0  0.80997228435E+00  0.19454918775E+01  0.33753212667E+02  0.33818934923E+02  0.51100000000E-03 0.  1.
         23    2    1    0    0    0  0.17359715923E+02  0.88693194339E+00 -0.24822258793E+02  0.94696684723E+02  0.89717173276E+02 0.  0.
         11    1    3    3    0    0  0.16549743639E+02 -0.10585599341E+01 -0.58575471460E+02  0.60877749800E+02  0.51100000000E-03 0. -1.
         22    1    1    0    0    0 -0.17359715923E+02 -0.88693194339E+00  0.24822258793E+02  0.30303315277E+02  0.00000000000E+00 0. -1.
</event>
<event>
 5    1  0.6622940E-004  0.9118800E+02  0.7818608E-02  0.1130116E+00
         25   -1    0    0    0    0  0.00000000000E+00  0.00000000000E+00  0.99999998245E-14  0.12500000000E+03  0.12500000000E+03 0.  0.
        -11    1    3    3    0    0 -0.34894260894E+02 -0.21890013016E+02 -0.42448727355E+00  0.41194202297E+02  0.51100000000E-03 0. -1.
         23    2    1    0    0    0 -0.75893388368E+01  0.17694459400E+02  0.23265433915E+02  0.94801119678E+02  0.89862561278E+02 0.  0.
         11    1    3    3    0    0  0.27304922057E+02  0.39584472415E+02  0.23689921189E+02  0.53606917381E+02  0.51100000000E-03 0.  1.
         22    1    1    0    0    0  0.75893388368E+01 -0.17694459400E+02 -0.23265433915E+02  0.30198880322E+02  0.00000000000E+00 0.  1.
</event>
<event>
 5    1  0.6622940E-004  0.9118800E+02  0.7818608E-02  0.1130116E+00
         25   -1    0    0    0    0  0.00000000000E+00  0.00000000000E+00  0.99999998245E-14  0.12500000000E+03  0.12500000000E+03 0.  0.
        -11    1    3    3    0    0  0.31412690601E+02 -0.16600137152E+02  0.10567989913E+02  0.37067561227E+02  0.51100000000E-03 0.  1.
         23    2    1    0    0    0 -0.10514216791E+01  0.25873579458E+02 -0.13616628263E+02  0.95743203067E+02  0.91163593428E+02 0.  0.
         11    1    3    3    0    0 -0.32464112280E+02  0.42473716610E+02 -0.24184618176E+02  0.58675641840E+02  0.51100000000E-03 0. -1.
         22    1    1    0    0    0  0.10514216791E+01 -0.25873579458E+02  0.13616628263E+02  0.29256796933E+02  0.00000000000E+00 0. -1.
</event>
<event>
 5    1  0.6622940E-004  0.9118800E+02  0.7818608E-02  0.1130116E+00
         25   -1    0    0    0    0  0.00000000000E+00  0.00000000000E+00  0.99999998245E-14  0.12500000000E+03  0.12500000000E+03 0.  0.
        -11    1    3    3    0    0 -0.51303933614E+02  0.10627109050E+01 -0.33965793152E+02  0.61537777531E+02  0.51100000000E-03 0.  1.
         23    2    1    0    0    0 -0.25423759177E+02  0.56473063029E+01 -0.10013289608E+02  0.97097928967E+02  0.93002592661E+02 0.  0.
         11    1    3    3    0    0  0.25880174437E+02  0.45845953979E+01  0.23952503544E+02  0.35560151436E+02  0.51100000000E-03 0. -1.
         22    1    1    0    0    0  0.25423759177E+02 -0.56473063029E+01  0.10013289608E+02  0.27902071033E+02  0.00000000000E+00 0.  1.
</event>
<event>
 5    1  0.6622940E-004  0.9118800E+02  0.7818608E-02  0.1130116E+00
         25   -1    0    0    0    0  0.00000000000E+00  0.00000000000E+00  0.99999998245E-14  0.12500000000E+03  0.12500000000E+03 0.  0.
        -11    1    3    3    0    0  0.21358327633E+02 -0.34829914958E+02 -0.73408237405E+01  0.41511309648E+02  0.51100000000E-03 0.  1.
         23    2    1    0    0    0  0.24817438723E+02  0.15953011429E+02  0.75524954833E+01  0.94546034307E+02  0.89507030879E+02 0.  0.
         11    1    3    3    0    0  0.34591110900E+01  0.50782926387E+02  0.14893319224E+02  0.53034724659E+02  0.51100000000E-03 0. -1.
         22    1    1    0    0    0 -0.24817438723E+02 -0.15953011429E+02 -0.75524954833E+01  0.30453965693E+02  0.00000000000E+00 0. -1.
</event>
<event>
 5    1  0.6622940E-004  0.9118800E+02  0.7818608E-02  0.1130116E+00
         25   -1    0    0    0    0  0.00000000000E+00  0.00000000000E+00  0.99999998245E-14  0.12500000000E+03  0.12500000000E+03 0.  0.
        -11    1    3    3    0    0 -0.15935884361E+02 -0.52452087078E+02  0.14397048772E+02  0.56678469130E+02  0.51100000000E-03 0. -1.
         23    2    1    0    0    0 -0.16325834783E+02 -0.15177817544E+02  0.20812866077E+02  0.94502878478E+02  0.89446741805E+02 0.  0.
         11    1    3    3    0    0 -0.38995042137E+00  0.37274269534E+02  0.64158173048E+01  0.37824409349E+02  0.51100000000E-03 0.  1.
         22    1    1    0    0    0  0.16325834783E+02  0.15177817544E+02 -0.20812866077E+02  0.30497121522E+02  0.00000000000E+00 0. -1.
</event>
<event>
 5    1  0.6622940E-004  0.9118800E+02  0.7818608E-02  0.1130116E+00
         25   -1    0    0    0    0  0.00000000000E+00  0.00000000000E+00  0.99999998245E-14  0.12500000000E+03  0.12500000000E+03 0.  0.
        -11    1    3    3    0    0 -0.21917579895E+02 -0.52687403723E+01  0.35189025084E+02  0.41790039724E+02  0.51100000000E-03 0. -1.
         23    2    1    0    0    0  0.48553747368E+01  0.25255721565E+02  0.33946742756E+02  0.82411181287E+02  0.70553492627E+02 0.  0.
         11    1    3    3    0    0  0.26772954631E+02  0.30524461937E+02 -0.12422823277E+01  0.40621141563E+02  0.51100000000E-03 0.  1.
         22    1    1    0    0    0 -0.48553747368E+01 -0.25255721565E+02 -0.33946742756E+02  0.42588818713E+02  0.00000000000E+00 0.  1.
</event>
<event>
 5    1  0.6622940E-004  0.9118800E+02  0.7818608E-02  0.1130116E+00
         25   -1    0    0    0    0  0.00000000000E+00  0.00000000000E+00  0.99999998245E-14  0.12500000000E+03  0.12500000000E+03 0.  0.
        -11    1    3    3    0    0 -0.42703395837E+02  0.17731590610E+02  0.45737044650E+00  0.46240658620E+02  0.51100000000E-03 0.  1.
         23    2    1    0    0    0 -0.16836934474E+02 -0.23662156404E+02 -0.55932567486E+01  0.95425272119E+02  0.90726611475E+02 0.  0.
         11    1    3    3    0    0  0.25866461363E+02 -0.41393747015E+02 -0.60506271951E+01  0.49184613499E+02  0.51100000000E-03 0. -1.
         22    1    1    0    0    0  0.16836934474E+02  0.23662156404E+02  0.55932567486E+01  0.29574727881E+02  0.00000000000E+00 0. -1.
</event>
<event>
 5    1  0.6622940E-004  0.9118800E+02  0.7818608E-02  0.1130116E+00
         25   -1    0    0    0    0  0.00000000000E+00  0.00000000000E+00  0.99999998245E-14  0.12500000000E+03  0.12500000000E+03 0.  0.
        -11    1    3    3    0    0  0.21757798461E+02  0.19171092759E+02 -0.23975633564E+02  0.37626634137E+02  0.51100000000E-03 0.  1.
         23    2    1    0    0    0 -0.51335902914E+01  0.11094049089E+02  0.26741230133E+02  0.95597192932E+02  0.90963169652E+02 0.  0.
         11    1    3    3    0    0 -0.26891388752E+02 -0.80770436702E+01  0.50716863697E+02  0.57970558795E+02  0.51100000000E-03 0. -1.
         22    1    1    0    0    0  0.51335902914E+01 -0.11094049089E+02 -0.26741230133E+02  0.29402807068E+02  0.00000000000E+00 0. -1.
</event>
<event>
 5    1  0.6622940E-004  0.9118800E+02  0.7818608E-02  0.1130116E+00
         25   -1    0    0    0    0  0.00000000000E+00  0.00000000000E+00  0.99999998245E-14  0.12500000000E+03  0.12500000000E+03 0.  0.
        -11    1    3    3    0    0 -0.21346458618E+02 -0.14183638461E+02  0.28100233275E+02  0.38032486191E+02  0.51100000000E-03 0.  1.
         23    2    1    0    0    0 -0.58304883081E+01  0.21404323971E+02 -0.16639894176E+02  0.97268686350E+02  0.93231816391E+02 0.  0.
         11    1    3    3    0    0  0.15515970309E+02  0.35587962432E+02 -0.44740127451E+02  0.59236200159E+02  0.51100000000E-03 0. -1.
         22    1    1    0    0    0  0.58304883081E+01 -0.21404323971E+02  0.16639894176E+02  0.27731313650E+02  0.00000000000E+00 0. -1.
</event>
<event>
 5    1  0.6622940E-004  0.9118800E+02  0.7818608E-02  0.1130116E+00
         25   -1    0    0    0    0  0.00000000000E+00  0.00000000000E+00  0.99999998245E-14  0.12500000000E+03  0.12500000000E+03 0.  0.
        -11    1    3    3    0    0 -0.54160737706E+02  0.20718397263E+01 -0.14929980730E+02  0.56219056854E+02  0.51100000000E-03 0. -1.
         23    2    1    0    0    0 -0.33016239732E+02 -0.15891524969E+02  0.12499593308E+01  0.88337007075E+02  0.80369470378E+02 0.  0.
         11    1    3    3    0    0  0.21144497974E+02 -0.17963364695E+02  0.16179940061E+02  0.32117950221E+02  0.51100000000E-03 0.  1.
         22    1    1    0    0    0  0.33016239732E+02  0.15891524969E+02 -0.12499593308E+01  0.36662992925E+02  0.00000000000E+00 0. -1.
</event>
<event>
 5    1  0.6622940E-004  0.9118800E+02  0.7818608E-02  0.1130116E+00
         25   -1    0    0    0    0  0.00000000000E+00  0.00000000000E+00  0.99999998245E-14  0.12500000000E+03  0.12500000000E+03 0.  0.
        -11    1    3    3    0    0 -0.97086316483E+00 -0.98075258206E+01  0.37229905481E+02  0.38512283760E+02  0.51100000000E-03 0.  1.
         23    2    1    0    0    0 -0.18766753370E+02 -0.13652919095E+02 -0.17333912824E+02  0.96033506156E+02  0.91560780572E+02 0.  0.
         11    1    3    3    0    0 -0.17795890205E+02 -0.38453932743E+01 -0.54563818305E+02  0.57521222396E+02  0.51100000000E-03 0. -1.
         22    1    1    0    0    0  0.18766753370E+02  0.13652919095E+02  0.17333912824E+02  0.28966493844E+02  0.00000000000E+00 0. -1.
</event>
<event>
 5    1  0.6622940E-004  0.9118800E+02  0.7818608E-02  0.1130116E+00
         25   -1    0    0    0    0  0.00000000000E+00  0.00000000000E+00  0.99999998245E-14  0.12500000000E+03  0.12500000000E+03 0.  0.
        -11    1    3    3    0    0 -0.46745755544E+02  0.80782237407E+01 -0.20702960551E+02  0.51759404325E+02  0.51100000000E-03 0. -1.
         23    2    1    0    0    0 -0.92120924128E+01  0.26166661883E+02 -0.13884064164E+02  0.93978651247E+02  0.88711120001E+02 0.  0.
         11    1    3    3    0    0  0.37533663131E+02  0.18088438143E+02  0.68188963875E+01  0.42219246922E+02  0.51100000000E-03 0.  1.
         22    1    1    0    0    0  0.92120924128E+01 -0.26166661883E+02  0.13884064164E+02  0.31021348753E+02  0.00000000000E+00 0.  1.
</event>
<event>
 5    1  0.6622940E-004  0.9118800E+02  0.7818608E-02  0.1130116E+00
         25   -1    0    0    0    0  0.00000000000E+00  0.00000000000E+00  0.99999998245E-14  0.12500000000E+03  0.12500000000E+03 0.  0.
        -11    1    3    3    0    0 -0.50734312399E+02  0.74579934246E+01  0.33849781375E+02  0.61444282239E+02  0.51100000000E-03 0.  1.
         23    2    1    0    0    0 -0.19077800406E+02  0.36588126300E+01  0.22468558786E+02  0.95298392095E+02  0.90551631812E+02 0.  0.
         11    1    3    3    0    0  0.31656511993E+02 -0.37991807946E+01 -0.11381222589E+02  0.33854109856E+02  0.51100000000E-03 0. -1.
         22    1    1    0    0    0  0.19077800406E+02 -0.36588126300E+01 -0.22468558786E+02  0.29701607905E+02  0.00000000000E+00 0.  1.
</event>
<event>
 5    1  0.6622940E-004  0.9118800E+02  0.7818608E-02  0.1130116E+00
         25   -1    0    0    0    0  0.00000000000E+00  0.00000000000E+00  0.99999998245E-14  0.12500000000E+03  0.12500000000E+03 0.  0.
        -11    1    3    3    0    0 -0.22489685715E+02  0.23181761959E+02  0.80866750419E+01  0.33295260392E+02  0.51100000000E-03 0.  1.
         23    2    1    0    0    0  0.22288015056E+02 -0.11113247902E+02 -0.16815168231E+02  0.94949878924E+02  0.90069249641E+02 0.  0.
         11    1    3    3    0    0  0.44777700771E+02 -0.34295009861E+02 -0.24901843273E+02  0.61654618532E+02  0.51100000000E-03 0. -1.
         22    1    1    0    0    0 -0.22288015056E+02  0.11113247902E+02  0.16815168231E+02  0.30050121076E+02  0.00000000000E+00 0. -1.
</event>
<event>
 5    1  0.6622940E-004  0.9118800E+02  0.7818608E-02  0.1130116E+00
         25   -1    0    0    0    0  0.00000000000E+00  0.00000000000E+00  0.99999998245E-14  0.12500000000E+03  0.12500000000E+03 0.  0.
        -11    1    3    3    0    0  0.21101982240E+01  0.36651303033E+02  0.50137211825E+02  0.62141056963E+02  0.51100000000E-03 0.  1.
         23    2    1    0    0    0 -0.37177787654E+01  0.16213272992E+02  0.23208723600E+02  0.96445894320E+02  0.92122058053E+02 0.  0.
         11    1    3    3    0    0 -0.58279769894E+01 -0.20438030041E+02 -0.26928488226E+02  0.34304837357E+02  0.51100000000E-03 0. -1.
         22    1    1    0    0    0  0.37177787654E+01 -0.16213272992E+02 -0.23208723600E+02  0.28554105680E+02  0.00000000000E+00 0.  1.
</event>
<event>
 5    1  0.6622940E-004  0.9118800E+02  0.7818608E-02  0.1130116E+00
         25   -1    0    0    0    0  0.00000000000E+00  0.00000000000E+00  0.99999998245E-14  0.12500000000E+03  0.12500000000E+03 0.  0.
        -11    1    3    3    0    0 -0.24173633334E+02  0.41792862254E+02  0.35022541830E+02  0.59645505450E+02  0.51100000000E-03 0. -1.
         23    2    1    0    0    0  0.10751604013E+01  0.23241856815E+02  0.19654857423E+02  0.94542598627E+02  0.89502232692E+02 0.  0.
         11    1    3    3    0    0  0.25248793735E+02 -0.18551005440E+02 -0.15367684407E+02  0.34897093177E+02  0.51100000000E-03 0.  1.
         22    1    1    0    0    0 -0.10751604013E+01 -0.23241856815E+02 -0.19654857423E+02  0.30457401373E+02  0.00000000000E+00 0. -1.
</event>
<event>
 5    1  0.6622940E-004  0.9118800E+02  0.7818608E-02  0.1130116E+00
         25   -1    0    0    0    0  0.00000000000E+00  0.00000000000E+00  0.99999998245E-14  0.12500000000E+03  0.12500000000E+03 0.  0.
        -11    1    3    3    0    0  0.16706794491E+02 -0.80928388508E+01  0.18233696401E+02  0.26020736106E+02  0.51100000000E-03 0.  1.
         23    2    1    0    0    0  0.26742267071E+02  0.11853410269E+02 -0.32393887494E+02  0.81353509533E+02  0.68654041274E+02 0.  0.
         11    1    3    3    0    0  0.10035472581E+02  0.19946249120E+02 -0.50627583894E+02  0.55332773427E+02  0.51100000000E-03 0. -1.
         22    1    1    0    0    0 -0.26742267071E+02 -0.11853410269E+02  0.32393887494E+02  0.43646490467E+02  0.00000000000E+00 0. -1.
</event>
<event>
 5    1  0.6622940E-004  0.9118800E+02  0.7818608E-02  0.1130116E+00
         25   -1    0    0    0    0  0.00000000000E+00  0.00000000000E+00  0.99999998245E-14  0.12500000000E+03  0.12500000000E+03 0.  0.
        -11    1    3    3    0    0 -0.10042517477E+02  0.38369359465E+02 -0.37231333140E+02  0.54398824166E+02  0.51100000000E-03 0.  1.
         23    2    1    0    0    0 -0.14993737287E+02 -0.69662200577E+00 -0.25365414246E+02  0.95526254396E+02  0.90865634863E+02 0.  0.
         11    1    3    3    0    0 -0.49512198103E+01 -0.39065981471E+02  0.11865918894E+02  0.41127430230E+02  0.51100000000E-03 0. -1.
         22    1    1    0    0    0  0.14993737287E+02  0.69662200577E+00  0.25365414246E+02  0.29473745604E+02  0.00000000000E+00 0.  1.
</event>
<event>
 5    1  0.6622940E-004  0.9118800E+02  0.7818608E-02  0.1130116E+00
         25   -1    0    0    0    0  0.00000000000E+00  0.00000000000E+00  0.99999998245E-14  0.12500000000E+03  0.12500000000E+03 0.  0.
        -11    1    3    3    0    0 -0.64150956302E+00  0.54863131507E+02 -0.46740957789E+01  0.55065614542E+02  0.51100000000E-03 0. -1.
         23    2    1    0    0    0  0.19546559609E+02  0.26687341802E+02 -0.10669442407E+02  0.90241990761E+02  0.83279635507E+02 0.  0.
         11    1    3    3    0    0  0.20188069172E+02 -0.28175789706E+02 -0.59953466285E+01  0.35176376219E+02  0.51100000000E-03 0.  1.
         22    1    1    0    0    0 -0.19546559609E+02 -0.26687341802E+02  0.10669442407E+02  0.34758009239E+02  0.00000000000E+00 0. -1.
</event>
<event>
 5    1  0.6622940E-004  0.9118800E+02  0.7818608E-02  0.1130116E+00
         25   -1    0    0    0    0  0.00000000000E+00  0.00000000000E+00  0.99999998245E-14  0.12500000000E+03  0.12500000000E+03 0.  0.
        -11    1    3    3    0    0  0.20747492577E+02  0.99366610433E+01  0.32310759727E+02  0.39663344228E+02  0.51100000000E-03 0.  1.
         23    2    1    0    0    0 -0.28677271627E+02  0.79096539426E+00  0.10588681359E+02  0.94420076731E+02  0.89330953106E+02 0.  0.
         11    1    3    3    0    0 -0.49424764204E+02 -0.91456956490E+01 -0.21722078369E+02  0.54756732503E+02  0.51100000000E-03 0. -1.
         22    1    1    0    0    0  0.28677271627E+02 -0.79096539426E+00 -0.10588681359E+02  0.30579923269E+02  0.00000000000E+00 0. -1.
</event>
<event>
 5    1  0.6622940E-004  0.9118800E+02  0.7818608E-02  0.1130116E+00
         25   -1    0    0    0    0  0.00000000000E+00  0.00000000000E+00  0.99999998245E-14  0.12500000000E+03  0.12500000000E+03 0.  0.
        -11    1    3    3    0    0 -0.47768044473E+01 -0.41933563379E+02  0.35757046347E+02  0.55315530930E+02  0.51100000000E-03 0. -1.
         23    2    1    0    0    0 -0.10189326920E+02 -0.24432992778E+02 -0.31709595786E+01  0.98338257674E+02  0.94654975667E+02 0.  0.
         11    1    3    3    0    0 -0.54125224729E+01  0.17500570601E+02 -0.38928005925E+02  0.43022726744E+02  0.51100000000E-03 0.  1.
         22    1    1    0    0    0  0.10189326920E+02  0.24432992778E+02  0.31709595786E+01  0.26661742326E+02  0.00000000000E+00 0. -1.
</event>
<event>
 5    1  0.6622940E-004  0.9118800E+02  0.7818608E-02  0.1130116E+00
         25   -1    0    0    0    0  0.00000000000E+00  0.00000000000E+00  0.99999998245E-14  0.12500000000E+03  0.12500000000E+03 0.  0.
        -11    1    3    3    0    0  0.41749565987E+01  0.30264027359E+02  0.24914763407E+02  0.39421910792E+02  0.51100000000E-03 0. -1.
         23    2    1    0    0    0 -0.26378311577E+02 -0.10294627696E+02 -0.14686593511E+01  0.96645958995E+02  0.92393126090E+02 0.  0.
         11    1    3    3    0    0 -0.30553268175E+02 -0.40558655055E+02 -0.26383422758E+02  0.57224048203E+02  0.51100000000E-03 0.  1.
         22    1    1    0    0    0  0.26378311577E+02  0.10294627696E+02  0.14686593511E+01  0.28354041005E+02  0.00000000000E+00 0.  1.
</event>
<event>
 5    1  0.6622940E-004  0.9118800E+02  0.7818608E-02  0.1130116E+00
         25   -1    0    0    0    0  0.00000000000E+00  0.00000000000E+00  0.99999998245E-14  0.12500000000E+03  0.12500000000E+03 0.  0.
        -11    1    3    3    0    0 -0.31098779216E+02  0.32411751237E+02  0.20101739141E+02  0.49211132925E+02  0.51100000000E-03 0. -1.
         23    2    1    0    0    0 -0.20786585140E+02  0.27593892363E+01 -0.17138043798E+02  0.97918476853E+02  0.94098986250E+02 0.  0.
         11    1    3    3    0    0  0.10312194076E+02 -0.29652362001E+02 -0.37239782939E+02  0.48707343928E+02  0.51100000000E-03 0.  1.
         22    1    1    0    0    0  0.20786585140E+02 -0.27593892363E+01  0.17138043798E+02  0.27081523147E+02  0.00000000000E+00 0. -1.
</event>
<event>
 5    1  0.6622940E-004  0.9118800E+02  0.7818608E-02  0.1130116E+00
         25   -1    0    0    0    0  0.00000000000E+00  0.00000000000E+00  0.99999998245E-14  0.12500000000E+03  0.12500000000E+03 0.  0.
        -11    1    3    3    0    0  0.21459485197E+02 -0.34790480670E+02 -0.28836099006E+02  0.50024070769E+02  0.51100000000E-03 0. -1.
         23    2    1    0    0    0  0.26328427316E+01  0.73202054814E+01 -0.27766814135E+02  0.96164028777E+02  0.91738798740E+02 0.  0.
         11    1    3    3    0    0 -0.18826642465E+02  0.42110686151E+02  0.10692848700E+01  0.46139958008E+02  0.51100000000E-03 0.  1.
         22    1    1    0    0    0 -0.26328427316E+01 -0.73202054814E+01  0.27766814135E+02  0.28835971223E+02  0.00000000000E+00 0.  1.
</event>
<event>
 5    1  0.6622940E-004  0.9118800E+02  0.7818608E-02  0.1130116E+00
         25   -1    0    0    0    0  0.00000000000E+00  0.00000000000E+00  0.99999998245E-14  0.12500000000E+03  0.12500000000E+03 0.  0.
        -11    1    3    3    0    0 -0.31898866859E+02 -0.36257733828E+02 -0.15490640250E+02  0.50716081324E+02  0.51100000000E-03 0. -1.
         23    2    1    0    0    0 -0.13894841868E+01 -0.64466454842E+01 -0.28842810628E+02  0.95412880687E+02  0.90709537380E+02 0.  0.
         11    1    3    3    0    0  0.30509382672E+02  0.29811088343E+02 -0.13352170379E+02  0.44696799364E+02  0.51100000000E-03 0.  1.
         22    1    1    0    0    0  0.13894841868E+01  0.64466454842E+01  0.28842810628E+02  0.29587119313E+02  0.00000000000E+00 0. -1.
</event>
<event>
 5    1  0.6622940E-004  0.9118800E+02  0.7818608E-02  0.1130116E+00
         25   -1    0    0    0    0  0.00000000000E+00  0.00000000000E+00  0.99999998245E-14  0.12500000000E+03  0.12500000000E+03 0.  0.
        -11    1    3    3    0    0 -0.12403559226E+02 -0.18500707293E+02  0.41938292291E+02  0.47486259195E+02  0.51100000000E-03 0.  1.
         23    2    1    0    0    0 -0.23507708129E+02 -0.21208495679E+02 -0.23753266084E+01  0.93250121151E+02  0.87678562304E+02 0.  0.
         11    1    3    3    0    0 -0.11104148903E+02 -0.27077883862E+01 -0.44313618900E+02  0.45763861955E+02  0.51100000000E-03 0. -1.
         22    1    1    0    0    0  0.23507708129E+02  0.21208495679E+02  0.23753266084E+01  0.31749878849E+02  0.00000000000E+00 0.  1.
</event>
<event>
 5    1  0.6622940E-004  0.9118800E+02  0.7818608E-02  0.1130116E+00
         25   -1    0    0    0    0  0.00000000000E+00  0.00000000000E+00  0.99999998245E-14  0.12500000000E+03  0.12500000000E+03 0.  0.
        -11    1    3    3    0    0  0.45674225725E+02  0.34027154201E+02  0.81997007433E+01  0.57543176929E+02  0.51100000000E-03 0. -1.
         23    2    1    0    0    0  0.81451445121E+01  0.27714434493E+02  0.42155144934E+01  0.95807469777E+02  0.91251670912E+02 0.  0.
         11    1    3    3    0    0 -0.37529081213E+02 -0.63127197086E+01 -0.39841862499E+01  0.38264292847E+02  0.51100000000E-03 0.  1.
         22    1    1    0    0    0 -0.81451445121E+01 -0.27714434493E+02 -0.42155144934E+01  0.29192530223E+02  0.00000000000E+00 0. -1.
</event>
<event>
 5    1  0.6622940E-004  0.9118800E+02  0.7818608E-02  0.1130116E+00
         25   -1    0    0    0    0  0.00000000000E+00  0.00000000000E+00  0.99999998245E-14  0.12500000000E+03  0.12500000000E+03 0.  0.
        -11    1    3    3    0    0  0.22099575915E+02 -0.48119728448E+02 -0.17256460201E+02  0.55692772785E+02  0.51100000000E-03 0.  1.
         23    2    1    0    0    0  0.13749084213E+02 -0.21839411843E+02  0.12554260181E+02  0.96301451691E+02  0.91925855573E+02 0.  0.
         11    1    3    3    0    0 -0.83504917016E+01  0.26280316605E+02  0.29810720382E+02  0.40608678906E+02  0.51100000000E-03 0. -1.
         22    1    1    0    0    0 -0.13749084213E+02  0.21839411843E+02 -0.12554260181E+02  0.28698548309E+02  0.00000000000E+00 0.  1.
</event>
<event>
 5    1  0.6622940E-004  0.9118800E+02  0.7818608E-02  0.1130116E+00
         25   -1    0    0    0    0  0.00000000000E+00  0.00000000000E+00  0.99999998245E-14  0.12500000000E+03  0.12500000000E+03 0.  0.
        -11    1    3    3    0    0 -0.19504132608E+02  0.28655444298E+02 -0.35167208275E+02  0.49378924804E+02  0.51100000000E-03 0.  1.
         23    2    1    0    0    0 -0.59380232833E+01 -0.14440938127E+02 -0.24735266559E+02  0.95748773936E+02  0.91171231669E+02 0.  0.
         11    1    3    3    0    0  0.13566109325E+02 -0.43096382425E+02  0.10431941716E+02  0.46369849132E+02  0.51100000000E-03 0. -1.
         22    1    1    0    0    0  0.59380232833E+01  0.14440938127E+02  0.24735266559E+02  0.29251226064E+02  0.00000000000E+00 0. -1.
</event>
<event>
 5    1  0.6622940E-004  0.9118800E+02  0.7818608E-02  0.1130116E+00
         25   -1    0    0    0    0  0.00000000000E+00  0.00000000000E+00  0.99999998245E-14  0.12500000000E+03  0.12500000000E+03 0.  0.
        -11    1    3    3    0    0 -0.27823972357E+02  0.18289064449E+02  0.38465764131E+02  0.50875124832E+02  0.51100000000E-03 0. -1.
         23    2    1    0    0    0 -0.28352756541E+02  0.21463162968E+01 -0.39789981912E+01  0.96289062995E+02  0.91909007985E+02 0.  0.
         11    1    3    3    0    0 -0.52878418325E+00 -0.16142748152E+02 -0.42444762323E+02  0.45413938163E+02  0.51100000000E-03 0.  1.
         22    1    1    0    0    0  0.28352756541E+02 -0.21463162968E+01  0.39789981912E+01  0.28710937005E+02  0.00000000000E+00 0. -1.
</event>
<event>
 5    1  0.6622940E-004  0.9118800E+02  0.7818608E-02  0.1130116E+00
         25   -1    0    0    0    0  0.00000000000E+00  0.00000000000E+00  0.99999998245E-14  0.12500000000E+03  0.12500000000E+03 0.  0.
        -11    1    3    3    0    0  0.17972291949E+02  0.23004639340E+02 -0.18465107978E+02  0.34542393113E+02  0.51100000000E-03 0.  1.
         23    2    1    0    0    0 -0.16045306676E+02 -0.24625071992E+02 -0.11248315552E+01  0.95587225854E+02  0.90949472036E+02 0.  0.
         11    1    3    3    0    0 -0.34017598625E+02 -0.47629711332E+02  0.17340276422E+02  0.61044832741E+02  0.51100000000E-03 0. -1.
         22    1    1    0    0    0  0.16045306676E+02  0.24625071992E+02  0.11248315552E+01  0.29412774146E+02  0.00000000000E+00 0. -1.
</event>
<event>
 5    1  0.6622940E-004  0.9118800E+02  0.7818608E-02  0.1130116E+00
         25   -1    0    0    0    0  0.00000000000E+00  0.00000000000E+00  0.99999998245E-14  0.12500000000E+03  0.12500000000E+03 0.  0.
        -11    1    3    3    0    0 -0.44586568047E+01 -0.30928180444E+02  0.25858621784E+02  0.40559835883E+02  0.51100000000E-03 0.  1.
         23    2    1    0    0    0 -0.72044305641E+01 -0.95368549842E+01 -0.25814359330E+02  0.96552916312E+02  0.92267161428E+02 0.  0.
         11    1    3    3    0    0 -0.27457737593E+01  0.21391325459E+02 -0.51672981114E+02  0.55993080429E+02  0.51100000000E-03 0. -1.
         22    1    1    0    0    0  0.72044305641E+01  0.95368549842E+01  0.25814359330E+02  0.28447083688E+02  0.00000000000E+00 0. -1.
</event>
<event>
 5    1  0.6622940E-004  0.9118800E+02  0.7818608E-02  0.1130116E+00
         25   -1    0    0    0    0  0.00000000000E+00  0.00000000000E+00  0.99999998245E-14  0.12500000000E+03  0.12500000000E+03 0.  0.
        -11    1    3    3    0    0 -0.21709018689E+02 -0.53135602367E+02 -0.21928045941E+02  0.61445202664E+02  0.51100000000E-03 0. -1.
         23    2    1    0    0    0 -0.28018668273E+01 -0.24866770856E+02 -0.13843846390E+02  0.96401768702E+02  0.92062164734E+02 0.  0.
         11    1    3    3    0    0  0.18907151862E+02  0.28268831511E+02  0.80841995515E+01  0.34956566038E+02  0.51100000000E-03 0.  1.
         22    1    1    0    0    0  0.28018668273E+01  0.24866770856E+02  0.13843846390E+02  0.28598231298E+02  0.00000000000E+00 0. -1.
</event>
<event>
 5    1  0.6622940E-004  0.9118800E+02  0.7818608E-02  0.1130116E+00
         25   -1    0    0    0    0  0.00000000000E+00  0.00000000000E+00  0.99999998245E-14  0.12500000000E+03  0.12500000000E+03 0.  0.
        -11    1    3    3    0    0  0.15846266710E+02  0.12575947092E+02 -0.57145783032E+02  0.60620946318E+02  0.51100000000E-03 0. -1.
         23    2    1    0    0    0  0.78403898010E+01  0.16215645981E+02 -0.23532753360E+02  0.95365402525E+02  0.90644087680E+02 0.  0.
         11    1    3    3    0    0 -0.80058769088E+01  0.36396988887E+01  0.33613029673E+02  0.34744456207E+02  0.51100000000E-03 0.  1.
         22    1    1    0    0    0 -0.78403898010E+01 -0.16215645981E+02  0.23532753360E+02  0.29634597475E+02  0.00000000000E+00 0. -1.
</event>
<event>
 5    1  0.6622940E-004  0.9118800E+02  0.7818608E-02  0.1130116E+00
         25   -1    0    0    0    0  0.00000000000E+00  0.00000000000E+00  0.99999998245E-14  0.12500000000E+03  0.12500000000E+03 0.  0.
        -11    1    3    3    0    0 -0.13250847454E+02  0.55758400894E+02  0.93260329045E+01  0.58065128249E+02  0.51100000000E-03 0.  1.
         23    2    1    0    0    0  0.34601490015E+01  0.22279338001E+02  0.17612693819E+02  0.96389713101E+02  0.92045794447E+02 0.  0.
         11    1    3    3    0    0  0.16710996455E+02 -0.33479062894E+02  0.82866609146E+01  0.38324584853E+02  0.51100000000E-03 0. -1.
         22    1    1    0    0    0 -0.34601490015E+01 -0.22279338001E+02 -0.17612693819E+02  0.28610286899E+02  0.00000000000E+00 0.  1.
</event>
<event>
 5    1  0.6622940E-004  0.9118800E+02  0.7818608E-02  0.1130116E+00
         25   -1    0    0    0    0  0.00000000000E+00  0.00000000000E+00  0.99999998245E-14  0.12500000000E+03  0.12500000000E+03 0.  0.
        -11    1    3    3    0    0 -0.47454242515E+02  0.12542893898E+02 -0.37291542772E+02  0.61643235497E+02  0.51100000000E-03 0.  1.
         23    2    1    0    0    0 -0.24590723046E+02  0.99957722001E+01 -0.11888969055E+02  0.95914493179E+02  0.91398158049E+02 0.  0.
         11    1    3    3    0    0  0.22863519468E+02 -0.25471216983E+01  0.25402573716E+02  0.34271257682E+02  0.51100000000E-03 0. -1.
         22    1    1    0    0    0  0.24590723046E+02 -0.99957722001E+01  0.11888969055E+02  0.29085506821E+02  0.00000000000E+00 0.  1.
</event>
<event>
 5    1  0.6622940E-004  0.9118800E+02  0.7818608E-02  0.1130116E+00
         25   -1    0    0    0    0  0.00000000000E+00  0.00000000000E+00  0.99999998245E-14  0.12500000000E+03  0.12500000000E+03 0.  0.
        -11    1    3    3    0    0  0.21541245581E+02 -0.36415941130E+02 -0.26461195504E+02  0.49903315494E+02  0.51100000000E-03 0.  1.
         23    2    1    0    0    0 -0.92368138636E+01 -0.35362119376E+01 -0.28343873970E+02  0.94980028034E+02  0.90111081497E+02 0.  0.
         11    1    3    3    0    0 -0.30778059444E+02  0.32879729192E+02 -0.18826784656E+01  0.45076712540E+02  0.51100000000E-03 0. -1.
         22    1    1    0    0    0  0.92368138636E+01  0.35362119376E+01  0.28343873970E+02  0.30019971966E+02  0.00000000000E+00 0. -1.
</event>
<event>
 5    1  0.6622940E-004  0.9118800E+02  0.7818608E-02  0.1130116E+00
         25   -1    0    0    0    0  0.00000000000E+00  0.00000000000E+00  0.99999998245E-14  0.12500000000E+03  0.12500000000E+03 0.  0.
        -11    1    3    3    0    0 -0.10753552203E+02  0.38022840097E+02 -0.45790184752E+02  0.60482363330E+02  0.51100000000E-03 0. -1.
         23    2    1    0    0    0 -0.76935600895E+01  0.25227297625E+02 -0.13454502232E+02  0.95392044268E+02  0.90680819731E+02 0.  0.
         11    1    3    3    0    0  0.30599921134E+01 -0.12795542472E+02  0.32335682520E+02  0.34909680938E+02  0.51100000000E-03 0.  1.
         22    1    1    0    0    0  0.76935600895E+01 -0.25227297625E+02  0.13454502232E+02  0.29607955732E+02  0.00000000000E+00 0. -1.
</event>
<event>
 5    1  0.6622940E-004  0.9118800E+02  0.7818608E-02  0.1130116E+00
         25   -1    0    0    0    0  0.00000000000E+00  0.00000000000E+00  0.99999998245E-14  0.12500000000E+03  0.12500000000E+03 0.  0.
        -11    1    3    3    0    0  0.11558141922E+02 -0.49668786793E+01  0.44642132940E+02  0.46380821060E+02  0.51100000000E-03 0.  1.
         23    2    1    0    0    0 -0.25532231944E+02  0.29067236564E+01  0.11087249973E+02  0.97013020484E+02  0.92888401434E+02 0.  0.
         11    1    3    3    0    0 -0.37090373866E+02  0.78736023358E+01 -0.33554882967E+02  0.50632199424E+02  0.51100000000E-03 0. -1.
         22    1    1    0    0    0  0.25532231944E+02 -0.29067236564E+01 -0.11087249973E+02  0.27986979516E+02  0.00000000000E+00 0. -1.
</event>
<event>
 5    1  0.6622940E-004  0.9118800E+02  0.7818608E-02  0.1130116E+00
         25   -1    0    0    0    0  0.00000000000E+00  0.00000000000E+00  0.99999998245E-14  0.12500000000E+03  0.12500000000E+03 0.  0.
        -11    1    3    3    0    0 -0.45267697124E+02 -0.55596048176E+01 -0.27288532175E+02  0.53148260528E+02  0.51100000000E-03 0.  1.
         23    2    1    0    0    0 -0.22769497459E+02 -0.53428670992E+01 -0.39758889041E+02  0.78872291395E+02  0.63977127544E+02 0.  0.
         11    1    3    3    0    0  0.22498199665E+02  0.21673771841E+00 -0.12470356866E+02  0.25724030867E+02  0.51100000000E-03 0. -1.
         22    1    1    0    0    0  0.22769497459E+02  0.53428670992E+01  0.39758889041E+02  0.46127708605E+02  0.00000000000E+00 0.  1.
</event>
<event>
 5    1  0.6622940E-004  0.9118800E+02  0.7818608E-02  0.1130116E+00
         25   -1    0    0    0    0  0.00000000000E+00  0.00000000000E+00  0.99999998245E-14  0.12500000000E+03  0.12500000000E+03 0.  0.
        -11    1    3    3    0    0 -0.29185176268E+02 -0.12847355863E+02  0.20567422260E+02  0.37945328107E+02  0.51100000000E-03 0. -1.
         23    2    1    0    0    0  0.18556957539E+02  0.15853035655E+02 -0.63036595786E+01  0.99792549978E+02  0.96556395409E+02 0.  0.
         11    1    3    3    0    0  0.47742133807E+02  0.28700391518E+02 -0.26871081838E+02  0.61847221871E+02  0.51100000000E-03 0.  1.
         22    1    1    0    0    0 -0.18556957539E+02 -0.15853035655E+02  0.63036595786E+01  0.25207450022E+02  0.00000000000E+00 0.  1.
</event>
<event>
 5    1  0.6622940E-004  0.9118800E+02  0.7818608E-02  0.1130116E+00
         25   -1    0    0    0    0  0.00000000000E+00  0.00000000000E+00  0.99999998245E-14  0.12500000000E+03  0.12500000000E+03 0.  0.
        -11    1    3    3    0    0 -0.81408573021E+01  0.38616698150E+02  0.23939082741E+02  0.46158451191E+02  0.51100000000E-03 0. -1.
         23    2    1    0    0    0  0.24418564035E+02  0.15112609777E+02 -0.52557353741E+01  0.95806165067E+02  0.91249883653E+02 0.  0.
         11    1    3    3    0    0  0.32559421337E+02 -0.23504088373E+02 -0.29194818115E+02  0.49647713875E+02  0.51100000000E-03 0.  1.
         22    1    1    0    0    0 -0.24418564035E+02 -0.15112609777E+02  0.52557353741E+01  0.29193834933E+02  0.00000000000E+00 0.  1.
</event>
<event>
 5    1  0.6622940E-004  0.9118800E+02  0.7818608E-02  0.1130116E+00
         25   -1    0    0    0    0  0.00000000000E+00  0.00000000000E+00  0.99999998245E-14  0.12500000000E+03  0.12500000000E+03 0.  0.
        -11    1    3    3    0    0  0.84622600805E+01  0.15327951473E+02 -0.29913602977E+02  0.34660923031E+02  0.51100000000E-03 0. -1.
         23    2    1    0    0    0 -0.13052400446E+02  0.53707279433E+00  0.25740272750E+02  0.96134531949E+02  0.91698598611E+02 0.  0.
         11    1    3    3    0    0 -0.21514660527E+02 -0.14790878678E+02  0.55653875727E+02  0.61473608918E+02  0.51100000000E-03 0.  1.
         22    1    1    0    0    0  0.13052400446E+02 -0.53707279433E+00 -0.25740272750E+02  0.28865468051E+02  0.00000000000E+00 0.  1.
</event>
<event>
 5    1  0.6622940E-004  0.9118800E+02  0.7818608E-02  0.1130116E+00
         25   -1    0    0    0    0  0.00000000000E+00  0.00000000000E+00  0.99999998245E-14  0.12500000000E+03  0.12500000000E+03 0.  0.
        -11    1    3    3    0    0 -0.23290188005E+02  0.26252835462E+02  0.27896665818E+02  0.44831553521E+02  0.51100000000E-03 0.  1.
         23    2    1    0    0    0 -0.91925730928E+00 -0.15528751188E+02  0.28837258092E+02  0.92234551709E+02  0.86218547467E+02 0.  0.
         11    1    3    3    0    0  0.22370930696E+02 -0.41781586650E+02  0.94059227416E+00  0.47402998188E+02  0.51100000000E-03 0. -1.
         22    1    1    0    0    0  0.91925730928E+00  0.15528751188E+02 -0.28837258092E+02  0.32765448291E+02  0.00000000000E+00 0. -1.
</event>
<event>
 5    1  0.6622940E-004  0.9118800E+02  0.7818608E-02  0.1130116E+00
         25   -1    0    0    0    0  0.00000000000E+00  0.00000000000E+00  0.99999998245E-14  0.12500000000E+03  0.12500000000E+03 0.  0.
        -11    1    3    3    0    0  0.26549948190E+02 -0.32315414235E+02 -0.21705805822E+02  0.47120353911E+02  0.51100000000E-03 0. -1.
         23    2    1    0    0    0  0.24321905843E+02  0.35043512356E+01  0.13132712809E+02  0.97137772395E+02  0.93056128754E+02 0.  0.
         11    1    3    3    0    0 -0.22280423473E+01  0.35819765471E+02  0.34838518631E+02  0.50017418483E+02  0.51100000000E-03 0.  1.
         22    1    1    0    0    0 -0.24321905843E+02 -0.35043512356E+01 -0.13132712809E+02  0.27862227605E+02  0.00000000000E+00 0.  1.
</event>
<event>
 5    1  0.6622940E-004  0.9118800E+02  0.7818608E-02  0.1130116E+00
         25   -1    0    0    0    0  0.00000000000E+00  0.00000000000E+00  0.99999998245E-14  0.12500000000E+03  0.12500000000E+03 0.  0.
        -11    1    3    3    0    0 -0.44855278133E+02 -0.75930961322E+01 -0.46553671468E-01  0.45493441866E+02  0.51100000000E-03 0. -1.
         23    2    1    0    0    0  0.90863870075E+00 -0.26897748593E+02  0.10218934053E+02  0.96212135945E+02  0.91804324442E+02 0.  0.
         11    1    3    3    0    0  0.45763916834E+02 -0.19304652461E+02  0.10265487724E+02  0.50718694079E+02  0.51100000000E-03 0.  1.
         22    1    1    0    0    0 -0.90863870075E+00  0.26897748593E+02 -0.10218934053E+02  0.28787864055E+02  0.00000000000E+00 0. -1.
</event>
<event>
 5    1  0.6622940E-004  0.9118800E+02  0.7818608E-02  0.1130116E+00
         25   -1    0    0    0    0  0.00000000000E+00  0.00000000000E+00  0.99999998245E-14  0.12500000000E+03  0.12500000000E+03 0.  0.
        -11    1    3    3    0    0 -0.32549524032E+02  0.19592525833E+02  0.11491753811E+02  0.39691296138E+02  0.51100000000E-03 0. -1.
         23    2    1    0    0    0  0.43582444294E+01 -0.21633802944E+02  0.19437022029E+02  0.95592287582E+02  0.90956428555E+02 0.  0.
         11    1    3    3    0    0  0.36907768461E+02 -0.41226328776E+02  0.79452682180E+01  0.55900991444E+02  0.51100000000E-03 0.  1.
         22    1    1    0    0    0 -0.43582444294E+01  0.21633802944E+02 -0.19437022029E+02  0.29407712418E+02  0.00000000000E+00 0.  1.
</event>
<event>
 5    1  0.6622940E-004  0.9118800E+02  0.7818608E-02  0.1130116E+00
         25   -1    0    0    0    0  0.00000000000E+00  0.00000000000E+00  0.99999998245E-14  0.12500000000E+03  0.12500000000E+03 0.  0.
        -11    1    3    3    0    0 -0.21844589054E+02  0.14992787770E+02 -0.56560293121E+02  0.62458278188E+02  0.51100000000E-03 0.  1.
         23    2    1    0    0    0 -0.11622885459E+02  0.60214875905E+01 -0.27550462023E+02  0.94497906025E+02  0.89439792633E+02 0.  0.
         11    1    3    3    0    0  0.10221703596E+02 -0.89713001792E+01  0.29009831098E+02  0.32039627836E+02  0.51100000000E-03 0. -1.
         22    1    1    0    0    0  0.11622885459E+02 -0.60214875905E+01  0.27550462023E+02  0.30502093975E+02  0.00000000000E+00 0.  1.
</event>
<event>
 5    1  0.6622940E-004  0.9118800E+02  0.7818608E-02  0.1130116E+00
         25   -1    0    0    0    0  0.00000000000E+00  0.00000000000E+00  0.99999998245E-14  0.12500000000E+03  0.12500000000E+03 0.  0.
        -11    1    3    3    0    0 -0.82190549520E-02 -0.41743222712E+02  0.26068953070E+02  0.49214703335E+02  0.51100000000E-03 0.  1.
         23    2    1    0    0    0  0.27036869196E+02 -0.94378840503E+01  0.66757908110E+01  0.95595372231E+02  0.90960667641E+02 0.  0.
         11    1    3    3    0    0  0.27045088251E+02  0.32305338661E+02 -0.19393162259E+02  0.46380668896E+02  0.51100000000E-03 0. -1.
         22    1    1    0    0    0 -0.27036869196E+02  0.94378840503E+01 -0.66757908110E+01  0.29404627769E+02  0.00000000000E+00 0. -1.
</event>
<event>
 5    1  0.6622940E-004  0.9118800E+02  0.7818608E-02  0.1130116E+00
         25   -1    0    0    0    0  0.00000000000E+00  0.00000000000E+00  0.99999998245E-14  0.12500000000E+03  0.12500000000E+03 0.  0.
        -11    1    3    3    0    0 -0.13409801890E+02  0.27856177174E+02  0.29656220654E+02  0.42840177605E+02  0.51100000000E-03 0.  1.
         23    2    1    0    0    0 -0.17351626385E+01  0.17660967595E+02 -0.21978777859E+02  0.96751332032E+02  0.92535576985E+02 0.  0.
         11    1    3    3    0    0  0.11674639251E+02 -0.10195209579E+02 -0.51634998513E+02  0.53911154427E+02  0.51100000000E-03 0. -1.
         22    1    1    0    0    0  0.17351626385E+01 -0.17660967595E+02  0.21978777859E+02  0.28248667968E+02  0.00000000000E+00 0. -1.
</event>
<event>
 5    1  0.6622940E-004  0.9118800E+02  0.7818608E-02  0.1130116E+00
         25   -1    0    0    0    0  0.00000000000E+00  0.00000000000E+00  0.99999998245E-14  0.12500000000E+03  0.12500000000E+03 0.  0.
        -11    1    3    3    0    0 -0.25806920266E+02 -0.39521727933E+01 -0.26553680499E+02  0.37238619089E+02  0.51100000000E-03 0.  1.
         23    2    1    0    0    0 -0.74348915530E+01 -0.27942921108E+01  0.28565646255E+02  0.95350685897E+02  0.90623790885E+02 0.  0.
         11    1    3    3    0    0  0.18372028712E+02  0.11578806824E+01  0.55119326754E+02  0.58112066808E+02  0.51100000000E-03 0. -1.
         22    1    1    0    0    0  0.74348915530E+01  0.27942921108E+01 -0.28565646255E+02  0.29649314103E+02  0.00000000000E+00 0.  1.
</event>
<event>
 5    1  0.6622940E-004  0.9118800E+02  0.7818608E-02  0.1130116E+00
         25   -1    0    0    0    0  0.00000000000E+00  0.00000000000E+00  0.99999998245E-14  0.12500000000E+03  0.12500000000E+03 0.  0.
        -11    1    3    3    0    0 -0.87974246176E+00 -0.48909646219E+02  0.11325382242E+02  0.50211470037E+02  0.51100000000E-03 0. -1.
         23    2    1    0    0    0  0.84379281569E+01 -0.20814534239E+02 -0.21147825363E+02  0.94150786319E+02  0.88953339340E+02 0.  0.
         11    1    3    3    0    0  0.93176706186E+01  0.28095111980E+02 -0.32473207605E+02  0.43939316282E+02  0.51100000000E-03 0.  1.
         22    1    1    0    0    0 -0.84379281569E+01  0.20814534239E+02  0.21147825363E+02  0.30849213681E+02  0.00000000000E+00 0.  1.
</event>
<event>
 5    1  0.6622940E-004  0.9118800E+02  0.7818608E-02  0.1130116E+00
         25   -1    0    0    0    0  0.00000000000E+00  0.00000000000E+00  0.99999998245E-14  0.12500000000E+03  0.12500000000E+03 0.  0.
        -11    1    3    3    0    0  0.19413788475E+02 -0.33103482514E+02 -0.13425358449E+01  0.38399715367E+02  0.51100000000E-03 0. -1.
         23    2    1    0    0    0  0.92450599177E+01  0.16008313782E+02 -0.25044489632E+02  0.93871818171E+02  0.88560456993E+02 0.  0.
         11    1    3    3    0    0 -0.10168728557E+02  0.49111796296E+02 -0.23701953787E+02  0.55472102804E+02  0.51100000000E-03 0.  1.
         22    1    1    0    0    0 -0.92450599177E+01 -0.16008313782E+02  0.25044489632E+02  0.31128181829E+02  0.00000000000E+00 0.  1.
</event>
<event>
 5    1  0.6622940E-004  0.9118800E+02  0.7818608E-02  0.1130116E+00
         25   -1    0    0    0    0  0.00000000000E+00  0.00000000000E+00  0.99999998245E-14  0.12500000000E+03  0.12500000000E+03 0.  0.
        -11    1    3    3    0    0 -0.30607454339E+02  0.32404254192E+02  0.94837004197E+01  0.45571839164E+02  0.51100000000E-03 0. -1.
         23    2    1    0    0    0 -0.17180428254E+02 -0.91362441298E+00 -0.24527323019E+02  0.95040170243E+02  0.90194470789E+02 0.  0.
         11    1    3    3    0    0  0.13427026085E+02 -0.33317878605E+02 -0.34011023439E+02  0.49468331080E+02  0.51100000000E-03 0.  1.
         22    1    1    0    0    0  0.17180428254E+02  0.91362441298E+00  0.24527323019E+02  0.29959829757E+02  0.00000000000E+00 0.  1.
</event>
<event>
 5    1  0.6622940E-004  0.9118800E+02  0.7818608E-02  0.1130116E+00
         25   -1    0    0    0    0  0.00000000000E+00  0.00000000000E+00  0.99999998245E-14  0.12500000000E+03  0.12500000000E+03 0.  0.
        -11    1    3    3    0    0 -0.37393247805E+02  0.30897704826E+02 -0.22686573171E+02  0.53550011647E+02  0.51100000000E-03 0. -1.
         23    2    1    0    0    0 -0.25745433959E+01  0.90886844387E+01 -0.28436660118E+02  0.95035419288E+02  0.90187886227E+02 0.  0.
         11    1    3    3    0    0  0.34818704409E+02 -0.21809020387E+02 -0.57500869479E+01  0.41485407641E+02  0.51100000000E-03 0.  1.
         22    1    1    0    0    0  0.25745433959E+01 -0.90886844387E+01  0.28436660118E+02  0.29964580712E+02  0.00000000000E+00 0. -1.
</event>
<event>
 5    1  0.6622940E-004  0.9118800E+02  0.7818608E-02  0.1130116E+00
         25   -1    0    0    0    0  0.00000000000E+00  0.00000000000E+00  0.99999998245E-14  0.12500000000E+03  0.12500000000E+03 0.  0.
        -11    1    3    3    0    0  0.47226427345E+02  0.23191274285E+02  0.20037209535E+02  0.56299737202E+02  0.51100000000E-03 0.  1.
         23    2    1    0    0    0  0.22040452585E+02  0.23120916070E+02 -0.59703854797E+01  0.92503787715E+02  0.86608007302E+02 0.  0.
         11    1    3    3    0    0 -0.25185974760E+02 -0.70358215130E-01 -0.26007595015E+02  0.36204050514E+02  0.51100000000E-03 0. -1.
         22    1    1    0    0    0 -0.22040452585E+02 -0.23120916070E+02  0.59703854797E+01  0.32496212285E+02  0.00000000000E+00 0.  1.
</event>
<event>
 5    1  0.6622940E-004  0.9118800E+02  0.7818608E-02  0.1130116E+00
         25   -1    0    0    0    0  0.00000000000E+00  0.00000000000E+00  0.99999998245E-14  0.12500000000E+03  0.12500000000E+03 0.  0.
        -11    1    3    3    0    0 -0.53588368601E+01  0.36018782471E+02 -0.14475222008E+02  0.39186756380E+02  0.51100000000E-03 0. -1.
         23    2    1    0    0    0 -0.17421662270E+02 -0.14029564864E+02 -0.24703194785E+02  0.91674471660E+02  0.85402680959E+02 0.  0.
         11    1    3    3    0    0 -0.12062825410E+02 -0.50048347335E+02 -0.10227972777E+02  0.52487715280E+02  0.51100000000E-03 0.  1.
         22    1    1    0    0    0  0.17421662270E+02  0.14029564864E+02  0.24703194785E+02  0.33325528340E+02  0.00000000000E+00 0. -1.
</event>
<event>
 5    1  0.6622940E-004  0.9118800E+02  0.7818608E-02  0.1130116E+00
         25   -1    0    0    0    0  0.00000000000E+00  0.00000000000E+00  0.99999998245E-14  0.12500000000E+03  0.12500000000E+03 0.  0.
        -11    1    3    3    0    0  0.20917538473E+02  0.53407046597E+02  0.24668517717E+02  0.62437102820E+02  0.51100000000E-03 0.  1.
         23    2    1    0    0    0  0.81683294767E+01  0.25264155179E+02  0.12654957793E+02  0.95586616990E+02  0.90948635215E+02 0.  0.
         11    1    3    3    0    0 -0.12749208996E+02 -0.28142891418E+02 -0.12013559923E+02  0.33149514170E+02  0.51100000000E-03 0. -1.
         22    1    1    0    0    0 -0.81683294767E+01 -0.25264155179E+02 -0.12654957793E+02  0.29413383010E+02  0.00000000000E+00 0.  1.
</event>
<event>
 5    1  0.6622940E-004  0.9118800E+02  0.7818608E-02  0.1130116E+00
         25   -1    0    0    0    0  0.00000000000E+00  0.00000000000E+00  0.99999998245E-14  0.12500000000E+03  0.12500000000E+03 0.  0.
        -11    1    3    3    0    0  0.35703223176E+02  0.22218733390E+02 -0.21454302070E+02  0.47208890436E+02  0.51100000000E-03 0.  1.
         23    2    1    0    0    0  0.13421029896E+01 -0.14038440642E+02 -0.23930887077E+02  0.97222915697E+02  0.93170429452E+02 0.  0.
         11    1    3    3    0    0 -0.34361120186E+02 -0.36257174032E+02 -0.24765850066E+01  0.50014025261E+02  0.51100000000E-03 0. -1.
         22    1    1    0    0    0 -0.13421029896E+01  0.14038440642E+02  0.23930887077E+02  0.27777084303E+02  0.00000000000E+00 0. -1.
</event>
<event>
 5    1  0.6622940E-004  0.9118800E+02  0.7818608E-02  0.1130116E+00
         25   -1    0    0    0    0  0.00000000000E+00  0.00000000000E+00  0.99999998245E-14  0.12500000000E+03  0.12500000000E+03 0.  0.
        -11    1    3    3    0    0 -0.85151155113E+01 -0.79810549614E-01 -0.39958510448E+02  0.40855796644E+02  0.51100000000E-03 0.  1.
         23    2    1    0    0    0  0.43028113241E+01  0.29023849518E+02  0.42903369584E+01  0.95346922295E+02  0.90618599492E+02 0.  0.
         11    1    3    3    0    0  0.12817926835E+02  0.29103660068E+02  0.44248847407E+02  0.54491125652E+02  0.51100000000E-03 0. -1.
         22    1    1    0    0    0 -0.43028113241E+01 -0.29023849518E+02 -0.42903369584E+01  0.29653077705E+02  0.00000000000E+00 0. -1.
</event>
<event>
 5    1  0.6622940E-004  0.9118800E+02  0.7818608E-02  0.1130116E+00
         25   -1    0    0    0    0  0.00000000000E+00  0.00000000000E+00  0.99999998245E-14  0.12500000000E+03  0.12500000000E+03 0.  0.
        -11    1    3    3    0    0 -0.23634828935E+02  0.22189455918E+02 -0.38158543592E+02  0.50070465766E+02  0.51100000000E-03 0. -1.
         23    2    1    0    0    0  0.16727867675E+02  0.11587508345E+02 -0.22549974607E+02  0.94625779658E+02  0.89618329122E+02 0.  0.
         11    1    3    3    0    0  0.40362696610E+02 -0.10601947573E+02  0.15608568985E+02  0.44555313892E+02  0.51100000000E-03 0.  1.
         22    1    1    0    0    0 -0.16727867675E+02 -0.11587508345E+02  0.22549974607E+02  0.30374220342E+02  0.00000000000E+00 0. -1.
</event>
<event>
 5    1  0.6622940E-004  0.9118800E+02  0.7818608E-02  0.1130116E+00
         25   -1    0    0    0    0  0.00000000000E+00  0.00000000000E+00  0.99999998245E-14  0.12500000000E+03  0.12500000000E+03 0.  0.
        -11    1    3    3    0    0  0.33167743896E+01 -0.29568472648E+02  0.79647812943E+01  0.30801514710E+02  0.51100000000E-03 0.  1.
         23    2    1    0    0    0 -0.18574229729E+02  0.15894631180E+02  0.30371648574E+02  0.86011817848E+02  0.76667818947E+02 0.  0.
         11    1    3    3    0    0 -0.21891004119E+02  0.45463103828E+02  0.22406867280E+02  0.55210303138E+02  0.51100000000E-03 0. -1.
         22    1    1    0    0    0  0.18574229729E+02 -0.15894631180E+02 -0.30371648574E+02  0.38988182152E+02  0.00000000000E+00 0. -1.
</event>
<event>
 4    1  0.6622940E-004  0.9118800E+02  0.7818608E-02  0.1130116E+00
         25   -1    0    0    0    0  0.00000000000E+00  0.00000000000E+00  0.99999998245E-14  0.12500000000E+03  0.12500000000E+03 0.  0.
        -11    1    1    0    0    0  0.22126753544E+02  0.25750166646E+02  0.26134161012E+02  0.42844587486E+02  0.51100000000E-03 0.  1.
         11    1    1    0    0    0 -0.12287542200E+02  0.20328850750E+02  0.67533509225E+01  0.24695214417E+02  0.51100000000E-03 0. -1.
         22    1    1    0    0    0 -0.98392113441E+01 -0.46079017397E+02 -0.32887511935E+02  0.57460198097E+02  0.00000000000E+00 0.  1.
</event>
<event>
 5    1  0.6622940E-004  0.9118800E+02  0.7818608E-02  0.1130116E+00
         25   -1    0    0    0    0  0.00000000000E+00  0.00000000000E+00  0.99999998245E-14  0.12500000000E+03  0.12500000000E+03 0.  0.
        -11    1    3    3    0    0 -0.37239226792E+02 -0.14813766390E+02  0.21558952755E+02  0.45508198502E+02  0.51100000000E-03 0. -1.
         23    2    1    0    0    0 -0.19019093105E+02  0.24211821473E+02 -0.11345796139E+01  0.94190497043E+02  0.89009124593E+02 0.  0.
         11    1    3    3    0    0  0.18220133687E+02  0.39025587862E+02 -0.22693532369E+02  0.48682298541E+02  0.51100000000E-03 0.  1.
         22    1    1    0    0    0  0.19019093105E+02 -0.24211821473E+02  0.11345796139E+01  0.30809502957E+02  0.00000000000E+00 0. -1.
</event>
<event>
 5    1  0.6622940E-004  0.9118800E+02  0.7818608E-02  0.1130116E+00
         25   -1    0    0    0    0  0.00000000000E+00  0.00000000000E+00  0.99999998245E-14  0.12500000000E+03  0.12500000000E+03 0.  0.
        -11    1    3    3    0    0 -0.26350502785E+02 -0.45971954092E+01 -0.10128549760E+02  0.28601935654E+02  0.51100000000E-03 0.  1.
         23    2    1    0    0    0  0.23645154661E+02  0.15719744253E+02  0.19868909153E+02  0.90344881342E+02  0.83433927963E+02 0.  0.
         11    1    3    3    0    0  0.49995657446E+02  0.20316939662E+02  0.29997458912E+02  0.61742945687E+02  0.51100000000E-03 0. -1.
         22    1    1    0    0    0 -0.23645154661E+02 -0.15719744253E+02 -0.19868909153E+02  0.34655118658E+02  0.00000000000E+00 0. -1.
</event>
<event>
 5    1  0.6622940E-004  0.9118800E+02  0.7818608E-02  0.1130116E+00
         25   -1    0    0    0    0  0.00000000000E+00  0.00000000000E+00  0.99999998245E-14  0.12500000000E+03  0.12500000000E+03 0.  0.
        -11    1    3    3    0    0  0.11810770680E+02 -0.38100227513E+02 -0.16363126809E+02  0.43114655975E+02  0.51100000000E-03 0.  1.
         23    2    1    0    0    0  0.32684658212E+02  0.50108263972E-01  0.56085951293E+01  0.91837585544E+02  0.85641090523E+02 0.  0.
         11    1    3    3    0    0  0.20873887531E+02  0.38150335777E+02  0.21971721938E+02  0.48722929569E+02  0.51100000000E-03 0. -1.
         22    1    1    0    0    0 -0.32684658212E+02 -0.50108263972E-01 -0.56085951293E+01  0.33162414456E+02  0.00000000000E+00 0.  1.
</event>
<event>
 5    1  0.6622940E-004  0.9118800E+02  0.7818608E-02  0.1130116E+00
         25   -1    0    0    0    0  0.00000000000E+00  0.00000000000E+00  0.99999998245E-14  0.12500000000E+03  0.12500000000E+03 0.  0.
        -11    1    3    3    0    0  0.26288806399E+02  0.22167167129E+02  0.13173393891E+02  0.36824216859E+02  0.51100000000E-03 0. -1.
         23    2    1    0    0    0 -0.28395031267E+02  0.62748056138E+00  0.49517790926E+01  0.96169605471E+02  0.91746397029E+02 0.  0.
         11    1    3    3    0    0 -0.54683837666E+02 -0.21539686567E+02 -0.82216147987E+01  0.59345388612E+02  0.51100000000E-03 0.  1.
         22    1    1    0    0    0  0.28395031267E+02 -0.62748056138E+00 -0.49517790926E+01  0.28830394529E+02  0.00000000000E+00 0.  1.
</event>
<event>
 5    1  0.6622940E-004  0.9118800E+02  0.7818608E-02  0.1130116E+00
         25   -1    0    0    0    0  0.00000000000E+00  0.00000000000E+00  0.99999998245E-14  0.12500000000E+03  0.12500000000E+03 0.  0.
        -11    1    3    3    0    0 -0.30782371737E+02 -0.13570206129E+02 -0.99558405446E+01  0.35083096576E+02  0.51100000000E-03 0.  1.
         23    2    1    0    0    0  0.15454725020E+02  0.20694287468E+02  0.11795353408E+02  0.96605767817E+02  0.92338734853E+02 0.  0.
         11    1    3    3    0    0  0.46237096757E+02  0.34264493598E+02  0.21751193952E+02  0.61522671241E+02  0.51100000000E-03 0. -1.
         22    1    1    0    0    0 -0.15454725020E+02 -0.20694287468E+02 -0.11795353408E+02  0.28394232183E+02  0.00000000000E+00 0. -1.
</event>
<event>
 5    1  0.6622940E-004  0.9118800E+02  0.7818608E-02  0.1130116E+00
         25   -1    0    0    0    0  0.00000000000E+00  0.00000000000E+00  0.99999998245E-14  0.12500000000E+03  0.12500000000E+03 0.  0.
        -11    1    3    3    0    0  0.44730275172E+02  0.26373118603E+02 -0.44586233347E+01  0.52117350509E+02  0.51100000000E-03 0. -1.
         23    2    1    0    0    0  0.20637303370E+02 -0.10824152888E+02  0.11231379828E+02  0.99131013376E+02  0.95696151145E+02 0.  0.
         11    1    3    3    0    0 -0.24092971802E+02 -0.37197271491E+02  0.15690003163E+02  0.47013662867E+02  0.51100000000E-03 0.  1.
         22    1    1    0    0    0 -0.20637303370E+02  0.10824152888E+02 -0.11231379828E+02  0.25868986624E+02  0.00000000000E+00 0.  1.
</event>
<event>
 5    1  0.6622940E-004  0.9118800E+02  0.7818608E-02  0.1130116E+00
         25   -1    0    0    0    0  0.00000000000E+00  0.00000000000E+00  0.99999998245E-14  0.12500000000E+03  0.12500000000E+03 0.  0.
        -11    1    3    3    0    0  0.13540695037E+02  0.41858985832E+01 -0.25526370320E+02  0.29197050381E+02  0.51100000000E-03 0.  1.
         23    2    1    0    0    0 -0.99983700869E+01  0.81649514516E+01  0.31466891862E+02  0.90988250265E+02  0.84392313430E+02 0.  0.
         11    1    3    3    0    0 -0.23539065123E+02  0.39790528684E+01  0.56993262182E+02  0.61791199883E+02  0.51100000000E-03 0. -1.
         22    1    1    0    0    0  0.99983700869E+01 -0.81649514516E+01 -0.31466891862E+02  0.34011749735E+02  0.00000000000E+00 0. -1.
</event>
<event>
 5    1  0.6622940E-004  0.9118800E+02  0.7818608E-02  0.1130116E+00
         25   -1    0    0    0    0  0.00000000000E+00  0.00000000000E+00  0.99999998245E-14  0.12500000000E+03  0.12500000000E+03 0.  0.
        -11    1    3    3    0    0  0.10592618812E+02 -0.69369968169E+01 -0.32828201199E+02  0.35185455693E+02  0.51100000000E-03 0.  1.
         23    2    1    0    0    0  0.94329181550E+01 -0.30346526900E+01  0.27561048358E+02  0.95711769455E+02  0.91120482680E+02 0.  0.
         11    1    3    3    0    0 -0.11597006569E+01  0.39023441269E+01  0.60389249557E+02  0.60526313762E+02  0.51100000000E-03 0. -1.
         22    1    1    0    0    0 -0.94329181550E+01  0.30346526900E+01 -0.27561048358E+02  0.29288230545E+02  0.00000000000E+00 0. -1.
</event>
<event>
 5    1  0.6622940E-004  0.9118800E+02  0.7818608E-02  0.1130116E+00
         25   -1    0    0    0    0  0.00000000000E+00  0.00000000000E+00  0.99999998245E-14  0.12500000000E+03  0.12500000000E+03 0.  0.
        -11    1    3    3    0    0  0.38474034421E+02  0.55520976924E+01  0.82031686025E+01  0.39728693519E+02  0.51100000000E-03 0. -1.
         23    2    1    0    0    0 -0.67942626733E+01 -0.25026648830E+02  0.15415970978E+02  0.94831352067E+02  0.89904605092E+02 0.  0.
         11    1    3    3    0    0 -0.45268297094E+02 -0.30578746522E+02  0.72128023756E+01  0.55102658548E+02  0.51100000000E-03 0.  1.
         22    1    1    0    0    0  0.67942626733E+01  0.25026648830E+02 -0.15415970978E+02  0.30168647933E+02  0.00000000000E+00 0. -1.
</event>
<event>
 5    1  0.6622940E-004  0.9118800E+02  0.7818608E-02  0.1130116E+00
         25   -1    0    0    0    0  0.00000000000E+00  0.00000000000E+00  0.99999998245E-14  0.12500000000E+03  0.12500000000E+03 0.  0.
        -11    1    3    3    0    0 -0.38707872090E+02 -0.11063112720E+02 -0.27915339833E+02  0.48989366429E+02  0.51100000000E-03 0.  1.
         23    2    1    0    0    0 -0.15022613123E+02 -0.19381548866E+02  0.13191318320E+02  0.97155176055E+02  0.93079503726E+02 0.  0.
         11    1    3    3    0    0  0.23685258967E+02 -0.83184361464E+01  0.41106658153E+02  0.48165809627E+02  0.51100000000E-03 0. -1.
         22    1    1    0    0    0  0.15022613123E+02  0.19381548866E+02 -0.13191318320E+02  0.27844823945E+02  0.00000000000E+00 0. -1.
</event>
<event>
 5    1  0.6622940E-004  0.9118800E+02  0.7818608E-02  0.1130116E+00
         25   -1    0    0    0    0  0.00000000000E+00  0.00000000000E+00  0.99999998245E-14  0.12500000000E+03  0.12500000000E+03 0.  0.
        -11    1    3    3    0    0  0.32150080280E+02 -0.34579717028E+02  0.16648993022E+02  0.50065691453E+02  0.51100000000E-03 0.  1.
         23    2    1    0    0    0  0.20238421548E+02 -0.97330586197E+01 -0.19320004586E+02  0.95375876147E+02  0.90658529863E+02 0.  0.
         11    1    3    3    0    0 -0.11911658733E+02  0.24846658409E+02 -0.35968997608E+02  0.45310184694E+02  0.51100000000E-03 0. -1.
         22    1    1    0    0    0 -0.20238421548E+02  0.97330586197E+01  0.19320004586E+02  0.29624123853E+02  0.00000000000E+00 0.  1.
</event>
<event>
 5    1  0.6622940E-004  0.9118800E+02  0.7818608E-02  0.1130116E+00
         25   -1    0    0    0    0  0.00000000000E+00  0.00000000000E+00  0.99999998245E-14  0.12500000000E+03  0.12500000000E+03 0.  0.
        -11    1    3    3    0    0  0.15281477488E+02  0.37942907601E+02  0.46766578414E+02  0.62131317773E+02  0.51100000000E-03 0.  1.
         23    2    1    0    0    0  0.10260660919E+02  0.13819176931E+02  0.21992278420E+02  0.97073111100E+02  0.92969230259E+02 0.  0.
         11    1    3    3    0    0 -0.50208165694E+01 -0.24123730670E+02 -0.24774299994E+02  0.34941793327E+02  0.51100000000E-03 0. -1.
         22    1    1    0    0    0 -0.10260660919E+02 -0.13819176931E+02 -0.21992278420E+02  0.27926888900E+02  0.00000000000E+00 0.  1.
</event>
<event>
 5    1  0.6622940E-004  0.9118800E+02  0.7818608E-02  0.1130116E+00
         25   -1    0    0    0    0  0.00000000000E+00  0.00000000000E+00  0.99999998245E-14  0.12500000000E+03  0.12500000000E+03 0.  0.
        -11    1    3    3    0    0 -0.42008086975E+01 -0.24320476167E+02 -0.36312902203E+02  0.43906254923E+02  0.51100000000E-03 0.  1.
         23    2    1    0    0    0 -0.80295497747E+01 -0.22015648670E+02  0.16137601928E+02  0.96546798916E+02  0.92258873444E+02 0.  0.
         11    1    3    3    0    0 -0.38287410772E+01  0.23048274971E+01  0.52450504131E+02  0.52640543993E+02  0.51100000000E-03 0. -1.
         22    1    1    0    0    0  0.80295497747E+01  0.22015648670E+02 -0.16137601928E+02  0.28453201084E+02  0.00000000000E+00 0.  1.
</event>
<event>
 5    1  0.6622940E-004  0.9118800E+02  0.7818608E-02  0.1130116E+00
         25   -1    0    0    0    0  0.00000000000E+00  0.00000000000E+00  0.99999998245E-14  0.12500000000E+03  0.12500000000E+03 0.  0.
        -11    1    3    3    0    0 -0.60976296994E+00 -0.69864521119E+01  0.38158834364E+02  0.38797924742E+02  0.51100000000E-03 0.  1.
         23    2    1    0    0    0  0.26037461336E+02  0.15646963715E+02 -0.48644712724E+01  0.94235735876E+02  0.89072633109E+02 0.  0.
         11    1    3    3    0    0  0.26647224306E+02  0.22633415827E+02 -0.43023305636E+02  0.55437811134E+02  0.51100000000E-03 0. -1.
         22    1    1    0    0    0 -0.26037461336E+02 -0.15646963715E+02  0.48644712724E+01  0.30764264124E+02  0.00000000000E+00 0.  1.
</event>
<event>
 5    1  0.6622940E-004  0.9118800E+02  0.7818608E-02  0.1130116E+00
         25   -1    0    0    0    0  0.00000000000E+00  0.00000000000E+00  0.99999998245E-14  0.12500000000E+03  0.12500000000E+03 0.  0.
        -11    1    3    3    0    0 -0.47350057741E+02 -0.39757298877E+02  0.89195562643E+01  0.62467825848E+02  0.51100000000E-03 0.  1.
         23    2    1    0    0    0 -0.36147519567E+02 -0.31078322679E+02  0.79367685920E+01  0.76673013677E+02  0.59525233466E+02 0.  0.
         11    1    3    3    0    0  0.11202538173E+02  0.86789761978E+01 -0.98278767224E+00  0.14205187828E+02  0.51100000000E-03 0. -1.
         22    1    1    0    0    0  0.36147519567E+02  0.31078322679E+02 -0.79367685920E+01  0.48326986323E+02  0.00000000000E+00 0.  1.
</event>
<event>
 5    1  0.6622940E-004  0.9118800E+02  0.7818608E-02  0.1130116E+00
         25   -1    0    0    0    0  0.00000000000E+00  0.00000000000E+00  0.99999998245E-14  0.12500000000E+03  0.12500000000E+03 0.  0.
        -11    1    3    3    0    0  0.58472811053E+01 -0.28840082877E+01  0.24238868483E+02  0.25100417242E+02  0.51100000000E-03 0. -1.
         23    2    1    0    0    0  0.26127829949E+02  0.40005152603E+01 -0.30949828017E+02  0.84299146514E+02  0.73822670153E+02 0.  0.
         11    1    3    3    0    0  0.20280548844E+02  0.68845235479E+01 -0.55188696499E+02  0.59198729272E+02  0.51100000000E-03 0.  1.
         22    1    1    0    0    0 -0.26127829949E+02 -0.40005152603E+01  0.30949828017E+02  0.40700853486E+02  0.00000000000E+00 0.  1.
</event>
<event>
 5    1  0.6622940E-004  0.9118800E+02  0.7818608E-02  0.1130116E+00
         25   -1    0    0    0    0  0.00000000000E+00  0.00000000000E+00  0.99999998245E-14  0.12500000000E+03  0.12500000000E+03 0.  0.
        -11    1    3    3    0    0 -0.13990378694E+02  0.24396941985E+02  0.25937338289E+02  0.38258162423E+02  0.51100000000E-03 0. -1.
         23    2    1    0    0    0  0.21690095497E+02 -0.17391177035E+02  0.77439825760E+01  0.96140295436E+02  0.91706454839E+02 0.  0.
         11    1    3    3    0    0  0.35680474191E+02 -0.41788119021E+02 -0.18193355713E+02  0.57882133013E+02  0.51100000000E-03 0.  1.
         22    1    1    0    0    0 -0.21690095497E+02  0.17391177035E+02 -0.77439825760E+01  0.28859704564E+02  0.00000000000E+00 0.  1.
</event>
<event>
 5    1  0.6622940E-004  0.9118800E+02  0.7818608E-02  0.1130116E+00
         25   -1    0    0    0    0  0.00000000000E+00  0.00000000000E+00  0.99999998245E-14  0.12500000000E+03  0.12500000000E+03 0.  0.
        -11    1    3    3    0    0 -0.43914246277E+02  0.13332861982E+02 -0.22730089609E+02  0.51214091894E+02  0.51100000000E-03 0.  1.
         23    2    1    0    0    0 -0.48851701719E+01 -0.25867991142E+01 -0.30438092272E+02  0.94064035842E+02  0.88831351225E+02 0.  0.
         11    1    3    3    0    0  0.39029076105E+02 -0.15919661096E+02 -0.77080026624E+01  0.42849943947E+02  0.51100000000E-03 0. -1.
         22    1    1    0    0    0  0.48851701719E+01  0.25867991142E+01  0.30438092272E+02  0.30935964158E+02  0.00000000000E+00 0. -1.
</event>
<event>
 5    1  0.6622940E-004  0.9118800E+02  0.7818608E-02  0.1130116E+00
         25   -1    0    0    0    0  0.00000000000E+00  0.00000000000E+00  0.99999998245E-14  0.12500000000E+03  0.12500000000E+03 0.  0.
        -11    1    3    3    0    0 -0.67394620717E+01 -0.68773557374E+01  0.34281552963E+02  0.35608190698E+02  0.51100000000E-03 0.  1.
         23    2    1    0    0    0  0.32005367751E+02  0.30216654360E+01 -0.59197870656E+01  0.92311807854E+02  0.86330481079E+02 0.  0.
         11    1    3    3    0    0  0.38744829823E+02  0.98990211735E+01 -0.40201340029E+02  0.56703617156E+02  0.51100000000E-03 0. -1.
         22    1    1    0    0    0 -0.32005367751E+02 -0.30216654360E+01  0.59197870656E+01  0.32688192146E+02  0.00000000000E+00 0. -1.
</event>
<event>
 5    1  0.6622940E-004  0.9118800E+02  0.7818608E-02  0.1130116E+00
         25   -1    0    0    0    0  0.00000000000E+00  0.00000000000E+00  0.99999998245E-14  0.12500000000E+03  0.12500000000E+03 0.  0.
        -11    1    3    3    0    0  0.38409913607E+02  0.21173764517E+01  0.31493311503E+01  0.38596930361E+02  0.51100000000E-03 0.  1.
         23    2    1    0    0    0 -0.12778035165E+02 -0.18279552276E+02 -0.16670676500E+02  0.97155221871E+02  0.93079565253E+02 0.  0.
         11    1    3    3    0    0 -0.51187948772E+02 -0.20396928728E+02 -0.19820007650E+02  0.58558291510E+02  0.51100000000E-03 0. -1.
         22    1    1    0    0    0  0.12778035165E+02  0.18279552276E+02  0.16670676500E+02  0.27844778129E+02  0.00000000000E+00 0. -1.
</event>
<event>
 5    1  0.6622940E-004  0.9118800E+02  0.7818608E-02  0.1130116E+00
         25   -1    0    0    0    0  0.00000000000E+00  0.00000000000E+00  0.99999998245E-14  0.12500000000E+03  0.12500000000E+03 0.  0.
        -11    1    3    3    0    0  0.32291290014E+02  0.26202221128E+02  0.84080811426E+01  0.42426166826E+02  0.51100000000E-03 0. -1.
         23    2    1    0    0    0 -0.20315502328E+02  0.64053650370E+01  0.14894724353E+02  0.99007671331E+02  0.95534903740E+02 0.  0.
         11    1    3    3    0    0 -0.52606792342E+02 -0.19796856091E+02  0.64866432103E+01  0.56581504504E+02  0.51100000000E-03 0.  1.
         22    1    1    0    0    0  0.20315502328E+02 -0.64053650370E+01 -0.14894724353E+02  0.25992328669E+02  0.00000000000E+00 0. -1.
</event>
<event>
 5    1  0.6622940E-004  0.9118800E+02  0.7818608E-02  0.1130116E+00
         25   -1    0    0    0    0  0.00000000000E+00  0.00000000000E+00  0.99999998245E-14  0.12500000000E+03  0.12500000000E+03 0.  0.
        -11    1    3    3    0    0  0.26916979378E+02  0.23181501056E+02 -0.11654156823E+02  0.37386162434E+02  0.51100000000E-03 0.  1.
         23    2    1    0    0    0  0.18031752550E+02 -0.90317439736E+00  0.32132161082E+02  0.88143038652E+02  0.80067219653E+02 0.  0.
         11    1    3    3    0    0 -0.88852268273E+01 -0.24084675454E+02  0.43786317905E+02  0.50756876218E+02  0.51100000000E-03 0. -1.
         22    1    1    0    0    0 -0.18031752550E+02  0.90317439736E+00 -0.32132161082E+02  0.36856961348E+02  0.00000000000E+00 0. -1.
</event>
<event>
 5    1  0.6622940E-004  0.9118800E+02  0.7818608E-02  0.1130116E+00
         25   -1    0    0    0    0  0.00000000000E+00  0.00000000000E+00  0.99999998245E-14  0.12500000000E+03  0.12500000000E+03 0.  0.
        -11    1    3    3    0    0  0.12857540518E+02  0.49790786613E+00 -0.48898262037E+02  0.50562874630E+02  0.51100000000E-03 0.  1.
         23    2    1    0    0    0 -0.89594293675E+01 -0.22570473724E+02 -0.19127893724E+02  0.94087640384E+02  0.88864560405E+02 0.  0.
         11    1    3    3    0    0 -0.21816969886E+02 -0.23068381590E+02  0.29770368312E+02  0.43524765753E+02  0.51100000000E-03 0. -1.
         22    1    1    0    0    0  0.89594293675E+01  0.22570473724E+02  0.19127893724E+02  0.30912359616E+02  0.00000000000E+00 0.  1.
</event>
<event>
 5    1  0.6622940E-004  0.9118800E+02  0.7818608E-02  0.1130116E+00
         25   -1    0    0    0    0  0.00000000000E+00  0.00000000000E+00  0.99999998245E-14  0.12500000000E+03  0.12500000000E+03 0.  0.
        -11    1    3    3    0    0 -0.22155415512E+02  0.50308464982E+02  0.20633764624E+01  0.55009650136E+02  0.51100000000E-03 0.  1.
         23    2    1    0    0    0  0.92927111476E+01  0.26508620044E+02 -0.81535979796E+01  0.95750340564E+02  0.91173379563E+02 0.  0.
         11    1    3    3    0    0  0.31448126660E+02 -0.23799844939E+02 -0.10216974442E+02  0.40740690428E+02  0.51100000000E-03 0. -1.
         22    1    1    0    0    0 -0.92927111476E+01 -0.26508620044E+02  0.81535979796E+01  0.29249659436E+02  0.00000000000E+00 0.  1.
</event>
<event>
 5    1  0.6622940E-004  0.9118800E+02  0.7818608E-02  0.1130116E+00
         25   -1    0    0    0    0  0.00000000000E+00  0.00000000000E+00  0.99999998245E-14  0.12500000000E+03  0.12500000000E+03 0.  0.
        -11    1    3    3    0    0  0.25376101672E+02 -0.46457064245E+02 -0.22933331062E+01  0.52985514354E+02  0.51100000000E-03 0.  1.
         23    2    1    0    0    0  0.25669870515E+02 -0.16429434885E+00 -0.14117260287E+00  0.99329215543E+02  0.95954697049E+02 0.  0.
         11    1    3    3    0    0  0.29376884334E+00  0.46292769897E+02  0.21521605034E+01  0.46343701189E+02  0.51100000000E-03 0. -1.
         22    1    1    0    0    0 -0.25669870515E+02  0.16429434885E+00  0.14117260287E+00  0.25670784457E+02  0.00000000000E+00 0. -1.
</event>
<event>
 5    1  0.6622940E-004  0.9118800E+02  0.7818608E-02  0.1130116E+00
         25   -1    0    0    0    0  0.00000000000E+00  0.00000000000E+00  0.99999998245E-14  0.12500000000E+03  0.12500000000E+03 0.  0.
        -11    1    3    3    0    0 -0.38205389712E+02  0.10433477544E+02  0.15030979991E+02  0.42360826437E+02  0.51100000000E-03 0. -1.
         23    2    1    0    0    0 -0.86073017066E+01 -0.13118031512E+02 -0.23751217450E+02  0.96534429151E+02  0.92242112333E+02 0.  0.
         11    1    3    3    0    0  0.29598088005E+02 -0.23551509056E+02 -0.38782197440E+02  0.54173602714E+02  0.51100000000E-03 0.  1.
         22    1    1    0    0    0  0.86073017066E+01  0.13118031512E+02  0.23751217450E+02  0.28465570849E+02  0.00000000000E+00 0. -1.
</event>
<event>
 5    1  0.6622940E-004  0.9118800E+02  0.7818608E-02  0.1130116E+00
         25   -1    0    0    0    0  0.00000000000E+00  0.00000000000E+00  0.99999998245E-14  0.12500000000E+03  0.12500000000E+03 0.  0.
        -11    1    3    3    0    0 -0.28672914747E+02 -0.23701492427E+02 -0.39106409169E+01  0.37405746831E+02  0.51100000000E-03 0.  1.
         23    2    1    0    0    0  0.27527784153E+02 -0.91065045605E+01 -0.54794683326E+01  0.95491833353E+02  0.90818270949E+02 0.  0.
         11    1    3    3    0    0  0.56200698900E+02  0.14594987866E+02 -0.15688274156E+01  0.58086086522E+02  0.51100000000E-03 0. -1.
         22    1    1    0    0    0 -0.27527784153E+02  0.91065045605E+01  0.54794683326E+01  0.29508166647E+02  0.00000000000E+00 0. -1.
</event>
<event>
 5    1  0.6622940E-004  0.9118800E+02  0.7818608E-02  0.1130116E+00
         25   -1    0    0    0    0  0.00000000000E+00  0.00000000000E+00  0.99999998245E-14  0.12500000000E+03  0.12500000000E+03 0.  0.
        -11    1    3    3    0    0  0.12965445859E+02  0.33168949612E+02 -0.26751249407E+02  0.44541119763E+02  0.51100000000E-03 0.  1.
         23    2    1    0    0    0  0.26824212521E+02  0.53663956328E+01  0.12770230896E+02  0.94810343218E+02  0.89875390428E+02 0.  0.
         11    1    3    3    0    0  0.13858766663E+02 -0.27802553979E+02  0.39521480303E+02  0.50269223455E+02  0.51100000000E-03 0. -1.
         22    1    1    0    0    0 -0.26824212521E+02 -0.53663956328E+01 -0.12770230896E+02  0.30189656782E+02  0.00000000000E+00 0. -1.
</event>
<event>
 5    1  0.6622940E-004  0.9118800E+02  0.7818608E-02  0.1130116E+00
         25   -1    0    0    0    0  0.00000000000E+00  0.00000000000E+00  0.99999998245E-14  0.12500000000E+03  0.12500000000E+03 0.  0.
        -11    1    3    3    0    0  0.17783470803E+02 -0.42941391299E+02 -0.69543847495E+01  0.46995514552E+02  0.51100000000E-03 0.  1.
         23    2    1    0    0    0 -0.21257406772E+02 -0.21463920369E+02  0.75618106177E+01  0.93859059101E+02  0.88542446178E+02 0.  0.
         11    1    3    3    0    0 -0.39040877576E+02  0.21477470930E+02  0.14516195367E+02  0.46863544548E+02  0.51100000000E-03 0. -1.
         22    1    1    0    0    0  0.21257406772E+02  0.21463920369E+02 -0.75618106177E+01  0.31140940899E+02  0.00000000000E+00 0.  1.
</event>
<event>
 5    1  0.6622940E-004  0.9118800E+02  0.7818608E-02  0.1130116E+00
         25   -1    0    0    0    0  0.00000000000E+00  0.00000000000E+00  0.99999998245E-14  0.12500000000E+03  0.12500000000E+03 0.  0.
        -11    1    3    3    0    0 -0.20924360954E+02 -0.32814315726E+02 -0.44622613400E+01  0.39172949524E+02  0.51100000000E-03 0. -1.
         23    2    1    0    0    0  0.14484448587E+02  0.60849107355E+01 -0.24860587702E+02  0.95591256225E+02  0.90955011166E+02 0.  0.
         11    1    3    3    0    0  0.35408809541E+02  0.38899226461E+02 -0.20398326362E+02  0.56418306701E+02  0.51100000000E-03 0.  1.
         22    1    1    0    0    0 -0.14484448587E+02 -0.60849107355E+01  0.24860587702E+02  0.29408743775E+02  0.00000000000E+00 0.  1.
</event>
<event>
 5    1  0.6622940E-004  0.9118800E+02  0.7818608E-02  0.1130116E+00
         25   -1    0    0    0    0  0.00000000000E+00  0.00000000000E+00  0.99999998245E-14  0.12500000000E+03  0.12500000000E+03 0.  0.
        -11    1    3    3    0    0 -0.23282044591E+02 -0.53836850197E+02 -0.11213662533E+02  0.59717721550E+02  0.51100000000E-03 0. -1.
         23    2    1    0    0    0 -0.26283578150E+02 -0.40422501440E+02 -0.11215380847E+01  0.76770725169E+02  0.59730070252E+02 0.  0.
         11    1    3    3    0    0 -0.30015335587E+01  0.13414348757E+02  0.10092124448E+02  0.17053003619E+02  0.51100000000E-03 0.  1.
         22    1    1    0    0    0  0.26283578150E+02  0.40422501440E+02  0.11215380847E+01  0.48229274831E+02  0.00000000000E+00 0. -1.
</event>
<event>
 5    1  0.6622940E-004  0.9118800E+02  0.7818608E-02  0.1130116E+00
         25   -1    0    0    0    0  0.00000000000E+00  0.00000000000E+00  0.99999998245E-14  0.12500000000E+03  0.12500000000E+03 0.  0.
        -11    1    3    3    0    0  0.52037279362E+02 -0.13799091553E+02 -0.28602405728E+02  0.60962209481E+02  0.51100000000E-03 0.  1.
         23    2    1    0    0    0  0.23913333371E+02 -0.14989827847E+02 -0.85953212551E+01  0.95497084902E+02  0.90825498763E+02 0.  0.
         11    1    3    3    0    0 -0.28123945991E+02 -0.11907362938E+01  0.20007084472E+02  0.34534875421E+02  0.51100000000E-03 0. -1.
         22    1    1    0    0    0 -0.23913333371E+02  0.14989827847E+02  0.85953212551E+01  0.29502915098E+02  0.00000000000E+00 0.  1.
</event>
<event>
 5    1  0.6622940E-004  0.9118800E+02  0.7818608E-02  0.1130116E+00
         25   -1    0    0    0    0  0.00000000000E+00  0.00000000000E+00  0.99999998245E-14  0.12500000000E+03  0.12500000000E+03 0.  0.
        -11    1    3    3    0    0 -0.20835950300E+02 -0.23916293504E+02 -0.14498584919E+02  0.34875992958E+02  0.51100000000E-03 0.  1.
         23    2    1    0    0    0  0.21221212856E+02  0.17420442021E+02  0.52131472057E+01  0.97053827112E+02  0.92943298726E+02 0.  0.
         11    1    3    3    0    0  0.42057163155E+02  0.41336735525E+02  0.19711732125E+02  0.62177834155E+02  0.51100000000E-03 0. -1.
         22    1    1    0    0    0 -0.21221212856E+02 -0.17420442021E+02 -0.52131472057E+01  0.27946172888E+02  0.00000000000E+00 0. -1.
</event>
<event>
 5    1  0.6622940E-004  0.9118800E+02  0.7818608E-02  0.1130116E+00
         25   -1    0    0    0    0  0.00000000000E+00  0.00000000000E+00  0.99999998245E-14  0.12500000000E+03  0.12500000000E+03 0.  0.
        -11    1    3    3    0    0  0.19405995047E+02  0.13215387542E+02  0.27576674994E+02  0.36217566395E+02  0.51100000000E-03 0.  1.
         23    2    1    0    0    0 -0.19612850051E+02  0.15107698711E+02 -0.16602946108E+02  0.95191204873E+02  0.90403546491E+02 0.  0.
         11    1    3    3    0    0 -0.39018845098E+02  0.18923111695E+01 -0.44179621102E+02  0.58973638477E+02  0.51100000000E-03 0. -1.
         22    1    1    0    0    0  0.19612850051E+02 -0.15107698711E+02  0.16602946108E+02  0.29808795127E+02  0.00000000000E+00 0. -1.
</event>
<event>
 5    1  0.6622940E-004  0.9118800E+02  0.7818608E-02  0.1130116E+00
         25   -1    0    0    0    0  0.00000000000E+00  0.00000000000E+00  0.99999998245E-14  0.12500000000E+03  0.12500000000E+03 0.  0.
        -11    1    3    3    0    0  0.14038113117E+02 -0.15836239546E+02  0.40252326768E+02  0.45476421510E+02  0.51100000000E-03 0. -1.
         23    2    1    0    0    0 -0.24725190300E+02 -0.14017566850E+02  0.93633849005E+01  0.95075090768E+02  0.90242853966E+02 0.  0.
         11    1    3    3    0    0 -0.38763303417E+02  0.18186726967E+01 -0.30888941868E+02  0.49598669258E+02  0.51100000000E-03 0.  1.
         22    1    1    0    0    0  0.24725190300E+02  0.14017566850E+02 -0.93633849005E+01  0.29924909232E+02  0.00000000000E+00 0. -1.
</event>
<event>
 5    1  0.6622940E-004  0.9118800E+02  0.7818608E-02  0.1130116E+00
         25   -1    0    0    0    0  0.00000000000E+00  0.00000000000E+00  0.99999998245E-14  0.12500000000E+03  0.12500000000E+03 0.  0.
        -11    1    3    3    0    0 -0.25678747529E+02  0.48012699459E+02  0.17772302816E+02  0.57275405993E+02  0.51100000000E-03 0. -1.
         23    2    1    0    0    0  0.51785681239E+01  0.28205205014E+02  0.73127376908E+01  0.95405620631E+02  0.90699532291E+02 0.  0.
         11    1    3    3    0    0  0.30857315653E+02 -0.19807494445E+02 -0.10459565125E+02  0.38130214638E+02  0.51100000000E-03 0.  1.
         22    1    1    0    0    0 -0.51785681239E+01 -0.28205205014E+02 -0.73127376908E+01  0.29594379369E+02  0.00000000000E+00 0. -1.
</event>
<event>
 5    1  0.6622940E-004  0.9118800E+02  0.7818608E-02  0.1130116E+00
         25   -1    0    0    0    0  0.00000000000E+00  0.00000000000E+00  0.99999998245E-14  0.12500000000E+03  0.12500000000E+03 0.  0.
        -11    1    3    3    0    0 -0.16320539107E+02 -0.50716905561E+02  0.26053823522E+02  0.59307387624E+02  0.51100000000E-03 0.  1.
         23    2    1    0    0    0  0.67529692407E+01 -0.23907098584E+02  0.89795735059E+01  0.98584385364E+02  0.94979452204E+02 0.  0.
         11    1    3    3    0    0  0.23073508347E+02  0.26809806977E+02 -0.17074250016E+02  0.39276997740E+02  0.51100000000E-03 0. -1.
         22    1    1    0    0    0 -0.67529692407E+01  0.23907098584E+02 -0.89795735059E+01  0.26415614636E+02  0.00000000000E+00 0.  1.
</event>
<event>
 5    1  0.6622940E-004  0.9118800E+02  0.7818608E-02  0.1130116E+00
         25   -1    0    0    0    0  0.00000000000E+00  0.00000000000E+00  0.99999998245E-14  0.12500000000E+03  0.12500000000E+03 0.  0.
        -11    1    3    3    0    0 -0.16852209983E+02 -0.61247409604E+01 -0.34594444065E+02  0.38965176679E+02  0.51100000000E-03 0.  1.
         23    2    1    0    0    0 -0.19710959783E+02 -0.11400840100E+01  0.21763388242E+02  0.95615194489E+02  0.90987903715E+02 0.  0.
         11    1    3    3    0    0 -0.28587498005E+01  0.49846569504E+01  0.56357832307E+02  0.56650017811E+02  0.51100000000E-03 0. -1.
         22    1    1    0    0    0  0.19710959783E+02  0.11400840100E+01 -0.21763388242E+02  0.29384805511E+02  0.00000000000E+00 0. -1.
</event>
<event>
 5    1  0.6622940E-004  0.9118800E+02  0.7818608E-02  0.1130116E+00
         25   -1    0    0    0    0  0.00000000000E+00  0.00000000000E+00  0.99999998245E-14  0.12500000000E+03  0.12500000000E+03 0.  0.
        -11    1    3    3    0    0 -0.19388178833E+01 -0.24081231314E+02 -0.50476670552E+02  0.55960334047E+02  0.51100000000E-03 0.  1.
         23    2    1    0    0    0  0.17946172818E+02 -0.31711079023E+01 -0.20572616842E+02  0.97516302871E+02  0.93563217761E+02 0.  0.
         11    1    3    3    0    0  0.19884990701E+02  0.20910123412E+02  0.29904053710E+02  0.41555968823E+02  0.51100000000E-03 0. -1.
         22    1    1    0    0    0 -0.17946172818E+02  0.31711079023E+01  0.20572616842E+02  0.27483697129E+02  0.00000000000E+00 0.  1.
</event>
<event>
 5    1  0.6622940E-004  0.9118800E+02  0.7818608E-02  0.1130116E+00
         25   -1    0    0    0    0  0.00000000000E+00  0.00000000000E+00  0.99999998245E-14  0.12500000000E+03  0.12500000000E+03 0.  0.
        -11    1    3    3    0    0 -0.14647657254E+02  0.20506745173E+01  0.25254627375E+02  0.29266966586E+02  0.51100000000E-03 0. -1.
         23    2    1    0    0    0 -0.89867109392E+00 -0.28996385150E+02 -0.22796436250E+02  0.88104533243E+02  0.80007082879E+02 0.  0.
         11    1    3    3    0    0  0.13748986160E+02 -0.31047059667E+02 -0.48051063625E+02  0.58837566658E+02  0.51100000000E-03 0.  1.
         22    1    1    0    0    0  0.89867109392E+00  0.28996385150E+02  0.22796436250E+02  0.36895466757E+02  0.00000000000E+00 0.  1.
</event>
<event>
 5    1  0.6622940E-004  0.9118800E+02  0.7818608E-02  0.1130116E+00
         25   -1    0    0    0    0  0.00000000000E+00  0.00000000000E+00  0.99999998245E-14  0.12500000000E+03  0.12500000000E+03 0.  0.
        -11    1    3    3    0    0 -0.35948842213E+02 -0.12430944633E+02  0.40638806477E+01  0.38253924859E+02  0.51100000000E-03 0. -1.
         23    2    1    0    0    0  0.15623880769E+01  0.23100878777E+02  0.22112269112E+02  0.92983690062E+02  0.87297895253E+02 0.  0.
         11    1    3    3    0    0  0.37511230290E+02  0.35531823410E+02  0.18048388464E+02  0.54729765203E+02  0.51100000000E-03 0.  1.
         22    1    1    0    0    0 -0.15623880769E+01 -0.23100878777E+02 -0.22112269112E+02  0.32016309938E+02  0.00000000000E+00 0.  1.
</event>
<event>
 5    1  0.6622940E-004  0.9118800E+02  0.7818608E-02  0.1130116E+00
         25   -1    0    0    0    0  0.00000000000E+00  0.00000000000E+00  0.99999998245E-14  0.12500000000E+03  0.12500000000E+03 0.  0.
        -11    1    3    3    0    0  0.27097324601E+02 -0.17549185701E+02 -0.27442898752E+02  0.42371589673E+02  0.51100000000E-03 0. -1.
         23    2    1    0    0    0 -0.16188436589E+02 -0.22509819017E+02  0.51712948300E+01  0.96795395383E+02  0.92595080030E+02 0.  0.
         11    1    3    3    0    0 -0.43285761190E+02 -0.49606333159E+01  0.32614193582E+02  0.54423805710E+02  0.51100000000E-03 0.  1.
         22    1    1    0    0    0  0.16188436589E+02  0.22509819017E+02 -0.51712948300E+01  0.28204604617E+02  0.00000000000E+00 0.  1.
</event>
<event>
 5    1  0.6622940E-004  0.9118800E+02  0.7818608E-02  0.1130116E+00
         25   -1    0    0    0    0  0.00000000000E+00  0.00000000000E+00  0.99999998245E-14  0.12500000000E+03  0.12500000000E+03 0.  0.
        -11    1    3    3    0    0  0.57559783651E+02  0.23028804678E+01  0.97193089959E+01  0.58420004450E+02  0.51100000000E-03 0.  1.
         23    2    1    0    0    0  0.24299527224E+02 -0.85434903045E+01  0.16979285075E+02  0.94149483448E+02  0.88951508486E+02 0.  0.
         11    1    3    3    0    0 -0.33260256426E+02 -0.10846370772E+02  0.72599760787E+01  0.35729478997E+02  0.51100000000E-03 0. -1.
         22    1    1    0    0    0 -0.24299527224E+02  0.85434903045E+01 -0.16979285075E+02  0.30850516552E+02  0.00000000000E+00 0.  1.
</event>
<event>
 5    1  0.6622940E-004  0.9118800E+02  0.7818608E-02  0.1130116E+00
         25   -1    0    0    0    0  0.00000000000E+00  0.00000000000E+00  0.99999998245E-14  0.12500000000E+03  0.12500000000E+03 0.  0.
        -11    1    3    3    0    0  0.37976175014E+02 -0.30077303874E+02 -0.22821164727E+01  0.48497856993E+02  0.51100000000E-03 0.  1.
         23    2    1    0    0    0 -0.50398551969E+01 -0.30462562901E+02  0.87495461522E+01  0.92907595341E+02  0.87188868758E+02 0.  0.
         11    1    3    3    0    0 -0.43016030211E+02 -0.38525902700E+00  0.11031662625E+02  0.44409738348E+02  0.51100000000E-03 0. -1.
         22    1    1    0    0    0  0.50398551969E+01  0.30462562901E+02 -0.87495461522E+01  0.32092404659E+02  0.00000000000E+00 0.  1.
</event>
<event>
 5    1  0.6622940E-004  0.9118800E+02  0.7818608E-02  0.1130116E+00
         25   -1    0    0    0    0  0.00000000000E+00  0.00000000000E+00  0.99999998245E-14  0.12500000000E+03  0.12500000000E+03 0.  0.
        -11    1    3    3    0    0 -0.40867698970E+02  0.22138691449E+02 -0.40364551257E+02  0.61559625377E+02  0.51100000000E-03 0.  1.
         23    2    1    0    0    0 -0.25305191821E+02  0.95795089683E+01 -0.14349773955E+02  0.94372630904E+02  0.89264537898E+02 0.  0.
         11    1    3    3    0    0  0.15562507148E+02 -0.12559182481E+02  0.26014777303E+02  0.32813005527E+02  0.51100000000E-03 0. -1.
         22    1    1    0    0    0  0.25305191821E+02 -0.95795089683E+01  0.14349773955E+02  0.30627369096E+02  0.00000000000E+00 0.  1.
</event>
<event>
 5    1  0.6622940E-004  0.9118800E+02  0.7818608E-02  0.1130116E+00
         25   -1    0    0    0    0  0.00000000000E+00  0.00000000000E+00  0.99999998245E-14  0.12500000000E+03  0.12500000000E+03 0.  0.
        -11    1    3    3    0    0  0.92352484920E+01 -0.26656860822E+02 -0.48854863921E+02  0.56415208700E+02  0.51100000000E-03 0. -1.
         23    2    1    0    0    0 -0.14945619310E+02 -0.68421249742E+01 -0.21354928236E+02  0.98051546043E+02  0.94275588095E+02 0.  0.
         11    1    3    3    0    0 -0.24180867802E+02  0.19814735848E+02  0.27499935686E+02  0.41636337343E+02  0.51100000000E-03 0.  1.
         22    1    1    0    0    0  0.14945619310E+02  0.68421249742E+01  0.21354928236E+02  0.26948453957E+02  0.00000000000E+00 0. -1.
</event>
<event>
 5    1  0.6622940E-004  0.9118800E+02  0.7818608E-02  0.1130116E+00
         25   -1    0    0    0    0  0.00000000000E+00  0.00000000000E+00  0.99999998245E-14  0.12500000000E+03  0.12500000000E+03 0.  0.
        -11    1    3    3    0    0 -0.30370381140E+01  0.28841323437E+02 -0.47208860393E+02  0.55405072313E+02  0.51100000000E-03 0. -1.
         23    2    1    0    0    0  0.57539606650E+01 -0.58634752790E+01 -0.27556013159E+02  0.96245482670E+02  0.91849717841E+02 0.  0.
         11    1    3    3    0    0  0.87909987790E+01 -0.34704798716E+02  0.19652847235E+02  0.40840410357E+02  0.51100000000E-03 0.  1.
         22    1    1    0    0    0 -0.57539606650E+01  0.58634752790E+01  0.27556013159E+02  0.28754517330E+02  0.00000000000E+00 0. -1.
</event>
<event>
 5    1  0.6622940E-004  0.9118800E+02  0.7818608E-02  0.1130116E+00
         25   -1    0    0    0    0  0.00000000000E+00  0.00000000000E+00  0.99999998245E-14  0.12500000000E+03  0.12500000000E+03 0.  0.
        -11    1    3    3    0    0 -0.75340562173E+01  0.46170358230E+02  0.92807192234E+01  0.47692721999E+02  0.51100000000E-03 0. -1.
         23    2    1    0    0    0  0.23180368691E+02  0.73133399542E+01 -0.67862851855E+01  0.99763754231E+02  0.96519109806E+02 0.  0.
         11    1    3    3    0    0  0.30714424908E+02 -0.38857018276E+02 -0.16067004409E+02  0.52071032231E+02  0.51100000000E-03 0.  1.
         22    1    1    0    0    0 -0.23180368691E+02 -0.73133399542E+01  0.67862851855E+01  0.25236245769E+02  0.00000000000E+00 0.  1.
</event>
<event>
 5    1  0.6622940E-004  0.9118800E+02  0.7818608E-02  0.1130116E+00
         25   -1    0    0    0    0  0.00000000000E+00  0.00000000000E+00  0.99999998245E-14  0.12500000000E+03  0.12500000000E+03 0.  0.
        -11    1    3    3    0    0  0.22182243502E+02 -0.66882516932E+01  0.32556807093E+02  0.39959108172E+02  0.51100000000E-03 0.  1.
         23    2    1    0    0    0 -0.20522256587E+02 -0.20085141198E+02 -0.15691701171E+01  0.96241728021E+02  0.91844607927E+02 0.  0.
         11    1    3    3    0    0 -0.42704500089E+02 -0.13396889505E+02 -0.34125977210E+02  0.56282619849E+02  0.51100000000E-03 0. -1.
         22    1    1    0    0    0  0.20522256587E+02  0.20085141198E+02  0.15691701171E+01  0.28758271979E+02  0.00000000000E+00 0. -1.
</event>
<event>
 5    1  0.6622940E-004  0.9118800E+02  0.7818608E-02  0.1130116E+00
         25   -1    0    0    0    0  0.00000000000E+00  0.00000000000E+00  0.99999998245E-14  0.12500000000E+03  0.12500000000E+03 0.  0.
        -11    1    3    3    0    0  0.96530562223E+01 -0.33655689797E+02  0.32254331280E+01  0.35160921053E+02  0.51100000000E-03 0.  1.
         23    2    1    0    0    0  0.36365237914E+01  0.27002274498E+02 -0.67571688145E+01  0.96928547174E+02  0.92774655987E+02 0.  0.
         11    1    3    3    0    0 -0.60165324309E+01  0.60657964295E+02 -0.99826019425E+01  0.61767626122E+02  0.51100000000E-03 0. -1.
         22    1    1    0    0    0 -0.36365237914E+01 -0.27002274498E+02  0.67571688145E+01  0.28071452826E+02  0.00000000000E+00 0. -1.
</event>
<event>
 5    1  0.6622940E-004  0.9118800E+02  0.7818608E-02  0.1130116E+00
         25   -1    0    0    0    0  0.00000000000E+00  0.00000000000E+00  0.99999998245E-14  0.12500000000E+03  0.12500000000E+03 0.  0.
        -11    1    3    3    0    0 -0.18255735966E+02 -0.43257177817E+02  0.82054966306E+01  0.47663251080E+02  0.51100000000E-03 0.  1.
         23    2    1    0    0    0 -0.25857807719E+02  0.38530284962E+01  0.13325025576E+02  0.95656715330E+02  0.91044927549E+02 0.  0.
         11    1    3    3    0    0 -0.76020717536E+01  0.47110206313E+02  0.51195289452E+01  0.47993464250E+02  0.51100000000E-03 0. -1.
         22    1    1    0    0    0  0.25857807719E+02 -0.38530284962E+01 -0.13325025576E+02  0.29343284670E+02  0.00000000000E+00 0. -1.
</event>
<event>
 5    1  0.6622940E-004  0.9118800E+02  0.7818608E-02  0.1130116E+00
         25   -1    0    0    0    0  0.00000000000E+00  0.00000000000E+00  0.99999998245E-14  0.12500000000E+03  0.12500000000E+03 0.  0.
        -11    1    3    3    0    0 -0.33963943488E+02 -0.35321595062E+02 -0.24572108598E+02  0.54817452113E+02  0.51100000000E-03 0.  1.
         23    2    1    0    0    0 -0.20853975163E+02 -0.17561269394E+02  0.10104683524E+02  0.95924390085E+02  0.91411692476E+02 0.  0.
         11    1    3    3    0    0  0.13109968325E+02  0.17760325668E+02  0.34676792122E+02  0.41106937972E+02  0.51100000000E-03 0. -1.
         22    1    1    0    0    0  0.20853975163E+02  0.17561269394E+02 -0.10104683524E+02  0.29075609915E+02  0.00000000000E+00 0.  1.
</event>
<event>
 5    1  0.6622940E-004  0.9118800E+02  0.7818608E-02  0.1130116E+00
         25   -1    0    0    0    0  0.00000000000E+00  0.00000000000E+00  0.99999998245E-14  0.12500000000E+03  0.12500000000E+03 0.  0.
        -11    1    3    3    0    0  0.17004123831E+02  0.17851337727E+02 -0.22335112609E+02  0.33266616020E+02  0.51100000000E-03 0. -1.
         23    2    1    0    0    0 -0.22703589706E+02 -0.18813547132E+02  0.69062210443E+01  0.94716366956E+02  0.89744591698E+02 0.  0.
         11    1    3    3    0    0 -0.39707713537E+02 -0.36664884859E+02  0.29241333654E+02  0.61449750936E+02  0.51100000000E-03 0.  1.
         22    1    1    0    0    0  0.22703589706E+02  0.18813547132E+02 -0.69062210443E+01  0.30283633044E+02  0.00000000000E+00 0.  1.
</event>
<event>
 5    1  0.6622940E-004  0.9118800E+02  0.7818608E-02  0.1130116E+00
         25   -1    0    0    0    0  0.00000000000E+00  0.00000000000E+00  0.99999998245E-14  0.12500000000E+03  0.12500000000E+03 0.  0.
        -11    1    3    3    0    0 -0.28173954736E+01  0.19588929730E+02  0.30319004836E+02  0.36206435060E+02  0.51100000000E-03 0.  1.
         23    2    1    0    0    0 -0.19342590119E+02  0.13583762140E+02 -0.22799889155E+02  0.92159638676E+02  0.86109869754E+02 0.  0.
         11    1    3    3    0    0 -0.16525194645E+02 -0.60051675902E+01 -0.53118893991E+02  0.55953203616E+02  0.51100000000E-03 0. -1.
         22    1    1    0    0    0  0.19342590119E+02 -0.13583762140E+02  0.22799889155E+02  0.32840361324E+02  0.00000000000E+00 0. -1.
</event>
<event>
 5    1  0.6622940E-004  0.9118800E+02  0.7818608E-02  0.1130116E+00
         25   -1    0    0    0    0  0.00000000000E+00  0.00000000000E+00  0.99999998245E-14  0.12500000000E+03  0.12500000000E+03 0.  0.
        -11    1    3    3    0    0  0.22357171757E+02  0.55332706336E+02  0.93411843905E+01  0.60405374310E+02  0.51100000000E-03 0. -1.
         23    2    1    0    0    0  0.10372325075E+02  0.41409731737E+02  0.15196642437E+02  0.79686768474E+02  0.65549158030E+02 0.  0.
         11    1    3    3    0    0 -0.11984846683E+02 -0.13922974599E+02  0.58554580470E+01  0.19281394164E+02  0.51100000000E-03 0.  1.
         22    1    1    0    0    0 -0.10372325075E+02 -0.41409731737E+02 -0.15196642437E+02  0.45313231526E+02  0.00000000000E+00 0. -1.
</event>
<event>
 5    1  0.6622940E-004  0.9118800E+02  0.7818608E-02  0.1130116E+00
         25   -1    0    0    0    0  0.00000000000E+00  0.00000000000E+00  0.99999998245E-14  0.12500000000E+03  0.12500000000E+03 0.  0.
        -11    1    3    3    0    0  0.21275044844E+02  0.31641934745E+02 -0.22218423546E+02  0.44130464678E+02  0.51100000000E-03 0. -1.
         23    2    1    0    0    0  0.22175849896E+02  0.47993575746E+00  0.18988413786E+02  0.95801395323E+02  0.91243349516E+02 0.  0.
         11    1    3    3    0    0  0.90080505265E+00 -0.31161998988E+02  0.41206837332E+02  0.51670930646E+02  0.51100000000E-03 0.  1.
         22    1    1    0    0    0 -0.22175849896E+02 -0.47993575746E+00 -0.18988413786E+02  0.29198604677E+02  0.00000000000E+00 0. -1.
</event>
<event>
 5    1  0.6622940E-004  0.9118800E+02  0.7818608E-02  0.1130116E+00
         25   -1    0    0    0    0  0.00000000000E+00  0.00000000000E+00  0.99999998245E-14  0.12500000000E+03  0.12500000000E+03 0.  0.
        -11    1    3    3    0    0 -0.50015266048E+02  0.20094526604E+02  0.13581877901E+02  0.55585827734E+02  0.51100000000E-03 0.  1.
         23    2    1    0    0    0 -0.26451460894E+02  0.84553457342E+01 -0.14183787760E+02  0.93817432913E+02  0.88483660798E+02 0.  0.
         11    1    3    3    0    0  0.23563805154E+02 -0.11639180870E+02 -0.27765665661E+02  0.38231605179E+02  0.51100000000E-03 0. -1.
         22    1    1    0    0    0  0.26451460894E+02 -0.84553457342E+01  0.14183787760E+02  0.31182567087E+02  0.00000000000E+00 0.  1.
</event>
<event>
 5    1  0.6622940E-004  0.9118800E+02  0.7818608E-02  0.1130116E+00
         25   -1    0    0    0    0  0.00000000000E+00  0.00000000000E+00  0.99999998245E-14  0.12500000000E+03  0.12500000000E+03 0.  0.
        -11    1    3    3    0    0 -0.48626988814E+02  0.29308453263E+02 -0.19686913721E+02  0.60092795291E+02  0.51100000000E-03 0. -1.
         23    2    1    0    0    0 -0.28360677398E+02  0.82936828327E+01  0.25838496260E+00  0.95450381387E+02  0.90761199566E+02 0.  0.
         11    1    3    3    0    0  0.20266311416E+02 -0.21014770430E+02  0.19945298684E+02  0.35357586095E+02  0.51100000000E-03 0.  1.
         22    1    1    0    0    0  0.28360677398E+02 -0.82936828327E+01 -0.25838496260E+00  0.29549618613E+02  0.00000000000E+00 0. -1.
</event>
<event>
 5    1  0.6622940E-004  0.9118800E+02  0.7818608E-02  0.1130116E+00
         25   -1    0    0    0    0  0.00000000000E+00  0.00000000000E+00  0.99999998245E-14  0.12500000000E+03  0.12500000000E+03 0.  0.
        -11    1    3    3    0    0 -0.46965681861E+02 -0.16827469384E+02 -0.30476593274E-02  0.49889267464E+02  0.51100000000E-03 0. -1.
         23    2    1    0    0    0 -0.15323346831E+02  0.10927578424E+02  0.20892141086E+02  0.96880638566E+02  0.92710083817E+02 0.  0.
         11    1    3    3    0    0  0.31642335031E+02  0.27755047808E+02  0.20895188745E+02  0.46991371101E+02  0.51100000000E-03 0.  1.
         22    1    1    0    0    0  0.15323346831E+02 -0.10927578424E+02 -0.20892141086E+02  0.28119361434E+02  0.00000000000E+00 0.  1.
</event>
<event>
 5    1  0.6622940E-004  0.9118800E+02  0.7818608E-02  0.1130116E+00
         25   -1    0    0    0    0  0.00000000000E+00  0.00000000000E+00  0.99999998245E-14  0.12500000000E+03  0.12500000000E+03 0.  0.
        -11    1    3    3    0    0 -0.36085725935E+02  0.14674950914E+02  0.75508809451E+00  0.38962853577E+02  0.51100000000E-03 0.  1.
         23    2    1    0    0    0  0.10783467724E+02  0.10984247813E+02  0.27816070203E+02  0.93208953498E+02  0.87619851486E+02 0.  0.
         11    1    3    3    0    0  0.46869193659E+02 -0.36907031002E+01  0.27060982108E+02  0.54246099920E+02  0.51100000000E-03 0. -1.
         22    1    1    0    0    0 -0.10783467724E+02 -0.10984247813E+02 -0.27816070203E+02  0.31791046502E+02  0.00000000000E+00 0. -1.
</event>
<event>
 5    1  0.6622940E-004  0.9118800E+02  0.7818608E-02  0.1130116E+00
         25   -1    0    0    0    0  0.00000000000E+00  0.00000000000E+00  0.99999998245E-14  0.12500000000E+03  0.12500000000E+03 0.  0.
        -11    1    3    3    0    0  0.41981407157E+01  0.19167073665E+02  0.57618259321E+02  0.60867601446E+02  0.51100000000E-03 0. -1.
         23    2    1    0    0    0  0.37306142115E+01  0.17419448369E+02  0.21293875375E+02  0.97237006783E+02  0.93189332521E+02 0.  0.
         11    1    3    3    0    0 -0.46752650420E+00 -0.17476252958E+01 -0.36324383946E+02  0.36369405337E+02  0.51100000000E-03 0.  1.
         22    1    1    0    0    0 -0.37306142115E+01 -0.17419448369E+02 -0.21293875375E+02  0.27762993217E+02  0.00000000000E+00 0. -1.
</event>
<event>
 5    1  0.6622940E-004  0.9118800E+02  0.7818608E-02  0.1130116E+00
         25   -1    0    0    0    0  0.00000000000E+00  0.00000000000E+00  0.99999998245E-14  0.12500000000E+03  0.12500000000E+03 0.  0.
        -11    1    3    3    0    0 -0.46141112437E+02 -0.21874439772E+02 -0.20435164576E+02  0.55000812029E+02  0.51100000000E-03 0. -1.
         23    2    1    0    0    0 -0.13451453853E+02  0.10945885109E+01 -0.26356050199E+02  0.95389510020E+02  0.90677326301E+02 0.  0.
         11    1    3    3    0    0  0.32689658585E+02  0.22969028283E+02 -0.59208856231E+01  0.40388697992E+02  0.51100000000E-03 0.  1.
         22    1    1    0    0    0  0.13451453853E+02 -0.10945885109E+01  0.26356050199E+02  0.29610489980E+02  0.00000000000E+00 0. -1.
</event>
<event>
 5    1  0.6622940E-004  0.9118800E+02  0.7818608E-02  0.1130116E+00
         25   -1    0    0    0    0  0.00000000000E+00  0.00000000000E+00  0.99999998245E-14  0.12500000000E+03  0.12500000000E+03 0.  0.
        -11    1    3    3    0    0  0.53941934721E+02 -0.29379795441E+02  0.47405813688E+01  0.61606637740E+02  0.51100000000E-03 0. -1.
         23    2    1    0    0    0  0.16317135628E+02 -0.13015610013E+02  0.77238905818E+01  0.10274436016E+03  0.10030498512E+03 0.  0.
         11    1    3    3    0    0 -0.37624799093E+02  0.16364185428E+02  0.29833092130E+01  0.41137722417E+02  0.51100000000E-03 0.  1.
         22    1    1    0    0    0 -0.16317135628E+02  0.13015610013E+02 -0.77238905818E+01  0.22255639843E+02  0.00000000000E+00 0. -1.
</event>
<event>
 5    1  0.6622940E-004  0.9118800E+02  0.7818608E-02  0.1130116E+00
         25   -1    0    0    0    0  0.00000000000E+00  0.00000000000E+00  0.99999998245E-14  0.12500000000E+03  0.12500000000E+03 0.  0.
        -11    1    3    3    0    0 -0.37802882898E+02  0.41500885376E+02 -0.37130296299E+01  0.56259826091E+02  0.51100000000E-03 0.  1.
         23    2    1    0    0    0 -0.23109372880E+01  0.27346012439E+02  0.83248559883E+01  0.96321644840E+02  0.91953309946E+02 0.  0.
         11    1    3    3    0    0  0.35491945610E+02 -0.14154872937E+02  0.12037885618E+02  0.40061818749E+02  0.51100000000E-03 0. -1.
         22    1    1    0    0    0  0.23109372880E+01 -0.27346012439E+02 -0.83248559883E+01  0.28678355160E+02  0.00000000000E+00 0.  1.
</event>
<event>
 5    1  0.6622940E-004  0.9118800E+02  0.7818608E-02  0.1130116E+00
         25   -1    0    0    0    0  0.00000000000E+00  0.00000000000E+00  0.99999998245E-14  0.12500000000E+03  0.12500000000E+03 0.  0.
        -11    1    3    3    0    0  0.35521586483E+02 -0.57933996965E+01 -0.66864993817E+01  0.36606773424E+02  0.51100000000E-03 0. -1.
         23    2    1    0    0    0 -0.48645370368E+01 -0.85779797455E+01  0.31338373404E+02  0.92146703291E+02  0.86091090263E+02 0.  0.
         11    1    3    3    0    0 -0.40386123519E+02 -0.27845800490E+01  0.38024872785E+02  0.55539929866E+02  0.51100000000E-03 0.  1.
         22    1    1    0    0    0  0.48645370368E+01  0.85779797455E+01 -0.31338373404E+02  0.32853296709E+02  0.00000000000E+00 0.  1.
</event>
<event>
 5    1  0.6622940E-004  0.9118800E+02  0.7818608E-02  0.1130116E+00
         25   -1    0    0    0    0  0.00000000000E+00  0.00000000000E+00  0.99999998245E-14  0.12500000000E+03  0.12500000000E+03 0.  0.
        -11    1    3    3    0    0 -0.38792960545E+02 -0.78615548887E+01  0.55294168266E+01  0.39965889003E+02  0.51100000000E-03 0.  1.
         23    2    1    0    0    0  0.72314599199E+01  0.10173516613E+01 -0.27005997757E+02  0.97024065130E+02  0.92903263035E+02 0.  0.
         11    1    3    3    0    0  0.46024420465E+02  0.88789065501E+01 -0.32535414584E+02  0.57058176128E+02  0.51100000000E-03 0. -1.
         22    1    1    0    0    0 -0.72314599199E+01 -0.10173516613E+01  0.27005997757E+02  0.27975934870E+02  0.00000000000E+00 0. -1.
</event>
<event>
 5    1  0.6622940E-004  0.9118800E+02  0.7818608E-02  0.1130116E+00
         25   -1    0    0    0    0  0.00000000000E+00  0.00000000000E+00  0.99999998245E-14  0.12500000000E+03  0.12500000000E+03 0.  0.
        -11    1    3    3    0    0 -0.37119314096E+02 -0.13949225896E+02 -0.21914602286E+02  0.45306447397E+02  0.51100000000E-03 0. -1.
         23    2    1    0    0    0  0.17549186817E+01  0.17759867273E+02 -0.23492402488E+02  0.95497701789E+02  0.90826347758E+02 0.  0.
         11    1    3    3    0    0  0.38874232778E+02  0.31709093169E+02 -0.15778002013E+01  0.50191254392E+02  0.51100000000E-03 0.  1.
         22    1    1    0    0    0 -0.17549186817E+01 -0.17759867273E+02  0.23492402488E+02  0.29502298211E+02  0.00000000000E+00 0. -1.
</event>
<event>
 5    1  0.6622940E-004  0.9118800E+02  0.7818608E-02  0.1130116E+00
         25   -1    0    0    0    0  0.00000000000E+00  0.00000000000E+00  0.99999998245E-14  0.12500000000E+03  0.12500000000E+03 0.  0.
        -11    1    3    3    0    0  0.16272593770E+02  0.39432401783E+01 -0.57252306874E+02  0.59650424087E+02  0.51100000000E-03 0.  1.
         23    2    1    0    0    0  0.19797896900E+02  0.36545110133E+01 -0.21619903454E+02  0.95457955423E+02  0.90771630237E+02 0.  0.
         11    1    3    3    0    0  0.35253031306E+01 -0.28872916493E+00  0.35632403420E+02  0.35807531337E+02  0.51100000000E-03 0. -1.
         22    1    1    0    0    0 -0.19797896900E+02 -0.36545110133E+01  0.21619903454E+02  0.29542044577E+02  0.00000000000E+00 0.  1.
</event>
<event>
 5    1  0.6622940E-004  0.9118800E+02  0.7818608E-02  0.1130116E+00
         25   -1    0    0    0    0  0.00000000000E+00  0.00000000000E+00  0.99999998245E-14  0.12500000000E+03  0.12500000000E+03 0.  0.
        -11    1    3    3    0    0 -0.30621853580E+01 -0.34504198006E+02 -0.31660153944E+02  0.46928477572E+02  0.51100000000E-03 0.  1.
         23    2    1    0    0    0 -0.56257352179E+01 -0.22288135618E+02  0.16515575197E+02  0.96694980831E+02  0.92459424656E+02 0.  0.
         11    1    3    3    0    0 -0.25635498599E+01  0.12216062387E+02  0.48175729141E+02  0.49766503259E+02  0.51100000000E-03 0. -1.
         22    1    1    0    0    0  0.56257352179E+01  0.22288135618E+02 -0.16515575197E+02  0.28305019169E+02  0.00000000000E+00 0. -1.
</event>
<event>
 5    1  0.6622940E-004  0.9118800E+02  0.7818608E-02  0.1130116E+00
         25   -1    0    0    0    0  0.00000000000E+00  0.00000000000E+00  0.99999998245E-14  0.12500000000E+03  0.12500000000E+03 0.  0.
        -11    1    3    3    0    0 -0.54083163574E+02 -0.12706840214E+02  0.24645835799E+02  0.60777212777E+02  0.51100000000E-03 0. -1.
         23    2    1    0    0    0 -0.28498099543E+02  0.29127201293E+01  0.71920110669E+01  0.95464417404E+02  0.90780528480E+02 0.  0.
         11    1    3    3    0    0  0.25585064032E+02  0.15619560343E+02 -0.17453824732E+02  0.34687204627E+02  0.51100000000E-03 0.  1.
         22    1    1    0    0    0  0.28498099543E+02 -0.29127201293E+01 -0.71920110669E+01  0.29535582596E+02  0.00000000000E+00 0. -1.
</event>
<event>
 5    1  0.6622940E-004  0.9118800E+02  0.7818608E-02  0.1130116E+00
         25   -1    0    0    0    0  0.00000000000E+00  0.00000000000E+00  0.99999998245E-14  0.12500000000E+03  0.12500000000E+03 0.  0.
        -11    1    3    3    0    0  0.43649258076E+01 -0.47925131122E+02  0.18956466721E+02  0.51722513484E+02  0.51100000000E-03 0.  1.
         23    2    1    0    0    0  0.25383876410E+02 -0.17297023565E+02 -0.17181794436E+01  0.94235079288E+02  0.89071711683E+02 0.  0.
         11    1    3    3    0    0  0.21018950602E+02  0.30628107557E+02 -0.20674646164E+02  0.42512565804E+02  0.51100000000E-03 0. -1.
         22    1    1    0    0    0 -0.25383876410E+02  0.17297023565E+02  0.17181794436E+01  0.30764920712E+02  0.00000000000E+00 0. -1.
</event>
<event>
 5    1  0.6622940E-004  0.9118800E+02  0.7818608E-02  0.1130116E+00
         25   -1    0    0    0    0  0.00000000000E+00  0.00000000000E+00  0.99999998245E-14  0.12500000000E+03  0.12500000000E+03 0.  0.
        -11    1    3    3    0    0 -0.16634752463E+02  0.18013658895E+02  0.21561170270E+02  0.32651048374E+02  0.51100000000E-03 0.  1.
         23    2    1    0    0    0  0.35784985536E+01 -0.12388051865E+02 -0.27980415665E+02  0.94191346318E+02  0.89010317264E+02 0.  0.
         11    1    3    3    0    0  0.20213251016E+02 -0.30401710760E+02 -0.49541585935E+02  0.61540297944E+02  0.51100000000E-03 0. -1.
         22    1    1    0    0    0 -0.35784985536E+01  0.12388051865E+02  0.27980415665E+02  0.30808653682E+02  0.00000000000E+00 0. -1.
</event>
<event>
 5    1  0.6622940E-004  0.9118800E+02  0.7818608E-02  0.1130116E+00
         25   -1    0    0    0    0  0.00000000000E+00  0.00000000000E+00  0.99999998245E-14  0.12500000000E+03  0.12500000000E+03 0.  0.
        -11    1    3    3    0    0  0.29406435598E+02 -0.64084090003E+01 -0.36782498345E+02  0.47526396300E+02  0.51100000000E-03 0. -1.
         23    2    1    0    0    0 -0.70195345277E+01 -0.24133283821E+02 -0.24607320310E+02  0.89826011517E+02  0.82652906054E+02 0.  0.
         11    1    3    3    0    0 -0.36425970125E+02 -0.17724874821E+02  0.12175178036E+02  0.42299615217E+02  0.51100000000E-03 0.  1.
         22    1    1    0    0    0  0.70195345277E+01  0.24133283821E+02  0.24607320310E+02  0.35173988483E+02  0.00000000000E+00 0.  1.
</event>
<event>
 5    1  0.6622940E-004  0.9118800E+02  0.7818608E-02  0.1130116E+00
         25   -1    0    0    0    0  0.00000000000E+00  0.00000000000E+00  0.99999998245E-14  0.12500000000E+03  0.12500000000E+03 0.  0.
        -11    1    3    3    0    0  0.30866527726E+02  0.31154101166E+02  0.24813725812E+02  0.50388902968E+02  0.51100000000E-03 0. -1.
         23    2    1    0    0    0 -0.13497943030E+00  0.29910453974E+02 -0.64137724850E+01  0.94409315897E+02  0.89315894298E+02 0.  0.
         11    1    3    3    0    0 -0.31001507157E+02 -0.12436471915E+01 -0.31227498297E+02  0.44020412930E+02  0.51100000000E-03 0.  1.
         22    1    1    0    0    0  0.13497943030E+00 -0.29910453974E+02  0.64137724850E+01  0.30590684103E+02  0.00000000000E+00 0.  1.
</event>
<event>
 5    1  0.6622940E-004  0.9118800E+02  0.7818608E-02  0.1130116E+00
         25   -1    0    0    0    0  0.00000000000E+00  0.00000000000E+00  0.99999998245E-14  0.12500000000E+03  0.12500000000E+03 0.  0.
        -11    1    3    3    0    0  0.22486604337E+02 -0.32121859706E+02 -0.13424218731E+02  0.41444793332E+02  0.51100000000E-03 0.  1.
         23    2    1    0    0    0  0.16692852321E+02  0.13058842297E+02  0.18336315220E+02  0.96974919508E+02  0.92837114760E+02 0.  0.
         11    1    3    3    0    0 -0.57937520161E+01  0.45180702003E+02  0.31760533951E+02  0.55530126175E+02  0.51100000000E-03 0. -1.
         22    1    1    0    0    0 -0.16692852321E+02 -0.13058842297E+02 -0.18336315220E+02  0.28025080492E+02  0.00000000000E+00 0. -1.
</event>
<event>
 5    1  0.6622940E-004  0.9118800E+02  0.7818608E-02  0.1130116E+00
         25   -1    0    0    0    0  0.00000000000E+00  0.00000000000E+00  0.99999998245E-14  0.12500000000E+03  0.12500000000E+03 0.  0.
        -11    1    3    3    0    0 -0.17658433134E+02 -0.53250440984E+02  0.11235577200E+02  0.57215976099E+02  0.51100000000E-03 0.  1.
         23    2    1    0    0    0  0.10448274909E+02 -0.24479663964E+02  0.50188991273E+01  0.97914768880E+02  0.94094060492E+02 0.  0.
         11    1    3    3    0    0  0.28106708043E+02  0.28770777019E+02 -0.62166780730E+01  0.40698792781E+02  0.51100000000E-03 0. -1.
         22    1    1    0    0    0 -0.10448274909E+02  0.24479663964E+02 -0.50188991273E+01  0.27085231120E+02  0.00000000000E+00 0.  1.
</event>
<event>
 5    1  0.6622940E-004  0.9118800E+02  0.7818608E-02  0.1130116E+00
         25   -1    0    0    0    0  0.00000000000E+00  0.00000000000E+00  0.99999998245E-14  0.12500000000E+03  0.12500000000E+03 0.  0.
        -11    1    3    3    0    0 -0.16233918651E+01 -0.35244288001E+02 -0.26858182318E+02  0.44341371151E+02  0.51100000000E-03 0. -1.
         23    2    1    0    0    0 -0.31869830102E+02 -0.32118517831E+02 -0.11978407352E+02  0.78194364644E+02  0.62638575662E+02 0.  0.
         11    1    3    3    0    0 -0.30246438237E+02  0.31257701702E+01  0.14879774965E+02  0.33852993493E+02  0.51100000000E-03 0.  1.
         22    1    1    0    0    0  0.31869830102E+02  0.32118517831E+02  0.11978407352E+02  0.46805635356E+02  0.00000000000E+00 0. -1.
</event>
<event>
 5    1  0.6622940E-004  0.9118800E+02  0.7818608E-02  0.1130116E+00
         25   -1    0    0    0    0  0.00000000000E+00  0.00000000000E+00  0.99999998245E-14  0.12500000000E+03  0.12500000000E+03 0.  0.
        -11    1    3    3    0    0  0.24778769710E+02 -0.40720161868E+02 -0.14942803794E+02  0.49954042843E+02  0.51100000000E-03 0.  1.
         23    2    1    0    0    0  0.23648578974E+02  0.43922320755E+01 -0.17656514030E+02  0.95162113382E+02  0.90363313051E+02 0.  0.
         11    1    3    3    0    0 -0.11301907356E+01  0.45112393943E+02 -0.27137102357E+01  0.45208070539E+02  0.51100000000E-03 0. -1.
         22    1    1    0    0    0 -0.23648578974E+02 -0.43922320755E+01  0.17656514030E+02  0.29837886618E+02  0.00000000000E+00 0. -1.
</event>
<event>
 5    1  0.6622940E-004  0.9118800E+02  0.7818608E-02  0.1130116E+00
         25   -1    0    0    0    0  0.00000000000E+00  0.00000000000E+00  0.99999998245E-14  0.12500000000E+03  0.12500000000E+03 0.  0.
        -11    1    3    3    0    0 -0.33787214617E+02  0.27329439959E+02  0.40657744947E+02  0.59510724954E+02  0.51100000000E-03 0.  1.
         23    2    1    0    0    0 -0.18877499668E+02  0.22999196515E+02  0.10469544403E+02  0.93457419350E+02  0.87973603073E+02 0.  0.
         11    1    3    3    0    0  0.14909714949E+02 -0.43302434447E+01 -0.30188200544E+02  0.33946694397E+02  0.51100000000E-03 0. -1.
         22    1    1    0    0    0  0.18877499668E+02 -0.22999196515E+02 -0.10469544403E+02  0.31542580650E+02  0.00000000000E+00 0.  1.
</event>
<event>
 5    1  0.6622940E-004  0.9118800E+02  0.7818608E-02  0.1130116E+00
         25   -1    0    0    0    0  0.00000000000E+00  0.00000000000E+00  0.99999998245E-14  0.12500000000E+03  0.12500000000E+03 0.  0.
        -11    1    3    3    0    0  0.10027639692E+02 -0.10481693557E+02  0.52158072065E+02  0.54137638842E+02  0.51100000000E-03 0. -1.
         23    2    1    0    0    0 -0.14263068516E+02  0.81873131501E+01  0.24985001143E+02  0.95088171198E+02  0.90260970522E+02 0.  0.
         11    1    3    3    0    0 -0.24290708208E+02  0.18669006708E+02 -0.27173070921E+02  0.40950532356E+02  0.51100000000E-03 0.  1.
         22    1    1    0    0    0  0.14263068516E+02 -0.81873131501E+01 -0.24985001143E+02  0.29911828802E+02  0.00000000000E+00 0.  1.
</event>
<event>
 5    1  0.6622940E-004  0.9118800E+02  0.7818608E-02  0.1130116E+00
         25   -1    0    0    0    0  0.00000000000E+00  0.00000000000E+00  0.99999998245E-14  0.12500000000E+03  0.12500000000E+03 0.  0.
        -11    1    3    3    0    0  0.26505922618E+02 -0.30401762839E+02 -0.43646651051E+02  0.59429464626E+02  0.51100000000E-03 0.  1.
         23    2    1    0    0    0  0.13797238571E+02 -0.17121829121E+01 -0.26219411459E+02  0.95322518642E+02  0.90584930648E+02 0.  0.
         11    1    3    3    0    0 -0.12708684047E+02  0.28689579927E+02  0.17427239592E+02  0.35893054016E+02  0.51100000000E-03 0. -1.
         22    1    1    0    0    0 -0.13797238571E+02  0.17121829121E+01  0.26219411459E+02  0.29677481358E+02  0.00000000000E+00 0.  1.
</event>
<event>
 5    1  0.6622940E-004  0.9118800E+02  0.7818608E-02  0.1130116E+00
         25   -1    0    0    0    0  0.00000000000E+00  0.00000000000E+00  0.99999998245E-14  0.12500000000E+03  0.12500000000E+03 0.  0.
        -11    1    3    3    0    0 -0.29260898078E+02 -0.32141896527E+02  0.10027695206E+02  0.44607805820E+02  0.51100000000E-03 0. -1.
         23    2    1    0    0    0 -0.23476007316E+02  0.15660482593E+02 -0.74168606349E+01  0.95821524094E+02  0.91270921018E+02 0.  0.
         11    1    3    3    0    0  0.57848907624E+01  0.47802379120E+02 -0.17444555841E+02  0.51213718274E+02  0.51100000000E-03 0.  1.
         22    1    1    0    0    0  0.23476007316E+02 -0.15660482593E+02  0.74168606349E+01  0.29178475906E+02  0.00000000000E+00 0.  1.
</event>
<event>
 5    1  0.6622940E-004  0.9118800E+02  0.7818608E-02  0.1130116E+00
         25   -1    0    0    0    0  0.00000000000E+00  0.00000000000E+00  0.99999998245E-14  0.12500000000E+03  0.12500000000E+03 0.  0.
        -11    1    3    3    0    0  0.38169819229E+02 -0.11438570128E+02 -0.46012648422E+02  0.60868216678E+02  0.51100000000E-03 0.  1.
         23    2    1    0    0    0  0.21204051365E+02  0.23453615461E+01 -0.14557656499E+02  0.99172923553E+02  0.95750879308E+02 0.  0.
         11    1    3    3    0    0 -0.16965767865E+02  0.13783931674E+02  0.31454991922E+02  0.38304706874E+02  0.51100000000E-03 0. -1.
         22    1    1    0    0    0 -0.21204051365E+02 -0.23453615461E+01  0.14557656499E+02  0.25827076447E+02  0.00000000000E+00 0.  1.
</event>
<event>
 5    1  0.6622940E-004  0.9118800E+02  0.7818608E-02  0.1130116E+00
         25   -1    0    0    0    0  0.00000000000E+00  0.00000000000E+00  0.99999998245E-14  0.12500000000E+03  0.12500000000E+03 0.  0.
        -11    1    3    3    0    0 -0.18206120286E+02  0.17216622351E+02 -0.38803753866E+02  0.46190975476E+02  0.51100000000E-03 0. -1.
         23    2    1    0    0    0 -0.34134029449E+02  0.15153968520E+02 -0.58340442775E+00  0.87648760542E+02  0.79291803710E+02 0.  0.
         11    1    3    3    0    0 -0.15927909163E+02 -0.20626538311E+01  0.38220349439E+02  0.41457785066E+02  0.51100000000E-03 0.  1.
         22    1    1    0    0    0  0.34134029449E+02 -0.15153968520E+02  0.58340442775E+00  0.37351239458E+02  0.00000000000E+00 0.  1.
</event>
<event>
 5    1  0.6622940E-004  0.9118800E+02  0.7818608E-02  0.1130116E+00
         25   -1    0    0    0    0  0.00000000000E+00  0.00000000000E+00  0.99999998245E-14  0.12500000000E+03  0.12500000000E+03 0.  0.
        -11    1    3    3    0    0  0.27335373446E+02 -0.36345625789E+02 -0.10394199575E+02  0.46650472029E+02  0.51100000000E-03 0. -1.
         23    2    1    0    0    0  0.70033621069E+01 -0.12770360321E+02  0.26400575634E+02  0.94848390137E+02  0.89928291067E+02 0.  0.
         11    1    3    3    0    0 -0.20332011339E+02  0.23575265468E+02  0.36794775209E+02  0.48197918108E+02  0.51100000000E-03 0.  1.
         22    1    1    0    0    0 -0.70033621069E+01  0.12770360321E+02 -0.26400575634E+02  0.30151609863E+02  0.00000000000E+00 0.  1.
</event>
<event>
 5    1  0.6622940E-004  0.9118800E+02  0.7818608E-02  0.1130116E+00
         25   -1    0    0    0    0  0.00000000000E+00  0.00000000000E+00  0.99999998245E-14  0.12500000000E+03  0.12500000000E+03 0.  0.
        -11    1    3    3    0    0 -0.31121813211E+02 -0.12788308880E+02  0.11892736795E+02  0.35686766319E+02  0.51100000000E-03 0.  1.
         23    2    1    0    0    0  0.12554180371E+02  0.20630779508E+00 -0.26760298481E+02  0.95440507743E+02  0.90747600165E+02 0.  0.
         11    1    3    3    0    0  0.43675993582E+02  0.12994616675E+02 -0.38653035276E+02  0.59753741424E+02  0.51100000000E-03 0. -1.
         22    1    1    0    0    0 -0.12554180371E+02 -0.20630779508E+00  0.26760298481E+02  0.29559492257E+02  0.00000000000E+00 0. -1.
</event>
<event>
 5    1  0.6622940E-004  0.9118800E+02  0.7818608E-02  0.1130116E+00
         25   -1    0    0    0    0  0.00000000000E+00  0.00000000000E+00  0.99999998245E-14  0.12500000000E+03  0.12500000000E+03 0.  0.
        -11    1    3    3    0    0  0.28043551674E+02  0.24633022410E+02 -0.27374843085E+02  0.46288320533E+02  0.51100000000E-03 0. -1.
         23    2    1    0    0    0 -0.17688251793E+02  0.21661776441E+02 -0.10752596094E+02  0.95037938442E+02  0.90191377695E+02 0.  0.
         11    1    3    3    0    0 -0.45731803467E+02 -0.29712459697E+01  0.16622246991E+02  0.48749617909E+02  0.51100000000E-03 0.  1.
         22    1    1    0    0    0  0.17688251793E+02 -0.21661776441E+02  0.10752596094E+02  0.29962061558E+02  0.00000000000E+00 0.  1.
</event>
<event>
 5    1  0.6622940E-004  0.9118800E+02  0.7818608E-02  0.1130116E+00
         25   -1    0    0    0    0  0.00000000000E+00  0.00000000000E+00  0.99999998245E-14  0.12500000000E+03  0.12500000000E+03 0.  0.
        -11    1    3    3    0    0  0.14867098834E+02 -0.40848692279E+01  0.46419553737E+02  0.48913104111E+02  0.51100000000E-03 0.  1.
         23    2    1    0    0    0 -0.39562279792E+01 -0.28540868268E+02  0.17028443127E+02  0.91530599398E+02  0.85191841449E+02 0.  0.
         11    1    3    3    0    0 -0.18823326813E+02 -0.24455999041E+02 -0.29391110610E+02  0.42617495287E+02  0.51100000000E-03 0. -1.
         22    1    1    0    0    0  0.39562279792E+01  0.28540868268E+02 -0.17028443127E+02  0.33469400602E+02  0.00000000000E+00 0. -1.
</event>
<event>
 5    1  0.6622940E-004  0.9118800E+02  0.7818608E-02  0.1130116E+00
         25   -1    0    0    0    0  0.00000000000E+00  0.00000000000E+00  0.99999998245E-14  0.12500000000E+03  0.12500000000E+03 0.  0.
        -11    1    3    3    0    0  0.30778781765E+02  0.32435156128E+02 -0.36086924288E+02  0.57459889182E+02  0.51100000000E-03 0.  1.
         23    2    1    0    0    0  0.20672850434E+01  0.89760475526E+01 -0.28156424281E+02  0.95375224466E+02  0.90657631320E+02 0.  0.
         11    1    3    3    0    0 -0.28711496721E+02 -0.23459108576E+02  0.79305000063E+01  0.37915335285E+02  0.51100000000E-03 0. -1.
         22    1    1    0    0    0 -0.20672850434E+01 -0.89760475526E+01  0.28156424281E+02  0.29624775534E+02  0.00000000000E+00 0.  1.
</event>
<event>
 5    1  0.6622940E-004  0.9118800E+02  0.7818608E-02  0.1130116E+00
         25   -1    0    0    0    0  0.00000000000E+00  0.00000000000E+00  0.99999998245E-14  0.12500000000E+03  0.12500000000E+03 0.  0.
        -11    1    3    3    0    0  0.32083343840E+02  0.37392563686E+02  0.27370636028E+02  0.56362190232E+02  0.51100000000E-03 0. -1.
         23    2    1    0    0    0  0.21204101468E+02  0.17263283993E+02 -0.61751896719E+01  0.96968448834E+02  0.92828401950E+02 0.  0.
         11    1    3    3    0    0 -0.10879242372E+02 -0.20129279693E+02 -0.33545825700E+02  0.40606258602E+02  0.51100000000E-03 0.  1.
         22    1    1    0    0    0 -0.21204101468E+02 -0.17263283993E+02  0.61751896719E+01  0.28031551166E+02  0.00000000000E+00 0. -1.
</event>
<event>
 5    1  0.6622940E-004  0.9118800E+02  0.7818608E-02  0.1130116E+00
         25   -1    0    0    0    0  0.00000000000E+00  0.00000000000E+00  0.99999998245E-14  0.12500000000E+03  0.12500000000E+03 0.  0.
        -11    1    3    3    0    0  0.21905798761E+02 -0.44160093746E+02 -0.28765325133E+02  0.57073827883E+02  0.51100000000E-03 0. -1.
         23    2    1    0    0    0 -0.54424518663E+01 -0.19043004537E+02 -0.22994915209E+02  0.94651648651E+02  0.89654404035E+02 0.  0.
         11    1    3    3    0    0 -0.27348250628E+02  0.25117089209E+02  0.57704099234E+01  0.37577820768E+02  0.51100000000E-03 0.  1.
         22    1    1    0    0    0  0.54424518663E+01  0.19043004537E+02  0.22994915209E+02  0.30348351349E+02  0.00000000000E+00 0. -1.
</event>
<event>
 5    1  0.6622940E-004  0.9118800E+02  0.7818608E-02  0.1130116E+00
         25   -1    0    0    0    0  0.00000000000E+00  0.00000000000E+00  0.99999998245E-14  0.12500000000E+03  0.12500000000E+03 0.  0.
        -11    1    3    3    0    0 -0.25461764001E+02  0.35744584912E+02 -0.15782005271E+02  0.46637414886E+02  0.51100000000E-03 0.  1.
         23    2    1    0    0    0 -0.46512271658E+01  0.16898421438E+02  0.23970782637E+02  0.95305068084E+02  0.90560847064E+02 0.  0.
         11    1    3    3    0    0  0.20810536835E+02 -0.18846163473E+02  0.39752787909E+02  0.48667653198E+02  0.51100000000E-03 0. -1.
         22    1    1    0    0    0  0.46512271658E+01 -0.16898421438E+02 -0.23970782637E+02  0.29694931916E+02  0.00000000000E+00 0. -1.
</event>
<event>
 5    1  0.6622940E-004  0.9118800E+02  0.7818608E-02  0.1130116E+00
         25   -1    0    0    0    0  0.00000000000E+00  0.00000000000E+00  0.99999998245E-14  0.12500000000E+03  0.12500000000E+03 0.  0.
        -11    1    3    3    0    0 -0.18903168046E+02  0.10036050485E+02  0.26914815463E+02  0.34386906857E+02  0.51100000000E-03 0.  1.
         23    2    1    0    0    0  0.44518593766E+01 -0.45400011025E+00 -0.28879924054E+02  0.95775435309E+02  0.91207778327E+02 0.  0.
         11    1    3    3    0    0  0.23355027423E+02 -0.10490050596E+02 -0.55794739517E+02  0.61388528452E+02  0.51100000000E-03 0. -1.
         22    1    1    0    0    0 -0.44518593766E+01  0.45400011025E+00  0.28879924054E+02  0.29224564691E+02  0.00000000000E+00 0. -1.
</event>
<event>
 5    1  0.6622940E-004  0.9118800E+02  0.7818608E-02  0.1130116E+00
         25   -1    0    0    0    0  0.00000000000E+00  0.00000000000E+00  0.99999998245E-14  0.12500000000E+03  0.12500000000E+03 0.  0.
        -11    1    3    3    0    0 -0.29539394854E+02 -0.31141510997E+02 -0.77552849329E+00  0.42929838110E+02  0.51100000000E-03 0.  1.
         23    2    1    0    0    0  0.11405159182E+02 -0.89789330328E+01 -0.25509429308E+02  0.95649874311E+02  0.91035534698E+02 0.  0.
         11    1    3    3    0    0  0.40944554036E+02  0.22162577964E+02 -0.24733900815E+02  0.52720036200E+02  0.51100000000E-03 0. -1.
         22    1    1    0    0    0 -0.11405159182E+02  0.89789330328E+01  0.25509429308E+02  0.29350125689E+02  0.00000000000E+00 0. -1.
</event>
<event>
 5    1  0.6622940E-004  0.9118800E+02  0.7818608E-02  0.1130116E+00
         25   -1    0    0    0    0  0.00000000000E+00  0.00000000000E+00  0.99999998245E-14  0.12500000000E+03  0.12500000000E+03 0.  0.
        -11    1    3    3    0    0 -0.64117327165E+01 -0.43067305413E+02 -0.90387207683E+01  0.44470232576E+02  0.51100000000E-03 0. -1.
         23    2    1    0    0    0 -0.17878971395E+02  0.39678082506E+01 -0.23694610717E+02  0.95052784813E+02  0.90211951554E+02 0.  0.
         11    1    3    3    0    0 -0.11467238679E+02  0.47035113664E+02 -0.14655889948E+02  0.50582552236E+02  0.51100000000E-03 0.  1.
         22    1    1    0    0    0  0.17878971395E+02 -0.39678082506E+01  0.23694610717E+02  0.29947215187E+02  0.00000000000E+00 0.  1.
</event>
<event>
 5    1  0.6622940E-004  0.9118800E+02  0.7818608E-02  0.1130116E+00
         25   -1    0    0    0    0  0.00000000000E+00  0.00000000000E+00  0.99999998245E-14  0.12500000000E+03  0.12500000000E+03 0.  0.
        -11    1    3    3    0    0 -0.18583354857E+02  0.30824997370E+02  0.18333736265E+02  0.40393655768E+02  0.51100000000E-03 0. -1.
         23    2    1    0    0    0 -0.10594759479E+02 -0.23965604468E+02  0.12179968061E+02  0.96104485678E+02  0.91657631540E+02 0.  0.
         11    1    3    3    0    0  0.79885953776E+01 -0.54790601838E+02 -0.61537682042E+01  0.55710829910E+02  0.51100000000E-03 0.  1.
         22    1    1    0    0    0  0.10594759479E+02  0.23965604468E+02 -0.12179968061E+02  0.28895514322E+02  0.00000000000E+00 0.  1.
</event>
<event>
 5    1  0.6622940E-004  0.9118800E+02  0.7818608E-02  0.1130116E+00
         25   -1    0    0    0    0  0.00000000000E+00  0.00000000000E+00  0.99999998245E-14  0.12500000000E+03  0.12500000000E+03 0.  0.
        -11    1    3    3    0    0  0.15606198893E+02 -0.23316377062E+02  0.24068338527E+02  0.36966089906E+02  0.51100000000E-03 0.  1.
         23    2    1    0    0    0  0.14457148718E+02  0.42786117251E-02 -0.27698809255E+02  0.93755269220E+02  0.88395799137E+02 0.  0.
         11    1    3    3    0    0 -0.11490501753E+01  0.23320655674E+02 -0.51767147783E+02  0.56789179314E+02  0.51100000000E-03 0. -1.
         22    1    1    0    0    0 -0.14457148718E+02 -0.42786117251E-02  0.27698809255E+02  0.31244730780E+02  0.00000000000E+00 0. -1.
</event>
<event>
 5    1  0.6622940E-004  0.9118800E+02  0.7818608E-02  0.1130116E+00
         25   -1    0    0    0    0  0.00000000000E+00  0.00000000000E+00  0.99999998245E-14  0.12500000000E+03  0.12500000000E+03 0.  0.
        -11    1    3    3    0    0  0.31775092632E+02  0.11143341476E+02  0.30516958907E+01  0.33810404007E+02  0.51100000000E-03 0.  1.
         23    2    1    0    0    0 -0.22930946041E+02 -0.74268573180E+01 -0.17591356426E+02  0.95159719893E+02  0.90360002066E+02 0.  0.
         11    1    3    3    0    0 -0.54706038673E+02 -0.18570198794E+02 -0.20643052316E+02  0.61349315887E+02  0.51100000000E-03 0. -1.
         22    1    1    0    0    0  0.22930946041E+02  0.74268573180E+01  0.17591356426E+02  0.29840280107E+02  0.00000000000E+00 0. -1.
</event>
<event>
 5    1  0.6622940E-004  0.9118800E+02  0.7818608E-02  0.1130116E+00
         25   -1    0    0    0    0  0.00000000000E+00  0.00000000000E+00  0.99999998245E-14  0.12500000000E+03  0.12500000000E+03 0.  0.
        -11    1    3    3    0    0 -0.14635309488E+02  0.28365764635E+02 -0.13434448974E+02  0.34630814409E+02  0.51100000000E-03 0.  1.
         23    2    1    0    0    0  0.11814966871E+02 -0.25149810907E+02 -0.12987515902E+02  0.94327830201E+02  0.89201779973E+02 0.  0.
         11    1    3    3    0    0  0.26450276359E+02 -0.53515575542E+02  0.44693307120E+00  0.59697015793E+02  0.51100000000E-03 0. -1.
         22    1    1    0    0    0 -0.11814966871E+02  0.25149810907E+02  0.12987515902E+02  0.30672169799E+02  0.00000000000E+00 0. -1.
</event>
<event>
 5    1  0.6622940E-004  0.9118800E+02  0.7818608E-02  0.1130116E+00
         25   -1    0    0    0    0  0.00000000000E+00  0.00000000000E+00  0.99999998245E-14  0.12500000000E+03  0.12500000000E+03 0.  0.
        -11    1    3    3    0    0  0.22687354290E+02  0.28210935697E+02 -0.47693442578E+02  0.59876851978E+02  0.51100000000E-03 0. -1.
         23    2    1    0    0    0 -0.13430079708E+01  0.11990978537E+02 -0.26787574087E+02  0.95620392070E+02  0.90995043917E+02 0.  0.
         11    1    3    3    0    0 -0.24030362261E+02 -0.16219957160E+02  0.20905868491E+02  0.35743540092E+02  0.51100000000E-03 0.  1.
         22    1    1    0    0    0  0.13430079708E+01 -0.11990978537E+02  0.26787574087E+02  0.29379607930E+02  0.00000000000E+00 0. -1.
</event>
<event>
 5    1  0.6622940E-004  0.9118800E+02  0.7818608E-02  0.1130116E+00
         25   -1    0    0    0    0  0.00000000000E+00  0.00000000000E+00  0.99999998245E-14  0.12500000000E+03  0.12500000000E+03 0.  0.
        -11    1    3    3    0    0 -0.44316295961E+02 -0.31707799707E+02  0.23993586547E+02  0.59539993664E+02  0.51100000000E-03 0. -1.
         23    2    1    0    0    0 -0.24490491601E+02 -0.28602722605E+01  0.16485534124E+02  0.95339619497E+02  0.90608525395E+02 0.  0.
         11    1    3    3    0    0  0.19825804360E+02  0.28847527446E+02 -0.75080524231E+01  0.35799625832E+02  0.51100000000E-03 0.  1.
         22    1    1    0    0    0  0.24490491601E+02  0.28602722605E+01 -0.16485534124E+02  0.29660380503E+02  0.00000000000E+00 0. -1.
</event>
<event>
 5    1  0.6622940E-004  0.9118800E+02  0.7818608E-02  0.1130116E+00
         25   -1    0    0    0    0  0.00000000000E+00  0.00000000000E+00  0.99999998245E-14  0.12500000000E+03  0.12500000000E+03 0.  0.
        -11    1    3    3    0    0  0.52419668800E+02 -0.18909181267E+02  0.16145107303E+02  0.58017612010E+02  0.51100000000E-03 0. -1.
         23    2    1    0    0    0  0.24554091363E+02  0.81197086470E+01  0.97486752744E+01  0.97361806485E+02  0.93356583170E+02 0.  0.
         11    1    3    3    0    0 -0.27865577437E+02  0.27028889914E+02 -0.63964320286E+01  0.39344194474E+02  0.51100000000E-03 0.  1.
         22    1    1    0    0    0 -0.24554091363E+02 -0.81197086470E+01 -0.97486752744E+01  0.27638193515E+02  0.00000000000E+00 0. -1.
</event>
<event>
 5    1  0.6622940E-004  0.9118800E+02  0.7818608E-02  0.1130116E+00
         25   -1    0    0    0    0  0.00000000000E+00  0.00000000000E+00  0.99999998245E-14  0.12500000000E+03  0.12500000000E+03 0.  0.
        -11    1    3    3    0    0  0.14691836686E+01  0.55866511812E+01  0.51630236164E+02  0.51952386458E+02  0.51100000000E-03 0. -1.
         23    2    1    0    0    0  0.16195079774E+02  0.19912181366E+02  0.11838430455E+02  0.96734756125E+02  0.92513183013E+02 0.  0.
         11    1    3    3    0    0  0.14725896106E+02  0.14325530185E+02 -0.39791805709E+02  0.44782369667E+02  0.51100000000E-03 0.  1.
         22    1    1    0    0    0 -0.16195079774E+02 -0.19912181366E+02 -0.11838430455E+02  0.28265243875E+02  0.00000000000E+00 0. -1.
</event>
<event>
 5    1  0.6622940E-004  0.9118800E+02  0.7818608E-02  0.1130116E+00
         25   -1    0    0    0    0  0.00000000000E+00  0.00000000000E+00  0.99999998245E-14  0.12500000000E+03  0.12500000000E+03 0.  0.
        -11    1    3    3    0    0 -0.18123609743E+02  0.36682266475E+02 -0.29176079586E+02  0.50252338494E+02  0.51100000000E-03 0.  1.
         23    2    1    0    0    0  0.19466544271E+02  0.15763962971E+02 -0.16135394427E+02  0.95204030008E+02  0.90421277928E+02 0.  0.
         11    1    3    3    0    0  0.37590154014E+02 -0.20918303504E+02  0.13040685159E+02  0.44951691514E+02  0.51100000000E-03 0. -1.
         22    1    1    0    0    0 -0.19466544271E+02 -0.15763962971E+02  0.16135394427E+02  0.29795969992E+02  0.00000000000E+00 0. -1.
</event>
<event>
 5    1  0.6622940E-004  0.9118800E+02  0.7818608E-02  0.1130116E+00
         25   -1    0    0    0    0  0.00000000000E+00  0.00000000000E+00  0.99999998245E-14  0.12500000000E+03  0.12500000000E+03 0.  0.
        -11    1    3    3    0    0  0.17245983952E+02  0.27861425035E+02 -0.22605084294E+02  0.39807949001E+02  0.51100000000E-03 0. -1.
         23    2    1    0    0    0  0.20057505336E+02 -0.20633638609E+02  0.51684075352E+01  0.95763669878E+02  0.91191652411E+02 0.  0.
         11    1    3    3    0    0  0.28115213845E+01 -0.48495063643E+02  0.27773491829E+02  0.55955720877E+02  0.51100000000E-03 0.  1.
         22    1    1    0    0    0 -0.20057505336E+02  0.20633638609E+02 -0.51684075352E+01  0.29236330122E+02  0.00000000000E+00 0.  1.
</event>
<event>
 5    1  0.6622940E-004  0.9118800E+02  0.7818608E-02  0.1130116E+00
         25   -1    0    0    0    0  0.00000000000E+00  0.00000000000E+00  0.99999998245E-14  0.12500000000E+03  0.12500000000E+03 0.  0.
        -11    1    3    3    0    0  0.36978846148E+02  0.19341750005E+01  0.92498026526E+01  0.38167197234E+02  0.51100000000E-03 0.  1.
         23    2    1    0    0    0 -0.87351213981E+01 -0.20210296662E+02 -0.18672499349E+02  0.96130973883E+02  0.91693748264E+02 0.  0.
         11    1    3    3    0    0 -0.45713967546E+02 -0.22144471663E+02 -0.27922302002E+02  0.57963776648E+02  0.51100000000E-03 0. -1.
         22    1    1    0    0    0  0.87351213981E+01  0.20210296662E+02  0.18672499349E+02  0.28869026117E+02  0.00000000000E+00 0. -1.
</event>
<event>
 5    1  0.6622940E-004  0.9118800E+02  0.7818608E-02  0.1130116E+00
         25   -1    0    0    0    0  0.00000000000E+00  0.00000000000E+00  0.99999998245E-14  0.12500000000E+03  0.12500000000E+03 0.  0.
        -11    1    3    3    0    0 -0.17578829262E+02  0.40420818334E+02 -0.46297680595E+01  0.44320340088E+02  0.51100000000E-03 0. -1.
         23    2    1    0    0    0  0.17746693909E+02  0.14904727747E+02  0.20010280617E+02  0.94381257631E+02  0.89276617362E+02 0.  0.
         11    1    3    3    0    0  0.35325523171E+02 -0.25516090587E+02  0.24640048677E+02  0.50060917542E+02  0.51100000000E-03 0.  1.
         22    1    1    0    0    0 -0.17746693909E+02 -0.14904727747E+02 -0.20010280617E+02  0.30618742369E+02  0.00000000000E+00 0.  1.
</event>
<event>
 5    1  0.6622940E-004  0.9118800E+02  0.7818608E-02  0.1130116E+00
         25   -1    0    0    0    0  0.00000000000E+00  0.00000000000E+00  0.99999998245E-14  0.12500000000E+03  0.12500000000E+03 0.  0.
        -11    1    3    3    0    0 -0.37562468246E+02 -0.18519250476E+02 -0.40510143445E+02  0.58266400104E+02  0.51100000000E-03 0. -1.
         23    2    1    0    0    0 -0.61391777403E+01 -0.20403850843E+02 -0.19525108547E+02  0.96099541590E+02  0.91650888689E+02 0.  0.
         11    1    3    3    0    0  0.31423290506E+02 -0.18846003664E+01  0.20985034898E+02  0.37833141485E+02  0.51100000000E-03 0.  1.
         22    1    1    0    0    0  0.61391777403E+01  0.20403850843E+02  0.19525108547E+02  0.28900458410E+02  0.00000000000E+00 0. -1.
</event>
<event>
 5    1  0.6622940E-004  0.9118800E+02  0.7818608E-02  0.1130116E+00
         25   -1    0    0    0    0  0.00000000000E+00  0.00000000000E+00  0.99999998245E-14  0.12500000000E+03  0.12500000000E+03 0.  0.
        -11    1    3    3    0    0 -0.47251889125E+02 -0.13661123177E+02  0.23546706782E+02  0.54532693981E+02  0.51100000000E-03 0.  1.
         23    2    1    0    0    0 -0.22533548600E+02  0.16106800797E+02  0.88545221138E+01  0.95920928380E+02  0.91406958680E+02 0.  0.
         11    1    3    3    0    0  0.24718340525E+02  0.29767923974E+02 -0.14692184668E+02  0.41388234399E+02  0.51100000000E-03 0. -1.
         22    1    1    0    0    0  0.22533548600E+02 -0.16106800797E+02 -0.88545221138E+01  0.29079071620E+02  0.00000000000E+00 0.  1.
</event>
<event>
 5    1  0.6622940E-004  0.9118800E+02  0.7818608E-02  0.1130116E+00
         25   -1    0    0    0    0  0.00000000000E+00  0.00000000000E+00  0.99999998245E-14  0.12500000000E+03  0.12500000000E+03 0.  0.
        -11    1    3    3    0    0 -0.17818681841E+02  0.30571675727E+02 -0.20873414049E+02  0.41083234946E+02  0.51100000000E-03 0. -1.
         23    2    1    0    0    0 -0.25615058762E+02 -0.10470258752E+02  0.12579518630E+02  0.94602601384E+02  0.89585994139E+02 0.  0.
         11    1    3    3    0    0 -0.77963769200E+01 -0.41041934478E+02  0.33452932679E+02  0.53519366438E+02  0.51100000000E-03 0.  1.
         22    1    1    0    0    0  0.25615058762E+02  0.10470258752E+02 -0.12579518630E+02  0.30397398616E+02  0.00000000000E+00 0. -1.
</event>
<event>
 5    1  0.6622940E-004  0.9118800E+02  0.7818608E-02  0.1130116E+00
         25   -1    0    0    0    0  0.00000000000E+00  0.00000000000E+00  0.99999998245E-14  0.12500000000E+03  0.12500000000E+03 0.  0.
        -11    1    3    3    0    0 -0.12237960720E+02  0.37431370911E+02 -0.40015416937E+02  0.56143644376E+02  0.51100000000E-03 0.  1.
         23    2    1    0    0    0  0.53667426825E+01  0.28794171484E+01 -0.27413225303E+02  0.96918370923E+02  0.92760943994E+02 0.  0.
         11    1    3    3    0    0  0.17604703403E+02 -0.34551953763E+02  0.12602191634E+02  0.40774726547E+02  0.51100000000E-03 0. -1.
         22    1    1    0    0    0 -0.53667426825E+01 -0.28794171484E+01  0.27413225303E+02  0.28081629077E+02  0.00000000000E+00 0.  1.
</event>
<event>
 5    1  0.6622940E-004  0.9118800E+02  0.7818608E-02  0.1130116E+00
         25   -1    0    0    0    0  0.00000000000E+00  0.00000000000E+00  0.99999998245E-14  0.12500000000E+03  0.12500000000E+03 0.  0.
        -11    1    3    3    0    0  0.23703651645E+02 -0.70717529348E+01  0.35431756387E+02  0.43212060259E+02  0.51100000000E-03 0.  1.
         23    2    1    0    0    0 -0.34348567673E+01  0.27783178728E+02  0.57814906548E+01  0.96414533493E+02  0.92079494858E+02 0.  0.
         11    1    3    3    0    0 -0.27138508413E+02  0.34854931662E+02 -0.29650265732E+02  0.53202473235E+02  0.51100000000E-03 0. -1.
         22    1    1    0    0    0  0.34348567673E+01 -0.27783178728E+02 -0.57814906548E+01  0.28585466507E+02  0.00000000000E+00 0. -1.
</event>
<event>
 5    1  0.6622940E-004  0.9118800E+02  0.7818608E-02  0.1130116E+00
         25   -1    0    0    0    0  0.00000000000E+00  0.00000000000E+00  0.99999998245E-14  0.12500000000E+03  0.12500000000E+03 0.  0.
        -11    1    3    3    0    0  0.28300989821E+01  0.23602664299E+02  0.32624050806E+02  0.40366123341E+02  0.51100000000E-03 0.  1.
         23    2    1    0    0    0  0.28489757178E+02 -0.20284077902E+01 -0.85018819674E+01  0.95199619143E+02  0.90415180063E+02 0.  0.
         11    1    3    3    0    0  0.25659658196E+02 -0.25631072089E+02 -0.41125932774E+02  0.54833495803E+02  0.51100000000E-03 0. -1.
         22    1    1    0    0    0 -0.28489757178E+02  0.20284077902E+01  0.85018819674E+01  0.29800380857E+02  0.00000000000E+00 0. -1.
</event>
<event>
 5    1  0.6622940E-004  0.9118800E+02  0.7818608E-02  0.1130116E+00
         25   -1    0    0    0    0  0.00000000000E+00  0.00000000000E+00  0.99999998245E-14  0.12500000000E+03  0.12500000000E+03 0.  0.
        -11    1    3    3    0    0 -0.11360154317E+02 -0.10490654298E+02 -0.37159785676E+02  0.40248684519E+02  0.51100000000E-03 0.  1.
         23    2    1    0    0    0 -0.21352770428E+02 -0.10190347358E+01  0.17970984721E+02  0.97072674160E+02  0.92968642778E+02 0.  0.
         11    1    3    3    0    0 -0.99926161110E+01  0.94716195623E+01  0.55130770397E+02  0.56823989641E+02  0.51100000000E-03 0. -1.
         22    1    1    0    0    0  0.21352770428E+02  0.10190347358E+01 -0.17970984721E+02  0.27927325840E+02  0.00000000000E+00 0. -1.
</event>
<event>
 5    1  0.6622940E-004  0.9118800E+02  0.7818608E-02  0.1130116E+00
         25   -1    0    0    0    0  0.00000000000E+00  0.00000000000E+00  0.99999998245E-14  0.12500000000E+03  0.12500000000E+03 0.  0.
        -11    1    3    3    0    0 -0.24376410732E+01  0.48451370772E+02  0.28130511936E+02  0.56078544255E+02  0.51100000000E-03 0.  1.
         23    2    1    0    0    0  0.84332715361E+01  0.26981071178E+02 -0.42408643305E+01  0.96415332765E+02  0.92080579881E+02 0.  0.
         11    1    3    3    0    0  0.10870912609E+02 -0.21470299594E+02 -0.32371376267E+02  0.40336788510E+02  0.51100000000E-03 0. -1.
         22    1    1    0    0    0 -0.84332715361E+01 -0.26981071178E+02  0.42408643305E+01  0.28584667235E+02  0.00000000000E+00 0.  1.
</event>
<event>
 5    1  0.6622940E-004  0.9118800E+02  0.7818608E-02  0.1130116E+00
         25   -1    0    0    0    0  0.00000000000E+00  0.00000000000E+00  0.99999998245E-14  0.12500000000E+03  0.12500000000E+03 0.  0.
        -11    1    3    3    0    0 -0.43933425274E+02  0.21168322284E+02  0.28074874508E+02  0.56271149833E+02  0.51100000000E-03 0.  1.
         23    2    1    0    0    0 -0.13119284432E+02 -0.10183303680E+02  0.71953594115E-01  0.10839215622E+03  0.10711227312E+03 0.  0.
         11    1    3    3    0    0  0.30814140842E+02 -0.31351625964E+02 -0.28002920914E+02  0.52121006383E+02  0.51100000000E-03 0. -1.
         22    1    1    0    0    0  0.13119284432E+02  0.10183303680E+02 -0.71953594115E-01  0.16607843784E+02  0.00000000000E+00 0.  1.
</event>
<event>
 5    1  0.6622940E-004  0.9118800E+02  0.7818608E-02  0.1130116E+00
         25   -1    0    0    0    0  0.00000000000E+00  0.00000000000E+00  0.99999998245E-14  0.12500000000E+03  0.12500000000E+03 0.  0.
        -11    1    3    3    0    0  0.19657359261E+02 -0.26021270173E+02 -0.33334149764E+02  0.46633505286E+02  0.51100000000E-03 0. -1.
         23    2    1    0    0    0 -0.22183579705E+02 -0.16001760820E+02 -0.82758882184E+01  0.96422773338E+02  0.92090679955E+02 0.  0.
         11    1    3    3    0    0 -0.41840938966E+02  0.10019509353E+02  0.25058261546E+02  0.49789268052E+02  0.51100000000E-03 0.  1.
         22    1    1    0    0    0  0.22183579705E+02  0.16001760820E+02  0.82758882184E+01  0.28577226662E+02  0.00000000000E+00 0.  1.
</event>
<event>
 5    1  0.6622940E-004  0.9118800E+02  0.7818608E-02  0.1130116E+00
         25   -1    0    0    0    0  0.00000000000E+00  0.00000000000E+00  0.99999998245E-14  0.12500000000E+03  0.12500000000E+03 0.  0.
        -11    1    3    3    0    0  0.32431032967E+02 -0.13608432143E+02 -0.42048444123E+02  0.54818181091E+02  0.51100000000E-03 0. -1.
         23    2    1    0    0    0  0.18040349911E+02 -0.17373922895E+02  0.55905271533E+00  0.99947655567E+02  0.96756983684E+02 0.  0.
         11    1    3    3    0    0 -0.14390683056E+02 -0.37654907516E+01  0.42607496838E+02  0.45129474476E+02  0.51100000000E-03 0.  1.
         22    1    1    0    0    0 -0.18040349911E+02  0.17373922895E+02 -0.55905271533E+00  0.25052344433E+02  0.00000000000E+00 0. -1.
</event>
<event>
 5    1  0.6622940E-004  0.9118800E+02  0.7818608E-02  0.1130116E+00
         25   -1    0    0    0    0  0.00000000000E+00  0.00000000000E+00  0.99999998245E-14  0.12500000000E+03  0.12500000000E+03 0.  0.
        -11    1    3    3    0    0  0.21087609657E+02  0.53827977375E+02  0.88283710847E+01  0.58481437786E+02  0.51100000000E-03 0.  1.
         23    2    1    0    0    0  0.13470434827E+02  0.23457556328E+02 -0.11278683738E+02  0.95692692547E+02  0.91094309025E+02 0.  0.
         11    1    3    3    0    0 -0.76171748304E+01 -0.30370421047E+02 -0.20107054822E+02  0.37211254760E+02  0.51100000000E-03 0. -1.
         22    1    1    0    0    0 -0.13470434827E+02 -0.23457556328E+02  0.11278683738E+02  0.29307307453E+02  0.00000000000E+00 0.  1.
</event>
<event>
 5    1  0.6622940E-004  0.9118800E+02  0.7818608E-02  0.1130116E+00
         25   -1    0    0    0    0  0.00000000000E+00  0.00000000000E+00  0.99999998245E-14  0.12500000000E+03  0.12500000000E+03 0.  0.
        -11    1    3    3    0    0 -0.28278947120E+02  0.11397038291E+00 -0.28320122841E+02  0.40021759050E+02  0.51100000000E-03 0.  1.
         23    2    1    0    0    0 -0.20083115773E+02  0.94738262160E+01  0.23119138804E+02  0.92944119084E+02  0.87241216010E+02 0.  0.
         11    1    3    3    0    0  0.81958313468E+01  0.93598558331E+01  0.51439261645E+02  0.52922360034E+02  0.51100000000E-03 0. -1.
         22    1    1    0    0    0  0.20083115773E+02 -0.94738262160E+01 -0.23119138804E+02  0.32055880916E+02  0.00000000000E+00 0. -1.
</event>
<event>
 5    1  0.6622940E-004  0.9118800E+02  0.7818608E-02  0.1130116E+00
         25   -1    0    0    0    0  0.00000000000E+00  0.00000000000E+00  0.99999998245E-14  0.12500000000E+03  0.12500000000E+03 0.  0.
        -11    1    3    3    0    0 -0.19293974006E+02 -0.92386322332E+01 -0.33017109733E+02  0.39341317897E+02  0.51100000000E-03 0. -1.
         23    2    1    0    0    0  0.19227080670E+02 -0.15489148796E+02  0.10829517481E+02  0.98039421179E+02  0.94259510367E+02 0.  0.
         11    1    3    3    0    0  0.38521054676E+02 -0.62505165632E+01  0.43846627213E+02  0.58698103282E+02  0.51100000000E-03 0.  1.
         22    1    1    0    0    0 -0.19227080670E+02  0.15489148796E+02 -0.10829517481E+02  0.26960578821E+02  0.00000000000E+00 0.  1.
</event>
<event>
 5    1  0.6622940E-004  0.9118800E+02  0.7818608E-02  0.1130116E+00
         25   -1    0    0    0    0  0.00000000000E+00  0.00000000000E+00  0.99999998245E-14  0.12500000000E+03  0.12500000000E+03 0.  0.
        -11    1    3    3    0    0 -0.45891967822E+01 -0.23422673890E+02  0.47198714489E+02  0.52890462552E+02  0.51100000000E-03 0.  1.
         23    2    1    0    0    0 -0.37678146673E+01 -0.27569189740E+02  0.33144668879E+01  0.96977824120E+02  0.92841025576E+02 0.  0.
         11    1    3    3    0    0  0.82138211499E+00 -0.41465158496E+01 -0.43884247601E+02  0.44087361568E+02  0.51100000000E-03 0. -1.
         22    1    1    0    0    0  0.37678146673E+01  0.27569189740E+02 -0.33144668879E+01  0.28022175880E+02  0.00000000000E+00 0. -1.
</event>
<event>
 5    1  0.6622940E-004  0.9118800E+02  0.7818608E-02  0.1130116E+00
         25   -1    0    0    0    0  0.00000000000E+00  0.00000000000E+00  0.99999998245E-14  0.12500000000E+03  0.12500000000E+03 0.  0.
        -11    1    3    3    0    0  0.86842521625E+01  0.41800553979E+02  0.14200845283E+02  0.44992961178E+02  0.51100000000E-03 0. -1.
         23    2    1    0    0    0 -0.10970664518E+02 -0.44621004272E+01  0.25828933221E+02  0.96585221952E+02  0.92310917491E+02 0.  0.
         11    1    3    3    0    0 -0.19654916681E+02 -0.46262654406E+02  0.11628087938E+02  0.51592260774E+02  0.51100000000E-03 0.  1.
         22    1    1    0    0    0  0.10970664518E+02  0.44621004272E+01 -0.25828933221E+02  0.28414778048E+02  0.00000000000E+00 0.  1.
</event>
<event>
 5    1  0.6622940E-004  0.9118800E+02  0.7818608E-02  0.1130116E+00
         25   -1    0    0    0    0  0.00000000000E+00  0.00000000000E+00  0.99999998245E-14  0.12500000000E+03  0.12500000000E+03 0.  0.
        -11    1    3    3    0    0 -0.44456198564E+02  0.12004136830E+02 -0.15443472519E+02  0.48569061505E+02  0.51100000000E-03 0.  1.
         23    2    1    0    0    0 -0.16661371467E+02 -0.23661097440E+02 -0.11143553183E+02  0.93989878930E+02  0.88726939159E+02 0.  0.
         11    1    3    3    0    0  0.27794827098E+02 -0.35665234270E+02  0.42999193354E+01  0.45420817424E+02  0.51100000000E-03 0. -1.
         22    1    1    0    0    0  0.16661371467E+02  0.23661097440E+02  0.11143553183E+02  0.31010121070E+02  0.00000000000E+00 0. -1.
</event>
<event>
 5    1  0.6622940E-004  0.9118800E+02  0.7818608E-02  0.1130116E+00
         25   -1    0    0    0    0  0.00000000000E+00  0.00000000000E+00  0.99999998245E-14  0.12500000000E+03  0.12500000000E+03 0.  0.
        -11    1    3    3    0    0  0.40019502969E+02  0.35641311337E+02  0.14173686603E+02  0.55432455150E+02  0.51100000000E-03 0.  1.
         23    2    1    0    0    0  0.62402971559E+01  0.27098736676E+02 -0.71567933361E+01  0.96285847934E+02  0.91904635266E+02 0.  0.
         11    1    3    3    0    0 -0.33779205814E+02 -0.85425746615E+01 -0.21330479939E+02  0.40853392784E+02  0.51100000000E-03 0. -1.
         22    1    1    0    0    0 -0.62402971559E+01 -0.27098736676E+02  0.71567933361E+01  0.28714152066E+02  0.00000000000E+00 0.  1.
</event>
<event>
 5    1  0.6622940E-004  0.9118800E+02  0.7818608E-02  0.1130116E+00
         25   -1    0    0    0    0  0.00000000000E+00  0.00000000000E+00  0.99999998245E-14  0.12500000000E+03  0.12500000000E+03 0.  0.
        -11    1    3    3    0    0  0.31601817594E+02 -0.37436885135E+02  0.29805160972E+02  0.57345818197E+02  0.51100000000E-03 0.  1.
         23    2    1    0    0    0  0.71186402629E+01 -0.24857717652E+01  0.23297849863E+02  0.10051237233E+03  0.97483809340E+02 0.  0.
         11    1    3    3    0    0 -0.24483177331E+02  0.34951113369E+02 -0.65073111089E+01  0.43166554137E+02  0.51100000000E-03 0. -1.
         22    1    1    0    0    0 -0.71186402629E+01  0.24857717652E+01 -0.23297849863E+02  0.24487627666E+02  0.00000000000E+00 0.  1.
</event>
<event>
 5    1  0.6622940E-004  0.9118800E+02  0.7818608E-02  0.1130116E+00
         25   -1    0    0    0    0  0.00000000000E+00  0.00000000000E+00  0.99999998245E-14  0.12500000000E+03  0.12500000000E+03 0.  0.
        -11    1    3    3    0    0  0.38926406676E+01 -0.38392471048E+02 -0.10642752999E+01  0.38603978639E+02  0.51100000000E-03 0. -1.
         23    2    1    0    0    0 -0.22279530162E+02  0.14930493728E+02  0.21774112980E+01  0.98092041565E+02  0.94329265825E+02 0.  0.
         11    1    3    3    0    0 -0.26172170830E+02  0.53322964776E+02  0.32416865980E+01  0.59488062926E+02  0.51100000000E-03 0.  1.
         22    1    1    0    0    0  0.22279530162E+02 -0.14930493728E+02 -0.21774112980E+01  0.26907958435E+02  0.00000000000E+00 0.  1.
</event>
<event>
 5    1  0.6622940E-004  0.9118800E+02  0.7818608E-02  0.1130116E+00
         25   -1    0    0    0    0  0.00000000000E+00  0.00000000000E+00  0.99999998245E-14  0.12500000000E+03  0.12500000000E+03 0.  0.
        -11    1    3    3    0    0 -0.38643879278E+02  0.55135619836E+01  0.23518915200E+01  0.39106011883E+02  0.51100000000E-03 0. -1.
         23    2    1    0    0    0  0.28297200148E+01 -0.30236518972E+02 -0.45424759647E+01  0.94293510739E+02  0.89153674544E+02 0.  0.
         11    1    3    3    0    0  0.41473599293E+02 -0.35750080955E+02 -0.68943674847E+01  0.55187498855E+02  0.51100000000E-03 0.  1.
         22    1    1    0    0    0 -0.28297200148E+01  0.30236518972E+02  0.45424759647E+01  0.30706489261E+02  0.00000000000E+00 0.  1.
</event>
<event>
 5    1  0.6622940E-004  0.9118800E+02  0.7818608E-02  0.1130116E+00
         25   -1    0    0    0    0  0.00000000000E+00  0.00000000000E+00  0.99999998245E-14  0.12500000000E+03  0.12500000000E+03 0.  0.
        -11    1    3    3    0    0  0.12010955716E+02 -0.18224171192E+02  0.45881815892E+02  0.50808704989E+02  0.51100000000E-03 0.  1.
         23    2    1    0    0    0  0.12958410266E+01  0.18750314469E+02  0.21800097021E+02  0.96216363559E+02  0.91810080545E+02 0.  0.
         11    1    3    3    0    0 -0.10715114689E+02  0.36974485661E+02 -0.24081718871E+02  0.45407658569E+02  0.51100000000E-03 0. -1.
         22    1    1    0    0    0 -0.12958410266E+01 -0.18750314469E+02 -0.21800097021E+02  0.28783636441E+02  0.00000000000E+00 0.  1.
</event>
<event>
 5    1  0.6622940E-004  0.9118800E+02  0.7818608E-02  0.1130116E+00
         25   -1    0    0    0    0  0.00000000000E+00  0.00000000000E+00  0.99999998245E-14  0.12500000000E+03  0.12500000000E+03 0.  0.
        -11    1    3    3    0    0 -0.43671257025E+02 -0.22475112148E+02  0.36217065191E+02  0.61024463681E+02  0.51100000000E-03 0.  1.
         23    2    1    0    0    0 -0.24284632673E+02 -0.18457601622E+01  0.18431845296E+02  0.94456864344E+02  0.89382414859E+02 0.  0.
         11    1    3    3    0    0  0.19386624352E+02  0.20629351986E+02 -0.17785219895E+02  0.33432400663E+02  0.51100000000E-03 0. -1.
         22    1    1    0    0    0  0.24284632673E+02  0.18457601622E+01 -0.18431845296E+02  0.30543135656E+02  0.00000000000E+00 0.  1.
</event>
<event>
 5    1  0.6622940E-004  0.9118800E+02  0.7818608E-02  0.1130116E+00
         25   -1    0    0    0    0  0.00000000000E+00  0.00000000000E+00  0.99999998245E-14  0.12500000000E+03  0.12500000000E+03 0.  0.
        -11    1    3    3    0    0 -0.25274069218E+02 -0.11714584814E+02  0.23911166622E+02  0.36711768708E+02  0.51100000000E-03 0. -1.
         23    2    1    0    0    0  0.24057348079E+02  0.15528587189E+02  0.82381059697E+01  0.95204708314E+02  0.90422215625E+02 0.  0.
         11    1    3    3    0    0  0.49331417296E+02  0.27243172004E+02 -0.15673060652E+02  0.58492939606E+02  0.51100000000E-03 0.  1.
         22    1    1    0    0    0 -0.24057348079E+02 -0.15528587189E+02 -0.82381059697E+01  0.29795291686E+02  0.00000000000E+00 0.  1.
</event>
<event>
 5    1  0.6622940E-004  0.9118800E+02  0.7818608E-02  0.1130116E+00
         25   -1    0    0    0    0  0.00000000000E+00  0.00000000000E+00  0.99999998245E-14  0.12500000000E+03  0.12500000000E+03 0.  0.
        -11    1    3    3    0    0  0.48497383212E+02  0.11418119082E+02 -0.15102821131E+02  0.52062124699E+02  0.51100000000E-03 0.  1.
         23    2    1    0    0    0  0.11322331495E+02  0.26986707558E+02  0.16025984499E+01  0.95690515236E+02  0.91091321261E+02 0.  0.
         11    1    3    3    0    0 -0.37175051717E+02  0.15568588477E+02  0.16705419581E+02  0.43628390538E+02  0.51100000000E-03 0. -1.
         22    1    1    0    0    0 -0.11322331495E+02 -0.26986707558E+02 -0.16025984499E+01  0.29309484764E+02  0.00000000000E+00 0.  1.
</event>
<event>
 5    1  0.6622940E-004  0.9118800E+02  0.7818608E-02  0.1130116E+00
         25   -1    0    0    0    0  0.00000000000E+00  0.00000000000E+00  0.99999998245E-14  0.12500000000E+03  0.12500000000E+03 0.  0.
        -11    1    3    3    0    0 -0.87459188422E+01  0.67532607565E+01  0.38100798570E+02  0.39670750928E+02  0.51100000000E-03 0. -1.
         23    2    1    0    0    0 -0.14073046908E+02 -0.24402685317E+02 -0.81358559694E+01  0.95678781534E+02  0.91075218274E+02 0.  0.
         11    1    3    3    0    0 -0.53271280656E+01 -0.31155946074E+02 -0.46236654539E+02  0.56008030607E+02  0.51100000000E-03 0.  1.
         22    1    1    0    0    0  0.14073046908E+02  0.24402685317E+02  0.81358559694E+01  0.29321218466E+02  0.00000000000E+00 0.  1.
</event>
<event>
 5    1  0.6622940E-004  0.9118800E+02  0.7818608E-02  0.1130116E+00
         25   -1    0    0    0    0  0.00000000000E+00  0.00000000000E+00  0.99999998245E-14  0.12500000000E+03  0.12500000000E+03 0.  0.
        -11    1    3    3    0    0  0.33721880939E+02  0.36424410116E+02  0.23344143938E+02  0.54853003225E+02  0.51100000000E-03 0. -1.
         23    2    1    0    0    0  0.92004289907E+01  0.12803069950E+02  0.31420530868E+02  0.89845821674E+02  0.82682860488E+02 0.  0.
         11    1    3    3    0    0 -0.24521451949E+02 -0.23621340166E+02  0.80763869295E+01  0.34992818449E+02  0.51100000000E-03 0.  1.
         22    1    1    0    0    0 -0.92004289907E+01 -0.12803069950E+02 -0.31420530868E+02  0.35154178326E+02  0.00000000000E+00 0. -1.
</event>
<event>
 5    1  0.6622940E-004  0.9118800E+02  0.7818608E-02  0.1130116E+00
         25   -1    0    0    0    0  0.00000000000E+00  0.00000000000E+00  0.99999998245E-14  0.12500000000E+03  0.12500000000E+03 0.  0.
        -11    1    3    3    0    0  0.23083266101E+02 -0.92388889113E+01  0.35307216390E+02  0.43183258002E+02  0.51100000000E-03 0. -1.
         23    2    1    0    0    0 -0.23658093393E+02  0.49195676512E+01  0.61424723610E+01  0.10006734078E+03  0.96911481240E+02 0.  0.
         11    1    3    3    0    0 -0.46741359494E+02  0.14158456562E+02 -0.29164744028E+02  0.56884082783E+02  0.51100000000E-03 0.  1.
         22    1    1    0    0    0  0.23658093393E+02 -0.49195676512E+01 -0.61424723610E+01  0.24932659215E+02  0.00000000000E+00 0.  1.
</event>
<event>
 5    1  0.6622940E-004  0.9118800E+02  0.7818608E-02  0.1130116E+00
         25   -1    0    0    0    0  0.00000000000E+00  0.00000000000E+00  0.99999998245E-14  0.12500000000E+03  0.12500000000E+03 0.  0.
        -11    1    3    3    0    0  0.23925291877E+01 -0.30633327896E+02  0.17712691783E+02  0.35466384427E+02  0.51100000000E-03 0. -1.
         23    2    1    0    0    0 -0.14892913211E+02  0.14247316431E+02 -0.19769042002E+02  0.96441290101E+02  0.92115810398E+02 0.  0.
         11    1    3    3    0    0 -0.17285442399E+02  0.44880644327E+02 -0.37481733785E+02  0.60974905674E+02  0.51100000000E-03 0.  1.
         22    1    1    0    0    0  0.14892913211E+02 -0.14247316431E+02  0.19769042002E+02  0.28558709899E+02  0.00000000000E+00 0.  1.
</event>
<event>
 5    1  0.6622940E-004  0.9118800E+02  0.7818608E-02  0.1130116E+00
         25   -1    0    0    0    0  0.00000000000E+00  0.00000000000E+00  0.99999998245E-14  0.12500000000E+03  0.12500000000E+03 0.  0.
        -11    1    3    3    0    0 -0.45932948155E+02 -0.74131557092E+01  0.27756084051E+02  0.54177401247E+02  0.51100000000E-03 0.  1.
         23    2    1    0    0    0 -0.28657980461E+02  0.63884375160E+01 -0.64790983808E+01  0.94932231645E+02  0.90044755046E+02 0.  0.
         11    1    3    3    0    0  0.17274967694E+02  0.13801593225E+02 -0.34235182432E+02  0.40754830398E+02  0.51100000000E-03 0. -1.
         22    1    1    0    0    0  0.28657980461E+02 -0.63884375160E+01  0.64790983808E+01  0.30067768355E+02  0.00000000000E+00 0.  1.
</event>
<event>
 5    1  0.6622940E-004  0.9118800E+02  0.7818608E-02  0.1130116E+00
         25   -1    0    0    0    0  0.00000000000E+00  0.00000000000E+00  0.99999998245E-14  0.12500000000E+03  0.12500000000E+03 0.  0.
        -11    1    3    3    0    0 -0.12885794197E+02  0.23262196643E+02 -0.22617277293E+02  0.34910094774E+02  0.51100000000E-03 0. -1.
         23    2    1    0    0    0  0.75028741911E+01 -0.47571173748E+01  0.27646544572E+02  0.95961151648E+02  0.91461947891E+02 0.  0.
         11    1    3    3    0    0  0.20388668388E+02 -0.28019314017E+02  0.50263821865E+02  0.61051056874E+02  0.51100000000E-03 0.  1.
         22    1    1    0    0    0 -0.75028741911E+01  0.47571173748E+01 -0.27646544572E+02  0.29038848352E+02  0.00000000000E+00 0.  1.
</event>
<event>
 5    1  0.6622940E-004  0.9118800E+02  0.7818608E-02  0.1130116E+00
         25   -1    0    0    0    0  0.00000000000E+00  0.00000000000E+00  0.99999998245E-14  0.12500000000E+03  0.12500000000E+03 0.  0.
        -11    1    3    3    0    0  0.29904895805E+02 -0.57847977087E+01  0.29513762076E+02  0.42412602251E+02  0.51100000000E-03 0. -1.
         23    2    1    0    0    0  0.13187541645E+02  0.28243787887E+02 -0.46946810941E+01  0.93477581955E+02  0.88002247066E+02 0.  0.
         11    1    3    3    0    0 -0.16717354160E+02  0.34028585596E+02 -0.34208443170E+02  0.51064979703E+02  0.51100000000E-03 0.  1.
         22    1    1    0    0    0 -0.13187541645E+02 -0.28243787887E+02  0.46946810941E+01  0.31522418045E+02  0.00000000000E+00 0.  1.
</event>
<event>
 5    1  0.6622940E-004  0.9118800E+02  0.7818608E-02  0.1130116E+00
         25   -1    0    0    0    0  0.00000000000E+00  0.00000000000E+00  0.99999998245E-14  0.12500000000E+03  0.12500000000E+03 0.  0.
        -11    1    3    3    0    0 -0.33607981072E+02  0.95404104237E+01 -0.16552058332E+02  0.38658588413E+02  0.51100000000E-03 0.  1.
         23    2    1    0    0    0  0.19945660225E+02  0.19457722340E+02 -0.15460571203E+02  0.93133692049E+02  0.87512416332E+02 0.  0.
         11    1    3    3    0    0  0.53553641297E+02  0.99173119162E+01  0.10914871282E+01  0.54475103637E+02  0.51100000000E-03 0. -1.
         22    1    1    0    0    0 -0.19945660225E+02 -0.19457722340E+02  0.15460571203E+02  0.31866307951E+02  0.00000000000E+00 0. -1.
</event>
<event>
 5    1  0.6622940E-004  0.9118800E+02  0.7818608E-02  0.1130116E+00
         25   -1    0    0    0    0  0.00000000000E+00  0.00000000000E+00  0.99999998245E-14  0.12500000000E+03  0.12500000000E+03 0.  0.
        -11    1    3    3    0    0  0.54408332485E+02 -0.14927462571E+02  0.98678806294E+01  0.57275394813E+02  0.51100000000E-03 0. -1.
         23    2    1    0    0    0  0.18243679937E+02 -0.28674237766E+01  0.21043370201E+02  0.97002189261E+02  0.92873824704E+02 0.  0.
         11    1    3    3    0    0 -0.36164652548E+02  0.12060038795E+02  0.11175489572E+02  0.39726794448E+02  0.51100000000E-03 0.  1.
         22    1    1    0    0    0 -0.18243679937E+02  0.28674237766E+01 -0.21043370201E+02  0.27997810739E+02  0.00000000000E+00 0.  1.
</event>
<event>
 5    1  0.6622940E-004  0.9118800E+02  0.7818608E-02  0.1130116E+00
         25   -1    0    0    0    0  0.00000000000E+00  0.00000000000E+00  0.99999998245E-14  0.12500000000E+03  0.12500000000E+03 0.  0.
        -11    1    3    3    0    0  0.42274999942E+02  0.18379583014E+02  0.13860850366E+02  0.48136346610E+02  0.51100000000E-03 0. -1.
         23    2    1    0    0    0  0.21916409596E+02 -0.17651721116E+02 -0.90495668539E+01  0.95439774558E+02  0.90746590236E+02 0.  0.
         11    1    3    3    0    0 -0.20358590346E+02 -0.36031304130E+02 -0.22910417220E+02  0.47303427948E+02  0.51100000000E-03 0.  1.
         22    1    1    0    0    0 -0.21916409596E+02  0.17651721116E+02  0.90495668539E+01  0.29560225442E+02  0.00000000000E+00 0. -1.
</event>
<event>
 5    1  0.6622940E-004  0.9118800E+02  0.7818608E-02  0.1130116E+00
         25   -1    0    0    0    0  0.00000000000E+00  0.00000000000E+00  0.99999998245E-14  0.12500000000E+03  0.12500000000E+03 0.  0.
        -11    1    3    3    0    0 -0.45066327059E+01  0.39093245557E+02  0.32049614125E+02  0.50752037914E+02  0.51100000000E-03 0.  1.
         23    2    1    0    0    0  0.11672903857E+02  0.21632676154E+02 -0.95077377078E+01  0.98644233300E+02  0.95058183893E+02 0.  0.
         11    1    3    3    0    0  0.16179536563E+02 -0.17460569404E+02 -0.41557351833E+02  0.47892195386E+02  0.51100000000E-03 0. -1.
         22    1    1    0    0    0 -0.11672903857E+02 -0.21632676154E+02  0.95077377078E+01  0.26355766700E+02  0.00000000000E+00 0. -1.
</event>
<event>
 5    1  0.6622940E-004  0.9118800E+02  0.7818608E-02  0.1130116E+00
         25   -1    0    0    0    0  0.00000000000E+00  0.00000000000E+00  0.99999998245E-14  0.12500000000E+03  0.12500000000E+03 0.  0.
        -11    1    3    3    0    0 -0.49626365274E+02 -0.36880293646E+02 -0.48393753104E+01  0.62018962773E+02  0.51100000000E-03 0.  1.
         23    2    1    0    0    0 -0.23411502273E+02 -0.15140528269E+02 -0.73469418925E+01  0.96167525425E+02  0.91743563024E+02 0.  0.
         11    1    3    3    0    0  0.26214863002E+02  0.21739765377E+02 -0.25075665821E+01  0.34148562653E+02  0.51100000000E-03 0. -1.
         22    1    1    0    0    0  0.23411502273E+02  0.15140528269E+02  0.73469418925E+01  0.28832474575E+02  0.00000000000E+00 0.  1.
</event>
<event>
 5    1  0.6622940E-004  0.9118800E+02  0.7818608E-02  0.1130116E+00
         25   -1    0    0    0    0  0.00000000000E+00  0.00000000000E+00  0.99999998245E-14  0.12500000000E+03  0.12500000000E+03 0.  0.
        -11    1    3    3    0    0 -0.16599155108E+02  0.47869596036E+01  0.23210751965E+02  0.28934165611E+02  0.51100000000E-03 0.  1.
         23    2    1    0    0    0 -0.15546983606E+02 -0.40877058956E+02 -0.22150448812E+01  0.81210171592E+02  0.68392564640E+02 0.  0.
         11    1    3    3    0    0  0.10521715021E+01 -0.45664018560E+02 -0.25425796846E+02  0.52276005982E+02  0.51100000000E-03 0. -1.
         22    1    1    0    0    0  0.15546983606E+02  0.40877058956E+02  0.22150448812E+01  0.43789828408E+02  0.00000000000E+00 0. -1.
</event>
<event>
 5    1  0.6622940E-004  0.9118800E+02  0.7818608E-02  0.1130116E+00
         25   -1    0    0    0    0  0.00000000000E+00  0.00000000000E+00  0.99999998245E-14  0.12500000000E+03  0.12500000000E+03 0.  0.
        -11    1    3    3    0    0 -0.12904699525E+02 -0.88408912934E+01 -0.55133744241E+02  0.57309880326E+02  0.51100000000E-03 0. -1.
         23    2    1    0    0    0 -0.14235938852E+02 -0.16684528191E+02 -0.14517347997E+02  0.98698121192E+02  0.95129019221E+02 0.  0.
         11    1    3    3    0    0 -0.13312393269E+01 -0.78436368974E+01  0.40616396243E+02  0.41388240866E+02  0.51100000000E-03 0.  1.
         22    1    1    0    0    0  0.14235938852E+02  0.16684528191E+02  0.14517347997E+02  0.26301878808E+02  0.00000000000E+00 0. -1.
</event>
<event>
 5    1  0.6622940E-004  0.9118800E+02  0.7818608E-02  0.1130116E+00
         25   -1    0    0    0    0  0.00000000000E+00  0.00000000000E+00  0.99999998245E-14  0.12500000000E+03  0.12500000000E+03 0.  0.
        -11    1    3    3    0    0  0.27974084534E+02  0.47333786191E+02 -0.56345533427E+01  0.55270108669E+02  0.51100000000E-03 0. -1.
         23    2    1    0    0    0  0.21426565714E+02  0.10501129241E+02 -0.18474724525E+02  0.94822410966E+02  0.89892172860E+02 0.  0.
         11    1    3    3    0    0 -0.65475188204E+01 -0.36832656950E+02 -0.12840171183E+02  0.39552302297E+02  0.51100000000E-03 0.  1.
         22    1    1    0    0    0 -0.21426565714E+02 -0.10501129241E+02  0.18474724525E+02  0.30177589034E+02  0.00000000000E+00 0. -1.
</event>
<event>
 5    1  0.6622940E-004  0.9118800E+02  0.7818608E-02  0.1130116E+00
         25   -1    0    0    0    0  0.00000000000E+00  0.00000000000E+00  0.99999998245E-14  0.12500000000E+03  0.12500000000E+03 0.  0.
        -11    1    3    3    0    0 -0.39653014907E+02  0.35960460818E+01 -0.31511492035E+01  0.39940241363E+02  0.51100000000E-03 0.  1.
         23    2    1    0    0    0  0.10039273038E+02 -0.16868188625E+02 -0.20698604631E+02  0.96473608285E+02  0.92159655334E+02 0.  0.
         11    1    3    3    0    0  0.49692287944E+02 -0.20464234706E+02 -0.17547455428E+02  0.56533366922E+02  0.51100000000E-03 0. -1.
         22    1    1    0    0    0 -0.10039273038E+02  0.16868188625E+02  0.20698604631E+02  0.28526391715E+02  0.00000000000E+00 0. -1.
</event>
<event>
 5    1  0.6622940E-004  0.9118800E+02  0.7818608E-02  0.1130116E+00
         25   -1    0    0    0    0  0.00000000000E+00  0.00000000000E+00  0.99999998245E-14  0.12500000000E+03  0.12500000000E+03 0.  0.
        -11    1    3    3    0    0  0.90002952842E+01  0.46568629125E+02  0.33579384396E+02  0.58113833039E+02  0.51100000000E-03 0. -1.
         23    2    1    0    0    0 -0.86762290176E+01  0.28509856581E+02  0.78386169613E+01  0.94185510095E+02  0.89002120894E+02 0.  0.
         11    1    3    3    0    0 -0.17676524302E+02 -0.18058772544E+02 -0.25740767435E+02  0.36071677055E+02  0.51100000000E-03 0.  1.
         22    1    1    0    0    0  0.86762290176E+01 -0.28509856581E+02 -0.78386169613E+01  0.30814489905E+02  0.00000000000E+00 0. -1.
</event>
<event>
 5    1  0.6622940E-004  0.9118800E+02  0.7818608E-02  0.1130116E+00
         25   -1    0    0    0    0  0.00000000000E+00  0.00000000000E+00  0.99999998245E-14  0.12500000000E+03  0.12500000000E+03 0.  0.
        -11    1    3    3    0    0 -0.16741252114E+02  0.18295680353E+02 -0.22985675171E+02  0.33813350992E+02  0.51100000000E-03 0.  1.
         23    2    1    0    0    0  0.14612768744E+02 -0.24441079953E+02  0.82698373730E+01  0.95347182093E+02  0.90618957859E+02 0.  0.
         11    1    3    3    0    0  0.31354020857E+02 -0.42736760306E+02  0.31255512544E+02  0.61533831102E+02  0.51100000000E-03 0. -1.
         22    1    1    0    0    0 -0.14612768744E+02  0.24441079953E+02 -0.82698373730E+01  0.29652817907E+02  0.00000000000E+00 0. -1.
</event>
<event>
 5    1  0.6622940E-004  0.9118800E+02  0.7818608E-02  0.1130116E+00
         25   -1    0    0    0    0  0.00000000000E+00  0.00000000000E+00  0.99999998245E-14  0.12500000000E+03  0.12500000000E+03 0.  0.
        -11    1    3    3    0    0 -0.70146876547E+01 -0.50812826381E+02  0.99633340607E+01  0.52253394087E+02  0.51100000000E-03 0. -1.
         23    2    1    0    0    0  0.20114735338E+02 -0.14287238988E+02  0.11502498396E+02  0.97778037452E+02  0.93912242881E+02 0.  0.
         11    1    3    3    0    0  0.27129422993E+02  0.36525587394E+02  0.15391643352E+01  0.45524643365E+02  0.51100000000E-03 0.  1.
         22    1    1    0    0    0 -0.20114735338E+02  0.14287238988E+02 -0.11502498396E+02  0.27221962548E+02  0.00000000000E+00 0.  1.
</event>
<event>
 5    1  0.6622940E-004  0.9118800E+02  0.7818608E-02  0.1130116E+00
         25   -1    0    0    0    0  0.00000000000E+00  0.00000000000E+00  0.99999998245E-14  0.12500000000E+03  0.12500000000E+03 0.  0.
        -11    1    3    3    0    0  0.96425912290E+01  0.41422631237E+01  0.27155095061E+02  0.29112490403E+02  0.51100000000E-03 0. -1.
         23    2    1    0    0    0 -0.19248109548E+02  0.34285759157E+01 -0.27688596025E+02  0.91104525319E+02  0.84564362055E+02 0.  0.
         11    1    3    3    0    0 -0.28890700777E+02 -0.71368720798E+00 -0.54843691087E+02  0.61992034917E+02  0.51100000000E-03 0.  1.
         22    1    1    0    0    0  0.19248109548E+02 -0.34285759157E+01  0.27688596025E+02  0.33895474681E+02  0.00000000000E+00 0.  1.
</event>
<event>
 5    1  0.6622940E-004  0.9118800E+02  0.7818608E-02  0.1130116E+00
         25   -1    0    0    0    0  0.00000000000E+00  0.00000000000E+00  0.99999998245E-14  0.12500000000E+03  0.12500000000E+03 0.  0.
        -11    1    3    3    0    0 -0.35694996814E+02  0.10942388534E+02  0.39418988489E+02  0.54292958274E+02  0.51100000000E-03 0.  1.
         23    2    1    0    0    0  0.89621950842E+01 -0.60117921485E+01  0.92223470711E+01  0.11080442777E+03  0.10989134152E+03 0.  0.
         11    1    3    3    0    0  0.44657191898E+02 -0.16954180683E+02 -0.30196641418E+02  0.56511469491E+02  0.51100000000E-03 0. -1.
         22    1    1    0    0    0 -0.89621950842E+01  0.60117921485E+01 -0.92223470711E+01  0.14195572234E+02  0.00000000000E+00 0. -1.
</event>
<event>
 5    1  0.6622940E-004  0.9118800E+02  0.7818608E-02  0.1130116E+00
         25   -1    0    0    0    0  0.00000000000E+00  0.00000000000E+00  0.99999998245E-14  0.12500000000E+03  0.12500000000E+03 0.  0.
        -11    1    3    3    0    0 -0.39407538940E+02  0.11072152508E+02  0.39213265137E+02  0.56685331872E+02  0.51100000000E-03 0. -1.
         23    2    1    0    0    0 -0.36603062957E+01  0.13793223838E+02  0.26823640353E+02  0.94616475717E+02  0.89605351008E+02 0.  0.
         11    1    3    3    0    0  0.35747232644E+02  0.27210713297E+01 -0.12389624784E+02  0.37931143845E+02  0.51100000000E-03 0.  1.
         22    1    1    0    0    0  0.36603062957E+01 -0.13793223838E+02 -0.26823640353E+02  0.30383524283E+02  0.00000000000E+00 0. -1.
</event>
<event>
 5    1  0.6622940E-004  0.9118800E+02  0.7818608E-02  0.1130116E+00
         25   -1    0    0    0    0  0.00000000000E+00  0.00000000000E+00  0.99999998245E-14  0.12500000000E+03  0.12500000000E+03 0.  0.
        -11    1    3    3    0    0 -0.51731566744E+01  0.56477667899E+02  0.19839755915E+02  0.60084144633E+02  0.51100000000E-03 0.  1.
         23    2    1    0    0    0  0.10225599807E+01  0.20834567242E+02  0.19767633428E+02  0.96261799770E+02  0.91871921404E+02 0.  0.
         11    1    3    3    0    0  0.61957166551E+01 -0.35643100657E+02 -0.72122486802E-01  0.36177655137E+02  0.51100000000E-03 0. -1.
         22    1    1    0    0    0 -0.10225599807E+01 -0.20834567242E+02 -0.19767633428E+02  0.28738200230E+02  0.00000000000E+00 0.  1.
</event>
<event>
 5    1  0.6622940E-004  0.9118800E+02  0.7818608E-02  0.1130116E+00
         25   -1    0    0    0    0  0.00000000000E+00  0.00000000000E+00  0.99999998245E-14  0.12500000000E+03  0.12500000000E+03 0.  0.
        -11    1    3    3    0    0  0.17611219931E+02  0.55075133092E+02 -0.14404424062E+02  0.59589535872E+02  0.51100000000E-03 0.  1.
         23    2    1    0    0    0  0.14512989345E+02  0.19751218923E+02  0.49618028341E+01  0.99992861098E+02  0.96815366934E+02 0.  0.
         11    1    3    3    0    0 -0.30982305868E+01 -0.35323914169E+02  0.19366226896E+02  0.40403325227E+02  0.51100000000E-03 0. -1.
         22    1    1    0    0    0 -0.14512989345E+02 -0.19751218923E+02 -0.49618028341E+01  0.25007138902E+02  0.00000000000E+00 0.  1.
</event>
<event>
 5    1  0.6622940E-004  0.9118800E+02  0.7818608E-02  0.1130116E+00
         25   -1    0    0    0    0  0.00000000000E+00  0.00000000000E+00  0.99999998245E-14  0.12500000000E+03  0.12500000000E+03 0.  0.
        -11    1    3    3    0    0  0.22883744654E+02 -0.30958551436E+02  0.41227386979E+01  0.38718143693E+02  0.51100000000E-03 0.  1.
         23    2    1    0    0    0 -0.21404896946E+02 -0.98063709724E+01  0.23731411209E+02  0.91570755275E+02  0.85250740869E+02 0.  0.
         11    1    3    3    0    0 -0.44288641599E+02  0.21152180464E+02  0.19608672511E+02  0.52852611582E+02  0.51100000000E-03 0. -1.
         22    1    1    0    0    0  0.21404896946E+02  0.98063709724E+01 -0.23731411209E+02  0.33429244725E+02  0.00000000000E+00 0. -1.
</event>
<event>
 5    1  0.6622940E-004  0.9118800E+02  0.7818608E-02  0.1130116E+00
         25   -1    0    0    0    0  0.00000000000E+00  0.00000000000E+00  0.99999998245E-14  0.12500000000E+03  0.12500000000E+03 0.  0.
        -11    1    3    3    0    0 -0.11802179784E+01  0.12591404430E+02 -0.52468826587E+02  0.53971419693E+02  0.51100000000E-03 0.  1.
         23    2    1    0    0    0 -0.15830873982E+02  0.20355515386E+02 -0.14468966938E+02  0.95431189034E+02  0.90734763231E+02 0.  0.
         11    1    3    3    0    0 -0.14650656003E+02  0.77641109556E+01  0.37999859649E+02  0.41459769341E+02  0.51100000000E-03 0. -1.
         22    1    1    0    0    0  0.15830873982E+02 -0.20355515386E+02  0.14468966938E+02  0.29568810966E+02  0.00000000000E+00 0.  1.
</event>
<event>
 5    1  0.6622940E-004  0.9118800E+02  0.7818608E-02  0.1130116E+00
         25   -1    0    0    0    0  0.00000000000E+00  0.00000000000E+00  0.99999998245E-14  0.12500000000E+03  0.12500000000E+03 0.  0.
        -11    1    3    3    0    0 -0.16131164137E+02 -0.24551695999E+02 -0.17515371054E+02  0.34202170344E+02  0.51100000000E-03 0.  1.
         23    2    1    0    0    0  0.21863736386E+02  0.18429345560E+02  0.52608737454E+01  0.95925259432E+02  0.91412881248E+02 0.  0.
         11    1    3    3    0    0  0.37994900523E+02  0.42981041559E+02  0.22776244799E+02  0.61723089088E+02  0.51100000000E-03 0. -1.
         22    1    1    0    0    0 -0.21863736386E+02 -0.18429345560E+02 -0.52608737454E+01  0.29074740568E+02  0.00000000000E+00 0. -1.
</event>
<event>
 5    1  0.6622940E-004  0.9118800E+02  0.7818608E-02  0.1130116E+00
         25   -1    0    0    0    0  0.00000000000E+00  0.00000000000E+00  0.99999998245E-14  0.12500000000E+03  0.12500000000E+03 0.  0.
        -11    1    3    3    0    0  0.94127658295E+01  0.14453984515E+02 -0.48751658704E+02  0.51713074320E+02  0.51100000000E-03 0.  1.
         23    2    1    0    0    0  0.16538826876E+02 -0.16173871529E+02 -0.18083830104E+02  0.95637577996E+02  0.91018649183E+02 0.  0.
         11    1    3    3    0    0  0.71260610468E+01 -0.30627856044E+02  0.30667828601E+02  0.43924503677E+02  0.51100000000E-03 0. -1.
         22    1    1    0    0    0 -0.16538826876E+02  0.16173871529E+02  0.18083830104E+02  0.29362422004E+02  0.00000000000E+00 0.  1.
</event>
<event>
 5    1  0.6622940E-004  0.9118800E+02  0.7818608E-02  0.1130116E+00
         25   -1    0    0    0    0  0.00000000000E+00  0.00000000000E+00  0.99999998245E-14  0.12500000000E+03  0.12500000000E+03 0.  0.
        -11    1    3    3    0    0  0.40097079323E+02 -0.15585726121E+02 -0.54998427527E+01  0.43369792478E+02  0.51100000000E-03 0. -1.
         23    2    1    0    0    0 -0.78216727155E+01 -0.11391130167E+02 -0.25920107158E+02  0.95626740636E+02  0.91003764533E+02 0.  0.
         11    1    3    3    0    0 -0.47918752039E+02  0.41945959548E+01 -0.20420264406E+02  0.52256948159E+02  0.51100000000E-03 0.  1.
         22    1    1    0    0    0  0.78216727155E+01  0.11391130167E+02  0.25920107158E+02  0.29373259364E+02  0.00000000000E+00 0.  1.
</event>
<event>
 5    1  0.6622940E-004  0.9118800E+02  0.7818608E-02  0.1130116E+00
         25   -1    0    0    0    0  0.00000000000E+00  0.00000000000E+00  0.99999998245E-14  0.12500000000E+03  0.12500000000E+03 0.  0.
        -11    1    3    3    0    0  0.14414393948E+02  0.34252982351E+02  0.39788668134E+02  0.54444280369E+02  0.51100000000E-03 0. -1.
         23    2    1    0    0    0 -0.15274683439E+02  0.11451140237E+02  0.21942393704E+02  0.95915412873E+02  0.91399415853E+02 0.  0.
         11    1    3    3    0    0 -0.29689077387E+02 -0.22801842113E+02 -0.17846274430E+02  0.41471132504E+02  0.51100000000E-03 0.  1.
         22    1    1    0    0    0  0.15274683439E+02 -0.11451140237E+02 -0.21942393704E+02  0.29084587127E+02  0.00000000000E+00 0. -1.
</event>
<event>
 5    1  0.6622940E-004  0.9118800E+02  0.7818608E-02  0.1130116E+00
         25   -1    0    0    0    0  0.00000000000E+00  0.00000000000E+00  0.99999998245E-14  0.12500000000E+03  0.12500000000E+03 0.  0.
        -11    1    3    3    0    0 -0.61461353981E+02  0.63583784180E+00 -0.78522095904E+01  0.61964179319E+02  0.51100000000E-03 0.  1.
         23    2    1    0    0    0 -0.25815189895E+02  0.51121085938E+01 -0.63837855388E+01  0.97920295397E+02  0.94101401951E+02 0.  0.
         11    1    3    3    0    0  0.35646164086E+02  0.44762707520E+01  0.14684240516E+01  0.35956116077E+02  0.51100000000E-03 0. -1.
         22    1    1    0    0    0  0.25815189895E+02 -0.51121085938E+01  0.63837855388E+01  0.27079704603E+02  0.00000000000E+00 0.  1.
</event>
<event>
 5    1  0.6622940E-004  0.9118800E+02  0.7818608E-02  0.1130116E+00
         25   -1    0    0    0    0  0.00000000000E+00  0.00000000000E+00  0.99999998245E-14  0.12500000000E+03  0.12500000000E+03 0.  0.
        -11    1    3    3    0    0 -0.18119111110E+02  0.82531052539E+01  0.52630678726E+02  0.56270811947E+02  0.51100000000E-03 0.  1.
         23    2    1    0    0    0  0.11089172175E+02  0.24783956981E+01  0.27544158637E+02  0.95204146936E+02  0.90421439571E+02 0.  0.
         11    1    3    3    0    0  0.29208283286E+02 -0.57747095557E+01 -0.25086520089E+02  0.38933334989E+02  0.51100000000E-03 0. -1.
         22    1    1    0    0    0 -0.11089172175E+02 -0.24783956981E+01 -0.27544158637E+02  0.29795853064E+02  0.00000000000E+00 0.  1.
</event>
<event>
 5    1  0.6622940E-004  0.9118800E+02  0.7818608E-02  0.1130116E+00
         25   -1    0    0    0    0  0.00000000000E+00  0.00000000000E+00  0.99999998245E-14  0.12500000000E+03  0.12500000000E+03 0.  0.
        -11    1    3    3    0    0 -0.60127274550E+01 -0.16436418301E+02  0.33195944275E+02  0.37527049638E+02  0.51100000000E-03 0. -1.
         23    2    1    0    0    0  0.43218363717E+01  0.29088818486E+02 -0.12847363341E+01  0.95563828748E+02  0.90917309612E+02 0.  0.
         11    1    3    3    0    0  0.10334563827E+02  0.45525236786E+02 -0.34480680609E+02  0.58036779110E+02  0.51100000000E-03 0.  1.
         22    1    1    0    0    0 -0.43218363717E+01 -0.29088818486E+02  0.12847363341E+01  0.29436171252E+02  0.00000000000E+00 0.  1.
</event>
<event>
 5    1  0.6622940E-004  0.9118800E+02  0.7818608E-02  0.1130116E+00
         25   -1    0    0    0    0  0.00000000000E+00  0.00000000000E+00  0.99999998245E-14  0.12500000000E+03  0.12500000000E+03 0.  0.
        -11    1    3    3    0    0  0.28286170122E+02  0.72907473014E+01 -0.21596935037E+02  0.36327538034E+02  0.51100000000E-03 0.  1.
         23    2    1    0    0    0 -0.10353917115E+02 -0.24593208384E+02  0.11045609623E+02  0.96120336044E+02  0.91679245258E+02 0.  0.
         11    1    3    3    0    0 -0.38640087237E+02 -0.31883955685E+02  0.32642544660E+02  0.59792798011E+02  0.51100000000E-03 0. -1.
         22    1    1    0    0    0  0.10353917115E+02  0.24593208384E+02 -0.11045609623E+02  0.28879663956E+02  0.00000000000E+00 0. -1.
</event>
<event>
 5    1  0.6622940E-004  0.9118800E+02  0.7818608E-02  0.1130116E+00
         25   -1    0    0    0    0  0.00000000000E+00  0.00000000000E+00  0.99999998245E-14  0.12500000000E+03  0.12500000000E+03 0.  0.
        -11    1    3    3    0    0  0.41051823224E+01 -0.34767941904E+02  0.48757501905E+02  0.60024630765E+02  0.51100000000E-03 0. -1.
         23    2    1    0    0    0 -0.99090143238E+01 -0.11931945729E+02  0.23479807313E+02  0.96859970767E+02  0.92682213460E+02 0.  0.
         11    1    3    3    0    0 -0.14014196646E+02  0.22835996175E+02 -0.25277694592E+02  0.36835340002E+02  0.51100000000E-03 0.  1.
         22    1    1    0    0    0  0.99090143238E+01  0.11931945729E+02 -0.23479807313E+02  0.28140029233E+02  0.00000000000E+00 0. -1.
</event>
<event>
 5    1  0.6622940E-004  0.9118800E+02  0.7818608E-02  0.1130116E+00
         25   -1    0    0    0    0  0.00000000000E+00  0.00000000000E+00  0.99999998245E-14  0.12500000000E+03  0.12500000000E+03 0.  0.
        -11    1    3    3    0    0 -0.51651279717E+02  0.24216763449E+02  0.13772778329E+02  0.58685566807E+02  0.51100000000E-03 0.  1.
         23    2    1    0    0    0 -0.42861090508E+02  0.89066009737E+01 -0.23620438375E+00  0.81222649544E+02  0.68415366592E+02 0.  0.
         11    1    3    3    0    0  0.87901892086E+01 -0.15310162475E+02 -0.14008982713E+02  0.22537082736E+02  0.51100000000E-03 0. -1.
         22    1    1    0    0    0  0.42861090508E+02 -0.89066009737E+01  0.23620438375E+00  0.43777350456E+02  0.00000000000E+00 0.  1.
</event>
<event>
 5    1  0.6622940E-004  0.9118800E+02  0.7818608E-02  0.1130116E+00
         25   -1    0    0    0    0  0.00000000000E+00  0.00000000000E+00  0.99999998245E-14  0.12500000000E+03  0.12500000000E+03 0.  0.
        -11    1    3    3    0    0  0.20046491583E+02  0.95197921277E+01  0.25348775871E+02  0.33690483899E+02  0.51100000000E-03 0. -1.
         23    2    1    0    0    0  0.78936347420E+01  0.13131590083E+02 -0.30450610404E+02  0.90912057828E+02  0.84279383345E+02 0.  0.
         11    1    3    3    0    0 -0.12152856841E+02  0.36117979553E+01 -0.55799386276E+02  0.57221573928E+02  0.51100000000E-03 0.  1.
         22    1    1    0    0    0 -0.78936347420E+01 -0.13131590083E+02  0.30450610404E+02  0.34087942172E+02  0.00000000000E+00 0.  1.
</event>
<event>
 5    1  0.6622940E-004  0.9118800E+02  0.7818608E-02  0.1130116E+00
         25   -1    0    0    0    0  0.00000000000E+00  0.00000000000E+00  0.99999998245E-14  0.12500000000E+03  0.12500000000E+03 0.  0.
        -11    1    3    3    0    0  0.48794126491E+02  0.77423015029E-01 -0.37284813501E+02  0.61408713489E+02  0.51100000000E-03 0.  1.
         23    2    1    0    0    0  0.20935660524E+02 -0.76111348006E+01 -0.19866196411E+02  0.95152102011E+02  0.90349463212E+02 0.  0.
         11    1    3    3    0    0 -0.27858465967E+02 -0.76885578156E+01  0.17418617090E+02  0.33743388521E+02  0.51100000000E-03 0. -1.
         22    1    1    0    0    0 -0.20935660524E+02  0.76111348006E+01  0.19866196411E+02  0.29847897989E+02  0.00000000000E+00 0.  1.
</event>
<event>
 5    1  0.6622940E-004  0.9118800E+02  0.7818608E-02  0.1130116E+00
         25   -1    0    0    0    0  0.00000000000E+00  0.00000000000E+00  0.99999998245E-14  0.12500000000E+03  0.12500000000E+03 0.  0.
        -11    1    3    3    0    0  0.50185399685E+02  0.14087654744E+02 -0.26400803620E+02  0.58429776568E+02  0.51100000000E-03 0.  1.
         23    2    1    0    0    0  0.18807623731E+02  0.20395910782E+02 -0.53295691559E+01  0.96748908084E+02  0.92532302582E+02 0.  0.
         11    1    3    3    0    0 -0.31377775954E+02  0.63082560383E+01  0.21071234464E+02  0.38319131517E+02  0.51100000000E-03 0. -1.
         22    1    1    0    0    0 -0.18807623731E+02 -0.20395910782E+02  0.53295691559E+01  0.28251091916E+02  0.00000000000E+00 0.  1.
</event>
<event>
 5    1  0.6622940E-004  0.9118800E+02  0.7818608E-02  0.1130116E+00
         25   -1    0    0    0    0  0.00000000000E+00  0.00000000000E+00  0.99999998245E-14  0.12500000000E+03  0.12500000000E+03 0.  0.
        -11    1    3    3    0    0 -0.48937077762E+02  0.20455163780E+02 -0.31872078880E+02  0.61879566235E+02  0.51100000000E-03 0. -1.
         23    2    1    0    0    0 -0.22567566025E+02  0.13796454572E+02 -0.10218040867E+02  0.96644302968E+02  0.92390885600E+02 0.  0.
         11    1    3    3    0    0  0.26369511736E+02 -0.66587092088E+01  0.21654038012E+02  0.34764736732E+02  0.51100000000E-03 0.  1.
         22    1    1    0    0    0  0.22567566025E+02 -0.13796454572E+02  0.10218040867E+02  0.28355697032E+02  0.00000000000E+00 0. -1.
</event>
<event>
 5    1  0.6622940E-004  0.9118800E+02  0.7818608E-02  0.1130116E+00
         25   -1    0    0    0    0  0.00000000000E+00  0.00000000000E+00  0.99999998245E-14  0.12500000000E+03  0.12500000000E+03 0.  0.
        -11    1    3    3    0    0  0.36608422208E+02 -0.16101729416E+02 -0.23875577982E+02  0.46577736000E+02  0.51100000000E-03 0. -1.
         23    2    1    0    0    0 -0.43240086110E+01  0.11292934558E+02 -0.26468845754E+02  0.95899704178E+02  0.91377929745E+02 0.  0.
         11    1    3    3    0    0 -0.40932430819E+02  0.27394663973E+02 -0.25932677720E+01  0.49321968178E+02  0.51100000000E-03 0.  1.
         22    1    1    0    0    0  0.43240086110E+01 -0.11292934558E+02  0.26468845754E+02  0.29100295822E+02  0.00000000000E+00 0.  1.
</event>
<event>
 5    1  0.6622940E-004  0.9118800E+02  0.7818608E-02  0.1130116E+00
         25   -1    0    0    0    0  0.00000000000E+00  0.00000000000E+00  0.99999998245E-14  0.12500000000E+03  0.12500000000E+03 0.  0.
        -11    1    3    3    0    0 -0.12032871036E+02  0.20611849065E+02  0.27898113626E+02  0.36714343946E+02  0.51100000000E-03 0.  1.
         23    2    1    0    0    0  0.20331030543E+02  0.15803965330E+02 -0.18359762271E+02  0.93374108807E+02  0.87855148977E+02 0.  0.
         11    1    3    3    0    0  0.32363901579E+02 -0.48078837346E+01 -0.46257875897E+02  0.56659764861E+02  0.51100000000E-03 0. -1.
         22    1    1    0    0    0 -0.20331030543E+02 -0.15803965330E+02  0.18359762271E+02  0.31625891193E+02  0.00000000000E+00 0. -1.
</event>
<event>
 5    1  0.6622940E-004  0.9118800E+02  0.7818608E-02  0.1130116E+00
         25   -1    0    0    0    0  0.00000000000E+00  0.00000000000E+00  0.99999998245E-14  0.12500000000E+03  0.12500000000E+03 0.  0.
        -11    1    3    3    0    0  0.59727683780E+02 -0.61338831985E+00  0.55030169049E+01  0.59983794898E+02  0.51100000000E-03 0.  1.
         23    2    1    0    0    0  0.24947432084E+02 -0.69396652372E+01 -0.81097532944E+01  0.97865125398E+02  0.94028088088E+02 0.  0.
         11    1    3    3    0    0 -0.34780251697E+02 -0.63262769174E+01 -0.13612770199E+02  0.37881330500E+02  0.51100000000E-03 0. -1.
         22    1    1    0    0    0 -0.24947432084E+02  0.69396652372E+01  0.81097532944E+01  0.27134874602E+02  0.00000000000E+00 0.  1.
</event>
<event>
 5    1  0.6622940E-004  0.9118800E+02  0.7818608E-02  0.1130116E+00
         25   -1    0    0    0    0  0.00000000000E+00  0.00000000000E+00  0.99999998245E-14  0.12500000000E+03  0.12500000000E+03 0.  0.
        -11    1    3    3    0    0 -0.70689310025E+01  0.38747277857E+02  0.13609482164E+01  0.39410322343E+02  0.51100000000E-03 0.  1.
         23    2    1    0    0    0 -0.10057950594E+02 -0.15605409262E+02 -0.19839982584E+02  0.97828027725E+02  0.93978757873E+02 0.  0.
         11    1    3    3    0    0 -0.29890195918E+01 -0.54352687118E+02 -0.21200930800E+02  0.58417705383E+02  0.51100000000E-03 0. -1.
         22    1    1    0    0    0  0.10057950594E+02  0.15605409262E+02  0.19839982584E+02  0.27171972275E+02  0.00000000000E+00 0. -1.
</event>
<event>
 5    1  0.6622940E-004  0.9118800E+02  0.7818608E-02  0.1130116E+00
         25   -1    0    0    0    0  0.00000000000E+00  0.00000000000E+00  0.99999998245E-14  0.12500000000E+03  0.12500000000E+03 0.  0.
        -11    1    3    3    0    0 -0.25115081269E+02  0.39494419877E+02 -0.12245653479E+02  0.48379050611E+02  0.51100000000E-03 0.  1.
         23    2    1    0    0    0  0.14236881918E+01  0.14704926782E+02  0.22135000934E+02  0.98387596386E+02  0.94720109251E+02 0.  0.
         11    1    3    3    0    0  0.26538769461E+02 -0.24789493095E+02  0.34380654414E+02  0.50008545775E+02  0.51100000000E-03 0. -1.
         22    1    1    0    0    0 -0.14236881918E+01 -0.14704926782E+02 -0.22135000934E+02  0.26612403614E+02  0.00000000000E+00 0.  1.
</event>
<event>
 5    1  0.6622940E-004  0.9118800E+02  0.7818608E-02  0.1130116E+00
         25   -1    0    0    0    0  0.00000000000E+00  0.00000000000E+00  0.99999998245E-14  0.12500000000E+03  0.12500000000E+03 0.  0.
        -11    1    3    3    0    0 -0.42575642037E+02  0.10256375040E+02 -0.12384419356E+01  0.43811097481E+02  0.51100000000E-03 0.  1.
         23    2    1    0    0    0  0.18551437026E+01  0.42975061035E+01 -0.28393718129E+02  0.96223041404E+02  0.91819172023E+02 0.  0.
         11    1    3    3    0    0  0.44430785739E+02 -0.59588689368E+01 -0.27155276193E+02  0.52411943923E+02  0.51100000000E-03 0. -1.
         22    1    1    0    0    0 -0.18551437026E+01 -0.42975061035E+01  0.28393718129E+02  0.28776958596E+02  0.00000000000E+00 0.  1.
</event>
<event>
 5    1  0.6622940E-004  0.9118800E+02  0.7818608E-02  0.1130116E+00
         25   -1    0    0    0    0  0.00000000000E+00  0.00000000000E+00  0.99999998245E-14  0.12500000000E+03  0.12500000000E+03 0.  0.
        -11    1    3    3    0    0 -0.88277306270E+01 -0.33395317304E+02  0.28808417709E+02  0.44978894795E+02  0.51100000000E-03 0.  1.
         23    2    1    0    0    0 -0.19131289406E+02  0.14633867019E+02  0.17053255902E+02  0.95487801927E+02  0.90812722025E+02 0.  0.
         11    1    3    3    0    0 -0.10303558779E+02  0.48029184323E+02 -0.11755161808E+02  0.50508907131E+02  0.51100000000E-03 0. -1.
         22    1    1    0    0    0  0.19131289406E+02 -0.14633867019E+02 -0.17053255902E+02  0.29512198073E+02  0.00000000000E+00 0. -1.
</event>
<event>
 5    1  0.6622940E-004  0.9118800E+02  0.7818608E-02  0.1130116E+00
         25   -1    0    0    0    0  0.00000000000E+00  0.00000000000E+00  0.99999998245E-14  0.12500000000E+03  0.12500000000E+03 0.  0.
        -11    1    3    3    0    0  0.33795786145E+02  0.14808208309E+02 -0.28766500439E+02  0.46786213165E+02  0.51100000000E-03 0.  1.
         23    2    1    0    0    0 -0.74860708476E+01 -0.17032123424E+02 -0.16001396364E+02  0.10046066075E+03  0.97417478865E+02 0.  0.
         11    1    3    3    0    0 -0.41281856993E+02 -0.31840331732E+02  0.12765104075E+02  0.53674447589E+02  0.51100000000E-03 0. -1.
         22    1    1    0    0    0  0.74860708476E+01  0.17032123424E+02  0.16001396364E+02  0.24539339247E+02  0.00000000000E+00 0.  1.
</event>
<event>
 5    1  0.6622940E-004  0.9118800E+02  0.7818608E-02  0.1130116E+00
         25   -1    0    0    0    0  0.00000000000E+00  0.00000000000E+00  0.99999998245E-14  0.12500000000E+03  0.12500000000E+03 0.  0.
        -11    1    3    3    0    0 -0.15820184528E+02  0.25817181520E+02 -0.17431966076E+02  0.34938210338E+02  0.51100000000E-03 0.  1.
         23    2    1    0    0    0  0.39423233048E+01  0.10729621731E+02  0.32407668128E+02  0.90635430324E+02  0.83868096323E+02 0.  0.
         11    1    3    3    0    0  0.19762507832E+02 -0.15087559789E+02  0.49839634204E+02  0.55697219985E+02  0.51100000000E-03 0. -1.
         22    1    1    0    0    0 -0.39423233048E+01 -0.10729621731E+02 -0.32407668128E+02  0.34364569676E+02  0.00000000000E+00 0. -1.
</event>
<event>
 5    1  0.6622940E-004  0.9118800E+02  0.7818608E-02  0.1130116E+00
         25   -1    0    0    0    0  0.00000000000E+00  0.00000000000E+00  0.99999998245E-14  0.12500000000E+03  0.12500000000E+03 0.  0.
        -11    1    3    3    0    0  0.17953799515E+01  0.14299833904E+02 -0.35717177204E+02  0.38515261736E+02  0.51100000000E-03 0. -1.
         23    2    1    0    0    0 -0.53877438920E+01  0.22244017382E+02  0.19604601324E+02  0.94864232437E+02  0.89950309112E+02 0.  0.
         11    1    3    3    0    0 -0.71831238435E+01  0.79441834779E+01  0.55321778529E+02  0.56348970702E+02  0.51100000000E-03 0.  1.
         22    1    1    0    0    0  0.53877438920E+01 -0.22244017382E+02 -0.19604601324E+02  0.30135767563E+02  0.00000000000E+00 0.  1.
</event>
<event>
 5    1  0.6622940E-004  0.9118800E+02  0.7818608E-02  0.1130116E+00
         25   -1    0    0    0    0  0.00000000000E+00  0.00000000000E+00  0.99999998245E-14  0.12500000000E+03  0.12500000000E+03 0.  0.
        -11    1    3    3    0    0 -0.87015925605E+01 -0.23996966565E+02  0.25741962183E+02  0.36252182481E+02  0.51100000000E-03 0.  1.
         23    2    1    0    0    0  0.19925236418E+02  0.95327216872E+01 -0.16592043918E+02  0.97374219460E+02  0.93373202071E+02 0.  0.
         11    1    3    3    0    0  0.28626828979E+02  0.33529688252E+02 -0.42334006100E+02  0.61122036978E+02  0.51100000000E-03 0. -1.
         22    1    1    0    0    0 -0.19925236418E+02 -0.95327216872E+01  0.16592043918E+02  0.27625780540E+02  0.00000000000E+00 0. -1.
</event>
<event>
 5    1  0.6622940E-004  0.9118800E+02  0.7818608E-02  0.1130116E+00
         25   -1    0    0    0    0  0.00000000000E+00  0.00000000000E+00  0.99999998245E-14  0.12500000000E+03  0.12500000000E+03 0.  0.
        -11    1    3    3    0    0  0.10423650628E+02  0.19710994460E+02 -0.47669374539E+02  0.52626467336E+02  0.51100000000E-03 0.  1.
         23    2    1    0    0    0 -0.14217961102E+02  0.23809359457E+02 -0.15923881057E+02  0.93021788611E+02  0.87352430721E+02 0.  0.
         11    1    3    3    0    0 -0.24641611730E+02  0.40983649977E+01  0.31745493482E+02  0.40395321276E+02  0.51100000000E-03 0. -1.
         22    1    1    0    0    0  0.14217961102E+02 -0.23809359457E+02  0.15923881057E+02  0.31978211389E+02  0.00000000000E+00 0.  1.
</event>
<event>
 5    1  0.6622940E-004  0.9118800E+02  0.7818608E-02  0.1130116E+00
         25   -1    0    0    0    0  0.00000000000E+00  0.00000000000E+00  0.99999998245E-14  0.12500000000E+03  0.12500000000E+03 0.  0.
        -11    1    3    3    0    0 -0.47055321961E+02  0.88413501917E+01 -0.27657927812E+02  0.55293162048E+02  0.51100000000E-03 0.  1.
         23    2    1    0    0    0 -0.20901320094E+02  0.21820036616E+02 -0.10964176747E+01  0.94764568610E+02  0.89811703873E+02 0.  0.
         11    1    3    3    0    0  0.26154001867E+02  0.12978686424E+02  0.26561510138E+02  0.39471406562E+02  0.51100000000E-03 0. -1.
         22    1    1    0    0    0  0.20901320094E+02 -0.21820036616E+02  0.10964176747E+01  0.30235431390E+02  0.00000000000E+00 0. -1.
</event>
<event>
 5    1  0.6622940E-004  0.9118800E+02  0.7818608E-02  0.1130116E+00
         25   -1    0    0    0    0  0.00000000000E+00  0.00000000000E+00  0.99999998245E-14  0.12500000000E+03  0.12500000000E+03 0.  0.
        -11    1    3    3    0    0 -0.33329121822E+02  0.44762460377E+02 -0.27904855950E+02  0.62395426165E+02  0.51100000000E-03 0.  1.
         23    2    1    0    0    0 -0.15322084181E+02  0.16502272954E+02 -0.11884279843E+02  0.99537726266E+02  0.96225940196E+02 0.  0.
         11    1    3    3    0    0  0.18007037641E+02 -0.28260187423E+02  0.16020576107E+02  0.37142300102E+02  0.51100000000E-03 0. -1.
         22    1    1    0    0    0  0.15322084181E+02 -0.16502272954E+02  0.11884279843E+02  0.25462273734E+02  0.00000000000E+00 0.  1.
</event>
<event>
 5    1  0.6622940E-004  0.9118800E+02  0.7818608E-02  0.1130116E+00
         25   -1    0    0    0    0  0.00000000000E+00  0.00000000000E+00  0.99999998245E-14  0.12500000000E+03  0.12500000000E+03 0.  0.
        -11    1    3    3    0    0  0.26368593946E+02 -0.23157148703E+02  0.13241019434E+02  0.37508410771E+02  0.51100000000E-03 0.  1.
         23    2    1    0    0    0 -0.19611427906E+02  0.88429809496E+01  0.22024562081E+02  0.94212214250E+02  0.89039617937E+02 0.  0.
         11    1    3    3    0    0 -0.45980021851E+02  0.32000129652E+02  0.87835426471E+01  0.56703803478E+02  0.51100000000E-03 0. -1.
         22    1    1    0    0    0  0.19611427906E+02 -0.88429809496E+01 -0.22024562081E+02  0.30787785750E+02  0.00000000000E+00 0. -1.
</event>
<event>
 5    1  0.6622940E-004  0.9118800E+02  0.7818608E-02  0.1130116E+00
         25   -1    0    0    0    0  0.00000000000E+00  0.00000000000E+00  0.99999998245E-14  0.12500000000E+03  0.12500000000E+03 0.  0.
        -11    1    3    3    0    0  0.40784525919E+02 -0.58059500431E+01 -0.22176615115E+02  0.46785562608E+02  0.51100000000E-03 0.  1.
         23    2    1    0    0    0  0.49380654971E+01  0.26353185006E+02 -0.90783807950E+01  0.96692901091E+02  0.92456612920E+02 0.  0.
         11    1    3    3    0    0 -0.35846460421E+02  0.32159135049E+02  0.13098234320E+02  0.49907338483E+02  0.51100000000E-03 0. -1.
         22    1    1    0    0    0 -0.49380654971E+01 -0.26353185006E+02  0.90783807950E+01  0.28307098909E+02  0.00000000000E+00 0. -1.
</event>
<event>
 5    1  0.6622940E-004  0.9118800E+02  0.7818608E-02  0.1130116E+00
         25   -1    0    0    0    0  0.00000000000E+00  0.00000000000E+00  0.99999998245E-14  0.12500000000E+03  0.12500000000E+03 0.  0.
        -11    1    3    3    0    0  0.14986113668E+02  0.51669209910E+02  0.62684986023E+01  0.54162578692E+02  0.51100000000E-03 0.  1.
         23    2    1    0    0    0  0.18682708826E+02  0.11582707612E+02  0.18535235734E+02  0.96246605619E+02  0.91851246071E+02 0.  0.
         11    1    3    3    0    0  0.36965951587E+01 -0.40086502298E+02  0.12266737132E+02  0.42084026927E+02  0.51100000000E-03 0. -1.
         22    1    1    0    0    0 -0.18682708826E+02 -0.11582707612E+02 -0.18535235734E+02  0.28753394381E+02  0.00000000000E+00 0.  1.
</event>
<event>
 5    1  0.6622940E-004  0.9118800E+02  0.7818608E-02  0.1130116E+00
         25   -1    0    0    0    0  0.00000000000E+00  0.00000000000E+00  0.99999998245E-14  0.12500000000E+03  0.12500000000E+03 0.  0.
        -11    1    3    3    0    0  0.10823287089E+02 -0.38309378965E+02 -0.23063287503E+02  0.46007252589E+02  0.51100000000E-03 0. -1.
         23    2    1    0    0    0  0.13293907222E+02  0.13888348389E+02 -0.18262273506E+02  0.98483499028E+02  0.94846585374E+02 0.  0.
         11    1    3    3    0    0  0.24706201326E+01  0.52197727353E+02  0.48010139975E+01  0.52476246439E+02  0.51100000000E-03 0.  1.
         22    1    1    0    0    0 -0.13293907222E+02 -0.13888348389E+02  0.18262273506E+02  0.26516500972E+02  0.00000000000E+00 0. -1.
</event>
<event>
 5    1  0.6622940E-004  0.9118800E+02  0.7818608E-02  0.1130116E+00
         25   -1    0    0    0    0  0.00000000000E+00  0.00000000000E+00  0.99999998245E-14  0.12500000000E+03  0.12500000000E+03 0.  0.
        -11    1    3    3    0    0  0.99914837917E+01  0.31470761530E+02 -0.20037332863E+02  0.38622963224E+02  0.51100000000E-03 0.  1.
         23    2    1    0    0    0 -0.19652323847E+02  0.36794937546E+01  0.20741792261E+02  0.96190722795E+02  0.91775163845E+02 0.  0.
         11    1    3    3    0    0 -0.29643807638E+02 -0.27791267776E+02  0.40779125125E+02  0.57567759571E+02  0.51100000000E-03 0. -1.
         22    1    1    0    0    0  0.19652323847E+02 -0.36794937546E+01 -0.20741792261E+02  0.28809277205E+02  0.00000000000E+00 0. -1.
</event>
<event>
 5    1  0.6622940E-004  0.9118800E+02  0.7818608E-02  0.1130116E+00
         25   -1    0    0    0    0  0.00000000000E+00  0.00000000000E+00  0.99999998245E-14  0.12500000000E+03  0.12500000000E+03 0.  0.
        -11    1    3    3    0    0  0.18916486983E+02 -0.28534830503E+02 -0.28598226350E+02  0.44608615561E+02  0.51100000000E-03 0.  1.
         23    2    1    0    0    0  0.15367092180E+02 -0.15237220754E+02  0.20252276788E+02  0.95360918815E+02  0.90637904343E+02 0.  0.
         11    1    3    3    0    0 -0.35493948026E+01  0.13297609749E+02  0.48850503138E+02  0.50752303254E+02  0.51100000000E-03 0. -1.
         22    1    1    0    0    0 -0.15367092180E+02  0.15237220754E+02 -0.20252276788E+02  0.29639081185E+02  0.00000000000E+00 0. -1.
</event>
<event>
 5    1  0.6622940E-004  0.9118800E+02  0.7818608E-02  0.1130116E+00
         25   -1    0    0    0    0  0.00000000000E+00  0.00000000000E+00  0.99999998245E-14  0.12500000000E+03  0.12500000000E+03 0.  0.
        -11    1    3    3    0    0 -0.10904230608E+02 -0.54700001908E+01 -0.36231519646E+02  0.38230173468E+02  0.51100000000E-03 0.  1.
         23    2    1    0    0    0  0.21258624061E+02  0.20192090768E+02  0.35541586601E+01  0.95465584984E+02  0.90782136161E+02 0.  0.
         11    1    3    3    0    0  0.32162854669E+02  0.25662090959E+02  0.39785678306E+02  0.57235411516E+02  0.51100000000E-03 0. -1.
         22    1    1    0    0    0 -0.21258624061E+02 -0.20192090768E+02 -0.35541586601E+01  0.29534415016E+02  0.00000000000E+00 0. -1.
</event>
<event>
 5    1  0.6622940E-004  0.9118800E+02  0.7818608E-02  0.1130116E+00
         25   -1    0    0    0    0  0.00000000000E+00  0.00000000000E+00  0.99999998245E-14  0.12500000000E+03  0.12500000000E+03 0.  0.
        -11    1    3    3    0    0  0.16895454785E+02  0.15324713751E+02 -0.29324916400E+02  0.37151769353E+02  0.51100000000E-03 0. -1.
         23    2    1    0    0    0 -0.57635241979E+01 -0.29611654238E+02 -0.11880796098E+01  0.94809276076E+02  0.89873906218E+02 0.  0.
         11    1    3    3    0    0 -0.22658978983E+02 -0.44936367989E+02  0.28136836791E+02  0.57657506722E+02  0.51100000000E-03 0.  1.
         22    1    1    0    0    0  0.57635241979E+01  0.29611654238E+02  0.11880796098E+01  0.30190723924E+02  0.00000000000E+00 0.  1.
</event>
<event>
 5    1  0.6622940E-004  0.9118800E+02  0.7818608E-02  0.1130116E+00
         25   -1    0    0    0    0  0.00000000000E+00  0.00000000000E+00  0.99999998245E-14  0.12500000000E+03  0.12500000000E+03 0.  0.
        -11    1    3    3    0    0  0.25837822482E+02 -0.24421044871E+02 -0.40909808620E+02  0.54199565909E+02  0.51100000000E-03 0. -1.
         23    2    1    0    0    0 -0.10710403613E+02 -0.16240455333E+02 -0.20022703150E+02  0.97082733365E+02  0.92982166791E+02 0.  0.
         11    1    3    3    0    0 -0.36548226095E+02  0.81805895380E+01  0.20887105470E+02  0.42883167456E+02  0.51100000000E-03 0.  1.
         22    1    1    0    0    0  0.10710403613E+02  0.16240455333E+02  0.20022703150E+02  0.27917266635E+02  0.00000000000E+00 0. -1.
</event>
<event>
 5    1  0.6622940E-004  0.9118800E+02  0.7818608E-02  0.1130116E+00
         25   -1    0    0    0    0  0.00000000000E+00  0.00000000000E+00  0.99999998245E-14  0.12500000000E+03  0.12500000000E+03 0.  0.
        -11    1    3    3    0    0  0.31476672336E+02  0.12616486878E+02 -0.24283795225E+02  0.41709223839E+02  0.51100000000E-03 0.  1.
         23    2    1    0    0    0 -0.20896502868E+02 -0.95780066032E+00 -0.20124921916E+02  0.95972535483E+02  0.91477504725E+02 0.  0.
         11    1    3    3    0    0 -0.52373175203E+02 -0.13574287539E+02  0.41588733096E+01  0.54263311643E+02  0.51100000000E-03 0. -1.
         22    1    1    0    0    0  0.20896502868E+02  0.95780066032E+00  0.20124921916E+02  0.29027464517E+02  0.00000000000E+00 0.  1.
</event>
<event>
 5    1  0.6622940E-004  0.9118800E+02  0.7818608E-02  0.1130116E+00
         25   -1    0    0    0    0  0.00000000000E+00  0.00000000000E+00  0.99999998245E-14  0.12500000000E+03  0.12500000000E+03 0.  0.
        -11    1    3    3    0    0  0.12633317603E+02 -0.16184912838E+02 -0.29965655836E+02  0.36324821365E+02  0.51100000000E-03 0.  1.
         23    2    1    0    0    0 -0.17535797405E+02 -0.10858974818E+02  0.20856936988E+02  0.95666855858E+02  0.91058848909E+02 0.  0.
         11    1    3    3    0    0 -0.30169115009E+02  0.53259380203E+01  0.50822592824E+02  0.59342034493E+02  0.51100000000E-03 0. -1.
         22    1    1    0    0    0  0.17535797405E+02  0.10858974818E+02 -0.20856936988E+02  0.29333144142E+02  0.00000000000E+00 0. -1.
</event>
<event>
 5    1  0.6622940E-004  0.9118800E+02  0.7818608E-02  0.1130116E+00
         25   -1    0    0    0    0  0.00000000000E+00  0.00000000000E+00  0.99999998245E-14  0.12500000000E+03  0.12500000000E+03 0.  0.
        -11    1    3    3    0    0 -0.16294774813E+02 -0.62083449145E+01 -0.29523448723E+02  0.34288442040E+02  0.51100000000E-03 0.  1.
         23    2    1    0    0    0  0.19110100297E+02 -0.83971549095E+01  0.20586151509E+02  0.95682807469E+02  0.91080743669E+02 0.  0.
         11    1    3    3    0    0  0.35404875110E+02 -0.21888099950E+01  0.50109600232E+02  0.61394365429E+02  0.51100000000E-03 0. -1.
         22    1    1    0    0    0 -0.19110100297E+02  0.83971549095E+01 -0.20586151509E+02  0.29317192531E+02  0.00000000000E+00 0. -1.
</event>
<event>
 5    1  0.6622940E-004  0.9118800E+02  0.7818608E-02  0.1130116E+00
         25   -1    0    0    0    0  0.00000000000E+00  0.00000000000E+00  0.99999998245E-14  0.12500000000E+03  0.12500000000E+03 0.  0.
        -11    1    3    3    0    0  0.21587433093E+02 -0.40043177474E+02 -0.41417061937E+01  0.45679613179E+02  0.51100000000E-03 0. -1.
         23    2    1    0    0    0  0.27888713259E+02  0.56533354903E+01  0.11384282054E+02  0.94351306597E+02  0.89234671789E+02 0.  0.
         11    1    3    3    0    0  0.63012801662E+01  0.45696512964E+02  0.15525988248E+02  0.48671693418E+02  0.51100000000E-03 0.  1.
         22    1    1    0    0    0 -0.27888713259E+02 -0.56533354903E+01 -0.11384282054E+02  0.30648693403E+02  0.00000000000E+00 0.  1.
</event>
<event>
 5    1  0.6622940E-004  0.9118800E+02  0.7818608E-02  0.1130116E+00
         25   -1    0    0    0    0  0.00000000000E+00  0.00000000000E+00  0.99999998245E-14  0.12500000000E+03  0.12500000000E+03 0.  0.
        -11    1    3    3    0    0  0.28271802937E+02  0.22545054644E+02 -0.40398222837E+02  0.54217992759E+02  0.51100000000E-03 0. -1.
         23    2    1    0    0    0 -0.15463052539E+01 -0.15246175258E+01 -0.31327258048E+02  0.93597569913E+02  0.88172515436E+02 0.  0.
         11    1    3    3    0    0 -0.29818108190E+02 -0.24069672169E+02  0.90709647891E+01  0.39379577154E+02  0.51100000000E-03 0.  1.
         22    1    1    0    0    0  0.15463052539E+01  0.15246175258E+01  0.31327258048E+02  0.31402430087E+02  0.00000000000E+00 0. -1.
</event>
<event>
 5    1  0.6622940E-004  0.9118800E+02  0.7818608E-02  0.1130116E+00
         25   -1    0    0    0    0  0.00000000000E+00  0.00000000000E+00  0.99999998245E-14  0.12500000000E+03  0.12500000000E+03 0.  0.
        -11    1    3    3    0    0  0.23213076772E+00  0.25837744029E+02  0.22797309369E+02  0.34458093620E+02  0.51100000000E-03 0. -1.
         23    2    1    0    0    0  0.55182652185E+01 -0.29777374672E+02  0.21651399174E+00  0.94714852292E+02  0.89742481986E+02 0.  0.
         11    1    3    3    0    0  0.52861344508E+01 -0.55615118701E+02 -0.22580795377E+02  0.60256758672E+02  0.51100000000E-03 0.  1.
         22    1    1    0    0    0 -0.55182652185E+01  0.29777374672E+02 -0.21651399174E+00  0.30285147708E+02  0.00000000000E+00 0.  1.
</event>
<event>
 5    1  0.6622940E-004  0.9118800E+02  0.7818608E-02  0.1130116E+00
         25   -1    0    0    0    0  0.00000000000E+00  0.00000000000E+00  0.99999998245E-14  0.12500000000E+03  0.12500000000E+03 0.  0.
        -11    1    3    3    0    0 -0.18586485861E+02  0.47957156567E+02  0.10051906425E+02  0.52405983873E+02  0.51100000000E-03 0.  1.
         23    2    1    0    0    0  0.12213694415E+02  0.25151794731E+02  0.18267887813E+02  0.91600855781E+02  0.85294864706E+02 0.  0.
         11    1    3    3    0    0  0.30800180276E+02 -0.22805361836E+02  0.82159813874E+01  0.39194871908E+02  0.51100000000E-03 0. -1.
         22    1    1    0    0    0 -0.12213694415E+02 -0.25151794731E+02 -0.18267887813E+02  0.33399144219E+02  0.00000000000E+00 0.  1.
</event>
<event>
 5    1  0.6622940E-004  0.9118800E+02  0.7818608E-02  0.1130116E+00
         25   -1    0    0    0    0  0.00000000000E+00  0.00000000000E+00  0.99999998245E-14  0.12500000000E+03  0.12500000000E+03 0.  0.
        -11    1    3    3    0    0 -0.39341499963E+02 -0.15586816951E+01 -0.10820068962E+02  0.40832058490E+02  0.51100000000E-03 0. -1.
         23    2    1    0    0    0  0.74980589241E+00  0.30096965359E+02  0.53699722749E+01  0.94418532820E+02  0.89328792698E+02 0.  0.
         11    1    3    3    0    0  0.40091305855E+02  0.31655647054E+02  0.16190041237E+02  0.53586474330E+02  0.51100000000E-03 0.  1.
         22    1    1    0    0    0 -0.74980589241E+00 -0.30096965359E+02 -0.53699722749E+01  0.30581467180E+02  0.00000000000E+00 0.  1.
</event>
<event>
 5    1  0.6622940E-004  0.9118800E+02  0.7818608E-02  0.1130116E+00
         25   -1    0    0    0    0  0.00000000000E+00  0.00000000000E+00  0.99999998245E-14  0.12500000000E+03  0.12500000000E+03 0.  0.
        -11    1    3    3    0    0 -0.21320389887E+02  0.21163126613E+02 -0.16233794396E+02  0.34146347297E+02  0.51100000000E-03 0. -1.
         23    2    1    0    0    0  0.31234038423E+02 -0.21154758515E+01 -0.70426011022E+00  0.93686482526E+02  0.88298474684E+02 0.  0.
         11    1    3    3    0    0  0.52554428310E+02 -0.23278602465E+02  0.15529534286E+02  0.59540135229E+02  0.51100000000E-03 0.  1.
         22    1    1    0    0    0 -0.31234038423E+02  0.21154758515E+01  0.70426011022E+00  0.31313517474E+02  0.00000000000E+00 0.  1.
</event>
<event>
 5    1  0.6622940E-004  0.9118800E+02  0.7818608E-02  0.1130116E+00
         25   -1    0    0    0    0  0.00000000000E+00  0.00000000000E+00  0.99999998245E-14  0.12500000000E+03  0.12500000000E+03 0.  0.
        -11    1    3    3    0    0 -0.83810920054E+01 -0.19712432005E+02  0.40917606425E+02  0.46185205364E+02  0.51100000000E-03 0. -1.
         23    2    1    0    0    0 -0.27857122857E+02 -0.84412588052E+01 -0.32065245379E+01  0.95715943866E+02  0.91126208998E+02 0.  0.
         11    1    3    3    0    0 -0.19476030851E+02  0.11271173200E+02 -0.44124130963E+02  0.49530738501E+02  0.51100000000E-03 0.  1.
         22    1    1    0    0    0  0.27857122857E+02  0.84412588052E+01  0.32065245379E+01  0.29284056134E+02  0.00000000000E+00 0.  1.
</event>
<event>
 5    1  0.6622940E-004  0.9118800E+02  0.7818608E-02  0.1130116E+00
         25   -1    0    0    0    0  0.00000000000E+00  0.00000000000E+00  0.99999998245E-14  0.12500000000E+03  0.12500000000E+03 0.  0.
        -11    1    3    3    0    0 -0.14462180164E+02 -0.51244658816E+02  0.14900879887E+02  0.55292006059E+02  0.51100000000E-03 0.  1.
         23    2    1    0    0    0 -0.21948814314E+02 -0.14599716654E+02  0.18392895675E+02  0.92856559184E+02  0.87115669061E+02 0.  0.
         11    1    3    3    0    0 -0.74866341501E+01  0.36644942162E+02  0.34920157881E+01  0.37564553125E+02  0.51100000000E-03 0. -1.
         22    1    1    0    0    0  0.21948814314E+02  0.14599716654E+02 -0.18392895675E+02  0.32143440816E+02  0.00000000000E+00 0.  1.
</event>
<event>
 5    1  0.6622940E-004  0.9118800E+02  0.7818608E-02  0.1130116E+00
         25   -1    0    0    0    0  0.00000000000E+00  0.00000000000E+00  0.99999998245E-14  0.12500000000E+03  0.12500000000E+03 0.  0.
        -11    1    3    3    0    0 -0.22611182062E+02  0.13074273268E+02 -0.28954685177E+02  0.38994563335E+02  0.51100000000E-03 0.  1.
         23    2    1    0    0    0 -0.14830418770E+02 -0.13077487844E+02  0.21150162398E+02  0.96046738031E+02  0.91578843122E+02 0.  0.
         11    1    3    3    0    0  0.77807632917E+01 -0.26151761112E+02  0.50104847576E+02  0.57052174695E+02  0.51100000000E-03 0. -1.
         22    1    1    0    0    0  0.14830418770E+02  0.13077487844E+02 -0.21150162398E+02  0.28953261969E+02  0.00000000000E+00 0. -1.
</event>
<event>
 5    1  0.6622940E-004  0.9118800E+02  0.7818608E-02  0.1130116E+00
         25   -1    0    0    0    0  0.00000000000E+00  0.00000000000E+00  0.99999998245E-14  0.12500000000E+03  0.12500000000E+03 0.  0.
        -11    1    3    3    0    0  0.24578679208E+02 -0.26640770284E+02  0.30535988972E+02  0.47395028597E+02  0.51100000000E-03 0. -1.
         23    2    1    0    0    0  0.14962839780E+02 -0.19221679963E+02 -0.16241139062E+02  0.95723146464E+02  0.91136088440E+02 0.  0.
         11    1    3    3    0    0 -0.96158394279E+01  0.74190903209E+01 -0.46777128035E+02  0.48328117867E+02  0.51100000000E-03 0.  1.
         22    1    1    0    0    0 -0.14962839780E+02  0.19221679963E+02  0.16241139062E+02  0.29276853536E+02  0.00000000000E+00 0. -1.
</event>
<event>
 5    1  0.6622940E-004  0.9118800E+02  0.7818608E-02  0.1130116E+00
         25   -1    0    0    0    0  0.00000000000E+00  0.00000000000E+00  0.99999998245E-14  0.12500000000E+03  0.12500000000E+03 0.  0.
        -11    1    3    3    0    0 -0.17023257526E+02 -0.76030521737E+01 -0.59076751523E+02  0.61948852047E+02  0.51100000000E-03 0.  1.
         23    2    1    0    0    0 -0.22941508518E+01 -0.36937794296E+01 -0.29101965061E+02  0.95574985046E+02  0.90932646842E+02 0.  0.
         11    1    3    3    0    0  0.14729106674E+02  0.39092727442E+01  0.29974786462E+02  0.33626133000E+02  0.51100000000E-03 0. -1.
         22    1    1    0    0    0  0.22941508518E+01  0.36937794296E+01  0.29101965061E+02  0.29425014954E+02  0.00000000000E+00 0.  1.
</event>
<event>
 5    1  0.6622940E-004  0.9118800E+02  0.7818608E-02  0.1130116E+00
         25   -1    0    0    0    0  0.00000000000E+00  0.00000000000E+00  0.99999998245E-14  0.12500000000E+03  0.12500000000E+03 0.  0.
        -11    1    3    3    0    0  0.22181142832E+02  0.44344207101E+02  0.35088559064E+02  0.60742232245E+02  0.51100000000E-03 0. -1.
         23    2    1    0    0    0  0.86825033903E+01  0.19633516463E+02  0.31797520825E+01  0.10329811858E+03  0.10099272075E+03 0.  0.
         11    1    3    3    0    0 -0.13498639442E+02 -0.24710690638E+02 -0.31908806981E+02  0.42555886336E+02  0.51100000000E-03 0.  1.
         22    1    1    0    0    0 -0.86825033903E+01 -0.19633516463E+02 -0.31797520825E+01  0.21701881419E+02  0.00000000000E+00 0. -1.
</event>
<event>
 5    1  0.6622940E-004  0.9118800E+02  0.7818608E-02  0.1130116E+00
         25   -1    0    0    0    0  0.00000000000E+00  0.00000000000E+00  0.99999998245E-14  0.12500000000E+03  0.12500000000E+03 0.  0.
        -11    1    3    3    0    0 -0.25373371860E+01  0.37294277134E+02 -0.56421064840E+00  0.37384749843E+02  0.51100000000E-03 0.  1.
         23    2    1    0    0    0 -0.22008687276E+02 -0.18210562508E+02 -0.31393216744E+01  0.96262180962E+02  0.91872440048E+02 0.  0.
         11    1    3    3    0    0 -0.19471350090E+02 -0.55504839642E+02 -0.25751110260E+01  0.58877431118E+02  0.51100000000E-03 0. -1.
         22    1    1    0    0    0  0.22008687276E+02  0.18210562508E+02  0.31393216744E+01  0.28737819038E+02  0.00000000000E+00 0. -1.
</event>
<event>
 5    1  0.6622940E-004  0.9118800E+02  0.7818608E-02  0.1130116E+00
         25   -1    0    0    0    0  0.00000000000E+00  0.00000000000E+00  0.99999998245E-14  0.12500000000E+03  0.12500000000E+03 0.  0.
        -11    1    3    3    0    0  0.13815489771E+02 -0.39908147782E+02  0.44476942646E+02  0.61332914854E+02  0.51100000000E-03 0.  1.
         23    2    1    0    0    0  0.13496258106E+01 -0.24134305013E+02  0.16709456377E+02  0.95614763900E+02  0.90987312164E+02 0.  0.
         11    1    3    3    0    0 -0.12465863961E+02  0.15773842770E+02 -0.27767486269E+02  0.34281849046E+02  0.51100000000E-03 0. -1.
         22    1    1    0    0    0 -0.13496258106E+01  0.24134305013E+02 -0.16709456377E+02  0.29385236100E+02  0.00000000000E+00 0.  1.
</event>
<event>
 5    1  0.6622940E-004  0.9118800E+02  0.7818608E-02  0.1130116E+00
         25   -1    0    0    0    0  0.00000000000E+00  0.00000000000E+00  0.99999998245E-14  0.12500000000E+03  0.12500000000E+03 0.  0.
        -11    1    3    3    0    0 -0.17138245583E+02 -0.38203529576E+01 -0.56118969859E+02  0.58801814059E+02  0.51100000000E-03 0.  1.
         23    2    1    0    0    0 -0.15609663663E+02  0.11155833099E+02 -0.24000712584E+02  0.94273001833E+02  0.89124914913E+02 0.  0.
         11    1    3    3    0    0  0.15285819201E+01  0.14976186057E+02  0.32118257275E+02  0.35471187774E+02  0.51100000000E-03 0. -1.
         22    1    1    0    0    0  0.15609663663E+02 -0.11155833099E+02  0.24000712584E+02  0.30726998167E+02  0.00000000000E+00 0.  1.
</event>
<event>
 5    1  0.6622940E-004  0.9118800E+02  0.7818608E-02  0.1130116E+00
         25   -1    0    0    0    0  0.00000000000E+00  0.00000000000E+00  0.99999998245E-14  0.12500000000E+03  0.12500000000E+03 0.  0.
        -11    1    3    3    0    0 -0.78007484536E+01 -0.34175062173E+02  0.45343269059E+02  0.57313162538E+02  0.51100000000E-03 0. -1.
         23    2    1    0    0    0  0.11608209133E+02 -0.72238947573E+01  0.25672146858E+02  0.95914018858E+02  0.91397509345E+02 0.  0.
         11    1    3    3    0    0  0.19408957587E+02  0.26951167416E+02 -0.19671122201E+02  0.38600856319E+02  0.51100000000E-03 0.  1.
         22    1    1    0    0    0 -0.11608209133E+02  0.72238947573E+01 -0.25672146858E+02  0.29085981142E+02  0.00000000000E+00 0. -1.
</event>
<event>
 5    1  0.6622940E-004  0.9118800E+02  0.7818608E-02  0.1130116E+00
         25   -1    0    0    0    0  0.00000000000E+00  0.00000000000E+00  0.99999998245E-14  0.12500000000E+03  0.12500000000E+03 0.  0.
        -11    1    3    3    0    0 -0.40706270026E+02 -0.71036225500E+00 -0.42890343737E+02  0.59136170151E+02  0.51100000000E-03 0.  1.
         23    2    1    0    0    0 -0.13258826722E+02 -0.42560933245E+01 -0.34087404282E+02  0.88177969269E+02  0.80121734363E+02 0.  0.
         11    1    3    3    0    0  0.27447443303E+02 -0.35457310695E+01  0.88029394552E+01  0.29041799118E+02  0.51100000000E-03 0. -1.
         22    1    1    0    0    0  0.13258826722E+02  0.42560933245E+01  0.34087404282E+02  0.36822030731E+02  0.00000000000E+00 0.  1.
</event>
<event>
 5    1  0.6622940E-004  0.9118800E+02  0.7818608E-02  0.1130116E+00
         25   -1    0    0    0    0  0.00000000000E+00  0.00000000000E+00  0.99999998245E-14  0.12500000000E+03  0.12500000000E+03 0.  0.
        -11    1    3    3    0    0 -0.38910175079E+02  0.21271085361E+02 -0.22804175460E+02  0.49864729176E+02  0.51100000000E-03 0.  1.
         23    2    1    0    0    0 -0.25559542987E+02 -0.99432049012E+01  0.87486714521E+01  0.96212905433E+02  0.91805372165E+02 0.  0.
         11    1    3    3    0    0  0.13350632092E+02 -0.31214290263E+02  0.31552846912E+02  0.46348176257E+02  0.51100000000E-03 0. -1.
         22    1    1    0    0    0  0.25559542987E+02  0.99432049012E+01 -0.87486714521E+01  0.28787094567E+02  0.00000000000E+00 0.  1.
</event>
<event>
 5    1  0.6622940E-004  0.9118800E+02  0.7818608E-02  0.1130116E+00
         25   -1    0    0    0    0  0.00000000000E+00  0.00000000000E+00  0.99999998245E-14  0.12500000000E+03  0.12500000000E+03 0.  0.
        -11    1    3    3    0    0  0.36926380397E+02  0.48058651066E+02 -0.10663994142E+00  0.60606954089E+02  0.51100000000E-03 0. -1.
         23    2    1    0    0    0  0.10649394305E+02  0.29342965316E+02 -0.54645463904E+01  0.93309615341E+02  0.87763339927E+02 0.  0.
         11    1    3    3    0    0 -0.26276986092E+02 -0.18715685750E+02 -0.53579064490E+01  0.32702661252E+02  0.51100000000E-03 0.  1.
         22    1    1    0    0    0 -0.10649394305E+02 -0.29342965316E+02  0.54645463904E+01  0.31690384659E+02  0.00000000000E+00 0. -1.
</event>
<event>
 5    1  0.6622940E-004  0.9118800E+02  0.7818608E-02  0.1130116E+00
         25   -1    0    0    0    0  0.00000000000E+00  0.00000000000E+00  0.99999998245E-14  0.12500000000E+03  0.12500000000E+03 0.  0.
        -11    1    3    3    0    0 -0.13697714193E+02  0.24308743421E+02 -0.17719971529E+02  0.33053589398E+02  0.51100000000E-03 0. -1.
         23    2    1    0    0    0  0.11372408515E+02 -0.19548298168E+02  0.18964577158E+02  0.95485210089E+02  0.90809154397E+02 0.  0.
         11    1    3    3    0    0  0.25070122708E+02 -0.43857041590E+02  0.36684548686E+02  0.62431620691E+02  0.51100000000E-03 0.  1.
         22    1    1    0    0    0 -0.11372408515E+02  0.19548298168E+02 -0.18964577158E+02  0.29514789911E+02  0.00000000000E+00 0.  1.
</event>
<event>
 5    1  0.6622940E-004  0.9118800E+02  0.7818608E-02  0.1130116E+00
         25   -1    0    0    0    0  0.00000000000E+00  0.00000000000E+00  0.99999998245E-14  0.12500000000E+03  0.12500000000E+03 0.  0.
        -11    1    3    3    0    0  0.18157065267E+02  0.10832619137E+02 -0.36820715684E+02  0.42459271782E+02  0.51100000000E-03 0.  1.
         23    2    1    0    0    0 -0.25895400631E+02  0.69270003766E+01 -0.25253206416E+02  0.88172299253E+02  0.80112887934E+02 0.  0.
         11    1    3    3    0    0 -0.44052465898E+02 -0.39056187602E+01  0.11567509269E+02  0.45713027471E+02  0.51100000000E-03 0. -1.
         22    1    1    0    0    0  0.25895400631E+02 -0.69270003766E+01  0.25253206416E+02  0.36827700747E+02  0.00000000000E+00 0.  1.
</event>
<event>
 5    1  0.6622940E-004  0.9118800E+02  0.7818608E-02  0.1130116E+00
         25   -1    0    0    0    0  0.00000000000E+00  0.00000000000E+00  0.99999998245E-14  0.12500000000E+03  0.12500000000E+03 0.  0.
        -11    1    3    3    0    0  0.39820202030E+02 -0.99666465865E+01  0.10721616677E+02  0.42425647883E+02  0.51100000000E-03 0. -1.
         23    2    1    0    0    0 -0.60119924512E+01 -0.26773456568E+02 -0.10452371071E+02  0.95636517733E+02  0.91017193064E+02 0.  0.
         11    1    3    3    0    0 -0.45832194481E+02 -0.16806809982E+02 -0.21173987748E+02  0.53210869850E+02  0.51100000000E-03 0.  1.
         22    1    1    0    0    0  0.60119924512E+01  0.26773456568E+02  0.10452371071E+02  0.29363482267E+02  0.00000000000E+00 0.  1.
</event>
<event>
 5    1  0.6622940E-004  0.9118800E+02  0.7818608E-02  0.1130116E+00
         25   -1    0    0    0    0  0.00000000000E+00  0.00000000000E+00  0.99999998245E-14  0.12500000000E+03  0.12500000000E+03 0.  0.
        -11    1    3    3    0    0  0.28007759625E+02  0.18744996809E+02  0.73614806380E+01  0.34496389695E+02  0.51100000000E-03 0.  1.
         23    2    1    0    0    0 -0.29861863213E+02  0.34041635629E+01 -0.89438057690E+00  0.94931426361E+02  0.90043637144E+02 0.  0.
         11    1    3    3    0    0 -0.57869622838E+02 -0.15340833246E+02 -0.82558612150E+01  0.60435036665E+02  0.51100000000E-03 0. -1.
         22    1    1    0    0    0  0.29861863213E+02 -0.34041635629E+01  0.89438057690E+00  0.30068573639E+02  0.00000000000E+00 0. -1.
</event>
<event>
 5    1  0.6622940E-004  0.9118800E+02  0.7818608E-02  0.1130116E+00
         25   -1    0    0    0    0  0.00000000000E+00  0.00000000000E+00  0.99999998245E-14  0.12500000000E+03  0.12500000000E+03 0.  0.
        -11    1    3    3    0    0  0.20926184213E+02  0.56533066168E+02  0.13670494234E+02  0.61812419213E+02  0.51100000000E-03 0.  1.
         23    2    1    0    0    0  0.15325089144E+02  0.25189575287E+02  0.31423841807E+01  0.95347889809E+02  0.90619934078E+02 0.  0.
         11    1    3    3    0    0 -0.56010950693E+01 -0.31343490881E+02 -0.10528110053E+02  0.33535470597E+02  0.51100000000E-03 0. -1.
         22    1    1    0    0    0 -0.15325089144E+02 -0.25189575287E+02 -0.31423841807E+01  0.29652110191E+02  0.00000000000E+00 0.  1.
</event>
<event>
 5    1  0.6622940E-004  0.9118800E+02  0.7818608E-02  0.1130116E+00
         25   -1    0    0    0    0  0.00000000000E+00  0.00000000000E+00  0.99999998245E-14  0.12500000000E+03  0.12500000000E+03 0.  0.
        -11    1    3    3    0    0 -0.32538722033E+02  0.33610673213E+02 -0.17695573153E+02  0.50015788456E+02  0.51100000000E-03 0. -1.
         23    2    1    0    0    0 -0.27432396027E+02  0.92066880717E+00  0.12527805273E+02  0.94828326401E+02  0.89900398220E+02 0.  0.
         11    1    3    3    0    0  0.51063260059E+01 -0.32690004406E+02  0.30223378426E+02  0.44812537945E+02  0.51100000000E-03 0.  1.
         22    1    1    0    0    0  0.27432396027E+02 -0.92066880717E+00 -0.12527805273E+02  0.30171673599E+02  0.00000000000E+00 0.  1.
</event>
<event>
 5    1  0.6622940E-004  0.9118800E+02  0.7818608E-02  0.1130116E+00
         25   -1    0    0    0    0  0.00000000000E+00  0.00000000000E+00  0.99999998245E-14  0.12500000000E+03  0.12500000000E+03 0.  0.
        -11    1    3    3    0    0  0.71466217388E+00 -0.12519455103E+02 -0.20152732097E+02  0.23735629533E+02  0.51100000000E-03 0. -1.
         23    2    1    0    0    0 -0.39198158948E+02  0.12763581047E+02  0.13364680259E+02  0.81663879448E+02  0.69216832216E+02 0.  0.
         11    1    3    3    0    0 -0.39912821122E+02  0.25283036151E+02  0.33517412356E+02  0.57928249915E+02  0.51100000000E-03 0.  1.
         22    1    1    0    0    0  0.39198158948E+02 -0.12763581047E+02 -0.13364680259E+02  0.43336120552E+02  0.00000000000E+00 0.  1.
</event>
<event>
 5    1  0.6622940E-004  0.9118800E+02  0.7818608E-02  0.1130116E+00
         25   -1    0    0    0    0  0.00000000000E+00  0.00000000000E+00  0.99999998245E-14  0.12500000000E+03  0.12500000000E+03 0.  0.
        -11    1    3    3    0    0 -0.14063793783E+02  0.32353147624E+02  0.13263200149E+02  0.37688578312E+02  0.51100000000E-03 0. -1.
         23    2    1    0    0    0  0.58202400283E+01  0.68922241933E+00 -0.29748485973E+02  0.94679666241E+02  0.89693458849E+02 0.  0.
         11    1    3    3    0    0  0.19884033811E+02 -0.31663925205E+02 -0.43011686122E+02  0.56991087929E+02  0.51100000000E-03 0.  1.
         22    1    1    0    0    0 -0.58202400283E+01 -0.68922241933E+00  0.29748485973E+02  0.30320333759E+02  0.00000000000E+00 0.  1.
</event>
<event>
 5    1  0.6622940E-004  0.9118800E+02  0.7818608E-02  0.1130116E+00
         25   -1    0    0    0    0  0.00000000000E+00  0.00000000000E+00  0.99999998245E-14  0.12500000000E+03  0.12500000000E+03 0.  0.
        -11    1    3    3    0    0  0.71209817421E+01 -0.31194889792E+02 -0.10897609367E+02  0.33802180703E+02  0.51100000000E-03 0.  1.
         23    2    1    0    0    0 -0.22474933474E+01  0.15585708197E+02  0.26332097525E+02  0.94318655727E+02  0.89188922696E+02 0.  0.
         11    1    3    3    0    0 -0.93684750895E+01  0.46780597990E+02  0.37229706892E+02  0.60516475023E+02  0.51100000000E-03 0. -1.
         22    1    1    0    0    0  0.22474933474E+01 -0.15585708197E+02 -0.26332097525E+02  0.30681344273E+02  0.00000000000E+00 0. -1.
</event>
<event>
 5    1  0.6622940E-004  0.9118800E+02  0.7818608E-02  0.1130116E+00
         25   -1    0    0    0    0  0.00000000000E+00  0.00000000000E+00  0.99999998245E-14  0.12500000000E+03  0.12500000000E+03 0.  0.
        -11    1    3    3    0    0  0.55435474228E+02 -0.14348754941E+02  0.70502201717E+01  0.57694749987E+02  0.51100000000E-03 0. -1.
         23    2    1    0    0    0  0.21972449316E+02 -0.12893302064E+02 -0.12653018425E+02  0.96554883682E+02  0.92269826706E+02 0.  0.
         11    1    3    3    0    0 -0.33463024912E+02  0.14554528763E+01 -0.19703238597E+02  0.38860133695E+02  0.51100000000E-03 0.  1.
         22    1    1    0    0    0 -0.21972449316E+02  0.12893302064E+02  0.12653018425E+02  0.28445116318E+02  0.00000000000E+00 0. -1.
</event>
<event>
 5    1  0.6622940E-004  0.9118800E+02  0.7818608E-02  0.1130116E+00
         25   -1    0    0    0    0  0.00000000000E+00  0.00000000000E+00  0.99999998245E-14  0.12500000000E+03  0.12500000000E+03 0.  0.
        -11    1    3    3    0    0  0.28451948911E+02 -0.49906241429E+01 -0.10026568148E+02  0.30576981461E+02  0.51100000000E-03 0. -1.
         23    2    1    0    0    0 -0.27583691265E+02 -0.58346647482E+01  0.16233618992E+02  0.92466421621E+02  0.86554060594E+02 0.  0.
         11    1    3    3    0    0 -0.56035640176E+02 -0.84404060530E+00  0.26260187140E+02  0.61889440161E+02  0.51100000000E-03 0.  1.
         22    1    1    0    0    0  0.27583691265E+02  0.58346647482E+01 -0.16233618992E+02  0.32533578379E+02  0.00000000000E+00 0.  1.
</event>
<event>
 5    1  0.6622940E-004  0.9118800E+02  0.7818608E-02  0.1130116E+00
         25   -1    0    0    0    0  0.00000000000E+00  0.00000000000E+00  0.99999998245E-14  0.12500000000E+03  0.12500000000E+03 0.  0.
        -11    1    3    3    0    0 -0.25902056912E+02  0.26990018325E+02 -0.13187754044E+02  0.39664776546E+02  0.51100000000E-03 0.  1.
         23    2    1    0    0    0  0.11998269531E+02 -0.14666398822E+02 -0.21218261676E+02  0.96552217051E+02  0.92266214092E+02 0.  0.
         11    1    3    3    0    0  0.37900326443E+02 -0.41656417148E+02 -0.80305076323E+01  0.56887440505E+02  0.51100000000E-03 0. -1.
         22    1    1    0    0    0 -0.11998269531E+02  0.14666398822E+02  0.21218261676E+02  0.28447782949E+02  0.00000000000E+00 0. -1.
</event>
<event>
 5    1  0.6622940E-004  0.9118800E+02  0.7818608E-02  0.1130116E+00
         25   -1    0    0    0    0  0.00000000000E+00  0.00000000000E+00  0.99999998245E-14  0.12500000000E+03  0.12500000000E+03 0.  0.
        -11    1    3    3    0    0 -0.56673067605E+02  0.19532479139E+02 -0.32693159212E+01  0.60033680213E+02  0.51100000000E-03 0.  1.
         23    2    1    0    0    0 -0.20677951544E+02  0.19757915341E+02  0.15897012714E+01  0.96355977084E+02  0.91999968864E+02 0.  0.
         11    1    3    3    0    0  0.35995116060E+02  0.22543620148E+00  0.48590171926E+01  0.36322296871E+02  0.51100000000E-03 0. -1.
         22    1    1    0    0    0  0.20677951544E+02 -0.19757915341E+02 -0.15897012714E+01  0.28644022916E+02  0.00000000000E+00 0.  1.
</event>
<event>
 5    1  0.6622940E-004  0.9118800E+02  0.7818608E-02  0.1130116E+00
         25   -1    0    0    0    0  0.00000000000E+00  0.00000000000E+00  0.99999998245E-14  0.12500000000E+03  0.12500000000E+03 0.  0.
        -11    1    3    3    0    0  0.36459722404E+02  0.58304443192E+01  0.37503678511E+01  0.37112945155E+02  0.51100000000E-03 0.  1.
         23    2    1    0    0    0 -0.17777703951E+02 -0.20568773466E+02  0.45269546398E+01  0.97438894834E+02  0.93459743785E+02 0.  0.
         11    1    3    3    0    0 -0.54237426356E+02 -0.26399217785E+02  0.77658678867E+00  0.60325949679E+02  0.51100000000E-03 0. -1.
         22    1    1    0    0    0  0.17777703951E+02  0.20568773466E+02 -0.45269546398E+01  0.27561105166E+02  0.00000000000E+00 0. -1.
</event>
<event>
 5    1  0.6622940E-004  0.9118800E+02  0.7818608E-02  0.1130116E+00
         25   -1    0    0    0    0  0.00000000000E+00  0.00000000000E+00  0.99999998245E-14  0.12500000000E+03  0.12500000000E+03 0.  0.
        -11    1    3    3    0    0 -0.17394837991E+02 -0.20588767708E+02 -0.30023001823E+02  0.40346727044E+02  0.51100000000E-03 0.  1.
         23    2    1    0    0    0  0.16550613262E+02  0.20081871335E+02 -0.12373992281E+02  0.96184725567E+02  0.91766995111E+02 0.  0.
         11    1    3    3    0    0  0.33945451253E+02  0.40670639043E+02  0.17649009542E+02  0.55837998523E+02  0.51100000000E-03 0. -1.
         22    1    1    0    0    0 -0.16550613262E+02 -0.20081871335E+02  0.12373992281E+02  0.28815274433E+02  0.00000000000E+00 0. -1.
</event>
<event>
 5    1  0.6622940E-004  0.9118800E+02  0.7818608E-02  0.1130116E+00
         25   -1    0    0    0    0  0.00000000000E+00  0.00000000000E+00  0.99999998245E-14  0.12500000000E+03  0.12500000000E+03 0.  0.
        -11    1    3    3    0    0  0.25355205919E+02 -0.30616114495E+02 -0.45366082625E+02  0.60318441516E+02  0.51100000000E-03 0. -1.
         23    2    1    0    0    0  0.80528783821E+00 -0.16386700010E+02 -0.24389774858E+02  0.95605552508E+02  0.90974656509E+02 0.  0.
         11    1    3    3    0    0 -0.24549918081E+02  0.14229414484E+02  0.20976307767E+02  0.35287110992E+02  0.51100000000E-03 0.  1.
         22    1    1    0    0    0 -0.80528783821E+00  0.16386700010E+02  0.24389774858E+02  0.29394447492E+02  0.00000000000E+00 0. -1.
</event>
<event>
 5    1  0.6622940E-004  0.9118800E+02  0.7818608E-02  0.1130116E+00
         25   -1    0    0    0    0  0.00000000000E+00  0.00000000000E+00  0.99999998245E-14  0.12500000000E+03  0.12500000000E+03 0.  0.
        -11    1    3    3    0    0 -0.47010419045E+02 -0.12040512050E+02  0.15326054060E+02  0.50890484008E+02  0.51100000000E-03 0. -1.
         23    2    1    0    0    0 -0.19371049031E+02 -0.80156772431E+01 -0.20068820239E+02  0.95978522298E+02  0.91485685080E+02 0.  0.
         11    1    3    3    0    0  0.27639370014E+02  0.40248348067E+01 -0.35394874299E+02  0.45088038291E+02  0.51100000000E-03 0.  1.
         22    1    1    0    0    0  0.19371049031E+02  0.80156772431E+01  0.20068820239E+02  0.29021477702E+02  0.00000000000E+00 0. -1.
</event>
<event>
 5    1  0.6622940E-004  0.9118800E+02  0.7818608E-02  0.1130116E+00
         25   -1    0    0    0    0  0.00000000000E+00  0.00000000000E+00  0.99999998245E-14  0.12500000000E+03  0.12500000000E+03 0.  0.
        -11    1    3    3    0    0  0.20092440692E+02  0.26933411534E+02  0.84690935902E+01  0.34653143816E+02  0.51100000000E-03 0. -1.
         23    2    1    0    0    0 -0.34875731807E+01 -0.28989160820E+02  0.12048414697E+01  0.95776956786E+02  0.91209863483E+02 0.  0.
         11    1    3    3    0    0 -0.23580013873E+02 -0.55922572354E+02 -0.72642521205E+01  0.61123812970E+02  0.51100000000E-03 0.  1.
         22    1    1    0    0    0  0.34875731807E+01  0.28989160820E+02 -0.12048414697E+01  0.29223043214E+02  0.00000000000E+00 0.  1.
</event>
<event>
 5    1  0.6622940E-004  0.9118800E+02  0.7818608E-02  0.1130116E+00
         25   -1    0    0    0    0  0.00000000000E+00  0.00000000000E+00  0.99999998245E-14  0.12500000000E+03  0.12500000000E+03 0.  0.
        -11    1    3    3    0    0  0.22590073160E+02  0.90465039274E+00 -0.24610075093E+02  0.33418342180E+02  0.51100000000E-03 0. -1.
         23    2    1    0    0    0 -0.18754966206E+02  0.15155222245E+02  0.18332868104E+02  0.94709348445E+02  0.89734815492E+02 0.  0.
         11    1    3    3    0    0 -0.41345039366E+02  0.14250571852E+02  0.42942943197E+02  0.61291006265E+02  0.51100000000E-03 0.  1.
         22    1    1    0    0    0  0.18754966206E+02 -0.15155222245E+02 -0.18332868104E+02  0.30290651555E+02  0.00000000000E+00 0.  1.
</event>
<event>
 5    1  0.6622940E-004  0.9118800E+02  0.7818608E-02  0.1130116E+00
         25   -1    0    0    0    0  0.00000000000E+00  0.00000000000E+00  0.99999998245E-14  0.12500000000E+03  0.12500000000E+03 0.  0.
        -11    1    3    3    0    0 -0.46596797955E+02  0.14511616148E+02 -0.37681729295E+02  0.61658424451E+02  0.51100000000E-03 0. -1.
         23    2    1    0    0    0 -0.16556838118E+02  0.10785992171E+02 -0.20767838287E+02  0.96333475573E+02  0.91969391067E+02 0.  0.
         11    1    3    3    0    0  0.30039959837E+02 -0.37256239767E+01  0.16913891008E+02  0.34675051122E+02  0.51100000000E-03 0.  1.
         22    1    1    0    0    0  0.16556838118E+02 -0.10785992171E+02  0.20767838287E+02  0.28666524427E+02  0.00000000000E+00 0. -1.
</event>
<event>
 5    1  0.6622940E-004  0.9118800E+02  0.7818608E-02  0.1130116E+00
         25   -1    0    0    0    0  0.00000000000E+00  0.00000000000E+00  0.99999998245E-14  0.12500000000E+03  0.12500000000E+03 0.  0.
        -11    1    3    3    0    0  0.33449246135E+02  0.41468755567E+02 -0.26965202889E+02  0.59712912527E+02  0.51100000000E-03 0. -1.
         23    2    1    0    0    0  0.25509883439E+02  0.10781032264E+02 -0.11045792541E+02  0.95183991840E+02  0.90393572559E+02 0.  0.
         11    1    3    3    0    0 -0.79393626960E+01 -0.30687723303E+02  0.15919410348E+02  0.35471079313E+02  0.51100000000E-03 0.  1.
         22    1    1    0    0    0 -0.25509883439E+02 -0.10781032264E+02  0.11045792541E+02  0.29816008160E+02  0.00000000000E+00 0. -1.
</event>
<event>
 5    1  0.6622940E-004  0.9118800E+02  0.7818608E-02  0.1130116E+00
         25   -1    0    0    0    0  0.00000000000E+00  0.00000000000E+00  0.99999998245E-14  0.12500000000E+03  0.12500000000E+03 0.  0.
        -11    1    3    3    0    0  0.24145945177E+02 -0.25874312279E+02  0.44247490125E+02  0.56659924877E+02  0.51100000000E-03 0. -1.
         23    2    1    0    0    0 -0.55531982522E+01 -0.81789226330E+01  0.28846672947E+02  0.94506339571E+02  0.89451578481E+02 0.  0.
         11    1    3    3    0    0 -0.29699143429E+02  0.17695389646E+02 -0.15400817179E+02  0.37846414694E+02  0.51100000000E-03 0.  1.
         22    1    1    0    0    0  0.55531982522E+01  0.81789226330E+01 -0.28846672947E+02  0.30493660429E+02  0.00000000000E+00 0. -1.
</event>
<event>
 5    1  0.6622940E-004  0.9118800E+02  0.7818608E-02  0.1130116E+00
         25   -1    0    0    0    0  0.00000000000E+00  0.00000000000E+00  0.99999998245E-14  0.12500000000E+03  0.12500000000E+03 0.  0.
        -11    1    3    3    0    0 -0.51532473104E+01  0.21918207537E+02  0.48079843236E+02  0.53090819407E+02  0.51100000000E-03 0. -1.
         23    2    1    0    0    0 -0.25359718415E+02  0.72670952096E+01  0.14604346971E+02  0.94846841935E+02  0.89926139046E+02 0.  0.
         11    1    3    3    0    0 -0.20206471104E+02 -0.14651112327E+02 -0.33475496265E+02  0.41756022528E+02  0.51100000000E-03 0.  1.
         22    1    1    0    0    0  0.25359718415E+02 -0.72670952096E+01 -0.14604346971E+02  0.30153158065E+02  0.00000000000E+00 0. -1.
</event>
<event>
 5    1  0.6622940E-004  0.9118800E+02  0.7818608E-02  0.1130116E+00
         25   -1    0    0    0    0  0.00000000000E+00  0.00000000000E+00  0.99999998245E-14  0.12500000000E+03  0.12500000000E+03 0.  0.
        -11    1    3    3    0    0  0.32415384036E+02  0.12964135860E+02  0.67128799585E+01  0.35551212333E+02  0.51100000000E-03 0.  1.
         23    2    1    0    0    0 -0.11964109839E+02 -0.26034543245E+02  0.98176403013E+01  0.94712652356E+02  0.89739417699E+02 0.  0.
         11    1    3    3    0    0 -0.44379493874E+02 -0.38998679105E+02  0.31047603428E+01  0.59161440023E+02  0.51100000000E-03 0. -1.
         22    1    1    0    0    0  0.11964109839E+02  0.26034543245E+02 -0.98176403013E+01  0.30287347644E+02  0.00000000000E+00 0. -1.
</event>
<event>
 5    1  0.6622940E-004  0.9118800E+02  0.7818608E-02  0.1130116E+00
         25   -1    0    0    0    0  0.00000000000E+00  0.00000000000E+00  0.99999998245E-14  0.12500000000E+03  0.12500000000E+03 0.  0.
        -11    1    3    3    0    0 -0.88946749639E+01  0.39117704285E+02  0.38242913597E+02  0.55424096492E+02  0.51100000000E-03 0.  1.
         23    2    1    0    0    0 -0.22175572966E+02  0.17236676397E+02  0.65547044891E+01  0.96158654669E+02  0.91731475880E+02 0.  0.
         11    1    3    3    0    0 -0.13280898002E+02 -0.21881027888E+02 -0.31688209108E+02  0.40734558177E+02  0.51100000000E-03 0. -1.
         22    1    1    0    0    0  0.22175572966E+02 -0.17236676397E+02 -0.65547044891E+01  0.28841345331E+02  0.00000000000E+00 0.  1.
</event>
<event>
 5    1  0.6622940E-004  0.9118800E+02  0.7818608E-02  0.1130116E+00
         25   -1    0    0    0    0  0.00000000000E+00  0.00000000000E+00  0.99999998245E-14  0.12500000000E+03  0.12500000000E+03 0.  0.
        -11    1    3    3    0    0 -0.32369550943E+02  0.48946071617E+02 -0.94786738850E+01  0.59441997055E+02  0.51100000000E-03 0. -1.
         23    2    1    0    0    0 -0.23511479712E+02  0.11192966247E+02 -0.50830660985E+01  0.98468702772E+02  0.94827083120E+02 0.  0.
         11    1    3    3    0    0  0.88580712314E+01 -0.37753105370E+02  0.43956077866E+01  0.39026705717E+02  0.51100000000E-03 0.  1.
         22    1    1    0    0    0  0.23511479712E+02 -0.11192966247E+02  0.50830660985E+01  0.26531297228E+02  0.00000000000E+00 0.  1.
</event>
<event>
 5    1  0.6622940E-004  0.9118800E+02  0.7818608E-02  0.1130116E+00
         25   -1    0    0    0    0  0.00000000000E+00  0.00000000000E+00  0.99999998245E-14  0.12500000000E+03  0.12500000000E+03 0.  0.
        -11    1    3    3    0    0  0.12296980973E+02  0.42287694024E+02 -0.37626994690E+02  0.57924567643E+02  0.51100000000E-03 0. -1.
         23    2    1    0    0    0 -0.11286639062E+02  0.18705144573E+02 -0.18508331404E+02  0.96367344060E+02  0.92015411834E+02 0.  0.
         11    1    3    3    0    0 -0.23583620035E+02 -0.23582549451E+02  0.19118663286E+02  0.38442776417E+02  0.51100000000E-03 0.  1.
         22    1    1    0    0    0  0.11286639062E+02 -0.18705144573E+02  0.18508331404E+02  0.28632655940E+02  0.00000000000E+00 0. -1.
</event>
<event>
 5    1  0.6622940E-004  0.9118800E+02  0.7818608E-02  0.1130116E+00
         25   -1    0    0    0    0  0.00000000000E+00  0.00000000000E+00  0.99999998245E-14  0.12500000000E+03  0.12500000000E+03 0.  0.
        -11    1    3    3    0    0 -0.16791372933E+02  0.11840146640E+02 -0.58132297545E+02  0.61656332161E+02  0.51100000000E-03 0. -1.
         23    2    1    0    0    0 -0.40038890602E+01  0.11698394187E+02 -0.27791942841E+02  0.94581656175E+02  0.89556764367E+02 0.  0.
         11    1    3    3    0    0  0.12787483873E+02 -0.14175245250E+00  0.30340354705E+02  0.32925324014E+02  0.51100000000E-03 0.  1.
         22    1    1    0    0    0  0.40038890602E+01 -0.11698394187E+02  0.27791942841E+02  0.30418343825E+02  0.00000000000E+00 0. -1.
</event>
<event>
 5    1  0.6622940E-004  0.9118800E+02  0.7818608E-02  0.1130116E+00
         25   -1    0    0    0    0  0.00000000000E+00  0.00000000000E+00  0.99999998245E-14  0.12500000000E+03  0.12500000000E+03 0.  0.
        -11    1    3    3    0    0  0.31217257443E+02  0.39148455790E+01  0.29558459149E+02  0.43168804544E+02  0.51100000000E-03 0.  1.
         23    2    1    0    0    0 -0.16873304815E+02 -0.15244024941E+02  0.17460702742E+02  0.96330070596E+02  0.91964763083E+02 0.  0.
         11    1    3    3    0    0 -0.48090562258E+02 -0.19158870520E+02 -0.12097756407E+02  0.53161266052E+02  0.51100000000E-03 0. -1.
         22    1    1    0    0    0  0.16873304815E+02  0.15244024941E+02 -0.17460702742E+02  0.28669929404E+02  0.00000000000E+00 0.  1.
</event>
<event>
 5    1  0.6622940E-004  0.9118800E+02  0.7818608E-02  0.1130116E+00
         25   -1    0    0    0    0  0.00000000000E+00  0.00000000000E+00  0.99999998245E-14  0.12500000000E+03  0.12500000000E+03 0.  0.
        -11    1    3    3    0    0  0.28661495273E+02  0.21468618873E+02 -0.14946502316E+02  0.38804392011E+02  0.51100000000E-03 0.  1.
         23    2    1    0    0    0 -0.25738246587E+01  0.70880598414E+01  0.29244985042E+02  0.94798438520E+02  0.89858831675E+02 0.  0.
         11    1    3    3    0    0 -0.31235319931E+02 -0.14380559032E+02  0.44191487358E+02  0.55994046509E+02  0.51100000000E-03 0. -1.
         22    1    1    0    0    0  0.25738246587E+01 -0.70880598414E+01 -0.29244985042E+02  0.30201561480E+02  0.00000000000E+00 0. -1.
</event>
<event>
 5    1  0.6622940E-004  0.9118800E+02  0.7818608E-02  0.1130116E+00
         25   -1    0    0    0    0  0.00000000000E+00  0.00000000000E+00  0.99999998245E-14  0.12500000000E+03  0.12500000000E+03 0.  0.
        -11    1    3    3    0    0  0.29830867536E+02 -0.14906672373E+02  0.21516890505E+02  0.39687102646E+02  0.51100000000E-03 0.  1.
         23    2    1    0    0    0 -0.21269256652E+02  0.22850446072E+00  0.23863067235E+02  0.93033150442E+02  0.87368687814E+02 0.  0.
         11    1    3    3    0    0 -0.51100124189E+02  0.15135176833E+02  0.23461767294E+01  0.53346047795E+02  0.51100000000E-03 0. -1.
         22    1    1    0    0    0  0.21269256652E+02 -0.22850446072E+00 -0.23863067235E+02  0.31966849558E+02  0.00000000000E+00 0. -1.
</event>
<event>
 5    1  0.6622940E-004  0.9118800E+02  0.7818608E-02  0.1130116E+00
         25   -1    0    0    0    0  0.00000000000E+00  0.00000000000E+00  0.99999998245E-14  0.12500000000E+03  0.12500000000E+03 0.  0.
        -11    1    3    3    0    0 -0.66682953049E+01 -0.34727818203E+02 -0.38746267769E+01  0.35573870360E+02  0.51100000000E-03 0.  1.
         23    2    1    0    0    0  0.66154868849E+01  0.21088829967E+02  0.17507272461E+02  0.96804113684E+02  0.92606848672E+02 0.  0.
         11    1    3    3    0    0  0.13283782190E+02  0.55816648171E+02  0.21381899238E+02  0.61230243324E+02  0.51100000000E-03 0. -1.
         22    1    1    0    0    0 -0.66154868849E+01 -0.21088829967E+02 -0.17507272461E+02  0.28195886316E+02  0.00000000000E+00 0. -1.
</event>
<event>
 5    1  0.6622940E-004  0.9118800E+02  0.7818608E-02  0.1130116E+00
         25   -1    0    0    0    0  0.00000000000E+00  0.00000000000E+00  0.99999998245E-14  0.12500000000E+03  0.12500000000E+03 0.  0.
        -11    1    3    3    0    0  0.14030272562E+02 -0.31747283996E+02  0.17984577313E+02  0.39091989086E+02  0.51100000000E-03 0.  1.
         23    2    1    0    0    0 -0.29084128602E+02  0.30713970831E+00  0.13291362716E+02  0.93021238388E+02  0.87351643356E+02 0.  0.
         11    1    3    3    0    0 -0.43114401165E+02  0.32054423704E+02 -0.46932145965E+01  0.53929249303E+02  0.51100000000E-03 0. -1.
         22    1    1    0    0    0  0.29084128602E+02 -0.30713970831E+00 -0.13291362716E+02  0.31978761612E+02  0.00000000000E+00 0. -1.
</event>
<event>
 5    1  0.6622940E-004  0.9118800E+02  0.7818608E-02  0.1130116E+00
         25   -1    0    0    0    0  0.00000000000E+00  0.00000000000E+00  0.99999998245E-14  0.12500000000E+03  0.12500000000E+03 0.  0.
        -11    1    3    3    0    0 -0.19080103255E+02  0.44860361531E+02 -0.13951952302E+02  0.50706600657E+02  0.51100000000E-03 0.  1.
         23    2    1    0    0    0 -0.30299738815E+02  0.44633198754E+01 -0.98278166171E+01  0.92835090922E+02  0.87084859364E+02 0.  0.
         11    1    3    3    0    0 -0.11219635559E+02 -0.40397041655E+02  0.41241356853E+01  0.42128490265E+02  0.51100000000E-03 0. -1.
         22    1    1    0    0    0  0.30299738815E+02 -0.44633198754E+01  0.98278166171E+01  0.32164909078E+02  0.00000000000E+00 0.  1.
</event>
<event>
 5    1  0.6622940E-004  0.9118800E+02  0.7818608E-02  0.1130116E+00
         25   -1    0    0    0    0  0.00000000000E+00  0.00000000000E+00  0.99999998245E-14  0.12500000000E+03  0.12500000000E+03 0.  0.
        -11    1    3    3    0    0 -0.51357467635E+02 -0.25860185440E+01  0.78483626226E+01  0.52018013898E+02  0.51100000000E-03 0. -1.
         23    2    1    0    0    0 -0.19348013906E+02  0.28343989865E+00 -0.21875743414E+02  0.95794279153E+02  0.91233600106E+02 0.  0.
         11    1    3    3    0    0  0.32009453729E+02  0.28694584427E+01 -0.29724106037E+02  0.43776265255E+02  0.51100000000E-03 0.  1.
         22    1    1    0    0    0  0.19348013906E+02 -0.28343989865E+00  0.21875743414E+02  0.29205720847E+02  0.00000000000E+00 0.  1.
</event>
<event>
 5    1  0.6622940E-004  0.9118800E+02  0.7818608E-02  0.1130116E+00
         25   -1    0    0    0    0  0.00000000000E+00  0.00000000000E+00  0.99999998245E-14  0.12500000000E+03  0.12500000000E+03 0.  0.
        -11    1    3    3    0    0  0.19256990520E+02 -0.14954657697E+02 -0.28746984404E+02  0.37694330917E+02  0.51100000000E-03 0. -1.
         23    2    1    0    0    0 -0.26781291307E+02 -0.70198863601E+01  0.69104955326E+01  0.96464560332E+02  0.92147382399E+02 0.  0.
         11    1    3    3    0    0 -0.46038281826E+02  0.79347713365E+01  0.35657479937E+02  0.58770229414E+02  0.51100000000E-03 0.  1.
         22    1    1    0    0    0  0.26781291307E+02  0.70198863601E+01 -0.69104955326E+01  0.28535439668E+02  0.00000000000E+00 0.  1.
</event>
<event>
 5    1  0.6622940E-004  0.9118800E+02  0.7818608E-02  0.1130116E+00
         25   -1    0    0    0    0  0.00000000000E+00  0.00000000000E+00  0.99999998245E-14  0.12500000000E+03  0.12500000000E+03 0.  0.
        -11    1    3    3    0    0  0.30841509764E+02 -0.13900756335E+02  0.21115802063E+02  0.39878651535E+02  0.51100000000E-03 0.  1.
         23    2    1    0    0    0 -0.68164097414E+01  0.25570580896E+02  0.14478720095E+02  0.94834599543E+02  0.89909120148E+02 0.  0.
         11    1    3    3    0    0 -0.37657919505E+02  0.39471337231E+02 -0.66370819677E+01  0.54955948009E+02  0.51100000000E-03 0. -1.
         22    1    1    0    0    0  0.68164097414E+01 -0.25570580896E+02 -0.14478720095E+02  0.30165400457E+02  0.00000000000E+00 0. -1.
</event>
<event>
 5    1  0.6622940E-004  0.9118800E+02  0.7818608E-02  0.1130116E+00
         25   -1    0    0    0    0  0.00000000000E+00  0.00000000000E+00  0.99999998245E-14  0.12500000000E+03  0.12500000000E+03 0.  0.
        -11    1    3    3    0    0  0.25248022967E+02 -0.96741505610E+01 -0.32474974454E+02  0.42257257588E+02  0.51100000000E-03 0. -1.
         23    2    1    0    0    0 -0.17480109632E+02  0.12726458878E+02 -0.26389756626E+02  0.90883490168E+02  0.84237002214E+02 0.  0.
         11    1    3    3    0    0 -0.42728132599E+02  0.22400609439E+02  0.60852178285E+01  0.48626232580E+02  0.51100000000E-03 0.  1.
         22    1    1    0    0    0  0.17480109632E+02 -0.12726458878E+02  0.26389756626E+02  0.34116509832E+02  0.00000000000E+00 0.  1.
</event>
<event>
 5    1  0.6622940E-004  0.9118800E+02  0.7818608E-02  0.1130116E+00
         25   -1    0    0    0    0  0.00000000000E+00  0.00000000000E+00  0.99999998245E-14  0.12500000000E+03  0.12500000000E+03 0.  0.
        -11    1    3    3    0    0  0.49217169225E+02 -0.22096622512E+02  0.31456306125E+02  0.62450697900E+02  0.51100000000E-03 0.  1.
         23    2    1    0    0    0  0.23748555843E+02 -0.87974848999E+01  0.14253004383E+02  0.95939067820E+02  0.91431761194E+02 0.  0.
         11    1    3    3    0    0 -0.25468613382E+02  0.13299137612E+02 -0.17203301742E+02  0.33488369920E+02  0.51100000000E-03 0. -1.
         22    1    1    0    0    0 -0.23748555843E+02  0.87974848999E+01 -0.14253004383E+02  0.29060932180E+02  0.00000000000E+00 0.  1.
</event>
<event>
 5    1  0.6622940E-004  0.9118800E+02  0.7818608E-02  0.1130116E+00
         25   -1    0    0    0    0  0.00000000000E+00  0.00000000000E+00  0.99999998245E-14  0.12500000000E+03  0.12500000000E+03 0.  0.
        -11    1    3    3    0    0 -0.15670103916E+02 -0.40623803385E+02 -0.17070523478E+02  0.46768026795E+02  0.51100000000E-03 0. -1.
         23    2    1    0    0    0 -0.24476243932E+02 -0.16393208773E+02  0.18136962633E+02  0.90405589694E+02  0.83524831178E+02 0.  0.
         11    1    3    3    0    0 -0.88061400163E+01  0.24230594612E+02  0.35207486111E+02  0.43637562899E+02  0.51100000000E-03 0.  1.
         22    1    1    0    0    0  0.24476243932E+02  0.16393208773E+02 -0.18136962633E+02  0.34594410306E+02  0.00000000000E+00 0. -1.
</event>
<event>
 5    1  0.6622940E-004  0.9118800E+02  0.7818608E-02  0.1130116E+00
         25   -1    0    0    0    0  0.00000000000E+00  0.00000000000E+00  0.99999998245E-14  0.12500000000E+03  0.12500000000E+03 0.  0.
        -11    1    3    3    0    0  0.43241387007E+02 -0.58012693836E+01  0.60850706949E+00  0.43633044334E+02  0.51100000000E-03 0.  1.
         23    2    1    0    0    0 -0.20298389795E+01 -0.16784998721E+02 -0.23471368695E+02  0.96073168567E+02  0.91614912223E+02 0.  0.
         11    1    3    3    0    0 -0.45271225986E+02 -0.10983729337E+02 -0.24079875765E+02  0.52440124233E+02  0.51100000000E-03 0. -1.
         22    1    1    0    0    0  0.20298389795E+01  0.16784998721E+02  0.23471368695E+02  0.28926831433E+02  0.00000000000E+00 0. -1.
</event>
<event>
 5    1  0.6622940E-004  0.9118800E+02  0.7818608E-02  0.1130116E+00
         25   -1    0    0    0    0  0.00000000000E+00  0.00000000000E+00  0.99999998245E-14  0.12500000000E+03  0.12500000000E+03 0.  0.
        -11    1    3    3    0    0 -0.40031241876E+02  0.69088129643E+01 -0.44791268340E+02  0.60468915506E+02  0.51100000000E-03 0.  1.
         23    2    1    0    0    0 -0.25771414505E+02  0.25783028803E+00 -0.12573227972E+02  0.96323906408E+02  0.91956384237E+02 0.  0.
         11    1    3    3    0    0  0.14259827371E+02 -0.66509826762E+01  0.32218040368E+02  0.35854990902E+02  0.51100000000E-03 0. -1.
         22    1    1    0    0    0  0.25771414505E+02 -0.25783028803E+00  0.12573227972E+02  0.28676093592E+02  0.00000000000E+00 0.  1.
</event>
<event>
 5    1  0.6622940E-004  0.9118800E+02  0.7818608E-02  0.1130116E+00
         25   -1    0    0    0    0  0.00000000000E+00  0.00000000000E+00  0.99999998245E-14  0.12500000000E+03  0.12500000000E+03 0.  0.
        -11    1    3    3    0    0  0.99505694774E+01 -0.21074724321E+02  0.54930394919E+02  0.59669976742E+02  0.51100000000E-03 0. -1.
         23    2    1    0    0    0 -0.80018417184E+01 -0.85579875164E+01  0.29717530287E+02  0.93056295964E+02  0.87401796268E+02 0.  0.
         11    1    3    3    0    0 -0.17952411196E+02  0.12516736805E+02 -0.25212864632E+02  0.33386319222E+02  0.51100000000E-03 0.  1.
         22    1    1    0    0    0  0.80018417184E+01  0.85579875164E+01 -0.29717530287E+02  0.31943704036E+02  0.00000000000E+00 0. -1.
</event>
<event>
 5    1  0.6622940E-004  0.9118800E+02  0.7818608E-02  0.1130116E+00
         25   -1    0    0    0    0  0.00000000000E+00  0.00000000000E+00  0.99999998245E-14  0.12500000000E+03  0.12500000000E+03 0.  0.
        -11    1    3    3    0    0  0.31498474230E+02 -0.56423944378E+01 -0.19815553706E+02  0.37638366898E+02  0.51100000000E-03 0. -1.
         23    2    1    0    0    0 -0.94056021822E+00 -0.34222518899E+01  0.28721626005E+02  0.96059919456E+02  0.91596833264E+02 0.  0.
         11    1    3    3    0    0 -0.32439034448E+02  0.22201425479E+01  0.48537179711E+02  0.58421552559E+02  0.51100000000E-03 0.  1.
         22    1    1    0    0    0  0.94056021822E+00  0.34222518899E+01 -0.28721626005E+02  0.28940080544E+02  0.00000000000E+00 0.  1.
</event>
<event>
 5    1  0.6622940E-004  0.9118800E+02  0.7818608E-02  0.1130116E+00
         25   -1    0    0    0    0  0.00000000000E+00  0.00000000000E+00  0.99999998245E-14  0.12500000000E+03  0.12500000000E+03 0.  0.
        -11    1    3    3    0    0 -0.41910731580E+02  0.37071483003E+02 -0.25963205826E+02  0.61683809307E+02  0.51100000000E-03 0. -1.
         23    2    1    0    0    0 -0.24372377910E+02  0.14890403332E+02 -0.74465830251E+01  0.95484097250E+02  0.90807622547E+02 0.  0.
         11    1    3    3    0    0  0.17538353670E+02 -0.22181079671E+02  0.18516622801E+02  0.33800287943E+02  0.51100000000E-03 0.  1.
         22    1    1    0    0    0  0.24372377910E+02 -0.14890403332E+02  0.74465830251E+01  0.29515902750E+02  0.00000000000E+00 0. -1.
</event>
<event>
 5    1  0.6622940E-004  0.9118800E+02  0.7818608E-02  0.1130116E+00
         25   -1    0    0    0    0  0.00000000000E+00  0.00000000000E+00  0.99999998245E-14  0.12500000000E+03  0.12500000000E+03 0.  0.
        -11    1    3    3    0    0  0.16304664743E+02 -0.54882441623E+02 -0.24167805376E+02  0.62145050550E+02  0.51100000000E-03 0.  1.
         23    2    1    0    0    0  0.10207751293E+02 -0.26192413144E+02 -0.73970594632E+01  0.95931852803E+02  0.91421896724E+02 0.  0.
         11    1    3    3    0    0 -0.60969134495E+01  0.28690028479E+02  0.16770745913E+02  0.33786802253E+02  0.51100000000E-03 0. -1.
         22    1    1    0    0    0 -0.10207751293E+02  0.26192413144E+02  0.73970594632E+01  0.29068147197E+02  0.00000000000E+00 0.  1.
</event>
<event>
 5    1  0.6622940E-004  0.9118800E+02  0.7818608E-02  0.1130116E+00
         25   -1    0    0    0    0  0.00000000000E+00  0.00000000000E+00  0.99999998245E-14  0.12500000000E+03  0.12500000000E+03 0.  0.
        -11    1    3    3    0    0 -0.86187466542E+01 -0.52365739656E+01  0.35474049232E+02  0.36879705395E+02  0.51100000000E-03 0.  1.
         23    2    1    0    0    0 -0.29085459746E+02 -0.27205546473E+02 -0.22696259695E+01  0.85109438089E+02  0.75182175563E+02 0.  0.
         11    1    3    3    0    0 -0.20466713092E+02 -0.21968972507E+02 -0.37743675202E+02  0.48229732695E+02  0.51100000000E-03 0. -1.
         22    1    1    0    0    0  0.29085459746E+02  0.27205546473E+02  0.22696259695E+01  0.39890561911E+02  0.00000000000E+00 0. -1.
</event>
<event>
 5    1  0.6622940E-004  0.9118800E+02  0.7818608E-02  0.1130116E+00
         25   -1    0    0    0    0  0.00000000000E+00  0.00000000000E+00  0.99999998245E-14  0.12500000000E+03  0.12500000000E+03 0.  0.
        -11    1    3    3    0    0 -0.42598940281E+02  0.37035118392E+02 -0.18681778587E+02  0.59458208507E+02  0.51100000000E-03 0. -1.
         23    2    1    0    0    0 -0.29139168152E+02  0.70926655505E+01 -0.93051355411E+01  0.93599640565E+02  0.88175450900E+02 0.  0.
         11    1    3    3    0    0  0.13459772129E+02 -0.29942452842E+02  0.93766430456E+01  0.34141432059E+02  0.51100000000E-03 0.  1.
         22    1    1    0    0    0  0.29139168152E+02 -0.70926655505E+01  0.93051355411E+01  0.31400359435E+02  0.00000000000E+00 0.  1.
</event>
<event>
 5    1  0.6622940E-004  0.9118800E+02  0.7818608E-02  0.1130116E+00
         25   -1    0    0    0    0  0.00000000000E+00  0.00000000000E+00  0.99999998245E-14  0.12500000000E+03  0.12500000000E+03 0.  0.
        -11    1    3    3    0    0 -0.32905107589E+02 -0.19142010859E+02 -0.27540470563E+02  0.46985531861E+02  0.51100000000E-03 0.  1.
         23    2    1    0    0    0 -0.21728336979E+02 -0.81932192247E+01  0.18307408580E+02  0.95429564122E+02  0.90732524656E+02 0.  0.
         11    1    3    3    0    0  0.11176770610E+02  0.10948791634E+02  0.45847879143E+02  0.48444032261E+02  0.51100000000E-03 0. -1.
         22    1    1    0    0    0  0.21728336979E+02  0.81932192247E+01 -0.18307408580E+02  0.29570435878E+02  0.00000000000E+00 0. -1.
</event>
<event>
 5    1  0.6622940E-004  0.9118800E+02  0.7818608E-02  0.1130116E+00
         25   -1    0    0    0    0  0.00000000000E+00  0.00000000000E+00  0.99999998245E-14  0.12500000000E+03  0.12500000000E+03 0.  0.
        -11    1    3    3    0    0 -0.32851967414E+02  0.21586061129E+02 -0.33880380045E+02  0.51894989645E+02  0.51100000000E-03 0.  1.
         23    2    1    0    0    0 -0.25562610551E+02  0.13249039662E+02  0.79208151059E+01  0.95138261570E+02  0.90330312700E+02 0.  0.
         11    1    3    3    0    0  0.72893568632E+01 -0.83370214669E+01  0.41801195151E+02  0.43243271924E+02  0.51100000000E-03 0. -1.
         22    1    1    0    0    0  0.25562610551E+02 -0.13249039662E+02 -0.79208151059E+01  0.29861738430E+02  0.00000000000E+00 0.  1.
</event>
<event>
 5    1  0.6622940E-004  0.9118800E+02  0.7818608E-02  0.1130116E+00
         25   -1    0    0    0    0  0.00000000000E+00  0.00000000000E+00  0.99999998245E-14  0.12500000000E+03  0.12500000000E+03 0.  0.
        -11    1    3    3    0    0  0.41309553925E+02 -0.22397093639E+02  0.10147758962E+02  0.48073756470E+02  0.51100000000E-03 0. -1.
         23    2    1    0    0    0  0.24081446706E+02  0.13527362685E+02 -0.13343105270E+02  0.94325188266E+02  0.89198077707E+02 0.  0.
         11    1    3    3    0    0 -0.17228107219E+02  0.35924456325E+02 -0.23490864232E+02  0.46251431796E+02  0.51100000000E-03 0.  1.
         22    1    1    0    0    0 -0.24081446706E+02 -0.13527362685E+02  0.13343105270E+02  0.30674811734E+02  0.00000000000E+00 0.  1.
</event>
<event>
 5    1  0.6622940E-004  0.9118800E+02  0.7818608E-02  0.1130116E+00
         25   -1    0    0    0    0  0.00000000000E+00  0.00000000000E+00  0.99999998245E-14  0.12500000000E+03  0.12500000000E+03 0.  0.
        -11    1    3    3    0    0  0.98530680272E+01 -0.72391737613E+01 -0.49564150714E+02  0.51049913052E+02  0.51100000000E-03 0. -1.
         23    2    1    0    0    0 -0.16271380841E+02 -0.19064949370E+02 -0.15701330688E+02  0.95423625741E+02  0.90724343123E+02 0.  0.
         11    1    3    3    0    0 -0.26124448868E+02 -0.11825775609E+02  0.33862820026E+02  0.44373712689E+02  0.51100000000E-03 0.  1.
         22    1    1    0    0    0  0.16271380841E+02  0.19064949370E+02  0.15701330688E+02  0.29576374259E+02  0.00000000000E+00 0. -1.
</event>
<event>
 5    1  0.6622940E-004  0.9118800E+02  0.7818608E-02  0.1130116E+00
         25   -1    0    0    0    0  0.00000000000E+00  0.00000000000E+00  0.99999998245E-14  0.12500000000E+03  0.12500000000E+03 0.  0.
        -11    1    3    3    0    0  0.81697634277E+01 -0.24544591172E+01  0.31321509261E+02  0.32462383564E+02  0.51100000000E-03 0.  1.
         23    2    1    0    0    0 -0.14742151629E+02  0.78367562600E+00 -0.26457341815E+02  0.94702539413E+02  0.89725330053E+02 0.  0.
         11    1    3    3    0    0 -0.22911915056E+02  0.32381347432E+01 -0.57778851076E+02  0.62240155849E+02  0.51100000000E-03 0. -1.
         22    1    1    0    0    0  0.14742151629E+02 -0.78367562600E+00  0.26457341815E+02  0.30297460587E+02  0.00000000000E+00 0. -1.
</event>
<event>
 5    1  0.6622940E-004  0.9118800E+02  0.7818608E-02  0.1130116E+00
         25   -1    0    0    0    0  0.00000000000E+00  0.00000000000E+00  0.99999998245E-14  0.12500000000E+03  0.12500000000E+03 0.  0.
        -11    1    3    3    0    0  0.14838826380E+02 -0.60319045093E+02 -0.64831701229E+01  0.62454859413E+02  0.51100000000E-03 0.  1.
         23    2    1    0    0    0  0.61650144850E+01 -0.28788478129E+02 -0.45009702901E+01  0.95216739431E+02  0.90438845955E+02 0.  0.
         11    1    3    3    0    0 -0.86738118948E+01  0.31530566964E+02  0.19821998328E+01  0.32761880018E+02  0.51100000000E-03 0. -1.
         22    1    1    0    0    0 -0.61650144850E+01  0.28788478129E+02  0.45009702901E+01  0.29783260569E+02  0.00000000000E+00 0.  1.
</event>
<event>
 5    1  0.6622940E-004  0.9118800E+02  0.7818608E-02  0.1130116E+00
         25   -1    0    0    0    0  0.00000000000E+00  0.00000000000E+00  0.99999998245E-14  0.12500000000E+03  0.12500000000E+03 0.  0.
        -11    1    3    3    0    0  0.34566213690E+02  0.10304773624E+02  0.36848860102E+02  0.51564037656E+02  0.51100000000E-03 0. -1.
         23    2    1    0    0    0 -0.74020507369E+01 -0.27987979183E+00  0.28382598427E+02  0.95666732516E+02  0.91058679592E+02 0.  0.
         11    1    3    3    0    0 -0.41968264427E+02 -0.10584653416E+02 -0.84662616749E+01  0.44102694861E+02  0.51100000000E-03 0.  1.
         22    1    1    0    0    0  0.74020507369E+01  0.27987979183E+00 -0.28382598427E+02  0.29333267484E+02  0.00000000000E+00 0. -1.
</event>
<event>
 5    1  0.6622940E-004  0.9118800E+02  0.7818608E-02  0.1130116E+00
         25   -1    0    0    0    0  0.00000000000E+00  0.00000000000E+00  0.99999998245E-14  0.12500000000E+03  0.12500000000E+03 0.  0.
        -11    1    3    3    0    0 -0.15316271801E+02 -0.16647854080E+02 -0.24786284303E+02  0.33557400333E+02  0.51100000000E-03 0. -1.
         23    2    1    0    0    0 -0.78367411064E+01  0.24911307981E+02  0.17694536278E+02  0.93455041756E+02  0.87970224730E+02 0.  0.
         11    1    3    3    0    0  0.74795306942E+01  0.41559162061E+02  0.42480820581E+02  0.59897641423E+02  0.51100000000E-03 0.  1.
         22    1    1    0    0    0  0.78367411064E+01 -0.24911307981E+02 -0.17694536278E+02  0.31544958244E+02  0.00000000000E+00 0.  1.
</event>
<event>
 5    1  0.6622940E-004  0.9118800E+02  0.7818608E-02  0.1130116E+00
         25   -1    0    0    0    0  0.00000000000E+00  0.00000000000E+00  0.99999998245E-14  0.12500000000E+03  0.12500000000E+03 0.  0.
        -11    1    3    3    0    0  0.30315963251E+01 -0.41146174919E+02 -0.12288956927E+02  0.43049004046E+02  0.51100000000E-03 0. -1.
         23    2    1    0    0    0 -0.30783086588E+02 -0.49542930727E+01 -0.12451517722E+01  0.93795932274E+02  0.88453281841E+02 0.  0.
         11    1    3    3    0    0 -0.33814682913E+02  0.36191881846E+02  0.11043805155E+02  0.50746928228E+02  0.51100000000E-03 0.  1.
         22    1    1    0    0    0  0.30783086588E+02  0.49542930727E+01  0.12451517722E+01  0.31204067726E+02  0.00000000000E+00 0.  1.
</event>
<event>
 5    1  0.6622940E-004  0.9118800E+02  0.7818608E-02  0.1130116E+00
         25   -1    0    0    0    0  0.00000000000E+00  0.00000000000E+00  0.99999998245E-14  0.12500000000E+03  0.12500000000E+03 0.  0.
        -11    1    3    3    0    0 -0.23964588442E+02 -0.33522732294E+01 -0.29517722350E+02  0.38168510162E+02  0.51100000000E-03 0. -1.
         23    2    1    0    0    0  0.42363321252E+01 -0.22579244401E+02  0.17395240324E+02  0.96183977139E+02  0.91765975637E+02 0.  0.
         11    1    3    3    0    0  0.28200920567E+02 -0.19226971172E+02  0.46912962675E+02  0.58015466976E+02  0.51100000000E-03 0.  1.
         22    1    1    0    0    0 -0.42363321252E+01  0.22579244401E+02 -0.17395240324E+02  0.28816022861E+02  0.00000000000E+00 0.  1.
</event>
<event>
 5    1  0.6622940E-004  0.9118800E+02  0.7818608E-02  0.1130116E+00
         25   -1    0    0    0    0  0.00000000000E+00  0.00000000000E+00  0.99999998245E-14  0.12500000000E+03  0.12500000000E+03 0.  0.
        -11    1    3    3    0    0 -0.33994629507E+02 -0.39440179153E+02 -0.29991579183E+02  0.60088745944E+02  0.51100000000E-03 0.  1.
         23    2    1    0    0    0 -0.22234601674E+02 -0.73958539414E+01 -0.12361514496E+02  0.98506921513E+02  0.94877449260E+02 0.  0.
         11    1    3    3    0    0  0.11760027833E+02  0.32044325212E+02  0.17630064688E+02  0.38418175569E+02  0.51100000000E-03 0. -1.
         22    1    1    0    0    0  0.22234601674E+02  0.73958539414E+01  0.12361514496E+02  0.26493078487E+02  0.00000000000E+00 0.  1.
</event>
<event>
 5    1  0.6622940E-004  0.9118800E+02  0.7818608E-02  0.1130116E+00
         25   -1    0    0    0    0  0.00000000000E+00  0.00000000000E+00  0.99999998245E-14  0.12500000000E+03  0.12500000000E+03 0.  0.
        -11    1    3    3    0    0 -0.18190957692E+02  0.27449996553E+02  0.12521217475E+02  0.35230585289E+02  0.51100000000E-03 0.  1.
         23    2    1    0    0    0  0.24242697516E+02 -0.15287326319E+02  0.45356318776E+01  0.95983062095E+02  0.91491887749E+02 0.  0.
         11    1    3    3    0    0  0.42433655208E+02 -0.42737322871E+02 -0.79855855975E+01  0.60752476806E+02  0.51100000000E-03 0. -1.
         22    1    1    0    0    0 -0.24242697516E+02  0.15287326319E+02 -0.45356318776E+01  0.29016937905E+02  0.00000000000E+00 0. -1.
</event>
<event>
 5    1  0.6622940E-004  0.9118800E+02  0.7818608E-02  0.1130116E+00
         25   -1    0    0    0    0  0.00000000000E+00  0.00000000000E+00  0.99999998245E-14  0.12500000000E+03  0.12500000000E+03 0.  0.
        -11    1    3    3    0    0  0.66085424030E+01  0.98564702420E+01  0.39389711832E+02  0.41138452046E+02  0.51100000000E-03 0. -1.
         23    2    1    0    0    0 -0.14197803055E+02 -0.24654541703E+02  0.14077765750E+01  0.96514813094E+02  0.92215526207E+02 0.  0.
         11    1    3    3    0    0 -0.20806345458E+02 -0.34511011945E+02 -0.37981935257E+02  0.55376361048E+02  0.51100000000E-03 0.  1.
         22    1    1    0    0    0  0.14197803055E+02  0.24654541703E+02 -0.14077765750E+01  0.28485186906E+02  0.00000000000E+00 0.  1.
</event>
<event>
 5    1  0.6622940E-004  0.9118800E+02  0.7818608E-02  0.1130116E+00
         25   -1    0    0    0    0  0.00000000000E+00  0.00000000000E+00  0.99999998245E-14  0.12500000000E+03  0.12500000000E+03 0.  0.
        -11    1    3    3    0    0  0.15863445631E+02  0.19395478311E+02  0.30803753630E+02  0.39707741363E+02  0.51100000000E-03 0. -1.
         23    2    1    0    0    0  0.25365928501E-01  0.61859428605E+01 -0.25023825923E+02  0.99222909468E+02  0.95816112251E+02 0.  0.
         11    1    3    3    0    0 -0.15838079702E+02 -0.13209535451E+02 -0.55827579553E+02  0.59515168104E+02  0.51100000000E-03 0.  1.
         22    1    1    0    0    0 -0.25365928501E-01 -0.61859428605E+01  0.25023825923E+02  0.25777090532E+02  0.00000000000E+00 0.  1.
</event>
<event>
 5    1  0.6622940E-004  0.9118800E+02  0.7818608E-02  0.1130116E+00
         25   -1    0    0    0    0  0.00000000000E+00  0.00000000000E+00  0.99999998245E-14  0.12500000000E+03  0.12500000000E+03 0.  0.
        -11    1    3    3    0    0 -0.15986808215E+02 -0.24177121060E+02 -0.28226305055E+02  0.40457823928E+02  0.51100000000E-03 0.  1.
         23    2    1    0    0    0  0.14188442641E+01  0.25605772415E+02 -0.16566667801E+02  0.94469307541E+02  0.89399814794E+02 0.  0.
         11    1    3    3    0    0  0.17405652479E+02  0.49782893475E+02  0.11659637254E+02  0.54011483613E+02  0.51100000000E-03 0. -1.
         22    1    1    0    0    0 -0.14188442641E+01 -0.25605772415E+02  0.16566667801E+02  0.30530692459E+02  0.00000000000E+00 0. -1.
</event>
<event>
 5    1  0.6622940E-004  0.9118800E+02  0.7818608E-02  0.1130116E+00
         25   -1    0    0    0    0  0.00000000000E+00  0.00000000000E+00  0.99999998245E-14  0.12500000000E+03  0.12500000000E+03 0.  0.
        -11    1    3    3    0    0 -0.49985942616E+02  0.72821999572E+01  0.21525793165E+02  0.54908876032E+02  0.51100000000E-03 0. -1.
         23    2    1    0    0    0 -0.24702549257E+02  0.78257802827E+01 -0.11620732326E+02  0.96601052896E+02  0.92332351990E+02 0.  0.
         11    1    3    3    0    0  0.25283393360E+02  0.54358032552E+00 -0.33146525490E+02  0.41692176864E+02  0.51100000000E-03 0.  1.
         22    1    1    0    0    0  0.24702549257E+02 -0.78257802827E+01  0.11620732326E+02  0.28398947104E+02  0.00000000000E+00 0. -1.
</event>
<event>
 5    1  0.6622940E-004  0.9118800E+02  0.7818608E-02  0.1130116E+00
         25   -1    0    0    0    0  0.00000000000E+00  0.00000000000E+00  0.99999998245E-14  0.12500000000E+03  0.12500000000E+03 0.  0.
        -11    1    3    3    0    0 -0.11956868575E+01  0.83777537912E+01 -0.51403116553E+02  0.52095074789E+02  0.51100000000E-03 0. -1.
         23    2    1    0    0    0 -0.16027698351E+02 -0.15875161520E+02 -0.16834291379E+02  0.96852154009E+02  0.92671670440E+02 0.  0.
         11    1    3    3    0    0 -0.14832011494E+02 -0.24252915311E+02  0.34568825174E+02  0.44757079219E+02  0.51100000000E-03 0.  1.
         22    1    1    0    0    0  0.16027698351E+02  0.15875161520E+02  0.16834291379E+02  0.28147845991E+02  0.00000000000E+00 0.  1.
</event>
<event>
 5    1  0.6622940E-004  0.9118800E+02  0.7818608E-02  0.1130116E+00
         25   -1    0    0    0    0  0.00000000000E+00  0.00000000000E+00  0.99999998245E-14  0.12500000000E+03  0.12500000000E+03 0.  0.
        -11    1    3    3    0    0 -0.39688440653E+02  0.25667753397E+02  0.18651712496E+02  0.50812323950E+02  0.51100000000E-03 0. -1.
         23    2    1    0    0    0  0.28343004303E+01  0.16148524593E+02  0.25259850769E+02  0.94885748119E+02  0.89980203544E+02 0.  0.
         11    1    3    3    0    0  0.42522741083E+02 -0.95192288040E+01  0.66081382730E+01  0.44073424169E+02  0.51100000000E-03 0.  1.
         22    1    1    0    0    0 -0.28343004303E+01 -0.16148524593E+02 -0.25259850769E+02  0.30114251881E+02  0.00000000000E+00 0. -1.
</event>
<event>
 5    1  0.6622940E-004  0.9118800E+02  0.7818608E-02  0.1130116E+00
         25   -1    0    0    0    0  0.00000000000E+00  0.00000000000E+00  0.99999998245E-14  0.12500000000E+03  0.12500000000E+03 0.  0.
        -11    1    3    3    0    0  0.50718159763E+02 -0.21145886032E+02 -0.24167793202E+02  0.60029679779E+02  0.51100000000E-03 0. -1.
         23    2    1    0    0    0  0.22690632201E+02 -0.16206122338E+02 -0.39247627827E+00  0.97113493791E+02  0.93023510188E+02 0.  0.
         11    1    3    3    0    0 -0.28027527562E+02  0.49397636943E+01  0.23775316924E+02  0.37083814012E+02  0.51100000000E-03 0.  1.
         22    1    1    0    0    0 -0.22690632201E+02  0.16206122338E+02  0.39247627827E+00  0.27886506209E+02  0.00000000000E+00 0. -1.
</event>
<event>
 5    1  0.6622940E-004  0.9118800E+02  0.7818608E-02  0.1130116E+00
         25   -1    0    0    0    0  0.00000000000E+00  0.00000000000E+00  0.99999998245E-14  0.12500000000E+03  0.12500000000E+03 0.  0.
        -11    1    3    3    0    0 -0.35172298390E+02 -0.33059622205E+02 -0.58778262448E+01  0.48626927067E+02  0.51100000000E-03 0. -1.
         23    2    1    0    0    0 -0.25892242090E+02  0.11243258651E+02  0.74365422135E+01  0.95808884474E+02  0.91253608798E+02 0.  0.
         11    1    3    3    0    0  0.92800563002E+01  0.44302880856E+02  0.13314368458E+02  0.47181957407E+02  0.51100000000E-03 0.  1.
         22    1    1    0    0    0  0.25892242090E+02 -0.11243258651E+02 -0.74365422135E+01  0.29191115526E+02  0.00000000000E+00 0. -1.
</event>
<event>
 5    1  0.6622940E-004  0.9118800E+02  0.7818608E-02  0.1130116E+00
         25   -1    0    0    0    0  0.00000000000E+00  0.00000000000E+00  0.99999998245E-14  0.12500000000E+03  0.12500000000E+03 0.  0.
        -11    1    3    3    0    0 -0.34864565993E+02 -0.14892194916E+02 -0.67217703714E+01  0.38503215820E+02  0.51100000000E-03 0.  1.
         23    2    1    0    0    0 -0.22153758457E+02  0.15992540075E+02  0.27438790164E+02  0.86277428320E+02  0.77099656809E+02 0.  0.
         11    1    3    3    0    0  0.12710807536E+02  0.30884734991E+02  0.34160560535E+02  0.47774212500E+02  0.51100000000E-03 0. -1.
         22    1    1    0    0    0  0.22153758457E+02 -0.15992540075E+02 -0.27438790164E+02  0.38722571680E+02  0.00000000000E+00 0. -1.
</event>
<event>
 5    1  0.6622940E-004  0.9118800E+02  0.7818608E-02  0.1130116E+00
         25   -1    0    0    0    0  0.00000000000E+00  0.00000000000E+00  0.99999998245E-14  0.12500000000E+03  0.12500000000E+03 0.  0.
        -11    1    3    3    0    0  0.48502750659E+02  0.18498249055E+02 -0.16917027654E+02  0.54597507860E+02  0.51100000000E-03 0.  1.
         23    2    1    0    0    0  0.24237585597E+02 -0.13661992226E+02 -0.97548801843E+01  0.95516644110E+02  0.90852413438E+02 0.  0.
         11    1    3    3    0    0 -0.24265165063E+02 -0.32160241282E+02  0.71621474693E+01  0.40919136250E+02  0.51100000000E-03 0. -1.
         22    1    1    0    0    0 -0.24237585597E+02  0.13661992226E+02  0.97548801843E+01  0.29483355890E+02  0.00000000000E+00 0.  1.
</event>
<event>
 5    1  0.6622940E-004  0.9118800E+02  0.7818608E-02  0.1130116E+00
         25   -1    0    0    0    0  0.00000000000E+00  0.00000000000E+00  0.99999998245E-14  0.12500000000E+03  0.12500000000E+03 0.  0.
        -11    1    3    3    0    0  0.29417059349E+02  0.22171796019E+02 -0.17609113423E+02  0.40829312942E+02  0.51100000000E-03 0.  1.
         23    2    1    0    0    0 -0.97468768670E+01  0.10837890948E+02  0.22609704761E+02  0.98099066220E+02  0.94338574056E+02 0.  0.
         11    1    3    3    0    0 -0.39163936216E+02 -0.11333905071E+02  0.40218818184E+02  0.57269753278E+02  0.51100000000E-03 0. -1.
         22    1    1    0    0    0  0.97468768670E+01 -0.10837890948E+02 -0.22609704761E+02  0.26900933780E+02  0.00000000000E+00 0. -1.
</event>
<event>
 5    1  0.6622940E-004  0.9118800E+02  0.7818608E-02  0.1130116E+00
         25   -1    0    0    0    0  0.00000000000E+00  0.00000000000E+00  0.99999998245E-14  0.12500000000E+03  0.12500000000E+03 0.  0.
        -11    1    3    3    0    0  0.39214129607E+02 -0.49857035250E+01  0.12019758791E+02  0.41316822266E+02  0.51100000000E-03 0. -1.
         23    2    1    0    0    0 -0.10582187103E+02  0.19576159862E+02  0.16902299162E+02  0.97055475746E+02  0.92945515956E+02 0.  0.
         11    1    3    3    0    0 -0.49796316711E+02  0.24561863387E+02  0.48825403711E+01  0.55738653480E+02  0.51100000000E-03 0.  1.
         22    1    1    0    0    0  0.10582187103E+02 -0.19576159862E+02 -0.16902299162E+02  0.27944524254E+02  0.00000000000E+00 0.  1.
</event>
<event>
 5    1  0.6622940E-004  0.9118800E+02  0.7818608E-02  0.1130116E+00
         25   -1    0    0    0    0  0.00000000000E+00  0.00000000000E+00  0.99999998245E-14  0.12500000000E+03  0.12500000000E+03 0.  0.
        -11    1    3    3    0    0  0.16728611353E+02 -0.43678788814E+02 -0.94813352907E+01  0.47723985051E+02  0.51100000000E-03 0. -1.
         23    2    1    0    0    0 -0.98680753258E+01 -0.10888564004E+02 -0.27649804603E+02  0.93687838923E+02  0.88300394851E+02 0.  0.
         11    1    3    3    0    0 -0.26596686679E+02  0.32790224809E+02 -0.18168469312E+02  0.45963853872E+02  0.51100000000E-03 0.  1.
         22    1    1    0    0    0  0.98680753258E+01  0.10888564004E+02  0.27649804603E+02  0.31312161077E+02  0.00000000000E+00 0.  1.
</event>
<event>
 5    1  0.6622940E-004  0.9118800E+02  0.7818608E-02  0.1130116E+00
         25   -1    0    0    0    0  0.00000000000E+00  0.00000000000E+00  0.99999998245E-14  0.12500000000E+03  0.12500000000E+03 0.  0.
        -11    1    3    3    0    0 -0.50881193076E+01 -0.33120831819E+02  0.22324188667E+02  0.40264722256E+02  0.51100000000E-03 0.  1.
         23    2    1    0    0    0  0.17334376679E+02  0.18048705044E+02  0.12638666826E+02  0.96964803055E+02  0.92823492521E+02 0.  0.
         11    1    3    3    0    0  0.22422495987E+02  0.51169536863E+02 -0.96855218404E+01  0.56700080799E+02  0.51100000000E-03 0. -1.
         22    1    1    0    0    0 -0.17334376679E+02 -0.18048705044E+02 -0.12638666826E+02  0.28035196945E+02  0.00000000000E+00 0. -1.
</event>
<event>
 5    1  0.6622940E-004  0.9118800E+02  0.7818608E-02  0.1130116E+00
         25   -1    0    0    0    0  0.00000000000E+00  0.00000000000E+00  0.99999998245E-14  0.12500000000E+03  0.12500000000E+03 0.  0.
        -11    1    3    3    0    0 -0.15554306781E+02  0.10586520093E+01 -0.57068354876E+02  0.59159566699E+02  0.51100000000E-03 0. -1.
         23    2    1    0    0    0 -0.49315165563E+01  0.14687116386E+02 -0.24948458242E+02  0.95632384980E+02  0.91011517101E+02 0.  0.
         11    1    3    3    0    0  0.10622790225E+02  0.13628464376E+02  0.32119896633E+02  0.36472818282E+02  0.51100000000E-03 0.  1.
         22    1    1    0    0    0  0.49315165563E+01 -0.14687116386E+02  0.24948458242E+02  0.29367615020E+02  0.00000000000E+00 0. -1.
</event>
<event>
 5    1  0.6622940E-004  0.9118800E+02  0.7818608E-02  0.1130116E+00
         25   -1    0    0    0    0  0.00000000000E+00  0.00000000000E+00  0.99999998245E-14  0.12500000000E+03  0.12500000000E+03 0.  0.
        -11    1    3    3    0    0  0.38796139577E+02 -0.70345298702E+01  0.46341425892E+02  0.60845318723E+02  0.51100000000E-03 0.  1.
         23    2    1    0    0    0  0.21627981404E+02 -0.11542714420E+02  0.16898864096E+02  0.95224583235E+02  0.90449686615E+02 0.  0.
         11    1    3    3    0    0 -0.17168158173E+02 -0.45081845494E+01 -0.29442561796E+02  0.34379264512E+02  0.51100000000E-03 0. -1.
         22    1    1    0    0    0 -0.21627981404E+02  0.11542714420E+02 -0.16898864096E+02  0.29775416765E+02  0.00000000000E+00 0.  1.
</event>
<event>
 5    1  0.6622940E-004  0.9118800E+02  0.7818608E-02  0.1130116E+00
         25   -1    0    0    0    0  0.00000000000E+00  0.00000000000E+00  0.99999998245E-14  0.12500000000E+03  0.12500000000E+03 0.  0.
        -11    1    3    3    0    0  0.41694270059E+02  0.17198671434E+01  0.35608328394E+02  0.54857298056E+02  0.51100000000E-03 0.  1.
         23    2    1    0    0    0  0.88085040792E+01  0.20486056966E+02  0.16434074173E+02  0.97298969910E+02  0.93272410055E+02 0.  0.
         11    1    3    3    0    0 -0.32885765980E+02  0.18766189822E+02 -0.19174254221E+02  0.42441671854E+02  0.51100000000E-03 0. -1.
         22    1    1    0    0    0 -0.88085040792E+01 -0.20486056966E+02 -0.16434074173E+02  0.27701030090E+02  0.00000000000E+00 0. -1.
</event>
<event>
 5    1  0.6622940E-004  0.9118800E+02  0.7818608E-02  0.1130116E+00
         25   -1    0    0    0    0  0.00000000000E+00  0.00000000000E+00  0.99999998245E-14  0.12500000000E+03  0.12500000000E+03 0.  0.
        -11    1    3    3    0    0 -0.10951492588E+02 -0.17600604917E+02  0.56373731416E+02  0.60064249578E+02  0.51100000000E-03 0. -1.
         23    2    1    0    0    0 -0.50664293861E+01 -0.19633707265E+02  0.21667525903E+02  0.95324541344E+02  0.90587721773E+02 0.  0.
         11    1    3    3    0    0  0.58850632020E+01 -0.20331023475E+01 -0.34706205513E+02  0.35260291766E+02  0.51100000000E-03 0.  1.
         22    1    1    0    0    0  0.50664293861E+01  0.19633707265E+02 -0.21667525903E+02  0.29675458656E+02  0.00000000000E+00 0. -1.
</event>
<event>
 5    1  0.6622940E-004  0.9118800E+02  0.7818608E-02  0.1130116E+00
         25   -1    0    0    0    0  0.00000000000E+00  0.00000000000E+00  0.99999998245E-14  0.12500000000E+03  0.12500000000E+03 0.  0.
        -11    1    3    3    0    0  0.30771543781E+02  0.17135569231E+02 -0.53934218428E+01  0.35631511882E+02  0.51100000000E-03 0.  1.
         23    2    1    0    0    0 -0.14186762339E+02 -0.21632082208E+02  0.10490757361E+02  0.97084642286E+02  0.92984733002E+02 0.  0.
         11    1    3    3    0    0 -0.44958306120E+02 -0.38767651438E+02  0.15884179203E+02  0.61453130404E+02  0.51100000000E-03 0. -1.
         22    1    1    0    0    0  0.14186762339E+02  0.21632082208E+02 -0.10490757361E+02  0.27915357714E+02  0.00000000000E+00 0. -1.
</event>
<event>
 5    1  0.6622940E-004  0.9118800E+02  0.7818608E-02  0.1130116E+00
         25   -1    0    0    0    0  0.00000000000E+00  0.00000000000E+00  0.99999998245E-14  0.12500000000E+03  0.12500000000E+03 0.  0.
        -11    1    3    3    0    0 -0.39619996395E+01 -0.23590781078E+02 -0.30023496067E+02  0.38387924004E+02  0.51100000000E-03 0. -1.
         23    2    1    0    0    0  0.13827745027E+02 -0.98716979285E+01  0.23249626092E+02  0.96204131096E+02  0.91793424459E+02 0.  0.
         11    1    3    3    0    0  0.17789744666E+02  0.13719083149E+02  0.53273122159E+02  0.57816207092E+02  0.51100000000E-03 0.  1.
         22    1    1    0    0    0 -0.13827745027E+02  0.98716979285E+01 -0.23249626092E+02  0.28795868904E+02  0.00000000000E+00 0.  1.
</event>
<event>
 5    1  0.6622940E-004  0.9118800E+02  0.7818608E-02  0.1130116E+00
         25   -1    0    0    0    0  0.00000000000E+00  0.00000000000E+00  0.99999998245E-14  0.12500000000E+03  0.12500000000E+03 0.  0.
        -11    1    3    3    0    0 -0.32982328901E+02 -0.11565604788E+02 -0.23112774950E+02  0.41902238603E+02  0.51100000000E-03 0.  1.
         23    2    1    0    0    0 -0.18621293591E+02  0.23485421881E+02  0.11192220643E+02  0.93006509742E+02  0.87330564155E+02 0.  0.
         11    1    3    3    0    0  0.14361035309E+02  0.35051026669E+02  0.34304995594E+02  0.51104271139E+02  0.51100000000E-03 0. -1.
         22    1    1    0    0    0  0.18621293591E+02 -0.23485421881E+02 -0.11192220643E+02  0.31993490258E+02  0.00000000000E+00 0. -1.
</event>
<event>
 5    1  0.6622940E-004  0.9118800E+02  0.7818608E-02  0.1130116E+00
         25   -1    0    0    0    0  0.00000000000E+00  0.00000000000E+00  0.99999998245E-14  0.12500000000E+03  0.12500000000E+03 0.  0.
        -11    1    3    3    0    0 -0.64304284860E+01  0.32509389016E+02  0.13617066758E+02  0.35827856370E+02  0.51100000000E-03 0.  1.
         23    2    1    0    0    0  0.79798179815E+01 -0.25219981858E+02  0.13440721720E+02  0.95328835879E+02  0.90593647513E+02 0.  0.
         11    1    3    3    0    0  0.14410246468E+02 -0.57729370874E+02 -0.17634503732E+00  0.59500979509E+02  0.51100000000E-03 0. -1.
         22    1    1    0    0    0 -0.79798179815E+01  0.25219981858E+02 -0.13440721720E+02  0.29671164121E+02  0.00000000000E+00 0. -1.
</event>
<event>
 5    1  0.6622940E-004  0.9118800E+02  0.7818608E-02  0.1130116E+00
         25   -1    0    0    0    0  0.00000000000E+00  0.00000000000E+00  0.99999998245E-14  0.12500000000E+03  0.12500000000E+03 0.  0.
        -11    1    3    3    0    0 -0.23927852469E+02  0.15721629734E+01  0.54145404521E+02  0.59217722441E+02  0.51100000000E-03 0.  1.
         23    2    1    0    0    0 -0.53919434574E+01  0.13875713710E+02  0.18249194407E+02  0.10144917025E+03  0.98677720706E+02 0.  0.
         11    1    3    3    0    0  0.18535909012E+02  0.12303550736E+02 -0.35896210114E+02  0.42231447813E+02  0.51100000000E-03 0. -1.
         22    1    1    0    0    0  0.53919434574E+01 -0.13875713710E+02 -0.18249194407E+02  0.23550829745E+02  0.00000000000E+00 0.  1.
</event>
<event>
 5    1  0.6622940E-004  0.9118800E+02  0.7818608E-02  0.1130116E+00
         25   -1    0    0    0    0  0.00000000000E+00  0.00000000000E+00  0.99999998245E-14  0.12500000000E+03  0.12500000000E+03 0.  0.
        -11    1    3    3    0    0 -0.10575681008E+02 -0.38688951626E+02  0.43792239737E+02  0.59383838442E+02  0.51100000000E-03 0.  1.
         23    2    1    0    0    0  0.75070441442E+01 -0.11161785338E+02  0.23067062760E+02  0.98297368143E+02  0.94600962129E+02 0.  0.
         11    1    3    3    0    0  0.18082725152E+02  0.27527166288E+02 -0.20725176977E+02  0.38913529701E+02  0.51100000000E-03 0. -1.
         22    1    1    0    0    0 -0.75070441442E+01  0.11161785338E+02 -0.23067062760E+02  0.26702631857E+02  0.00000000000E+00 0.  1.
</event>
<event>
 5    1  0.6622940E-004  0.9118800E+02  0.7818608E-02  0.1130116E+00
         25   -1    0    0    0    0  0.00000000000E+00  0.00000000000E+00  0.99999998245E-14  0.12500000000E+03  0.12500000000E+03 0.  0.
        -11    1    3    3    0    0  0.76010001839E+01 -0.15974683588E+02  0.35812070984E+02  0.39943336715E+02  0.51100000000E-03 0. -1.
         23    2    1    0    0    0  0.26949348609E+02  0.75758024429E+00 -0.13013304900E+02  0.95063610393E+02  0.90226950509E+02 0.  0.
         11    1    3    3    0    0  0.19348348425E+02  0.16732263832E+02 -0.48825375884E+02  0.55120273677E+02  0.51100000000E-03 0.  1.
         22    1    1    0    0    0 -0.26949348609E+02 -0.75758024429E+00  0.13013304900E+02  0.29936389607E+02  0.00000000000E+00 0.  1.
</event>
<event>
 5    1  0.6622940E-004  0.9118800E+02  0.7818608E-02  0.1130116E+00
         25   -1    0    0    0    0  0.00000000000E+00  0.00000000000E+00  0.99999998245E-14  0.12500000000E+03  0.12500000000E+03 0.  0.
        -11    1    3    3    0    0 -0.22047602001E+02 -0.47621182705E+02  0.32228017297E+02  0.61583430364E+02  0.51100000000E-03 0. -1.
         23    2    1    0    0    0 -0.15722858536E+02 -0.42301309551E+02  0.21822056368E+02  0.74872051564E+02  0.55614862142E+02 0.  0.
         11    1    3    3    0    0  0.63247434652E+01  0.53198731542E+01 -0.10405960929E+02  0.13288621200E+02  0.51100000000E-03 0.  1.
         22    1    1    0    0    0  0.15722858536E+02  0.42301309551E+02 -0.21822056368E+02  0.50127948436E+02  0.00000000000E+00 0. -1.
</event>
<event>
 5    1  0.6622940E-004  0.9118800E+02  0.7818608E-02  0.1130116E+00
         25   -1    0    0    0    0  0.00000000000E+00  0.00000000000E+00  0.99999998245E-14  0.12500000000E+03  0.12500000000E+03 0.  0.
        -11    1    3    3    0    0 -0.26310114947E+01  0.33861076574E+02 -0.51199030205E+02  0.61439689309E+02  0.51100000000E-03 0.  1.
         23    2    1    0    0    0 -0.90107991229E+01  0.15614764864E+02 -0.20680123813E+02  0.97564932959E+02  0.93628164779E+02 0.  0.
         11    1    3    3    0    0 -0.63797876282E+01 -0.18246311710E+02  0.30518906392E+02  0.36125243650E+02  0.51100000000E-03 0. -1.
         22    1    1    0    0    0  0.90107991229E+01 -0.15614764864E+02  0.20680123813E+02  0.27435067041E+02  0.00000000000E+00 0.  1.
</event>
<event>
 5    1  0.6622940E-004  0.9118800E+02  0.7818608E-02  0.1130116E+00
         25   -1    0    0    0    0  0.00000000000E+00  0.00000000000E+00  0.99999998245E-14  0.12500000000E+03  0.12500000000E+03 0.  0.
        -11    1    3    3    0    0  0.36536703963E+02  0.26919530759E+02  0.37632906779E+01  0.45538491737E+02  0.51100000000E-03 0.  1.
         23    2    1    0    0    0 -0.11184272769E+02  0.17094903111E+02  0.19520012509E+02  0.96744831303E+02  0.92526795177E+02 0.  0.
         11    1    3    3    0    0 -0.47720976731E+02 -0.98246276478E+01  0.15756721831E+02  0.51206339566E+02  0.51100000000E-03 0. -1.
         22    1    1    0    0    0  0.11184272769E+02 -0.17094903111E+02 -0.19520012509E+02  0.28255168697E+02  0.00000000000E+00 0.  1.
</event>
<event>
 5    1  0.6622940E-004  0.9118800E+02  0.7818608E-02  0.1130116E+00
         25   -1    0    0    0    0  0.00000000000E+00  0.00000000000E+00  0.99999998245E-14  0.12500000000E+03  0.12500000000E+03 0.  0.
        -11    1    3    3    0    0 -0.55656583213E+00  0.14662973801E+02  0.33470531102E+02  0.36545711358E+02  0.51100000000E-03 0.  1.
         23    2    1    0    0    0 -0.14806198928E+02  0.74188130872E+01 -0.23799901850E+02  0.96005213531E+02  0.91522146952E+02 0.  0.
         11    1    3    3    0    0 -0.14249633096E+02 -0.72441607137E+01 -0.57270432952E+02  0.59459502172E+02  0.51100000000E-03 0. -1.
         22    1    1    0    0    0  0.14806198928E+02 -0.74188130872E+01  0.23799901850E+02  0.28994786469E+02  0.00000000000E+00 0. -1.
</event>
<event>
 5    1  0.6622940E-004  0.9118800E+02  0.7818608E-02  0.1130116E+00
         25   -1    0    0    0    0  0.00000000000E+00  0.00000000000E+00  0.99999998245E-14  0.12500000000E+03  0.12500000000E+03 0.  0.
        -11    1    3    3    0    0  0.21538672470E+02  0.50938417429E+01 -0.57184512608E+02  0.61318269039E+02  0.51100000000E-03 0.  1.
         23    2    1    0    0    0  0.53106453095E+01  0.94641888121E+01 -0.27598682918E+02  0.95344290225E+02  0.90614968720E+02 0.  0.
         11    1    3    3    0    0 -0.16228027160E+02  0.43703470692E+01  0.29585829690E+02  0.34026021186E+02  0.51100000000E-03 0. -1.
         22    1    1    0    0    0 -0.53106453095E+01 -0.94641888121E+01  0.27598682918E+02  0.29655709775E+02  0.00000000000E+00 0.  1.
</event>
<event>
 5    1  0.6622940E-004  0.9118800E+02  0.7818608E-02  0.1130116E+00
         25   -1    0    0    0    0  0.00000000000E+00  0.00000000000E+00  0.99999998245E-14  0.12500000000E+03  0.12500000000E+03 0.  0.
        -11    1    3    3    0    0 -0.32364412371E+01 -0.52409141206E+02  0.47129066680E+01  0.52720054281E+02  0.51100000000E-03 0.  1.
         23    2    1    0    0    0  0.11266477222E+02 -0.19277175124E+02 -0.18760310582E+02  0.95836799852E+02  0.91291839520E+02 0.  0.
         11    1    3    3    0    0  0.14502918459E+02  0.33131966082E+02 -0.23473217250E+02  0.43116745571E+02  0.51100000000E-03 0. -1.
         22    1    1    0    0    0 -0.11266477222E+02  0.19277175124E+02  0.18760310582E+02  0.29163200148E+02  0.00000000000E+00 0.  1.
</event>
<event>
 5    1  0.6622940E-004  0.9118800E+02  0.7818608E-02  0.1130116E+00
         25   -1    0    0    0    0  0.00000000000E+00  0.00000000000E+00  0.99999998245E-14  0.12500000000E+03  0.12500000000E+03 0.  0.
        -11    1    3    3    0    0 -0.46368180212E+02 -0.33875957836E+02 -0.68446629769E+00  0.57428713636E+02  0.51100000000E-03 0.  1.
         23    2    1    0    0    0 -0.26149965863E+02 -0.64749480558E+01 -0.14766971665E+02  0.94278523487E+02  0.89132658840E+02 0.  0.
         11    1    3    3    0    0  0.20218214349E+02  0.27401009780E+02 -0.14082505367E+02  0.36849809852E+02  0.51100000000E-03 0. -1.
         22    1    1    0    0    0  0.26149965863E+02  0.64749480558E+01  0.14766971665E+02  0.30721476513E+02  0.00000000000E+00 0.  1.
</event>
<event>
 5    1  0.6622940E-004  0.9118800E+02  0.7818608E-02  0.1130116E+00
         25   -1    0    0    0    0  0.00000000000E+00  0.00000000000E+00  0.99999998245E-14  0.12500000000E+03  0.12500000000E+03 0.  0.
        -11    1    3    3    0    0 -0.49341710027E+02 -0.27083302848E+02  0.26662439656E+02  0.62281580987E+02  0.51100000000E-03 0. -1.
         23    2    1    0    0    0 -0.25660097124E+02 -0.11645817913E+02  0.99810760096E+01  0.95105392834E+02  0.90284817154E+02 0.  0.
         11    1    3    3    0    0  0.23681612903E+02  0.15437484935E+02 -0.16681363646E+02  0.32823811847E+02  0.51100000000E-03 0.  1.
         22    1    1    0    0    0  0.25660097124E+02  0.11645817913E+02 -0.99810760096E+01  0.29894607166E+02  0.00000000000E+00 0. -1.
</event>
<event>
 5    1  0.6622940E-004  0.9118800E+02  0.7818608E-02  0.1130116E+00
         25   -1    0    0    0    0  0.00000000000E+00  0.00000000000E+00  0.99999998245E-14  0.12500000000E+03  0.12500000000E+03 0.  0.
        -11    1    3    3    0    0  0.31161978265E+02 -0.26519294942E+01 -0.41506064187E+02  0.51969750663E+02  0.51100000000E-03 0.  1.
         23    2    1    0    0    0  0.26597308952E+02 -0.13922487192E+02 -0.25253249617E+00  0.94978070253E+02  0.90108365667E+02 0.  0.
         11    1    3    3    0    0 -0.45646693135E+01 -0.11270557698E+02  0.41253531690E+02  0.43008319590E+02  0.51100000000E-03 0. -1.
         22    1    1    0    0    0 -0.26597308952E+02  0.13922487192E+02  0.25253249617E+00  0.30021929747E+02  0.00000000000E+00 0. -1.
</event>
<event>
 5    1  0.6622940E-004  0.9118800E+02  0.7818608E-02  0.1130116E+00
         25   -1    0    0    0    0  0.00000000000E+00  0.00000000000E+00  0.99999998245E-14  0.12500000000E+03  0.12500000000E+03 0.  0.
        -11    1    3    3    0    0  0.25648720745E+02 -0.23079666973E+02  0.13937046579E+02  0.37212486763E+02  0.51100000000E-03 0. -1.
         23    2    1    0    0    0  0.14057317479E+01  0.11952712584E+02 -0.26465415163E+02  0.95926616647E+02  0.91414737114E+02 0.  0.
         11    1    3    3    0    0 -0.24242988997E+02  0.35032379557E+02 -0.40402461742E+02  0.58714129884E+02  0.51100000000E-03 0.  1.
         22    1    1    0    0    0 -0.14057317479E+01 -0.11952712584E+02  0.26465415163E+02  0.29073383353E+02  0.00000000000E+00 0.  1.
</event>
<event>
 5    1  0.6622940E-004  0.9118800E+02  0.7818608E-02  0.1130116E+00
         25   -1    0    0    0    0  0.00000000000E+00  0.00000000000E+00  0.99999998245E-14  0.12500000000E+03  0.12500000000E+03 0.  0.
        -11    1    3    3    0    0 -0.27224347135E+02  0.23990869767E+02 -0.46792000030E+01  0.36587181116E+02  0.51100000000E-03 0. -1.
         23    2    1    0    0    0  0.25323320584E+02  0.85074354949E+01 -0.17775733843E+02  0.92912249412E+02  0.87195540901E+02 0.  0.
         11    1    3    3    0    0  0.52547667720E+02 -0.15483434272E+02 -0.13096533840E+02  0.56325068296E+02  0.51100000000E-03 0.  1.
         22    1    1    0    0    0 -0.25323320584E+02 -0.85074354949E+01  0.17775733843E+02  0.32087750588E+02  0.00000000000E+00 0.  1.
</event>
<event>
 5    1  0.6622940E-004  0.9118800E+02  0.7818608E-02  0.1130116E+00
         25   -1    0    0    0    0  0.00000000000E+00  0.00000000000E+00  0.99999998245E-14  0.12500000000E+03  0.12500000000E+03 0.  0.
        -11    1    3    3    0    0  0.22523730125E+02 -0.11279047081E+02 -0.21622138856E+02  0.33197171729E+02  0.51100000000E-03 0.  1.
         23    2    1    0    0    0 -0.11541839161E+02  0.27738471095E+01  0.27757240927E+02  0.94811049987E+02  0.89876373407E+02 0.  0.
         11    1    3    3    0    0 -0.34065569286E+02  0.14052894191E+02  0.49379379783E+02  0.61613878258E+02  0.51100000000E-03 0. -1.
         22    1    1    0    0    0  0.11541839161E+02 -0.27738471095E+01 -0.27757240927E+02  0.30188950013E+02  0.00000000000E+00 0. -1.
</event>
<event>
 5    1  0.6622940E-004  0.9118800E+02  0.7818608E-02  0.1130116E+00
         25   -1    0    0    0    0  0.00000000000E+00  0.00000000000E+00  0.99999998245E-14  0.12500000000E+03  0.12500000000E+03 0.  0.
        -11    1    3    3    0    0 -0.54876455658E+01 -0.27541215570E+02  0.21862130457E+02  0.35589121333E+02  0.51100000000E-03 0. -1.
         23    2    1    0    0    0  0.19312567242E+02  0.85540851639E+01 -0.19810152320E+02  0.96041585654E+02  0.91571810147E+02 0.  0.
         11    1    3    3    0    0  0.24800212808E+02  0.36095300734E+02 -0.41672282777E+02  0.60452464321E+02  0.51100000000E-03 0.  1.
         22    1    1    0    0    0 -0.19312567242E+02 -0.85540851639E+01  0.19810152320E+02  0.28958414346E+02  0.00000000000E+00 0.  1.
</event>
<event>
 5    1  0.6622940E-004  0.9118800E+02  0.7818608E-02  0.1130116E+00
         25   -1    0    0    0    0  0.00000000000E+00  0.00000000000E+00  0.99999998245E-14  0.12500000000E+03  0.12500000000E+03 0.  0.
        -11    1    3    3    0    0 -0.11787656856E+02 -0.42621093770E+02 -0.17632617273E+01  0.44256249056E+02  0.51100000000E-03 0.  1.
         23    2    1    0    0    0  0.24515363941E+02 -0.93823686633E+01  0.13087386073E+02  0.95668931402E+02  0.91061698043E+02 0.  0.
         11    1    3    3    0    0  0.36303020797E+02  0.33238725107E+02  0.14850647800E+02  0.51412682346E+02  0.51100000000E-03 0. -1.
         22    1    1    0    0    0 -0.24515363941E+02  0.93823686633E+01 -0.13087386073E+02  0.29331068598E+02  0.00000000000E+00 0. -1.
</event>
<event>
 5    1  0.6622940E-004  0.9118800E+02  0.7818608E-02  0.1130116E+00
         25   -1    0    0    0    0  0.00000000000E+00  0.00000000000E+00  0.99999998245E-14  0.12500000000E+03  0.12500000000E+03 0.  0.
        -11    1    3    3    0    0  0.22400751389E+00  0.48070908107E+02  0.11278010712E+01  0.48084657856E+02  0.51100000000E-03 0. -1.
         23    2    1    0    0    0  0.19676317684E+02  0.83069551125E+01 -0.18721622693E+02  0.96598201869E+02  0.92328492175E+02 0.  0.
         11    1    3    3    0    0  0.19452310170E+02 -0.39763952995E+02 -0.19849423764E+02  0.48513544013E+02  0.51100000000E-03 0.  1.
         22    1    1    0    0    0 -0.19676317684E+02 -0.83069551125E+01  0.18721622693E+02  0.28401798131E+02  0.00000000000E+00 0.  1.
</event>
<event>
 5    1  0.6622940E-004  0.9118800E+02  0.7818608E-02  0.1130116E+00
         25   -1    0    0    0    0  0.00000000000E+00  0.00000000000E+00  0.99999998245E-14  0.12500000000E+03  0.12500000000E+03 0.  0.
        -11    1    3    3    0    0 -0.24185021503E+02  0.38524135510E+02 -0.11521347836E+02  0.46922976654E+02  0.51100000000E-03 0.  1.
         23    2    1    0    0    0  0.20979308424E+02  0.16897303805E+02 -0.67781637764E+01  0.97222423396E+02  0.93169768965E+02 0.  0.
         11    1    3    3    0    0  0.45164329926E+02 -0.21626831704E+02  0.47431840598E+01  0.50299446742E+02  0.51100000000E-03 0. -1.
         22    1    1    0    0    0 -0.20979308424E+02 -0.16897303805E+02  0.67781637764E+01  0.27777576604E+02  0.00000000000E+00 0.  1.
</event>
<event>
 5    1  0.6622940E-004  0.9118800E+02  0.7818608E-02  0.1130116E+00
         25   -1    0    0    0    0  0.00000000000E+00  0.00000000000E+00  0.99999998245E-14  0.12500000000E+03  0.12500000000E+03 0.  0.
        -11    1    3    3    0    0 -0.34853441101E+01 -0.36439936338E+02  0.25444066544E+02  0.44580456553E+02  0.51100000000E-03 0.  1.
         23    2    1    0    0    0  0.27248697976E+02 -0.18302139911E+02 -0.53811439714E+01  0.91737159214E+02  0.85494384631E+02 0.  0.
         11    1    3    3    0    0  0.30734042087E+02  0.18137796427E+02 -0.30825210516E+02  0.47156702661E+02  0.51100000000E-03 0. -1.
         22    1    1    0    0    0 -0.27248697976E+02  0.18302139911E+02  0.53811439714E+01  0.33262840786E+02  0.00000000000E+00 0. -1.
</event>
<event>
 5    1  0.6622940E-004  0.9118800E+02  0.7818608E-02  0.1130116E+00
         25   -1    0    0    0    0  0.00000000000E+00  0.00000000000E+00  0.99999998245E-14  0.12500000000E+03  0.12500000000E+03 0.  0.
        -11    1    3    3    0    0 -0.23801743643E+02 -0.24607950797E+02  0.24873709239E+02  0.42317557284E+02  0.51100000000E-03 0.  1.
         23    2    1    0    0    0  0.11945602376E+02 -0.22454209787E+02 -0.14646619789E+02  0.95650171644E+02  0.91035942962E+02 0.  0.
         11    1    3    3    0    0  0.35747346019E+02  0.21537410097E+01 -0.39520329029E+02  0.53332614360E+02  0.51100000000E-03 0. -1.
         22    1    1    0    0    0 -0.11945602376E+02  0.22454209787E+02  0.14646619789E+02  0.29349828356E+02  0.00000000000E+00 0. -1.
</event>
<event>
 5    1  0.6622940E-004  0.9118800E+02  0.7818608E-02  0.1130116E+00
         25   -1    0    0    0    0  0.00000000000E+00  0.00000000000E+00  0.99999998245E-14  0.12500000000E+03  0.12500000000E+03 0.  0.
        -11    1    3    3    0    0 -0.26188804790E+02 -0.51527661869E+02 -0.13466382098E+02  0.59348941701E+02  0.51100000000E-03 0. -1.
         23    2    1    0    0    0 -0.10447805407E+02 -0.95053322470E+01 -0.15192428988E+02  0.10425589536E+03  0.10217129655E+03 0.  0.
         11    1    3    3    0    0  0.15740999383E+02  0.42022329622E+02 -0.17260468906E+01  0.44906953654E+02  0.51100000000E-03 0.  1.
         22    1    1    0    0    0  0.10447805407E+02  0.95053322470E+01  0.15192428988E+02  0.20744104645E+02  0.00000000000E+00 0. -1.
</event>
<event>
 5    1  0.6622940E-004  0.9118800E+02  0.7818608E-02  0.1130116E+00
         25   -1    0    0    0    0  0.00000000000E+00  0.00000000000E+00  0.99999998245E-14  0.12500000000E+03  0.12500000000E+03 0.  0.
        -11    1    3    3    0    0 -0.29905169868E+01 -0.39785746522E+02  0.28807586873E+02  0.49211034127E+02  0.51100000000E-03 0. -1.
         23    2    1    0    0    0  0.13953851643E+02  0.63352432083E+01  0.21061977229E+02  0.98952885631E+02  0.95463193995E+02 0.  0.
         11    1    3    3    0    0  0.16944368630E+02  0.46120989730E+02 -0.77456096439E+01  0.49741851503E+02  0.51100000000E-03 0.  1.
         22    1    1    0    0    0 -0.13953851643E+02 -0.63352432083E+01 -0.21061977229E+02  0.26047114369E+02  0.00000000000E+00 0. -1.
</event>
<event>
 5    1  0.6622940E-004  0.9118800E+02  0.7818608E-02  0.1130116E+00
         25   -1    0    0    0    0  0.00000000000E+00  0.00000000000E+00  0.99999998245E-14  0.12500000000E+03  0.12500000000E+03 0.  0.
        -11    1    3    3    0    0 -0.35639000375E+01 -0.96022345538E+01  0.47906782267E+02  0.48989428241E+02  0.51100000000E-03 0.  1.
         23    2    1    0    0    0  0.47534086679E+00  0.24413105820E+02  0.24006777959E+02  0.90757466907E+02  0.84049787190E+02 0.  0.
         11    1    3    3    0    0  0.40392409043E+01  0.34015340373E+02 -0.23900004308E+02  0.41768038666E+02  0.51100000000E-03 0. -1.
         22    1    1    0    0    0 -0.47534086679E+00 -0.24413105820E+02 -0.24006777959E+02  0.34242533093E+02  0.00000000000E+00 0.  1.
</event>
<event>
 5    1  0.6622940E-004  0.9118800E+02  0.7818608E-02  0.1130116E+00
         25   -1    0    0    0    0  0.00000000000E+00  0.00000000000E+00  0.99999998245E-14  0.12500000000E+03  0.12500000000E+03 0.  0.
        -11    1    3    3    0    0 -0.40098118997E+01 -0.42375519555E+02 -0.44583031976E+02  0.61639354226E+02  0.51100000000E-03 0.  1.
         23    2    1    0    0    0 -0.56570104994E+01 -0.15014697569E+02 -0.24874508113E+02  0.95399593504E+02  0.90691225463E+02 0.  0.
         11    1    3    3    0    0 -0.16471985996E+01  0.27360821986E+02  0.19708523863E+02  0.33760239278E+02  0.51100000000E-03 0. -1.
         22    1    1    0    0    0  0.56570104994E+01  0.15014697569E+02  0.24874508113E+02  0.29600406496E+02  0.00000000000E+00 0.  1.
</event>
<event>
 5    1  0.6622940E-004  0.9118800E+02  0.7818608E-02  0.1130116E+00
         25   -1    0    0    0    0  0.00000000000E+00  0.00000000000E+00  0.99999998245E-14  0.12500000000E+03  0.12500000000E+03 0.  0.
        -11    1    3    3    0    0  0.24761895428E+01 -0.35202631663E+02  0.34798319054E+01  0.35460767349E+02  0.51100000000E-03 0. -1.
         23    2    1    0    0    0 -0.41015602323E+01  0.19810444464E+02 -0.20828591852E+02  0.95963699534E+02  0.91465429991E+02 0.  0.
         11    1    3    3    0    0 -0.65777497751E+01  0.55013076127E+02 -0.24308423757E+02  0.60502932185E+02  0.51100000000E-03 0.  1.
         22    1    1    0    0    0  0.41015602323E+01 -0.19810444464E+02  0.20828591852E+02  0.29036300466E+02  0.00000000000E+00 0.  1.
</event>
<event>
 5    1  0.6622940E-004  0.9118800E+02  0.7818608E-02  0.1130116E+00
         25   -1    0    0    0    0  0.00000000000E+00  0.00000000000E+00  0.99999998245E-14  0.12500000000E+03  0.12500000000E+03 0.  0.
        -11    1    3    3    0    0  0.33167972972E+02 -0.24328423711E+02  0.81563208720E+01  0.41934618179E+02  0.51100000000E-03 0. -1.
         23    2    1    0    0    0  0.92331323168E+01  0.20345645840E+02  0.21127402327E+02  0.94249989169E+02  0.89092633209E+02 0.  0.
         11    1    3    3    0    0 -0.23934840655E+02  0.44674069551E+02  0.12971081455E+02  0.52315370990E+02  0.51100000000E-03 0.  1.
         22    1    1    0    0    0 -0.92331323168E+01 -0.20345645840E+02 -0.21127402327E+02  0.30750010831E+02  0.00000000000E+00 0. -1.
</event>
<event>
 5    1  0.6622940E-004  0.9118800E+02  0.7818608E-02  0.1130116E+00
         25   -1    0    0    0    0  0.00000000000E+00  0.00000000000E+00  0.99999998245E-14  0.12500000000E+03  0.12500000000E+03 0.  0.
        -11    1    3    3    0    0  0.13445652419E+02 -0.68247095071E+01  0.31708241477E+02  0.35110892991E+02  0.51100000000E-03 0.  1.
         23    2    1    0    0    0 -0.43423040485E+01 -0.17610696756E+02 -0.24196097431E+02  0.94760235193E+02  0.89805672417E+02 0.  0.
         11    1    3    3    0    0 -0.17787956468E+02 -0.10785987249E+02 -0.55904338907E+02  0.59649342202E+02  0.51100000000E-03 0. -1.
         22    1    1    0    0    0  0.43423040485E+01  0.17610696756E+02  0.24196097431E+02  0.30239764807E+02  0.00000000000E+00 0. -1.
</event>
<event>
 5    1  0.6622940E-004  0.9118800E+02  0.7818608E-02  0.1130116E+00
         25   -1    0    0    0    0  0.00000000000E+00  0.00000000000E+00  0.99999998245E-14  0.12500000000E+03  0.12500000000E+03 0.  0.
        -11    1    3    3    0    0 -0.40792177357E+02  0.16316650325E+02  0.30393769457E+02  0.53422991618E+02  0.51100000000E-03 0.  1.
         23    2    1    0    0    0 -0.74343049949E+01  0.28239966843E+02  0.16369456911E+02  0.91522787786E+02  0.85180378882E+02 0.  0.
         11    1    3    3    0    0  0.33357872363E+02  0.11923316518E+02 -0.14024312546E+02  0.38099796167E+02  0.51100000000E-03 0. -1.
         22    1    1    0    0    0  0.74343049949E+01 -0.28239966843E+02 -0.16369456911E+02  0.33477212214E+02  0.00000000000E+00 0.  1.
</event>
<event>
 5    1  0.6622940E-004  0.9118800E+02  0.7818608E-02  0.1130116E+00
         25   -1    0    0    0    0  0.00000000000E+00  0.00000000000E+00  0.99999998245E-14  0.12500000000E+03  0.12500000000E+03 0.  0.
        -11    1    3    3    0    0  0.41636350262E+02  0.20851365151E+02 -0.40447583126E+02  0.61679592028E+02  0.51100000000E-03 0. -1.
         23    2    1    0    0    0  0.22073159548E+02  0.14973459248E+02 -0.14704249098E+02  0.94542754625E+02  0.89502450560E+02 0.  0.
         11    1    3    3    0    0 -0.19563190714E+02 -0.58779059031E+01  0.25743334028E+02  0.32863162597E+02  0.51100000000E-03 0.  1.
         22    1    1    0    0    0 -0.22073159548E+02 -0.14973459248E+02  0.14704249098E+02  0.30457245375E+02  0.00000000000E+00 0. -1.
</event>
<event>
 5    1  0.6622940E-004  0.9118800E+02  0.7818608E-02  0.1130116E+00
         25   -1    0    0    0    0  0.00000000000E+00  0.00000000000E+00  0.99999998245E-14  0.12500000000E+03  0.12500000000E+03 0.  0.
        -11    1    3    3    0    0 -0.19001632357E+02  0.50008941701E+02 -0.16546257381E+02  0.55997633128E+02  0.51100000000E-03 0.  1.
         23    2    1    0    0    0  0.48291528047E+01  0.13886610890E+02  0.10413373715E+02  0.10698342344E+03  0.10545546861E+03 0.  0.
         11    1    3    3    0    0  0.23830785162E+02 -0.36122330811E+02  0.26959631096E+02  0.50985790312E+02  0.51100000000E-03 0. -1.
         22    1    1    0    0    0 -0.48291528047E+01 -0.13886610890E+02 -0.10413373715E+02  0.18016576561E+02  0.00000000000E+00 0.  1.
</event>
<event>
 5    1  0.6622940E-004  0.9118800E+02  0.7818608E-02  0.1130116E+00
         25   -1    0    0    0    0  0.00000000000E+00  0.00000000000E+00  0.99999998245E-14  0.12500000000E+03  0.12500000000E+03 0.  0.
        -11    1    3    3    0    0  0.21847914242E+02 -0.38011253374E+02 -0.26705458745E+02  0.51335838036E+02  0.51100000000E-03 0. -1.
         23    2    1    0    0    0  0.28065445617E+02 -0.52390723513E+01  0.33730191149E+01  0.96251184812E+02  0.91857477665E+02 0.  0.
         11    1    3    3    0    0  0.62175313745E+01  0.32772181023E+02  0.30078477860E+02  0.44915346776E+02  0.51100000000E-03 0.  1.
         22    1    1    0    0    0 -0.28065445617E+02  0.52390723513E+01 -0.33730191149E+01  0.28748815188E+02  0.00000000000E+00 0. -1.
</event>
<event>
 5    1  0.6622940E-004  0.9118800E+02  0.7818608E-02  0.1130116E+00
         25   -1    0    0    0    0  0.00000000000E+00  0.00000000000E+00  0.99999998245E-14  0.12500000000E+03  0.12500000000E+03 0.  0.
        -11    1    3    3    0    0 -0.71409481642E+01  0.59123110346E+01  0.58115755069E+02  0.58850569665E+02  0.51100000000E-03 0.  1.
         23    2    1    0    0    0 -0.15100642468E+02  0.12368055175E+02  0.26490890038E+02  0.92094598517E+02  0.86015403442E+02 0.  0.
         11    1    3    3    0    0 -0.79596943040E+01  0.64557441399E+01 -0.31624865031E+02  0.33244028852E+02  0.51100000000E-03 0. -1.
         22    1    1    0    0    0  0.15100642468E+02 -0.12368055175E+02 -0.26490890038E+02  0.32905401483E+02  0.00000000000E+00 0.  1.
</event>
<event>
 5    1  0.6622940E-004  0.9118800E+02  0.7818608E-02  0.1130116E+00
         25   -1    0    0    0    0  0.00000000000E+00  0.00000000000E+00  0.99999998245E-14  0.12500000000E+03  0.12500000000E+03 0.  0.
        -11    1    3    3    0    0  0.40020213812E+02 -0.12258893662E+02  0.36160867391E+02  0.55312804287E+02  0.51100000000E-03 0.  1.
         23    2    1    0    0    0  0.25788415431E+02 -0.12882091239E+02 -0.20574948653E+01  0.96099758993E+02  0.91651185199E+02 0.  0.
         11    1    3    3    0    0 -0.14231798381E+02 -0.62319757652E+00 -0.38218362257E+02  0.40786954706E+02  0.51100000000E-03 0. -1.
         22    1    1    0    0    0 -0.25788415431E+02  0.12882091239E+02  0.20574948653E+01  0.28900241007E+02  0.00000000000E+00 0.  1.
</event>
<event>
 5    1  0.6622940E-004  0.9118800E+02  0.7818608E-02  0.1130116E+00
         25   -1    0    0    0    0  0.00000000000E+00  0.00000000000E+00  0.99999998245E-14  0.12500000000E+03  0.12500000000E+03 0.  0.
        -11    1    3    3    0    0  0.28908815009E+02  0.27678357509E+02  0.11598072555E+02  0.41669249416E+02  0.51100000000E-03 0.  1.
         23    2    1    0    0    0  0.90667822181E+01 -0.23883839701E+02  0.11661125268E+02  0.96917511129E+02  0.92759785372E+02 0.  0.
         11    1    3    3    0    0 -0.19842032791E+02 -0.51562197211E+02  0.63052712540E-01  0.55248261713E+02  0.51100000000E-03 0. -1.
         22    1    1    0    0    0 -0.90667822181E+01  0.23883839701E+02 -0.11661125268E+02  0.28082488871E+02  0.00000000000E+00 0. -1.
</event>
<event>
 5    1  0.6622940E-004  0.9118800E+02  0.7818608E-02  0.1130116E+00
         25   -1    0    0    0    0  0.00000000000E+00  0.00000000000E+00  0.99999998245E-14  0.12500000000E+03  0.12500000000E+03 0.  0.
        -11    1    3    3    0    0  0.62948527889E+01  0.48265710142E+02  0.37156408936E+02  0.61235632376E+02  0.51100000000E-03 0. -1.
         23    2    1    0    0    0 -0.42081911609E+01  0.24885738807E+02  0.12363599215E+02  0.96895419334E+02  0.92730010426E+02 0.  0.
         11    1    3    3    0    0 -0.10503043950E+02 -0.23379971335E+02 -0.24792809721E+02  0.35659786959E+02  0.51100000000E-03 0.  1.
         22    1    1    0    0    0  0.42081911609E+01 -0.24885738807E+02 -0.12363599215E+02  0.28104580666E+02  0.00000000000E+00 0. -1.
</event>
<event>
 5    1  0.6622940E-004  0.9118800E+02  0.7818608E-02  0.1130116E+00
         25   -1    0    0    0    0  0.00000000000E+00  0.00000000000E+00  0.99999998245E-14  0.12500000000E+03  0.12500000000E+03 0.  0.
        -11    1    3    3    0    0 -0.43554435629E+02 -0.17553988456E+02  0.32423922103E+02  0.57065244225E+02  0.51100000000E-03 0.  1.
         23    2    1    0    0    0 -0.17482831605E+02 -0.15347202959E+02 -0.34656344224E+01  0.10147986689E+03  0.98716598008E+02 0.  0.
         11    1    3    3    0    0  0.26071604023E+02  0.22067854969E+01 -0.35889556525E+02  0.44414622664E+02  0.51100000000E-03 0. -1.
         22    1    1    0    0    0  0.17482831605E+02  0.15347202959E+02  0.34656344224E+01  0.23520133111E+02  0.00000000000E+00 0.  1.
</event>
<event>
 5    1  0.6622940E-004  0.9118800E+02  0.7818608E-02  0.1130116E+00
         25   -1    0    0    0    0  0.00000000000E+00  0.00000000000E+00  0.99999998245E-14  0.12500000000E+03  0.12500000000E+03 0.  0.
        -11    1    3    3    0    0 -0.28340785955E+02 -0.96534080302E+01  0.26074542617E+02  0.39702269559E+02  0.51100000000E-03 0.  1.
         23    2    1    0    0    0 -0.12999644414E+02  0.82772575595E+01 -0.24810463092E+02  0.95792760719E+02  0.91231519661E+02 0.  0.
         11    1    3    3    0    0  0.15341141541E+02  0.17930665590E+02 -0.50885005709E+02  0.56090491160E+02  0.51100000000E-03 0. -1.
         22    1    1    0    0    0  0.12999644414E+02 -0.82772575595E+01  0.24810463092E+02  0.29207239281E+02  0.00000000000E+00 0. -1.
</event>
<event>
 5    1  0.6622940E-004  0.9118800E+02  0.7818608E-02  0.1130116E+00
         25   -1    0    0    0    0  0.00000000000E+00  0.00000000000E+00  0.99999998245E-14  0.12500000000E+03  0.12500000000E+03 0.  0.
        -11    1    3    3    0    0 -0.37252701826E+01  0.10345968486E+02  0.53018451853E+02  0.54146772194E+02  0.51100000000E-03 0.  1.
         23    2    1    0    0    0 -0.22620220422E+02  0.96587344822E+01  0.16164738785E+02  0.95567631701E+02  0.90922538048E+02 0.  0.
         11    1    3    3    0    0 -0.18894950239E+02 -0.68723400401E+00 -0.36853713068E+02  0.41420859507E+02  0.51100000000E-03 0. -1.
         22    1    1    0    0    0  0.22620220422E+02 -0.96587344822E+01 -0.16164738785E+02  0.29432368299E+02  0.00000000000E+00 0.  1.
</event>
<event>
 5    1  0.6622940E-004  0.9118800E+02  0.7818608E-02  0.1130116E+00
         25   -1    0    0    0    0  0.00000000000E+00  0.00000000000E+00  0.99999998245E-14  0.12500000000E+03  0.12500000000E+03 0.  0.
        -11    1    3    3    0    0 -0.69734538160E+00  0.51938306237E+02  0.99514236033E+01  0.52887661863E+02  0.51100000000E-03 0.  1.
         23    2    1    0    0    0 -0.23741017854E+02  0.16413392516E+02  0.12885808568E+01  0.96108897161E+02  0.91663647594E+02 0.  0.
         11    1    3    3    0    0 -0.23043672473E+02 -0.35524913722E+02 -0.86628427465E+01  0.43221235298E+02  0.51100000000E-03 0. -1.
         22    1    1    0    0    0  0.23741017854E+02 -0.16413392516E+02 -0.12885808568E+01  0.28891102839E+02  0.00000000000E+00 0. -1.
</event>
<event>
 5    1  0.6622940E-004  0.9118800E+02  0.7818608E-02  0.1130116E+00
         25   -1    0    0    0    0  0.00000000000E+00  0.00000000000E+00  0.99999998245E-14  0.12500000000E+03  0.12500000000E+03 0.  0.
        -11    1    3    3    0    0 -0.27597621926E+02 -0.16261344480E+02  0.10898530211E+02  0.33835455092E+02  0.51100000000E-03 0.  1.
         23    2    1    0    0    0  0.28062720449E+02 -0.21200134155E+01 -0.10270945218E+02  0.95041644712E+02  0.90196514223E+02 0.  0.
         11    1    3    3    0    0  0.55660342375E+02  0.14141331065E+02 -0.21169475429E+02  0.61206189620E+02  0.51100000000E-03 0. -1.
         22    1    1    0    0    0 -0.28062720449E+02  0.21200134155E+01  0.10270945218E+02  0.29958355288E+02  0.00000000000E+00 0. -1.
</event>
<event>
 5    1  0.6622940E-004  0.9118800E+02  0.7818608E-02  0.1130116E+00
         25   -1    0    0    0    0  0.00000000000E+00  0.00000000000E+00  0.99999998245E-14  0.12500000000E+03  0.12500000000E+03 0.  0.
        -11    1    3    3    0    0  0.34632509320E+02 -0.28780567238E+02 -0.29386754687E+01  0.45126129527E+02  0.51100000000E-03 0. -1.
         23    2    1    0    0    0  0.12559955063E+02  0.68409900858E+01  0.25494782124E+02  0.95767560278E+02  0.91196984981E+02 0.  0.
         11    1    3    3    0    0 -0.22072554257E+02  0.35621557324E+02  0.28433457593E+02  0.50641430751E+02  0.51100000000E-03 0.  1.
         22    1    1    0    0    0 -0.12559955063E+02 -0.68409900858E+01 -0.25494782124E+02  0.29232439722E+02  0.00000000000E+00 0. -1.
</event>
<event>
 5    1  0.6622940E-004  0.9118800E+02  0.7818608E-02  0.1130116E+00
         25   -1    0    0    0    0  0.00000000000E+00  0.00000000000E+00  0.99999998245E-14  0.12500000000E+03  0.12500000000E+03 0.  0.
        -11    1    3    3    0    0  0.20317531205E+02  0.44519165814E+02  0.12983172913E+02  0.50629250223E+02  0.51100000000E-03 0. -1.
         23    2    1    0    0    0 -0.18164796772E+02  0.22204256563E+02  0.65213311869E+01  0.95580336308E+02  0.90940002622E+02 0.  0.
         11    1    3    3    0    0 -0.38482327977E+02 -0.22314909250E+02 -0.64618417259E+01  0.44951086084E+02  0.51100000000E-03 0.  1.
         22    1    1    0    0    0  0.18164796772E+02 -0.22204256563E+02 -0.65213311869E+01  0.29419663692E+02  0.00000000000E+00 0. -1.
</event>
<event>
 5    1  0.6622940E-004  0.9118800E+02  0.7818608E-02  0.1130116E+00
         25   -1    0    0    0    0  0.00000000000E+00  0.00000000000E+00  0.99999998245E-14  0.12500000000E+03  0.12500000000E+03 0.  0.
        -11    1    3    3    0    0 -0.72783260637E+01 -0.47974687963E+02 -0.18025934939E+02  0.51763684627E+02  0.51100000000E-03 0.  1.
         23    2    1    0    0    0 -0.16204346110E+02 -0.20188561916E+02  0.14390135606E+02  0.95381849014E+02  0.90666764878E+02 0.  0.
         11    1    3    3    0    0 -0.89260200467E+01  0.27786126048E+02  0.32416070545E+02  0.43618164387E+02  0.51100000000E-03 0. -1.
         22    1    1    0    0    0  0.16204346110E+02  0.20188561916E+02 -0.14390135606E+02  0.29618150986E+02  0.00000000000E+00 0. -1.
</event>
<event>
 5    1  0.6622940E-004  0.9118800E+02  0.7818608E-02  0.1130116E+00
         25   -1    0    0    0    0  0.00000000000E+00  0.00000000000E+00  0.99999998245E-14  0.12500000000E+03  0.12500000000E+03 0.  0.
        -11    1    3    3    0    0 -0.10315080628E+02  0.28387833161E+02 -0.23894378684E+02  0.38512482300E+02  0.51100000000E-03 0. -1.
         23    2    1    0    0    0 -0.22733625995E+02 -0.17190195366E+02  0.78624997877E+01  0.95434150266E+02  0.90738842655E+02 0.  0.
         11    1    3    3    0    0 -0.12418545367E+02 -0.45578028527E+02  0.31756878472E+02  0.56921667966E+02  0.51100000000E-03 0.  1.
         22    1    1    0    0    0  0.22733625995E+02  0.17190195366E+02 -0.78624997877E+01  0.29565849734E+02  0.00000000000E+00 0.  1.
</event>
<event>
 4    1  0.6622940E-004  0.9118800E+02  0.7818608E-02  0.1130116E+00
         25   -1    0    0    0    0  0.00000000000E+00  0.00000000000E+00  0.99999998245E-14  0.12500000000E+03  0.12500000000E+03 0.  0.
        -11    1    1    0    0    0 -0.15351923253E+02 -0.83180912915E+01  0.82299516502E+01  0.19302960776E+02  0.51100000000E-03 0.  1.
         11    1    1    0    0    0 -0.40751042527E+02  0.15242713327E+01 -0.23619945868E+02  0.47126136201E+02  0.51100000000E-03 0. -1.
         22    1    1    0    0    0  0.56102965780E+02  0.67938199588E+01  0.15389994218E+02  0.58570903023E+02  0.00000000000E+00 0. -1.
</event>
<event>
 5    1  0.6622940E-004  0.9118800E+02  0.7818608E-02  0.1130116E+00
         25   -1    0    0    0    0  0.00000000000E+00  0.00000000000E+00  0.99999998245E-14  0.12500000000E+03  0.12500000000E+03 0.  0.
        -11    1    3    3    0    0 -0.41346024811E+02 -0.40644625111E+02  0.12383652150E+00  0.57978398166E+02  0.51100000000E-03 0.  1.
         23    2    1    0    0    0 -0.28648466189E+02 -0.59815900850E+01 -0.51985806711E+01  0.95275611429E+02  0.90520179282E+02 0.  0.
         11    1    3    3    0    0  0.12697558622E+02  0.34663035026E+02 -0.53224171926E+01  0.37297213264E+02  0.51100000000E-03 0. -1.
         22    1    1    0    0    0  0.28648466189E+02  0.59815900850E+01  0.51985806711E+01  0.29724388571E+02  0.00000000000E+00 0.  1.
</event>
<event>
 5    1  0.6622940E-004  0.9118800E+02  0.7818608E-02  0.1130116E+00
         25   -1    0    0    0    0  0.00000000000E+00  0.00000000000E+00  0.99999998245E-14  0.12500000000E+03  0.12500000000E+03 0.  0.
        -11    1    3    3    0    0 -0.26874984918E+02  0.51402729295E+02  0.21786382956E+02  0.61960889890E+02  0.51100000000E-03 0. -1.
         23    2    1    0    0    0 -0.17859668304E+02  0.21932727259E+02  0.91053922802E+01  0.95286022725E+02  0.90534555178E+02 0.  0.
         11    1    3    3    0    0  0.90153166141E+01 -0.29470002037E+02 -0.12680990676E+02  0.33325132835E+02  0.51100000000E-03 0.  1.
         22    1    1    0    0    0  0.17859668304E+02 -0.21932727259E+02 -0.91053922802E+01  0.29713977275E+02  0.00000000000E+00 0. -1.
</event>
<event>
 5    1  0.6622940E-004  0.9118800E+02  0.7818608E-02  0.1130116E+00
         25   -1    0    0    0    0  0.00000000000E+00  0.00000000000E+00  0.99999998245E-14  0.12500000000E+03  0.12500000000E+03 0.  0.
        -11    1    3    3    0    0  0.33568945248E+02  0.54967475282E+01  0.99718872791E+01  0.35447522546E+02  0.51100000000E-03 0. -1.
         23    2    1    0    0    0 -0.19820630422E+02  0.37843270417E+01 -0.19908148976E+02  0.96653696588E+02  0.92403593800E+02 0.  0.
         11    1    3    3    0    0 -0.53389575670E+02 -0.17124204865E+01 -0.29880036255E+02  0.61206174043E+02  0.51100000000E-03 0.  1.
         22    1    1    0    0    0  0.19820630422E+02 -0.37843270417E+01  0.19908148976E+02  0.28346303412E+02  0.00000000000E+00 0.  1.
</event>
<event>
 5    1  0.6622940E-004  0.9118800E+02  0.7818608E-02  0.1130116E+00
         25   -1    0    0    0    0  0.00000000000E+00  0.00000000000E+00  0.99999998245E-14  0.12500000000E+03  0.12500000000E+03 0.  0.
        -11    1    3    3    0    0  0.21044232702E+02  0.14933070611E+02  0.21535007129E+02  0.33609713778E+02  0.51100000000E-03 0.  1.
         23    2    1    0    0    0 -0.30447248675E+02  0.18268493687E+00 -0.62005345310E+01  0.93927263491E+02  0.88638681583E+02 0.  0.
         11    1    3    3    0    0 -0.51491481377E+02 -0.14750385675E+02 -0.27735541660E+02  0.60317549713E+02  0.51100000000E-03 0. -1.
         22    1    1    0    0    0  0.30447248675E+02 -0.18268493687E+00  0.62005345310E+01  0.31072736509E+02  0.00000000000E+00 0. -1.
</event>
<event>
 5    1  0.6622940E-004  0.9118800E+02  0.7818608E-02  0.1130116E+00
         25   -1    0    0    0    0  0.00000000000E+00  0.00000000000E+00  0.99999998245E-14  0.12500000000E+03  0.12500000000E+03 0.  0.
        -11    1    3    3    0    0  0.48578966813E+01  0.36709213683E+02 -0.40182656039E+02  0.54642578416E+02  0.51100000000E-03 0.  1.
         23    2    1    0    0    0  0.50094989685E+01 -0.27733821240E+01 -0.28661582019E+02  0.95772050839E+02  0.91203139802E+02 0.  0.
         11    1    3    3    0    0  0.15160228724E+00 -0.39482595807E+02  0.11521074019E+02  0.41129472422E+02  0.51100000000E-03 0. -1.
         22    1    1    0    0    0 -0.50094989685E+01  0.27733821240E+01  0.28661582019E+02  0.29227949161E+02  0.00000000000E+00 0.  1.
</event>
<event>
 5    1  0.6622940E-004  0.9118800E+02  0.7818608E-02  0.1130116E+00
         25   -1    0    0    0    0  0.00000000000E+00  0.00000000000E+00  0.99999998245E-14  0.12500000000E+03  0.12500000000E+03 0.  0.
        -11    1    3    3    0    0 -0.53908159761E+02 -0.70145980629E+01  0.70756761478E+01  0.54821158945E+02  0.51100000000E-03 0. -1.
         23    2    1    0    0    0 -0.19365529038E+02  0.11122410241E+02  0.19065214800E+02  0.95636516898E+02  0.91017191918E+02 0.  0.
         11    1    3    3    0    0  0.34542630724E+02  0.18137008304E+02  0.11989538652E+02  0.40815357954E+02  0.51100000000E-03 0.  1.
         22    1    1    0    0    0  0.19365529038E+02 -0.11122410241E+02 -0.19065214800E+02  0.29363483102E+02  0.00000000000E+00 0. -1.
</event>
<event>
 5    1  0.6622940E-004  0.9118800E+02  0.7818608E-02  0.1130116E+00
         25   -1    0    0    0    0  0.00000000000E+00  0.00000000000E+00  0.99999998245E-14  0.12500000000E+03  0.12500000000E+03 0.  0.
        -11    1    3    3    0    0 -0.32170553052E+02  0.47565875475E+02  0.40871654176E+01  0.57568758149E+02  0.51100000000E-03 0.  1.
         23    2    1    0    0    0 -0.14766066308E+02  0.17845637916E+02  0.18943263347E+02  0.95077588114E+02  0.90246313102E+02 0.  0.
         11    1    3    3    0    0  0.17404486745E+02 -0.29720237558E+02  0.14856097930E+02  0.37508829965E+02  0.51100000000E-03 0. -1.
         22    1    1    0    0    0  0.14766066308E+02 -0.17845637916E+02 -0.18943263347E+02  0.29922411886E+02  0.00000000000E+00 0.  1.
</event>
<event>
 5    1  0.6622940E-004  0.9118800E+02  0.7818608E-02  0.1130116E+00
         25   -1    0    0    0    0  0.00000000000E+00  0.00000000000E+00  0.99999998245E-14  0.12500000000E+03  0.12500000000E+03 0.  0.
        -11    1    3    3    0    0 -0.28958245091E+02  0.17074050959E+02  0.31035676348E+02  0.45752774578E+02  0.51100000000E-03 0.  1.
         23    2    1    0    0    0  0.36348274025E+01  0.23777392867E+02 -0.10313826427E+02  0.98828423866E+02  0.95300083769E+02 0.  0.
         11    1    3    3    0    0  0.32593072494E+02  0.67033419078E+01 -0.41349502775E+02  0.53075649288E+02  0.51100000000E-03 0. -1.
         22    1    1    0    0    0 -0.36348274025E+01 -0.23777392867E+02  0.10313826427E+02  0.26171576134E+02  0.00000000000E+00 0. -1.
</event>
<event>
 5    1  0.6622940E-004  0.9118800E+02  0.7818608E-02  0.1130116E+00
         25   -1    0    0    0    0  0.00000000000E+00  0.00000000000E+00  0.99999998245E-14  0.12500000000E+03  0.12500000000E+03 0.  0.
        -11    1    3    3    0    0  0.97704812949E+01 -0.68943233204E+01  0.42998316844E+02  0.44630138365E+02  0.51100000000E-03 0.  1.
         23    2    1    0    0    0 -0.11287729282E+02  0.25431301018E+02  0.98833505655E+01  0.95472986568E+02  0.90792327000E+02 0.  0.
         11    1    3    3    0    0 -0.21058210576E+02  0.32325624338E+02 -0.33114966279E+02  0.50842848203E+02  0.51100000000E-03 0. -1.
         22    1    1    0    0    0  0.11287729282E+02 -0.25431301018E+02 -0.98833505655E+01  0.29527013432E+02  0.00000000000E+00 0. -1.
</event>
<event>
 5    1  0.6622940E-004  0.9118800E+02  0.7818608E-02  0.1130116E+00
         25   -1    0    0    0    0  0.00000000000E+00  0.00000000000E+00  0.99999998245E-14  0.12500000000E+03  0.12500000000E+03 0.  0.
        -11    1    3    3    0    0 -0.23938618583E+02  0.18827247426E+02 -0.45913850078E+02  0.55096318703E+02  0.51100000000E-03 0. -1.
         23    2    1    0    0    0 -0.14154847258E+02  0.28390313159E+02 -0.13044150486E+02  0.90699570789E+02  0.83963639138E+02 0.  0.
         11    1    3    3    0    0  0.97837713258E+01  0.95630657327E+01  0.32869699592E+02  0.35603252086E+02  0.51100000000E-03 0.  1.
         22    1    1    0    0    0  0.14154847258E+02 -0.28390313159E+02  0.13044150486E+02  0.34300429211E+02  0.00000000000E+00 0. -1.
</event>
<event>
 5    1  0.6622940E-004  0.9118800E+02  0.7818608E-02  0.1130116E+00
         25   -1    0    0    0    0  0.00000000000E+00  0.00000000000E+00  0.99999998245E-14  0.12500000000E+03  0.12500000000E+03 0.  0.
        -11    1    3    3    0    0 -0.40882671099E+02  0.42919995811E+02 -0.11056101835E+02  0.60297232313E+02  0.51100000000E-03 0.  1.
         23    2    1    0    0    0 -0.22662270066E+02  0.18804580615E+02 -0.16849457480E+02  0.91072209709E+02  0.84516580783E+02 0.  0.
         11    1    3    3    0    0  0.18220401032E+02 -0.24115415196E+02 -0.57933556452E+01  0.30774977396E+02  0.51100000000E-03 0. -1.
         22    1    1    0    0    0  0.22662270066E+02 -0.18804580615E+02  0.16849457480E+02  0.33927790291E+02  0.00000000000E+00 0.  1.
</event>
<event>
 5    1  0.6622940E-004  0.9118800E+02  0.7818608E-02  0.1130116E+00
         25   -1    0    0    0    0  0.00000000000E+00  0.00000000000E+00  0.99999998245E-14  0.12500000000E+03  0.12500000000E+03 0.  0.
        -11    1    3    3    0    0  0.46034360468E+02  0.11219125668E+02  0.16504391782E+02  0.50173958114E+02  0.51100000000E-03 0.  1.
         23    2    1    0    0    0  0.19742520642E+02  0.19282399285E+02 -0.16275218007E+02  0.92961573624E+02  0.87266221449E+02 0.  0.
         11    1    3    3    0    0 -0.26291839826E+02  0.80632736167E+01 -0.32779609789E+02  0.42787615510E+02  0.51100000000E-03 0. -1.
         22    1    1    0    0    0 -0.19742520642E+02 -0.19282399285E+02  0.16275218007E+02  0.32038426376E+02  0.00000000000E+00 0.  1.
</event>
<event>
 5    1  0.6622940E-004  0.9118800E+02  0.7818608E-02  0.1130116E+00
         25   -1    0    0    0    0  0.00000000000E+00  0.00000000000E+00  0.99999998245E-14  0.12500000000E+03  0.12500000000E+03 0.  0.
        -11    1    3    3    0    0  0.27309800687E+02  0.16170709728E+02 -0.31964220665E+02  0.45044738535E+02  0.51100000000E-03 0.  1.
         23    2    1    0    0    0  0.21757948921E+02 -0.24131691215E+02 -0.16401498501E+02  0.88602802097E+02  0.80781808126E+02 0.  0.
         11    1    3    3    0    0 -0.55518517660E+01 -0.40302400943E+02  0.15562722164E+02  0.43558063562E+02  0.51100000000E-03 0. -1.
         22    1    1    0    0    0 -0.21757948921E+02  0.24131691215E+02  0.16401498501E+02  0.36397197903E+02  0.00000000000E+00 0.  1.
</event>
<event>
 5    1  0.6622940E-004  0.9118800E+02  0.7818608E-02  0.1130116E+00
         25   -1    0    0    0    0  0.00000000000E+00  0.00000000000E+00  0.99999998245E-14  0.12500000000E+03  0.12500000000E+03 0.  0.
        -11    1    3    3    0    0  0.24509052115E+02 -0.44474728147E+02  0.18731231177E+02  0.54125355435E+02  0.51100000000E-03 0.  1.
         23    2    1    0    0    0 -0.88374412218E+01 -0.29984695713E+02  0.13846730672E+02  0.90810611374E+02  0.84128787245E+02 0.  0.
         11    1    3    3    0    0 -0.33346493337E+02  0.14490032434E+02 -0.48845005053E+01  0.36685255938E+02  0.51100000000E-03 0. -1.
         22    1    1    0    0    0  0.88374412218E+01  0.29984695713E+02 -0.13846730672E+02  0.34189388626E+02  0.00000000000E+00 0.  1.
</event>
<event>
 5    1  0.6622940E-004  0.9118800E+02  0.7818608E-02  0.1130116E+00
         25   -1    0    0    0    0  0.00000000000E+00  0.00000000000E+00  0.99999998245E-14  0.12500000000E+03  0.12500000000E+03 0.  0.
        -11    1    3    3    0    0 -0.30688808399E+02  0.10702234631E+02  0.21582705212E+02  0.39014791446E+02  0.51100000000E-03 0.  1.
         23    2    1    0    0    0 -0.49328604745E+01 -0.22949284975E+00 -0.28334229095E+02  0.96238666272E+02  0.91840440809E+02 0.  0.
         11    1    3    3    0    0  0.25755947925E+02 -0.10931727481E+02 -0.49916934307E+02  0.57223874826E+02  0.51100000000E-03 0. -1.
         22    1    1    0    0    0  0.49328604745E+01  0.22949284975E+00  0.28334229095E+02  0.28761333728E+02  0.00000000000E+00 0. -1.
</event>
<event>
 5    1  0.6622940E-004  0.9118800E+02  0.7818608E-02  0.1130116E+00
         25   -1    0    0    0    0  0.00000000000E+00  0.00000000000E+00  0.99999998245E-14  0.12500000000E+03  0.12500000000E+03 0.  0.
        -11    1    3    3    0    0  0.22503187287E+02  0.50737380285E+02 -0.23780168561E+02  0.60383537601E+02  0.51100000000E-03 0.  1.
         23    2    1    0    0    0  0.90344649267E+01  0.17525287421E+02 -0.20789920119E+02  0.96347285743E+02  0.91988159215E+02 0.  0.
         11    1    3    3    0    0 -0.13468722361E+02 -0.33212092864E+02  0.29902484412E+01  0.35963748142E+02  0.51100000000E-03 0. -1.
         22    1    1    0    0    0 -0.90344649267E+01 -0.17525287421E+02  0.20789920119E+02  0.28652714257E+02  0.00000000000E+00 0.  1.
</event>
<event>
 5    1  0.6622940E-004  0.9118800E+02  0.7818608E-02  0.1130116E+00
         25   -1    0    0    0    0  0.00000000000E+00  0.00000000000E+00  0.99999998245E-14  0.12500000000E+03  0.12500000000E+03 0.  0.
        -11    1    3    3    0    0 -0.41923432192E+02  0.41445473717E+02 -0.64168328615E+00  0.58955179722E+02  0.51100000000E-03 0.  1.
         23    2    1    0    0    0 -0.28137002796E+02  0.70848228787E+01  0.40830814343E-01  0.95984705607E+02  0.91494133155E+02 0.  0.
         11    1    3    3    0    0  0.13786429396E+02 -0.34360650838E+02  0.68251410049E+00  0.37029525885E+02  0.51100000000E-03 0. -1.
         22    1    1    0    0    0  0.28137002796E+02 -0.70848228787E+01 -0.40830814343E-01  0.29015294393E+02  0.00000000000E+00 0.  1.
</event>
<event>
 5    1  0.6622940E-004  0.9118800E+02  0.7818608E-02  0.1130116E+00
         25   -1    0    0    0    0  0.00000000000E+00  0.00000000000E+00  0.99999998245E-14  0.12500000000E+03  0.12500000000E+03 0.  0.
        -11    1    3    3    0    0  0.17722661445E+02 -0.48807399705E+02  0.17652302442E+02  0.54843949315E+02  0.51100000000E-03 0.  1.
         23    2    1    0    0    0 -0.74469391413E+01 -0.28303352255E+02 -0.61438461183E+01  0.95095426829E+02  0.90271018091E+02 0.  0.
         11    1    3    3    0    0 -0.25169600586E+02  0.20504047450E+02 -0.23796148560E+02  0.40251477514E+02  0.51100000000E-03 0. -1.
         22    1    1    0    0    0  0.74469391413E+01  0.28303352255E+02  0.61438461183E+01  0.29904573171E+02  0.00000000000E+00 0.  1.
</event>
<event>
 5    1  0.6622940E-004  0.9118800E+02  0.7818608E-02  0.1130116E+00
         25   -1    0    0    0    0  0.00000000000E+00  0.00000000000E+00  0.99999998245E-14  0.12500000000E+03  0.12500000000E+03 0.  0.
        -11    1    3    3    0    0 -0.15737447252E+02  0.52470523220E+02 -0.15817800528E+02  0.57017767992E+02  0.51100000000E-03 0.  1.
         23    2    1    0    0    0 -0.21575569246E+02  0.14835850252E+02 -0.14374060705E+02  0.95129926981E+02  0.90318778475E+02 0.  0.
         11    1    3    3    0    0 -0.58381219944E+01 -0.37634672968E+02  0.14437398231E+01  0.38112158989E+02  0.51100000000E-03 0. -1.
         22    1    1    0    0    0  0.21575569246E+02 -0.14835850252E+02  0.14374060705E+02  0.29870073019E+02  0.00000000000E+00 0.  1.
</event>
<event>
 5    1  0.6622940E-004  0.9118800E+02  0.7818608E-02  0.1130116E+00
         25   -1    0    0    0    0  0.00000000000E+00  0.00000000000E+00  0.99999998245E-14  0.12500000000E+03  0.12500000000E+03 0.  0.
        -11    1    3    3    0    0 -0.20195393918E+02 -0.27121291142E+02 -0.22953794147E+02  0.40869243138E+02  0.51100000000E-03 0.  1.
         23    2    1    0    0    0 -0.15558887808E+02 -0.38136275132E+01  0.25527918302E+02  0.94862027980E+02  0.89947245622E+02 0.  0.
         11    1    3    3    0    0  0.46365061101E+01  0.23307663629E+02  0.48481712449E+02  0.53992784842E+02  0.51100000000E-03 0. -1.
         22    1    1    0    0    0  0.15558887808E+02  0.38136275132E+01 -0.25527918302E+02  0.30137972020E+02  0.00000000000E+00 0. -1.
</event>
<event>
 5    1  0.6622940E-004  0.9118800E+02  0.7818608E-02  0.1130116E+00
         25   -1    0    0    0    0  0.00000000000E+00  0.00000000000E+00  0.99999998245E-14  0.12500000000E+03  0.12500000000E+03 0.  0.
        -11    1    3    3    0    0  0.20769603252E+02  0.25362524718E+02  0.12355341390E+02  0.35032678179E+02  0.51100000000E-03 0.  1.
         23    2    1    0    0    0 -0.11626522783E+02 -0.12217725731E+02 -0.23375171684E+02  0.96175574501E+02  0.91754529182E+02 0.  0.
         11    1    3    3    0    0 -0.32396126035E+02 -0.37580250449E+02 -0.35730513074E+02  0.61142896322E+02  0.51100000000E-03 0. -1.
         22    1    1    0    0    0  0.11626522783E+02  0.12217725731E+02  0.23375171684E+02  0.28824425499E+02  0.00000000000E+00 0. -1.
</event>
<event>
 5    1  0.6622940E-004  0.9118800E+02  0.7818608E-02  0.1130116E+00
         25   -1    0    0    0    0  0.00000000000E+00  0.00000000000E+00  0.99999998245E-14  0.12500000000E+03  0.12500000000E+03 0.  0.
        -11    1    3    3    0    0  0.50210725136E+02  0.11654731697E+02 -0.28459316993E+02  0.58880237887E+02  0.51100000000E-03 0.  1.
         23    2    1    0    0    0  0.23880512054E+02 -0.94537377252E+01 -0.93138247410E+01  0.97679689894E+02  0.93781247985E+02 0.  0.
         11    1    3    3    0    0 -0.26330213082E+02 -0.21108469423E+02  0.19145492252E+02  0.38799452008E+02  0.51100000000E-03 0. -1.
         22    1    1    0    0    0 -0.23880512054E+02  0.94537377252E+01  0.93138247410E+01  0.27320310106E+02  0.00000000000E+00 0.  1.
</event>
<event>
 5    1  0.6622940E-004  0.9118800E+02  0.7818608E-02  0.1130116E+00
         25   -1    0    0    0    0  0.00000000000E+00  0.00000000000E+00  0.99999998245E-14  0.12500000000E+03  0.12500000000E+03 0.  0.
        -11    1    3    3    0    0 -0.13941092566E+02 -0.21559790271E+02 -0.54179764699E+02  0.59955195952E+02  0.51100000000E-03 0.  1.
         23    2    1    0    0    0 -0.18101676630E+02 -0.62928355857E+01 -0.21941424691E+02  0.95867602330E+02  0.91334005620E+02 0.  0.
         11    1    3    3    0    0 -0.41605840648E+01  0.15266954685E+02  0.32238340009E+02  0.35912406379E+02  0.51100000000E-03 0. -1.
         22    1    1    0    0    0  0.18101676630E+02  0.62928355857E+01  0.21941424691E+02  0.29132397670E+02  0.00000000000E+00 0.  1.
</event>
<event>
 5    1  0.6622940E-004  0.9118800E+02  0.7818608E-02  0.1130116E+00
         25   -1    0    0    0    0  0.00000000000E+00  0.00000000000E+00  0.99999998245E-14  0.12500000000E+03  0.12500000000E+03 0.  0.
        -11    1    3    3    0    0  0.16904907906E+02 -0.27796967206E+02 -0.21761529181E+02  0.39140917845E+02  0.51100000000E-03 0.  1.
         23    2    1    0    0    0  0.13707168583E+02  0.25860218331E+02 -0.88611801341E+01  0.94419648857E+02  0.89330354383E+02 0.  0.
         11    1    3    3    0    0 -0.31977393232E+01  0.53657185537E+02  0.12900349047E+02  0.55278731012E+02  0.51100000000E-03 0. -1.
         22    1    1    0    0    0 -0.13707168583E+02 -0.25860218331E+02  0.88611801341E+01  0.30580351143E+02  0.00000000000E+00 0. -1.
</event>
<event>
 5    1  0.6622940E-004  0.9118800E+02  0.7818608E-02  0.1130116E+00
         25   -1    0    0    0    0  0.00000000000E+00  0.00000000000E+00  0.99999998245E-14  0.12500000000E+03  0.12500000000E+03 0.  0.
        -11    1    3    3    0    0 -0.41892599971E+02  0.37736211256E+02  0.21937023726E+02  0.60499955227E+02  0.51100000000E-03 0. -1.
         23    2    1    0    0    0 -0.23445882795E+02  0.10324606796E+02  0.17813895566E+02  0.93796766181E+02  0.88454460291E+02 0.  0.
         11    1    3    3    0    0  0.18446717176E+02 -0.27411604460E+02 -0.41231281601E+01  0.33296810954E+02  0.51100000000E-03 0.  1.
         22    1    1    0    0    0  0.23445882795E+02 -0.10324606796E+02 -0.17813895566E+02  0.31203233819E+02  0.00000000000E+00 0. -1.
</event>
<event>
 5    1  0.6622940E-004  0.9118800E+02  0.7818608E-02  0.1130116E+00
         25   -1    0    0    0    0  0.00000000000E+00  0.00000000000E+00  0.99999998245E-14  0.12500000000E+03  0.12500000000E+03 0.  0.
        -11    1    3    3    0    0  0.82664005510E+01  0.36589908213E+02  0.41777680077E+02  0.56147389200E+02  0.51100000000E-03 0.  1.
         23    2    1    0    0    0 -0.11224769349E+02  0.50381817836E+01  0.25575947290E+02  0.96618530651E+02  0.92356010431E+02 0.  0.
         11    1    3    3    0    0 -0.19491169900E+02 -0.31551726430E+02 -0.16201732786E+02  0.40471141451E+02  0.51100000000E-03 0. -1.
         22    1    1    0    0    0  0.11224769349E+02 -0.50381817836E+01 -0.25575947290E+02  0.28381469349E+02  0.00000000000E+00 0.  1.
</event>
<event>
 5    1  0.6622940E-004  0.9118800E+02  0.7818608E-02  0.1130116E+00
         25   -1    0    0    0    0  0.00000000000E+00  0.00000000000E+00  0.99999998245E-14  0.12500000000E+03  0.12500000000E+03 0.  0.
        -11    1    3    3    0    0 -0.52416520424E+02 -0.31596037384E+02 -0.12153300263E+02  0.62397947877E+02  0.51100000000E-03 0. -1.
         23    2    1    0    0    0 -0.26765569733E+02 -0.13296916882E+02 -0.66150575246E+01  0.94390153418E+02  0.89289071865E+02 0.  0.
         11    1    3    3    0    0  0.25650950691E+02  0.18299120502E+02  0.55382427385E+01  0.31992205541E+02  0.51100000000E-03 0.  1.
         22    1    1    0    0    0  0.26765569733E+02  0.13296916882E+02  0.66150575246E+01  0.30609846582E+02  0.00000000000E+00 0. -1.
</event>
<event>
 5    1  0.6622940E-004  0.9118800E+02  0.7818608E-02  0.1130116E+00
         25   -1    0    0    0    0  0.00000000000E+00  0.00000000000E+00  0.99999998245E-14  0.12500000000E+03  0.12500000000E+03 0.  0.
        -11    1    3    3    0    0 -0.36638681537E+02 -0.66203059798E+01 -0.28357833420E+02  0.46801582800E+02  0.51100000000E-03 0.  1.
         23    2    1    0    0    0 -0.27799562397E+02  0.22686858448E+02  0.84503619346E+00  0.89108172214E+02  0.81560057954E+02 0.  0.
         11    1    3    3    0    0  0.88391191399E+01  0.29307164427E+02  0.29202869613E+02  0.42306589414E+02  0.51100000000E-03 0. -1.
         22    1    1    0    0    0  0.27799562397E+02 -0.22686858448E+02 -0.84503619346E+00  0.35891827786E+02  0.00000000000E+00 0. -1.
</event>
<event>
 5    1  0.6622940E-004  0.9118800E+02  0.7818608E-02  0.1130116E+00
         25   -1    0    0    0    0  0.00000000000E+00  0.00000000000E+00  0.99999998245E-14  0.12500000000E+03  0.12500000000E+03 0.  0.
        -11    1    3    3    0    0  0.36301829850E+02 -0.12734960133E+02  0.42230883398E+02  0.57126610024E+02  0.51100000000E-03 0.  1.
         23    2    1    0    0    0  0.27077402626E+01 -0.14798593510E+02  0.27047094439E+02  0.94050435466E+02  0.88812211247E+02 0.  0.
         11    1    3    3    0    0 -0.33594089587E+02 -0.20636333776E+01 -0.15183788959E+02  0.36923825442E+02  0.51100000000E-03 0. -1.
         22    1    1    0    0    0 -0.27077402626E+01  0.14798593510E+02 -0.27047094439E+02  0.30949564534E+02  0.00000000000E+00 0.  1.
</event>
<event>
 5    1  0.6622940E-004  0.9118800E+02  0.7818608E-02  0.1130116E+00
         25   -1    0    0    0    0  0.00000000000E+00  0.00000000000E+00  0.99999998245E-14  0.12500000000E+03  0.12500000000E+03 0.  0.
        -11    1    3    3    0    0  0.11610898866E+02 -0.24467346795E+02  0.56264795532E+02  0.62443504451E+02  0.51100000000E-03 0.  1.
         23    2    1    0    0    0  0.41686637815E+01 -0.12302487771E+02  0.24272385546E+02  0.97470422030E+02  0.93501901091E+02 0.  0.
         11    1    3    3    0    0 -0.74422350848E+01  0.12164859024E+02 -0.31992409986E+02  0.35026917579E+02  0.51100000000E-03 0. -1.
         22    1    1    0    0    0 -0.41686637815E+01  0.12302487771E+02 -0.24272385546E+02  0.27529577970E+02  0.00000000000E+00 0.  1.
</event>
<event>
 5    1  0.6622940E-004  0.9118800E+02  0.7818608E-02  0.1130116E+00
         25   -1    0    0    0    0  0.00000000000E+00  0.00000000000E+00  0.99999998245E-14  0.12500000000E+03  0.12500000000E+03 0.  0.
        -11    1    3    3    0    0  0.11129519363E+02 -0.58218575737E+02  0.43712287823E+01  0.59433798494E+02  0.51100000000E-03 0.  1.
         23    2    1    0    0    0  0.13298357595E+02 -0.20935435265E+02  0.11835783509E+02  0.97518651130E+02  0.93566354970E+02 0.  0.
         11    1    3    3    0    0  0.21688382323E+01  0.37283140472E+02  0.74645547266E+01  0.38084852636E+02  0.51100000000E-03 0. -1.
         22    1    1    0    0    0 -0.13298357595E+02  0.20935435265E+02 -0.11835783509E+02  0.27481348870E+02  0.00000000000E+00 0.  1.
</event>
<event>
 5    1  0.6622940E-004  0.9118800E+02  0.7818608E-02  0.1130116E+00
         25   -1    0    0    0    0  0.00000000000E+00  0.00000000000E+00  0.99999998245E-14  0.12500000000E+03  0.12500000000E+03 0.  0.
        -11    1    3    3    0    0  0.19610081230E+02  0.19494662970E+02 -0.21137683142E+02  0.34805155064E+02  0.51100000000E-03 0. -1.
         23    2    1    0    0    0 -0.44176070923E+01 -0.66488956979E+01  0.28256410807E+02  0.95637646244E+02  0.91018742910E+02 0.  0.
         11    1    3    3    0    0 -0.24027688322E+02 -0.26143558668E+02  0.49394093948E+02  0.60832491180E+02  0.51100000000E-03 0.  1.
         22    1    1    0    0    0  0.44176070923E+01  0.66488956979E+01 -0.28256410807E+02  0.29362353756E+02  0.00000000000E+00 0.  1.
</event>
<event>
 5    1  0.6622940E-004  0.9118800E+02  0.7818608E-02  0.1130116E+00
         25   -1    0    0    0    0  0.00000000000E+00  0.00000000000E+00  0.99999998245E-14  0.12500000000E+03  0.12500000000E+03 0.  0.
        -11    1    3    3    0    0  0.17645328703E+02 -0.24007813871E+02 -0.14641426156E+02  0.33197953432E+02  0.51100000000E-03 0. -1.
         23    2    1    0    0    0 -0.11061631234E+02  0.15756721338E+02  0.22988606293E+02  0.95014837466E+02  0.90159355402E+02 0.  0.
         11    1    3    3    0    0 -0.28706959937E+02  0.39764535210E+02  0.37630032450E+02  0.61816884034E+02  0.51100000000E-03 0.  1.
         22    1    1    0    0    0  0.11061631234E+02 -0.15756721338E+02 -0.22988606293E+02  0.29985162534E+02  0.00000000000E+00 0.  1.
</event>
<event>
 5    1  0.6622940E-004  0.9118800E+02  0.7818608E-02  0.1130116E+00
         25   -1    0    0    0    0  0.00000000000E+00  0.00000000000E+00  0.99999998245E-14  0.12500000000E+03  0.12500000000E+03 0.  0.
        -11    1    3    3    0    0 -0.11164800583E+02 -0.11902697591E+02 -0.36669843558E+02  0.40137319402E+02  0.51100000000E-03 0.  1.
         23    2    1    0    0    0 -0.28964418547E+02  0.88431557444E+01  0.90383590703E+01  0.93395714215E+02  0.87885883701E+02 0.  0.
         11    1    3    3    0    0 -0.17799617964E+02  0.20745853336E+02  0.45708202628E+02  0.53258394813E+02  0.51100000000E-03 0. -1.
         22    1    1    0    0    0  0.28964418547E+02 -0.88431557444E+01 -0.90383590703E+01  0.31604285785E+02  0.00000000000E+00 0.  1.
</event>
<event>
 5    1  0.6622940E-004  0.9118800E+02  0.7818608E-02  0.1130116E+00
         25   -1    0    0    0    0  0.00000000000E+00  0.00000000000E+00  0.99999998245E-14  0.12500000000E+03  0.12500000000E+03 0.  0.
        -11    1    3    3    0    0 -0.45884874939E+01 -0.26637971596E+00 -0.47989173543E+02  0.48208774650E+02  0.51100000000E-03 0.  1.
         23    2    1    0    0    0  0.16378364329E+02 -0.20568719830E+02 -0.83906462429E+01  0.97400615986E+02  0.93408532783E+02 0.  0.
         11    1    3    3    0    0  0.20966851823E+02 -0.20302340114E+02  0.39598527300E+02  0.49191841337E+02  0.51100000000E-03 0. -1.
         22    1    1    0    0    0 -0.16378364329E+02  0.20568719830E+02  0.83906462429E+01  0.27599384014E+02  0.00000000000E+00 0. -1.
</event>
<event>
 5    1  0.6622940E-004  0.9118800E+02  0.7818608E-02  0.1130116E+00
         25   -1    0    0    0    0  0.00000000000E+00  0.00000000000E+00  0.99999998245E-14  0.12500000000E+03  0.12500000000E+03 0.  0.
        -11    1    3    3    0    0 -0.33332599885E+02 -0.18965833678E+02  0.52586645698E+00  0.38354160113E+02  0.51100000000E-03 0.  1.
         23    2    1    0    0    0  0.14199489374E+02  0.18785565632E+01  0.25347240565E+02  0.95885792515E+02  0.91358897370E+02 0.  0.
         11    1    3    3    0    0  0.47532089259E+02  0.20844390242E+02  0.24821374108E+02  0.57531632401E+02  0.51100000000E-03 0. -1.
         22    1    1    0    0    0 -0.14199489374E+02 -0.18785565632E+01 -0.25347240565E+02  0.29114207485E+02  0.00000000000E+00 0. -1.
</event>
<event>
 5    1  0.6622940E-004  0.9118800E+02  0.7818608E-02  0.1130116E+00
         25   -1    0    0    0    0  0.00000000000E+00  0.00000000000E+00  0.99999998245E-14  0.12500000000E+03  0.12500000000E+03 0.  0.
        -11    1    3    3    0    0 -0.29578941316E+02  0.87515307853E+01  0.23125099766E+02  0.38552215240E+02  0.51100000000E-03 0.  1.
         23    2    1    0    0    0  0.11005673104E+01  0.22158043943E+02 -0.21342826835E+02  0.94215159297E+02  0.89043752303E+02 0.  0.
         11    1    3    3    0    0  0.30679508627E+02  0.13406513158E+02 -0.44467926601E+02  0.55662944057E+02  0.51100000000E-03 0. -1.
         22    1    1    0    0    0 -0.11005673104E+01 -0.22158043943E+02  0.21342826835E+02  0.30784840703E+02  0.00000000000E+00 0. -1.
</event>
<event>
 5    1  0.6622940E-004  0.9118800E+02  0.7818608E-02  0.1130116E+00
         25   -1    0    0    0    0  0.00000000000E+00  0.00000000000E+00  0.99999998245E-14  0.12500000000E+03  0.12500000000E+03 0.  0.
        -11    1    3    3    0    0  0.59096780623E+01 -0.45142415773E+02 -0.30368896547E+02  0.54726884384E+02  0.51100000000E-03 0.  1.
         23    2    1    0    0    0 -0.16739701885E+02 -0.24043292988E+02 -0.39194102246E+01  0.95442271173E+02  0.90750029163E+02 0.  0.
         11    1    3    3    0    0 -0.22649379948E+02  0.21099122785E+02  0.26449486323E+02  0.40715386788E+02  0.51100000000E-03 0. -1.
         22    1    1    0    0    0  0.16739701885E+02  0.24043292988E+02  0.39194102246E+01  0.29557728827E+02  0.00000000000E+00 0.  1.
</event>
<event>
 5    1  0.6622940E-004  0.9118800E+02  0.7818608E-02  0.1130116E+00
         25   -1    0    0    0    0  0.00000000000E+00  0.00000000000E+00  0.99999998245E-14  0.12500000000E+03  0.12500000000E+03 0.  0.
        -11    1    3    3    0    0 -0.48004540926E+01  0.15020851311E+02 -0.45066511756E+02  0.47745793696E+02  0.51100000000E-03 0. -1.
         23    2    1    0    0    0  0.97131667939E+01 -0.21418839004E+02 -0.17378812339E+02  0.95757301907E+02  0.91182923164E+02 0.  0.
         11    1    3    3    0    0  0.14513620886E+02 -0.36439690315E+02  0.27687699417E+02  0.48011508211E+02  0.51100000000E-03 0.  1.
         22    1    1    0    0    0 -0.97131667939E+01  0.21418839004E+02  0.17378812339E+02  0.29242698093E+02  0.00000000000E+00 0. -1.
</event>
<event>
 5    1  0.6622940E-004  0.9118800E+02  0.7818608E-02  0.1130116E+00
         25   -1    0    0    0    0  0.00000000000E+00  0.00000000000E+00  0.99999998245E-14  0.12500000000E+03  0.12500000000E+03 0.  0.
        -11    1    3    3    0    0  0.54075657734E+02  0.25524514753E+02  0.42538510710E+01  0.59948084723E+02  0.51100000000E-03 0.  1.
         23    2    1    0    0    0  0.35597372948E+02  0.29208405454E+01  0.24306440271E+01  0.89200386864E+02  0.81701265082E+02 0.  0.
         11    1    3    3    0    0 -0.18478284786E+02 -0.22603674208E+02 -0.18232070440E+01  0.29252302141E+02  0.51100000000E-03 0. -1.
         22    1    1    0    0    0 -0.35597372948E+02 -0.29208405454E+01 -0.24306440271E+01  0.35799613136E+02  0.00000000000E+00 0.  1.
</event>
<event>
 5    1  0.6622940E-004  0.9118800E+02  0.7818608E-02  0.1130116E+00
         25   -1    0    0    0    0  0.00000000000E+00  0.00000000000E+00  0.99999998245E-14  0.12500000000E+03  0.12500000000E+03 0.  0.
        -11    1    3    3    0    0 -0.40528560853E+02  0.38209175090E+02 -0.19963147559E+02  0.59169523968E+02  0.51100000000E-03 0. -1.
         23    2    1    0    0    0 -0.15646909643E+02  0.24125190603E+02  0.33363766783E+01  0.96052081036E+02  0.91586135736E+02 0.  0.
         11    1    3    3    0    0  0.24881651209E+02 -0.14083984488E+02  0.23299524237E+02  0.36882557068E+02  0.51100000000E-03 0.  1.
         22    1    1    0    0    0  0.15646909643E+02 -0.24125190603E+02 -0.33363766783E+01  0.28947918964E+02  0.00000000000E+00 0. -1.
</event>
<event>
 5    1  0.6622940E-004  0.9118800E+02  0.7818608E-02  0.1130116E+00
         25   -1    0    0    0    0  0.00000000000E+00  0.00000000000E+00  0.99999998245E-14  0.12500000000E+03  0.12500000000E+03 0.  0.
        -11    1    3    3    0    0  0.35777668661E+02 -0.13825462674E+02 -0.34882075155E+02  0.51845387069E+02  0.51100000000E-03 0. -1.
         23    2    1    0    0    0  0.24730603083E+02  0.14639770291E+02 -0.28158910590E+01  0.96123455098E+02  0.91683497830E+02 0.  0.
         11    1    3    3    0    0 -0.11047065577E+02  0.28465232965E+02  0.32066184096E+02  0.44278068029E+02  0.51100000000E-03 0.  1.
         22    1    1    0    0    0 -0.24730603083E+02 -0.14639770291E+02  0.28158910590E+01  0.28876544902E+02  0.00000000000E+00 0. -1.
</event>
<event>
 5    1  0.6622940E-004  0.9118800E+02  0.7818608E-02  0.1130116E+00
         25   -1    0    0    0    0  0.00000000000E+00  0.00000000000E+00  0.99999998245E-14  0.12500000000E+03  0.12500000000E+03 0.  0.
        -11    1    3    3    0    0 -0.45471576332E+02 -0.97790193729E+01  0.26981616845E+02  0.53770820357E+02  0.51100000000E-03 0.  1.
         23    2    1    0    0    0 -0.43479261650E+01 -0.88848253830E+01  0.28397998893E+02  0.94928569619E+02  0.90039671283E+02 0.  0.
         11    1    3    3    0    0  0.41123650167E+02  0.89419398990E+00  0.14163820476E+01  0.41157749262E+02  0.51100000000E-03 0. -1.
         22    1    1    0    0    0  0.43479261650E+01  0.88848253830E+01 -0.28397998893E+02  0.30071430381E+02  0.00000000000E+00 0.  1.
</event>
<event>
 5    1  0.6622940E-004  0.9118800E+02  0.7818608E-02  0.1130116E+00
         25   -1    0    0    0    0  0.00000000000E+00  0.00000000000E+00  0.99999998245E-14  0.12500000000E+03  0.12500000000E+03 0.  0.
        -11    1    3    3    0    0  0.41724012964E+02  0.27267731102E+02 -0.25684631077E+02  0.56072477126E+02  0.51100000000E-03 0.  1.
         23    2    1    0    0    0  0.29634083041E+02 -0.25006568492E+01 -0.36378486362E+01  0.95038923500E+02  0.90192742917E+02 0.  0.
         11    1    3    3    0    0 -0.12089929923E+02 -0.29768387951E+02  0.22046782440E+02  0.38966446373E+02  0.51100000000E-03 0. -1.
         22    1    1    0    0    0 -0.29634083041E+02  0.25006568492E+01  0.36378486362E+01  0.29961076500E+02  0.00000000000E+00 0.  1.
</event>
<event>
 5    1  0.6622940E-004  0.9118800E+02  0.7818608E-02  0.1130116E+00
         25   -1    0    0    0    0  0.00000000000E+00  0.00000000000E+00  0.99999998245E-14  0.12500000000E+03  0.12500000000E+03 0.  0.
        -11    1    3    3    0    0 -0.44322432089E+02  0.23754063505E+02 -0.24166297907E+02  0.55791966036E+02  0.51100000000E-03 0.  1.
         23    2    1    0    0    0 -0.21587815660E+02  0.18368495084E+02  0.79998139307E+01  0.95547794318E+02  0.90895261590E+02 0.  0.
         11    1    3    3    0    0  0.22734616429E+02 -0.53855684216E+01  0.32166111837E+02  0.39755828282E+02  0.51100000000E-03 0. -1.
         22    1    1    0    0    0  0.21587815660E+02 -0.18368495084E+02 -0.79998139307E+01  0.29452205682E+02  0.00000000000E+00 0.  1.
</event>
<event>
 5    1  0.6622940E-004  0.9118800E+02  0.7818608E-02  0.1130116E+00
         25   -1    0    0    0    0  0.00000000000E+00  0.00000000000E+00  0.99999998245E-14  0.12500000000E+03  0.12500000000E+03 0.  0.
        -11    1    3    3    0    0  0.47797662526E+02 -0.22278282510E+02  0.22828811254E+02  0.57463841136E+02  0.51100000000E-03 0.  1.
         23    2    1    0    0    0  0.89365042821E+01 -0.18127493868E+02  0.19869755414E+02  0.96657905459E+02  0.92409287222E+02 0.  0.
         11    1    3    3    0    0 -0.38861158244E+02  0.41507886420E+01 -0.29590558393E+01  0.39194064323E+02  0.51100000000E-03 0. -1.
         22    1    1    0    0    0 -0.89365042821E+01  0.18127493868E+02 -0.19869755414E+02  0.28342094541E+02  0.00000000000E+00 0.  1.
</event>
<event>
 5    1  0.6622940E-004  0.9118800E+02  0.7818608E-02  0.1130116E+00
         25   -1    0    0    0    0  0.00000000000E+00  0.00000000000E+00  0.99999998245E-14  0.12500000000E+03  0.12500000000E+03 0.  0.
        -11    1    3    3    0    0 -0.43580028466E+02  0.68394663139E+01  0.20160297310E+02  0.48501904792E+02  0.51100000000E-03 0.  1.
         23    2    1    0    0    0 -0.52719079372E+01  0.28304719583E+02  0.16337308716E+01  0.96162190782E+02  0.91736294319E+02 0.  0.
         11    1    3    3    0    0  0.38308120529E+02  0.21465253269E+02 -0.18526566438E+02  0.47660285990E+02  0.51100000000E-03 0. -1.
         22    1    1    0    0    0  0.52719079372E+01 -0.28304719583E+02 -0.16337308716E+01  0.28837809218E+02  0.00000000000E+00 0. -1.
</event>
<event>
 5    1  0.6622940E-004  0.9118800E+02  0.7818608E-02  0.1130116E+00
         25   -1    0    0    0    0  0.00000000000E+00  0.00000000000E+00  0.99999998245E-14  0.12500000000E+03  0.12500000000E+03 0.  0.
        -11    1    3    3    0    0  0.26222446305E+02  0.27281529230E+02  0.47795879519E+01  0.38141093176E+02  0.51100000000E-03 0.  1.
         23    2    1    0    0    0 -0.26525553545E+02  0.75641999594E+01 -0.87613274158E+01  0.96058974275E+02  0.91595543390E+02 0.  0.
         11    1    3    3    0    0 -0.52747999851E+02 -0.19717329271E+02 -0.13540915368E+02  0.57917881100E+02  0.51100000000E-03 0. -1.
         22    1    1    0    0    0  0.26525553545E+02 -0.75641999594E+01  0.87613274158E+01  0.28941025725E+02  0.00000000000E+00 0. -1.
</event>
<event>
 5    1  0.6622940E-004  0.9118800E+02  0.7818608E-02  0.1130116E+00
         25   -1    0    0    0    0  0.00000000000E+00  0.00000000000E+00  0.99999998245E-14  0.12500000000E+03  0.12500000000E+03 0.  0.
        -11    1    3    3    0    0 -0.37334828720E+02 -0.20392695820E+02  0.35851095085E+02  0.55633196002E+02  0.51100000000E-03 0. -1.
         23    2    1    0    0    0 -0.24149627079E-01 -0.16194161870E+02  0.25863225620E+02  0.94485120001E+02  0.89421921252E+02 0.  0.
         11    1    3    3    0    0  0.37310679093E+02  0.41985339501E+01 -0.99878694652E+01  0.38851923999E+02  0.51100000000E-03 0.  1.
         22    1    1    0    0    0  0.24149627079E-01  0.16194161870E+02 -0.25863225620E+02  0.30514879999E+02  0.00000000000E+00 0. -1.
</event>
<event>
 5    1  0.6622940E-004  0.9118800E+02  0.7818608E-02  0.1130116E+00
         25   -1    0    0    0    0  0.00000000000E+00  0.00000000000E+00  0.99999998245E-14  0.12500000000E+03  0.12500000000E+03 0.  0.
        -11    1    3    3    0    0  0.13194666823E+01 -0.41484131718E+02 -0.45539267551E+02  0.61615737162E+02  0.51100000000E-03 0.  1.
         23    2    1    0    0    0  0.23546034615E+00 -0.25563528326E+02 -0.17044800099E+02  0.94274202493E+02  0.89126598853E+02 0.  0.
         11    1    3    3    0    0 -0.10840063362E+01  0.15920603392E+02  0.28494467452E+02  0.32658465330E+02  0.51100000000E-03 0. -1.
         22    1    1    0    0    0 -0.23546034615E+00  0.25563528326E+02  0.17044800099E+02  0.30725797507E+02  0.00000000000E+00 0.  1.
</event>
<event>
 5    1  0.6622940E-004  0.9118800E+02  0.7818608E-02  0.1130116E+00
         25   -1    0    0    0    0  0.00000000000E+00  0.00000000000E+00  0.99999998245E-14  0.12500000000E+03  0.12500000000E+03 0.  0.
        -11    1    3    3    0    0 -0.62792915496E+01 -0.21020488337E+02 -0.26833691953E+02  0.34660315296E+02  0.51100000000E-03 0. -1.
         23    2    1    0    0    0 -0.14195076868E+02  0.18040846460E+02  0.18857757470E+02  0.95291628031E+02  0.90542294027E+02 0.  0.
         11    1    3    3    0    0 -0.79157853185E+01  0.39061334797E+02  0.45691449423E+02  0.60631312735E+02  0.51100000000E-03 0.  1.
         22    1    1    0    0    0  0.14195076868E+02 -0.18040846460E+02 -0.18857757470E+02  0.29708371969E+02  0.00000000000E+00 0.  1.
</event>
<event>
 5    1  0.6622940E-004  0.9118800E+02  0.7818608E-02  0.1130116E+00
         25   -1    0    0    0    0  0.00000000000E+00  0.00000000000E+00  0.99999998245E-14  0.12500000000E+03  0.12500000000E+03 0.  0.
        -11    1    3    3    0    0 -0.40844941026E+02 -0.10739783015E+02 -0.32779375249E+02  0.53461571138E+02  0.51100000000E-03 0. -1.
         23    2    1    0    0    0 -0.23892173298E+02 -0.29287991057E+02 -0.24662865791E+02  0.79868200633E+02  0.65894234636E+02 0.  0.
         11    1    3    3    0    0  0.16952767728E+02 -0.18548208042E+02  0.81165094585E+01  0.26406629495E+02  0.51100000000E-03 0.  1.
         22    1    1    0    0    0  0.23892173298E+02  0.29287991057E+02  0.24662865791E+02  0.45131799367E+02  0.00000000000E+00 0. -1.
</event>
<event>
 5    1  0.6622940E-004  0.9118800E+02  0.7818608E-02  0.1130116E+00
         25   -1    0    0    0    0  0.00000000000E+00  0.00000000000E+00  0.99999998245E-14  0.12500000000E+03  0.12500000000E+03 0.  0.
        -11    1    3    3    0    0 -0.29443348053E+02  0.29102379576E+02 -0.22283563182E+01  0.41458712157E+02  0.51100000000E-03 0.  1.
         23    2    1    0    0    0 -0.11899146582E+02 -0.16299845111E+02  0.21417524742E+02  0.95572376819E+02  0.90929061387E+02 0.  0.
         11    1    3    3    0    0  0.17544201472E+02 -0.45402224687E+02  0.23645881060E+02  0.54113664662E+02  0.51100000000E-03 0. -1.
         22    1    1    0    0    0  0.11899146582E+02  0.16299845111E+02 -0.21417524742E+02  0.29427623181E+02  0.00000000000E+00 0. -1.
</event>
<event>
 5    1  0.6622940E-004  0.9118800E+02  0.7818608E-02  0.1130116E+00
         25   -1    0    0    0    0  0.00000000000E+00  0.00000000000E+00  0.99999998245E-14  0.12500000000E+03  0.12500000000E+03 0.  0.
        -11    1    3    3    0    0  0.33430794008E+02 -0.40860252999E+02  0.32215246277E+02  0.61846587263E+02  0.51100000000E-03 0. -1.
         23    2    1    0    0    0  0.12700994925E+02 -0.24816704137E+02  0.13711799903E+02  0.93932371624E+02  0.88645884879E+02 0.  0.
         11    1    3    3    0    0 -0.20729799083E+02  0.16043548862E+02 -0.18503446374E+02  0.32085784361E+02  0.51100000000E-03 0.  1.
         22    1    1    0    0    0 -0.12700994925E+02  0.24816704137E+02 -0.13711799903E+02  0.31067628376E+02  0.00000000000E+00 0. -1.
</event>
<event>
 5    1  0.6622940E-004  0.9118800E+02  0.7818608E-02  0.1130116E+00
         25   -1    0    0    0    0  0.00000000000E+00  0.00000000000E+00  0.99999998245E-14  0.12500000000E+03  0.12500000000E+03 0.  0.
        -11    1    3    3    0    0 -0.43841466658E+02 -0.10723677529E+02 -0.33246247867E+02  0.56056975088E+02  0.51100000000E-03 0. -1.
         23    2    1    0    0    0 -0.23509339738E+02  0.14519925919E+02 -0.11610500185E+02  0.95027996094E+02  0.90177597126E+02 0.  0.
         11    1    3    3    0    0  0.20332126920E+02  0.25243603448E+02  0.21635747683E+02  0.38971021006E+02  0.51100000000E-03 0.  1.
         22    1    1    0    0    0  0.23509339738E+02 -0.14519925919E+02  0.11610500185E+02  0.29972003906E+02  0.00000000000E+00 0. -1.
</event>
<event>
 5    1  0.6622940E-004  0.9118800E+02  0.7818608E-02  0.1130116E+00
         25   -1    0    0    0    0  0.00000000000E+00  0.00000000000E+00  0.99999998245E-14  0.12500000000E+03  0.12500000000E+03 0.  0.
        -11    1    3    3    0    0  0.64990110561E+01 -0.43394537719E+02 -0.24790581224E+02  0.50397380550E+02  0.51100000000E-03 0.  1.
         23    2    1    0    0    0 -0.14730606974E+02 -0.60189725328E+00 -0.22345501239E+02  0.98229223250E+02  0.94510876689E+02 0.  0.
         11    1    3    3    0    0 -0.21229618030E+02  0.42792640466E+02  0.24450799851E+01  0.47831842701E+02  0.51100000000E-03 0. -1.
         22    1    1    0    0    0  0.14730606974E+02  0.60189725328E+00  0.22345501239E+02  0.26770776750E+02  0.00000000000E+00 0.  1.
</event>
<event>
 5    1  0.6622940E-004  0.9118800E+02  0.7818608E-02  0.1130116E+00
         25   -1    0    0    0    0  0.00000000000E+00  0.00000000000E+00  0.99999998245E-14  0.12500000000E+03  0.12500000000E+03 0.  0.
        -11    1    3    3    0    0 -0.25520490568E+02 -0.20419969641E+01  0.25258737524E+02  0.35964830210E+02  0.51100000000E-03 0.  1.
         23    2    1    0    0    0  0.26762413519E+01  0.80240552020E+01 -0.27281779457E+02  0.96437030617E+02  0.92110030150E+02 0.  0.
         11    1    3    3    0    0  0.28196731920E+02  0.10066052166E+02 -0.52540516981E+02  0.60472200407E+02  0.51100000000E-03 0. -1.
         22    1    1    0    0    0 -0.26762413519E+01 -0.80240552020E+01  0.27281779457E+02  0.28562969383E+02  0.00000000000E+00 0. -1.
</event>
<event>
 5    1  0.6622940E-004  0.9118800E+02  0.7818608E-02  0.1130116E+00
         25   -1    0    0    0    0  0.00000000000E+00  0.00000000000E+00  0.99999998245E-14  0.12500000000E+03  0.12500000000E+03 0.  0.
        -11    1    3    3    0    0  0.40764618681E+02  0.40498682551E+02 -0.88931708093E+01  0.58146245897E+02  0.51100000000E-03 0. -1.
         23    2    1    0    0    0  0.25300895751E+02  0.10360260348E+02  0.86904378971E+01  0.96312127456E+02  0.91940371241E+02 0.  0.
         11    1    3    3    0    0 -0.15463722930E+02 -0.30138422204E+02  0.17583608706E+02  0.38165881559E+02  0.51100000000E-03 0.  1.
         22    1    1    0    0    0 -0.25300895751E+02 -0.10360260348E+02 -0.86904378971E+01  0.28687872544E+02  0.00000000000E+00 0. -1.
</event>
<event>
 5    1  0.6622940E-004  0.9118800E+02  0.7818608E-02  0.1130116E+00
         25   -1    0    0    0    0  0.00000000000E+00  0.00000000000E+00  0.99999998245E-14  0.12500000000E+03  0.12500000000E+03 0.  0.
        -11    1    3    3    0    0 -0.23131170343E+02 -0.20584686406E+02 -0.13598899053E+02  0.33818787849E+02  0.51100000000E-03 0. -1.
         23    2    1    0    0    0  0.17401824279E+02  0.21347802254E+02 -0.17663768018E+02  0.92280573814E+02  0.86285244704E+02 0.  0.
         11    1    3    3    0    0  0.40532994622E+02  0.41932488660E+02 -0.40648689647E+01  0.58461785965E+02  0.51100000000E-03 0.  1.
         22    1    1    0    0    0 -0.17401824279E+02 -0.21347802254E+02  0.17663768018E+02  0.32719426186E+02  0.00000000000E+00 0.  1.
</event>
<event>
 5    1  0.6622940E-004  0.9118800E+02  0.7818608E-02  0.1130116E+00
         25   -1    0    0    0    0  0.00000000000E+00  0.00000000000E+00  0.99999998245E-14  0.12500000000E+03  0.12500000000E+03 0.  0.
        -11    1    3    3    0    0  0.84854822224E+01  0.15701297892E+02  0.27779242946E+02  0.33018487290E+02  0.51100000000E-03 0.  1.
         23    2    1    0    0    0 -0.65595268027E+01 -0.17331860000E+02 -0.23016459384E+02  0.95450411754E+02  0.90761241390E+02 0.  0.
         11    1    3    3    0    0 -0.15045009025E+02 -0.33033157892E+02 -0.50795702329E+02  0.62431924464E+02  0.51100000000E-03 0. -1.
         22    1    1    0    0    0  0.65595268027E+01  0.17331860000E+02  0.23016459384E+02  0.29549588246E+02  0.00000000000E+00 0. -1.
</event>
<event>
 5    1  0.6622940E-004  0.9118800E+02  0.7818608E-02  0.1130116E+00
         25   -1    0    0    0    0  0.00000000000E+00  0.00000000000E+00  0.99999998245E-14  0.12500000000E+03  0.12500000000E+03 0.  0.
        -11    1    3    3    0    0  0.26892001451E+02  0.16271232515E+02 -0.25991143057E+02  0.40785687039E+02  0.51100000000E-03 0.  1.
         23    2    1    0    0    0 -0.10522997617E+02 -0.23316398930E+02 -0.97179013531E+01  0.97635323049E+02  0.93722093246E+02 0.  0.
         11    1    3    3    0    0 -0.37414999068E+02 -0.39587631445E+02  0.16273241704E+02  0.56849636010E+02  0.51100000000E-03 0. -1.
         22    1    1    0    0    0  0.10522997617E+02  0.23316398930E+02  0.97179013531E+01  0.27364676951E+02  0.00000000000E+00 0. -1.
</event>
<event>
 5    1  0.6622940E-004  0.9118800E+02  0.7818608E-02  0.1130116E+00
         25   -1    0    0    0    0  0.00000000000E+00  0.00000000000E+00  0.99999998245E-14  0.12500000000E+03  0.12500000000E+03 0.  0.
        -11    1    3    3    0    0  0.43222350839E+01  0.15651839873E+02 -0.10416497445E+01  0.16271043052E+02  0.51100000000E-03 0. -1.
         23    2    1    0    0    0  0.33257965375E+02 -0.36224109167E+02  0.23484511506E+01  0.75767961969E+02  0.57593319859E+02 0.  0.
         11    1    3    3    0    0  0.28935730291E+02 -0.51875949041E+02  0.33901008951E+01  0.59496918918E+02  0.51100000000E-03 0.  1.
         22    1    1    0    0    0 -0.33257965375E+02  0.36224109167E+02 -0.23484511506E+01  0.49232038031E+02  0.00000000000E+00 0.  1.
</event>
<event>
 5    1  0.6622940E-004  0.9118800E+02  0.7818608E-02  0.1130116E+00
         25   -1    0    0    0    0  0.00000000000E+00  0.00000000000E+00  0.99999998245E-14  0.12500000000E+03  0.12500000000E+03 0.  0.
        -11    1    3    3    0    0 -0.31915477142E+01 -0.60617419314E+02  0.14421455666E+02  0.62390992017E+02  0.51100000000E-03 0.  1.
         23    2    1    0    0    0 -0.33290049127E+01 -0.25116612923E+02  0.76687301777E+01  0.98528582566E+02  0.94905983170E+02 0.  0.
         11    1    3    3    0    0 -0.13745719844E+00  0.35500806391E+02 -0.67527254881E+01  0.36137590549E+02  0.51100000000E-03 0. -1.
         22    1    1    0    0    0  0.33290049127E+01  0.25116612923E+02 -0.76687301777E+01  0.26471417434E+02  0.00000000000E+00 0.  1.
</event>
<event>
 5    1  0.6622940E-004  0.9118800E+02  0.7818608E-02  0.1130116E+00
         25   -1    0    0    0    0  0.00000000000E+00  0.00000000000E+00  0.99999998245E-14  0.12500000000E+03  0.12500000000E+03 0.  0.
        -11    1    3    3    0    0  0.28062526164E+02 -0.20066550005E+02  0.17850028297E+02  0.38843214520E+02  0.51100000000E-03 0.  1.
         23    2    1    0    0    0 -0.26504949585E+02 -0.34478280662E+01  0.10180680901E+02  0.96398494192E+02  0.92057718568E+02 0.  0.
         11    1    3    3    0    0 -0.54567475748E+02  0.16618721939E+02 -0.76693473952E+01  0.57555279672E+02  0.51100000000E-03 0. -1.
         22    1    1    0    0    0  0.26504949585E+02  0.34478280662E+01 -0.10180680901E+02  0.28601505808E+02  0.00000000000E+00 0. -1.
</event>
<event>
 5    1  0.6622940E-004  0.9118800E+02  0.7818608E-02  0.1130116E+00
         25   -1    0    0    0    0  0.00000000000E+00  0.00000000000E+00  0.99999998245E-14  0.12500000000E+03  0.12500000000E+03 0.  0.
        -11    1    3    3    0    0 -0.21844315210E+02  0.24771110496E+02 -0.46859690494E+02  0.57328985825E+02  0.51100000000E-03 0. -1.
         23    2    1    0    0    0  0.62828999004E+01  0.11241781086E+02 -0.28951180125E+02  0.93313673237E+02  0.87769119337E+02 0.  0.
         11    1    3    3    0    0  0.28127215111E+02 -0.13529329411E+02  0.17908510369E+02  0.35984687412E+02  0.51100000000E-03 0.  1.
         22    1    1    0    0    0 -0.62828999004E+01 -0.11241781086E+02  0.28951180125E+02  0.31686326763E+02  0.00000000000E+00 0. -1.
</event>
<event>
 5    1  0.6622940E-004  0.9118800E+02  0.7818608E-02  0.1130116E+00
         25   -1    0    0    0    0  0.00000000000E+00  0.00000000000E+00  0.99999998245E-14  0.12500000000E+03  0.12500000000E+03 0.  0.
        -11    1    3    3    0    0 -0.31028574278E+02  0.20124076570E+02  0.40330261441E+01  0.37202367931E+02  0.51100000000E-03 0.  1.
         23    2    1    0    0    0 -0.43583850963E+01 -0.28560450336E+02 -0.99430155485E+01  0.94445812034E+02  0.89366957029E+02 0.  0.
         11    1    3    3    0    0  0.26670189182E+02 -0.48684526907E+02 -0.13976041693E+02  0.57243444103E+02  0.51100000000E-03 0. -1.
         22    1    1    0    0    0  0.43583850963E+01  0.28560450336E+02  0.99430155485E+01  0.30554187966E+02  0.00000000000E+00 0. -1.
</event>
<event>
 5    1  0.6622940E-004  0.9118800E+02  0.7818608E-02  0.1130116E+00
         25   -1    0    0    0    0  0.00000000000E+00  0.00000000000E+00  0.99999998245E-14  0.12500000000E+03  0.12500000000E+03 0.  0.
        -11    1    3    3    0    0  0.32784323154E-01 -0.12863195323E+02  0.31032565609E+02  0.33592900995E+02  0.51100000000E-03 0. -1.
         23    2    1    0    0    0 -0.96859795863E+01  0.88631086509E+01 -0.26264528420E+02  0.95636785792E+02  0.91017561207E+02 0.  0.
         11    1    3    3    0    0 -0.97187639094E+01  0.21726303974E+02 -0.57297094029E+02  0.62043884797E+02  0.51100000000E-03 0.  1.
         22    1    1    0    0    0  0.96859795863E+01 -0.88631086509E+01  0.26264528420E+02  0.29363214208E+02  0.00000000000E+00 0.  1.
</event>
<event>
 5    1  0.6622940E-004  0.9118800E+02  0.7818608E-02  0.1130116E+00
         25   -1    0    0    0    0  0.00000000000E+00  0.00000000000E+00  0.99999998245E-14  0.12500000000E+03  0.12500000000E+03 0.  0.
        -11    1    3    3    0    0  0.39366263233E+01  0.21292271337E+01 -0.33323410051E+02  0.33622615792E+02  0.51100000000E-03 0.  1.
         23    2    1    0    0    0 -0.23656644210E+00  0.22410087347E+02  0.22548867559E+02  0.93208186482E+02  0.87618757241E+02 0.  0.
         11    1    3    3    0    0 -0.41731927654E+01  0.20280860213E+02  0.55872277610E+02  0.59585570690E+02  0.51100000000E-03 0. -1.
         22    1    1    0    0    0  0.23656644210E+00 -0.22410087347E+02 -0.22548867559E+02  0.31791813518E+02  0.00000000000E+00 0. -1.
</event>
<event>
 5    1  0.6622940E-004  0.9118800E+02  0.7818608E-02  0.1130116E+00
         25   -1    0    0    0    0  0.00000000000E+00  0.00000000000E+00  0.99999998245E-14  0.12500000000E+03  0.12500000000E+03 0.  0.
        -11    1    3    3    0    0  0.38531788982E+02  0.33303029557E+02  0.32247453448E+02  0.60280086214E+02  0.51100000000E-03 0. -1.
         23    2    1    0    0    0  0.23171964441E+02  0.13275587641E+02  0.42776382622E+01  0.97954125040E+02  0.94146328977E+02 0.  0.
         11    1    3    3    0    0 -0.15359824541E+02 -0.20027441915E+02 -0.27969815186E+02  0.37674038825E+02  0.51100000000E-03 0.  1.
         22    1    1    0    0    0 -0.23171964441E+02 -0.13275587641E+02 -0.42776382622E+01  0.27045874960E+02  0.00000000000E+00 0. -1.
</event>
<event>
 5    1  0.6622940E-004  0.9118800E+02  0.7818608E-02  0.1130116E+00
         25   -1    0    0    0    0  0.00000000000E+00  0.00000000000E+00  0.99999998245E-14  0.12500000000E+03  0.12500000000E+03 0.  0.
        -11    1    3    3    0    0 -0.27246456368E+02 -0.17718361963E+02  0.12835503706E+01  0.32526254582E+02  0.51100000000E-03 0.  1.
         23    2    1    0    0    0  0.60894364619E+01  0.29523208845E+02 -0.13137977071E+02  0.92116759003E+02  0.86047601657E+02 0.  0.
         11    1    3    3    0    0  0.33335892830E+02  0.47241570808E+02 -0.14421527442E+02  0.59590504422E+02  0.51100000000E-03 0. -1.
         22    1    1    0    0    0 -0.60894364619E+01 -0.29523208845E+02  0.13137977071E+02  0.32883240997E+02  0.00000000000E+00 0. -1.
</event>
<event>
 5    1  0.6622940E-004  0.9118800E+02  0.7818608E-02  0.1130116E+00
         25   -1    0    0    0    0  0.00000000000E+00  0.00000000000E+00  0.99999998245E-14  0.12500000000E+03  0.12500000000E+03 0.  0.
        -11    1    3    3    0    0  0.38192147039E+02 -0.16992945168E+02 -0.32632040071E+02  0.53030654535E+02  0.51100000000E-03 0.  1.
         23    2    1    0    0    0  0.27798606115E+02  0.88881838006E+01 -0.18835841409E+00  0.95814424931E+02  0.91261197849E+02 0.  0.
         11    1    3    3    0    0 -0.10393540925E+02  0.25881128968E+02  0.32443681657E+02  0.42783770397E+02  0.51100000000E-03 0. -1.
         22    1    1    0    0    0 -0.27798606115E+02 -0.88881838006E+01  0.18835841409E+00  0.29185575069E+02  0.00000000000E+00 0.  1.
</event>
<event>
 5    1  0.6622940E-004  0.9118800E+02  0.7818608E-02  0.1130116E+00
         25   -1    0    0    0    0  0.00000000000E+00  0.00000000000E+00  0.99999998245E-14  0.12500000000E+03  0.12500000000E+03 0.  0.
        -11    1    3    3    0    0  0.68783531666E+01  0.50248314534E+02  0.20278296132E+02  0.54620638500E+02  0.51100000000E-03 0. -1.
         23    2    1    0    0    0 -0.12449466212E+02  0.20510488070E+02 -0.77075532472E+01  0.99799291539E+02  0.96565122507E+02 0.  0.
         11    1    3    3    0    0 -0.19327819379E+02 -0.29737826464E+02 -0.27985849380E+02  0.45178653040E+02  0.51100000000E-03 0.  1.
         22    1    1    0    0    0  0.12449466212E+02 -0.20510488070E+02  0.77075532472E+01  0.25200708461E+02  0.00000000000E+00 0. -1.
</event>
<event>
 5    1  0.6622940E-004  0.9118800E+02  0.7818608E-02  0.1130116E+00
         25   -1    0    0    0    0  0.00000000000E+00  0.00000000000E+00  0.99999998245E-14  0.12500000000E+03  0.12500000000E+03 0.  0.
        -11    1    3    3    0    0  0.25985980125E+02  0.10091881427E+02 -0.24443920263E+02  0.37075901498E+02  0.51100000000E-03 0.  1.
         23    2    1    0    0    0  0.76586023647E+01 -0.16645436844E+02  0.23655225299E+02  0.95078528748E+02  0.90247615963E+02 0.  0.
         11    1    3    3    0    0 -0.18327377761E+02 -0.26737318272E+02  0.48099145562E+02  0.58002627250E+02  0.51100000000E-03 0. -1.
         22    1    1    0    0    0 -0.76586023647E+01  0.16645436844E+02 -0.23655225299E+02  0.29921471252E+02  0.00000000000E+00 0. -1.
</event>
<event>
 5    1  0.6622940E-004  0.9118800E+02  0.7818608E-02  0.1130116E+00
         25   -1    0    0    0    0  0.00000000000E+00  0.00000000000E+00  0.99999998245E-14  0.12500000000E+03  0.12500000000E+03 0.  0.
        -11    1    3    3    0    0  0.10776559145E+02 -0.51330703594E+02  0.74830823577E+01  0.52980863341E+02  0.51100000000E-03 0.  1.
         23    2    1    0    0    0  0.14598017297E+02 -0.10289084453E+02  0.21983460017E+02  0.96676160532E+02  0.92433977157E+02 0.  0.
         11    1    3    3    0    0  0.38214581521E+01  0.41041619141E+02  0.14500377659E+02  0.43695297191E+02  0.51100000000E-03 0. -1.
         22    1    1    0    0    0 -0.14598017297E+02  0.10289084453E+02 -0.21983460017E+02  0.28323839468E+02  0.00000000000E+00 0.  1.
</event>
<event>
 5    1  0.6622940E-004  0.9118800E+02  0.7818608E-02  0.1130116E+00
         25   -1    0    0    0    0  0.00000000000E+00  0.00000000000E+00  0.99999998245E-14  0.12500000000E+03  0.12500000000E+03 0.  0.
        -11    1    3    3    0    0 -0.36820290761E+02  0.30758198699E+02 -0.23149186486E+02  0.53269929924E+02  0.51100000000E-03 0. -1.
         23    2    1    0    0    0 -0.15869701275E+02  0.21864967402E+02  0.12234713464E+02  0.95341739235E+02  0.90611449655E+02 0.  0.
         11    1    3    3    0    0  0.20950589486E+02 -0.88932312963E+01  0.35383899950E+02  0.42071809310E+02  0.51100000000E-03 0.  1.
         22    1    1    0    0    0  0.15869701275E+02 -0.21864967402E+02 -0.12234713464E+02  0.29658260765E+02  0.00000000000E+00 0. -1.
</event>
<event>
 5    1  0.6622940E-004  0.9118800E+02  0.7818608E-02  0.1130116E+00
         25   -1    0    0    0    0  0.00000000000E+00  0.00000000000E+00  0.99999998245E-14  0.12500000000E+03  0.12500000000E+03 0.  0.
        -11    1    3    3    0    0  0.11566503155E+02  0.36588035448E+02 -0.76518869755E+01  0.39128246929E+02  0.51100000000E-03 0. -1.
         23    2    1    0    0    0 -0.26592311187E+02 -0.50331199065E+01 -0.11208987527E+02  0.95706234253E+02  0.91112889117E+02 0.  0.
         11    1    3    3    0    0 -0.38158814342E+02 -0.41621155355E+02 -0.35571005517E+01  0.56577987324E+02  0.51100000000E-03 0.  1.
         22    1    1    0    0    0  0.26592311187E+02  0.50331199065E+01  0.11208987527E+02  0.29293765747E+02  0.00000000000E+00 0.  1.
</event>
<event>
 5    1  0.6622940E-004  0.9118800E+02  0.7818608E-02  0.1130116E+00
         25   -1    0    0    0    0  0.00000000000E+00  0.00000000000E+00  0.99999998245E-14  0.12500000000E+03  0.12500000000E+03 0.  0.
        -11    1    3    3    0    0  0.17119513196E+02 -0.14758983215E+02  0.37997866666E+02  0.44212477753E+02  0.51100000000E-03 0.  1.
         23    2    1    0    0    0  0.59860619781E+01 -0.59406342348E+01 -0.19667217938E+02  0.10360085201E+03  0.10136672533E+03 0.  0.
         11    1    3    3    0    0 -0.11133451218E+02  0.88183489799E+01 -0.57665084604E+02  0.59388374261E+02  0.51100000000E-03 0. -1.
         22    1    1    0    0    0 -0.59860619781E+01  0.59406342348E+01  0.19667217938E+02  0.21399147986E+02  0.00000000000E+00 0. -1.
</event>
<event>
 5    1  0.6622940E-004  0.9118800E+02  0.7818608E-02  0.1130116E+00
         25   -1    0    0    0    0  0.00000000000E+00  0.00000000000E+00  0.99999998245E-14  0.12500000000E+03  0.12500000000E+03 0.  0.
        -11    1    3    3    0    0 -0.46311080350E+02 -0.73079376474E+01 -0.62806764357E+01  0.47302949302E+02  0.51100000000E-03 0.  1.
         23    2    1    0    0    0  0.87452542545E+01 -0.13822956776E+02  0.10899259676E+02  0.10534427647E+03  0.10349429510E+03 0.  0.
         11    1    3    3    0    0  0.55056334605E+02 -0.65150191282E+01  0.17179936112E+02  0.58041327168E+02  0.51100000000E-03 0. -1.
         22    1    1    0    0    0 -0.87452542545E+01  0.13822956776E+02 -0.10899259676E+02  0.19655723530E+02  0.00000000000E+00 0. -1.
</event>
<event>
 5    1  0.6622940E-004  0.9118800E+02  0.7818608E-02  0.1130116E+00
         25   -1    0    0    0    0  0.00000000000E+00  0.00000000000E+00  0.99999998245E-14  0.12500000000E+03  0.12500000000E+03 0.  0.
        -11    1    3    3    0    0  0.99521591770E+01  0.18798113533E+02 -0.32650622843E+02  0.38967649622E+02  0.51100000000E-03 0.  1.
         23    2    1    0    0    0  0.80936379143E+01 -0.17670005743E+02  0.16019827304E+02  0.99813278410E+02  0.96583226299E+02 0.  0.
         11    1    3    3    0    0 -0.18585212627E+01 -0.36468119276E+02  0.48670450147E+02  0.60845628788E+02  0.51100000000E-03 0. -1.
         22    1    1    0    0    0 -0.80936379143E+01  0.17670005743E+02 -0.16019827304E+02  0.25186721590E+02  0.00000000000E+00 0. -1.
</event>
<event>
 5    1  0.6622940E-004  0.9118800E+02  0.7818608E-02  0.1130116E+00
         25   -1    0    0    0    0  0.00000000000E+00  0.00000000000E+00  0.99999998245E-14  0.12500000000E+03  0.12500000000E+03 0.  0.
        -11    1    3    3    0    0 -0.33234354978E+02  0.25292257681E+02  0.74977079329E+01  0.42431548097E+02  0.51100000000E-03 0. -1.
         23    2    1    0    0    0 -0.12083421829E+02 -0.24126192065E+02  0.99473781433E+01  0.96241826230E+02  0.91844741589E+02 0.  0.
         11    1    3    3    0    0  0.21150933149E+02 -0.49418449746E+02  0.24496702104E+01  0.53810278133E+02  0.51100000000E-03 0.  1.
         22    1    1    0    0    0  0.12083421829E+02  0.24126192065E+02 -0.99473781433E+01  0.28758173770E+02  0.00000000000E+00 0.  1.
</event>
<event>
 5    1  0.6622940E-004  0.9118800E+02  0.7818608E-02  0.1130116E+00
         25   -1    0    0    0    0  0.00000000000E+00  0.00000000000E+00  0.99999998245E-14  0.12500000000E+03  0.12500000000E+03 0.  0.
        -11    1    3    3    0    0  0.40704106696E+01  0.53474640384E+02 -0.21922926522E+02  0.57937208379E+02  0.51100000000E-03 0. -1.
         23    2    1    0    0    0  0.17609568610E+02  0.27964017083E+02 -0.18783444760E+02  0.86988147176E+02  0.78243445694E+02 0.  0.
         11    1    3    3    0    0  0.13539157941E+02 -0.25510623302E+02  0.31394817617E+01  0.29050938797E+02  0.51100000000E-03 0.  1.
         22    1    1    0    0    0 -0.17609568610E+02 -0.27964017083E+02  0.18783444760E+02  0.38011852824E+02  0.00000000000E+00 0. -1.
</event>
<event>
 5    1  0.6622940E-004  0.9118800E+02  0.7818608E-02  0.1130116E+00
         25   -1    0    0    0    0  0.00000000000E+00  0.00000000000E+00  0.99999998245E-14  0.12500000000E+03  0.12500000000E+03 0.  0.
        -11    1    3    3    0    0  0.29141039840E+02 -0.17761907200E+02 -0.48980464425E+01  0.34477186799E+02  0.51100000000E-03 0. -1.
         23    2    1    0    0    0 -0.99159808948E+01  0.28298192812E+02 -0.85653565819E+00  0.95002532659E+02  0.90142293985E+02 0.  0.
         11    1    3    3    0    0 -0.39057020735E+02  0.46060100012E+02  0.40415107843E+01  0.60525345860E+02  0.51100000000E-03 0.  1.
         22    1    1    0    0    0  0.99159808948E+01 -0.28298192812E+02  0.85653565819E+00  0.29997467341E+02  0.00000000000E+00 0.  1.
</event>
<event>
 5    1  0.6622940E-004  0.9118800E+02  0.7818608E-02  0.1130116E+00
         25   -1    0    0    0    0  0.00000000000E+00  0.00000000000E+00  0.99999998245E-14  0.12500000000E+03  0.12500000000E+03 0.  0.
        -11    1    3    3    0    0 -0.11742997641E+02  0.26763430661E+02  0.21767774390E+02  0.36441943094E+02  0.51100000000E-03 0.  1.
         23    2    1    0    0    0  0.24349970599E+02 -0.10108420334E+02 -0.97345579697E+01  0.96895501273E+02  0.92730120880E+02 0.  0.
         11    1    3    3    0    0  0.36092968240E+02 -0.36871850995E+02 -0.31502332359E+02  0.60453558179E+02  0.51100000000E-03 0. -1.
         22    1    1    0    0    0 -0.24349970599E+02  0.10108420334E+02  0.97345579697E+01  0.28104498727E+02  0.00000000000E+00 0. -1.
</event>
<event>
 5    1  0.6622940E-004  0.9118800E+02  0.7818608E-02  0.1130116E+00
         25   -1    0    0    0    0  0.00000000000E+00  0.00000000000E+00  0.99999998245E-14  0.12500000000E+03  0.12500000000E+03 0.  0.
        -11    1    3    3    0    0 -0.53146355908E+02  0.94130750365E+01 -0.15577844631E+01  0.53995998191E+02  0.51100000000E-03 0. -1.
         23    2    1    0    0    0 -0.19337484363E+02 -0.30937083751E+01  0.20813672956E+02  0.96421716026E+02  0.92089244793E+02 0.  0.
         11    1    3    3    0    0  0.33808871546E+02 -0.12506783412E+02  0.22371457419E+02  0.42425717835E+02  0.51100000000E-03 0.  1.
         22    1    1    0    0    0  0.19337484363E+02  0.30937083751E+01 -0.20813672956E+02  0.28578283974E+02  0.00000000000E+00 0. -1.
</event>
<event>
 5    1  0.6622940E-004  0.9118800E+02  0.7818608E-02  0.1130116E+00
         25   -1    0    0    0    0  0.00000000000E+00  0.00000000000E+00  0.99999998245E-14  0.12500000000E+03  0.12500000000E+03 0.  0.
        -11    1    3    3    0    0  0.59978894302E+01 -0.60909100528E+02  0.65177900863E+01  0.61549774919E+02  0.51100000000E-03 0. -1.
         23    2    1    0    0    0 -0.31297757560E+00 -0.20624724999E+02  0.92013210241E+01  0.10241368678E+03  0.99892050210E+02 0.  0.
         11    1    3    3    0    0 -0.63108670058E+01  0.40284375528E+02  0.26835309378E+01  0.40863911862E+02  0.51100000000E-03 0.  1.
         22    1    1    0    0    0  0.31297757560E+00  0.20624724999E+02 -0.92013210241E+01  0.22586313219E+02  0.00000000000E+00 0. -1.
</event>
<event>
 5    1  0.6622940E-004  0.9118800E+02  0.7818608E-02  0.1130116E+00
         25   -1    0    0    0    0  0.00000000000E+00  0.00000000000E+00  0.99999998245E-14  0.12500000000E+03  0.12500000000E+03 0.  0.
        -11    1    3    3    0    0 -0.50770111322E+02  0.19043638415E+02 -0.25150461744E+02  0.59772987996E+02  0.51100000000E-03 0.  1.
         23    2    1    0    0    0 -0.19723053491E+02  0.16156299287E+01 -0.21835932518E+02  0.95531083359E+02  0.90872277619E+02 0.  0.
         11    1    3    3    0    0  0.31047057831E+02 -0.17428008486E+02  0.33145292264E+01  0.35758095363E+02  0.51100000000E-03 0. -1.
         22    1    1    0    0    0  0.19723053491E+02 -0.16156299287E+01  0.21835932518E+02  0.29468916641E+02  0.00000000000E+00 0.  1.
</event>
<event>
 5    1  0.6622940E-004  0.9118800E+02  0.7818608E-02  0.1130116E+00
         25   -1    0    0    0    0  0.00000000000E+00  0.00000000000E+00  0.99999998245E-14  0.12500000000E+03  0.12500000000E+03 0.  0.
        -11    1    3    3    0    0 -0.39082494716E+02 -0.12551590116E+02 -0.46489952183E+02  0.62018541275E+02  0.51100000000E-03 0. -1.
         23    2    1    0    0    0 -0.16154224479E+02 -0.74560543415E+01 -0.27611507800E+02  0.92152670156E+02  0.86099753420E+02 0.  0.
         11    1    3    3    0    0  0.22928270236E+02  0.50955357747E+01  0.18878444383E+02  0.30134128881E+02  0.51100000000E-03 0.  1.
         22    1    1    0    0    0  0.16154224479E+02  0.74560543415E+01  0.27611507800E+02  0.32847329844E+02  0.00000000000E+00 0. -1.
</event>
<event>
 5    1  0.6622940E-004  0.9118800E+02  0.7818608E-02  0.1130116E+00
         25   -1    0    0    0    0  0.00000000000E+00  0.00000000000E+00  0.99999998245E-14  0.12500000000E+03  0.12500000000E+03 0.  0.
        -11    1    3    3    0    0 -0.43065918406E+02  0.22893291960E+02 -0.20409687482E+01  0.48815383832E+02  0.51100000000E-03 0.  1.
         23    2    1    0    0    0 -0.32892852556E+01  0.19299721083E+02 -0.23708329515E+02  0.94252910386E+02  0.89096731682E+02 0.  0.
         11    1    3    3    0    0  0.39776633151E+02 -0.35935708771E+01 -0.21667360766E+02  0.45437526554E+02  0.51100000000E-03 0. -1.
         22    1    1    0    0    0  0.32892852556E+01 -0.19299721083E+02  0.23708329515E+02  0.30747089614E+02  0.00000000000E+00 0.  1.
</event>
<event>
 4    1  0.6622940E-004  0.9118800E+02  0.7818608E-02  0.1130116E+00
         25   -1    0    0    0    0  0.00000000000E+00  0.00000000000E+00  0.99999998245E-14  0.12500000000E+03  0.12500000000E+03 0.  0.
        -11    1    1    0    0    0  0.69871579776E+01 -0.52558932260E+02 -0.32363587783E+02  0.62118141886E+02  0.51100000000E-03 0. -1.
         11    1    1    0    0    0 -0.30287015041E+01  0.97203771422E+01  0.24171202908E+01  0.10464283795E+02  0.51100000000E-03 0.  1.
         22    1    1    0    0    0 -0.39584564735E+01  0.42838555117E+02  0.29946467493E+02  0.52417574319E+02  0.00000000000E+00 0. -1.
</event>
<event>
 5    1  0.6622940E-004  0.9118800E+02  0.7818608E-02  0.1130116E+00
         25   -1    0    0    0    0  0.00000000000E+00  0.00000000000E+00  0.99999998245E-14  0.12500000000E+03  0.12500000000E+03 0.  0.
        -11    1    3    3    0    0  0.40065434879E+02  0.54431938687E+01 -0.14737288759E+02  0.43035509893E+02  0.51100000000E-03 0.  1.
         23    2    1    0    0    0 -0.10125389083E+02 -0.49290627739E+01 -0.27010493274E+02  0.95735927987E+02  0.91153617573E+02 0.  0.
         11    1    3    3    0    0 -0.50190823962E+02 -0.10372256643E+02 -0.12273204515E+02  0.52700418093E+02  0.51100000000E-03 0. -1.
         22    1    1    0    0    0  0.10125389083E+02  0.49290627739E+01  0.27010493274E+02  0.29264072013E+02  0.00000000000E+00 0. -1.
</event>
<event>
 5    1  0.6622940E-004  0.9118800E+02  0.7818608E-02  0.1130116E+00
         25   -1    0    0    0    0  0.00000000000E+00  0.00000000000E+00  0.99999998245E-14  0.12500000000E+03  0.12500000000E+03 0.  0.
        -11    1    3    3    0    0  0.44852604225E+02  0.28654461044E+02  0.26924455502E+02  0.59646965957E+02  0.51100000000E-03 0. -1.
         23    2    1    0    0    0  0.27360588226E+02  0.12892830631E+02  0.90230649524E+00  0.94740439085E+02  0.89778114099E+02 0.  0.
         11    1    3    3    0    0 -0.17492015998E+02 -0.15761630414E+02 -0.26022149007E+02  0.35093473128E+02  0.51100000000E-03 0.  1.
         22    1    1    0    0    0 -0.27360588226E+02 -0.12892830631E+02 -0.90230649524E+00  0.30259560915E+02  0.00000000000E+00 0. -1.
</event>
<event>
 5    1  0.6622940E-004  0.9118800E+02  0.7818608E-02  0.1130116E+00
         25   -1    0    0    0    0  0.00000000000E+00  0.00000000000E+00  0.99999998245E-14  0.12500000000E+03  0.12500000000E+03 0.  0.
        -11    1    3    3    0    0  0.10580556916E+02  0.48883320652E+01 -0.36187199859E+02  0.38017856448E+02  0.51100000000E-03 0.  1.
         23    2    1    0    0    0 -0.16667503818E+02  0.17920745281E+02  0.14156306152E+02  0.96727048282E+02  0.92502767907E+02 0.  0.
         11    1    3    3    0    0 -0.27248060735E+02  0.13032413216E+02  0.50343506011E+02  0.58709191834E+02  0.51100000000E-03 0. -1.
         22    1    1    0    0    0  0.16667503818E+02 -0.17920745281E+02 -0.14156306152E+02  0.28272951718E+02  0.00000000000E+00 0. -1.
</event>
<event>
 5    1  0.6622940E-004  0.9118800E+02  0.7818608E-02  0.1130116E+00
         25   -1    0    0    0    0  0.00000000000E+00  0.00000000000E+00  0.99999998245E-14  0.12500000000E+03  0.12500000000E+03 0.  0.
        -11    1    3    3    0    0  0.51251869225E+02  0.17319714068E+02 -0.98354903180E+01  0.54986029721E+02  0.51100000000E-03 0. -1.
         23    2    1    0    0    0  0.18189537977E+02  0.17455994184E+02  0.14387902641E+02  0.95972723738E+02  0.91477761968E+02 0.  0.
         11    1    3    3    0    0 -0.33062331248E+02  0.13628011575E+00  0.24223392959E+02  0.40986694017E+02  0.51100000000E-03 0.  1.
         22    1    1    0    0    0 -0.18189537977E+02 -0.17455994184E+02 -0.14387902641E+02  0.29027276262E+02  0.00000000000E+00 0. -1.
</event>
<event>
 5    1  0.6622940E-004  0.9118800E+02  0.7818608E-02  0.1130116E+00
         25   -1    0    0    0    0  0.00000000000E+00  0.00000000000E+00  0.99999998245E-14  0.12500000000E+03  0.12500000000E+03 0.  0.
        -11    1    3    3    0    0 -0.27204926283E+02  0.47426586641E+02 -0.74362485384E+01  0.55178681817E+02  0.51100000000E-03 0. -1.
         23    2    1    0    0    0 -0.27287850938E+02  0.60247005463E+01 -0.46130158649E+01  0.96676798542E+02  0.92434839944E+02 0.  0.
         11    1    3    3    0    0 -0.82924655421E-01 -0.41401886095E+02  0.28232326736E+01  0.41498116725E+02  0.51100000000E-03 0.  1.
         22    1    1    0    0    0  0.27287850938E+02 -0.60247005463E+01  0.46130158649E+01  0.28323201458E+02  0.00000000000E+00 0. -1.
</event>
<event>
 5    1  0.6622940E-004  0.9118800E+02  0.7818608E-02  0.1130116E+00
         25   -1    0    0    0    0  0.00000000000E+00  0.00000000000E+00  0.99999998245E-14  0.12500000000E+03  0.12500000000E+03 0.  0.
        -11    1    3    3    0    0  0.16587284214E+02 -0.36464559491E+02  0.47100572242E+02  0.61832564254E+02  0.51100000000E-03 0.  1.
         23    2    1    0    0    0  0.52605476250E+01 -0.22557146196E+02  0.19640361893E+02  0.94631562090E+02  0.89626394117E+02 0.  0.
         11    1    3    3    0    0 -0.11326736588E+02  0.13907413295E+02 -0.27460210349E+02  0.32798997835E+02  0.51100000000E-03 0. -1.
         22    1    1    0    0    0 -0.52605476250E+01  0.22557146196E+02 -0.19640361893E+02  0.30368437910E+02  0.00000000000E+00 0.  1.
</event>
<event>
 5    1  0.6622940E-004  0.9118800E+02  0.7818608E-02  0.1130116E+00
         25   -1    0    0    0    0  0.00000000000E+00  0.00000000000E+00  0.99999998245E-14  0.12500000000E+03  0.12500000000E+03 0.  0.
        -11    1    3    3    0    0 -0.53605980620E+02  0.21475239877E+02  0.73376325256E+01  0.58211922640E+02  0.51100000000E-03 0.  1.
         23    2    1    0    0    0 -0.17140698062E+02  0.21162735238E+02  0.12486780196E+02  0.95040284173E+02  0.90194628682E+02 0.  0.
         11    1    3    3    0    0  0.36465282558E+02 -0.31250463961E+00  0.51491476706E+01  0.36828361533E+02  0.51100000000E-03 0. -1.
         22    1    1    0    0    0  0.17140698062E+02 -0.21162735238E+02 -0.12486780196E+02  0.29959715827E+02  0.00000000000E+00 0.  1.
</event>
<event>
 5    1  0.6622940E-004  0.9118800E+02  0.7818608E-02  0.1130116E+00
         25   -1    0    0    0    0  0.00000000000E+00  0.00000000000E+00  0.99999998245E-14  0.12500000000E+03  0.12500000000E+03 0.  0.
        -11    1    3    3    0    0 -0.62022265545E+01  0.29842849078E+02  0.40551727932E+02  0.50729733824E+02  0.51100000000E-03 0. -1.
         23    2    1    0    0    0 -0.20983020554E+02  0.26987785517E+02  0.36054900249E+01  0.90625194153E+02  0.83852838583E+02 0.  0.
         11    1    3    3    0    0 -0.14780793999E+02 -0.28550635611E+01 -0.36946237907E+02  0.39895460330E+02  0.51100000000E-03 0.  1.
         22    1    1    0    0    0  0.20983020554E+02 -0.26987785517E+02 -0.36054900249E+01  0.34374805847E+02  0.00000000000E+00 0. -1.
</event>
<event>
 5    1  0.6622940E-004  0.9118800E+02  0.7818608E-02  0.1130116E+00
         25   -1    0    0    0    0  0.00000000000E+00  0.00000000000E+00  0.99999998245E-14  0.12500000000E+03  0.12500000000E+03 0.  0.
        -11    1    3    3    0    0 -0.24302605567E+02  0.21328146435E+02  0.49605948910E+01  0.32712596498E+02  0.51100000000E-03 0.  1.
         23    2    1    0    0    0  0.18425471313E+02 -0.21914961271E+02  0.12088891360E+02  0.93920990766E+02  0.88629835222E+02 0.  0.
         11    1    3    3    0    0  0.42728076881E+02 -0.43243107706E+02  0.71282964691E+01  0.61208394268E+02  0.51100000000E-03 0. -1.
         22    1    1    0    0    0 -0.18425471313E+02  0.21914961271E+02 -0.12088891360E+02  0.31079009234E+02  0.00000000000E+00 0. -1.
</event>
<event>
 5    1  0.6622940E-004  0.9118800E+02  0.7818608E-02  0.1130116E+00
         25   -1    0    0    0    0  0.00000000000E+00  0.00000000000E+00  0.99999998245E-14  0.12500000000E+03  0.12500000000E+03 0.  0.
        -11    1    3    3    0    0  0.36127282825E+02 -0.13107278607E+02 -0.14172386304E+02  0.40961419050E+02  0.51100000000E-03 0. -1.
         23    2    1    0    0    0 -0.16148528701E+02  0.10455100357E-01 -0.24321939110E+02  0.95805277693E+02  0.91248668062E+02 0.  0.
         11    1    3    3    0    0 -0.52275811526E+02  0.13117733708E+02 -0.10149552806E+02  0.54843858642E+02  0.51100000000E-03 0.  1.
         22    1    1    0    0    0  0.16148528701E+02 -0.10455100357E-01  0.24321939110E+02  0.29194722307E+02  0.00000000000E+00 0.  1.
</event>
<event>
 5    1  0.6622940E-004  0.9118800E+02  0.7818608E-02  0.1130116E+00
         25   -1    0    0    0    0  0.00000000000E+00  0.00000000000E+00  0.99999998245E-14  0.12500000000E+03  0.12500000000E+03 0.  0.
        -11    1    3    3    0    0  0.15012078614E+02 -0.84811228208E+01  0.43501735037E+02  0.46794154551E+02  0.51100000000E-03 0. -1.
         23    2    1    0    0    0  0.28750380047E+02 -0.37332075588E+01 -0.33186203363E+01  0.95818937092E+02  0.91267377923E+02 0.  0.
         11    1    3    3    0    0  0.13738301433E+02  0.47479152621E+01 -0.46820355374E+02  0.49024782541E+02  0.51100000000E-03 0.  1.
         22    1    1    0    0    0 -0.28750380047E+02  0.37332075588E+01  0.33186203363E+01  0.29181062908E+02  0.00000000000E+00 0.  1.
</event>
<event>
 5    1  0.6622940E-004  0.9118800E+02  0.7818608E-02  0.1130116E+00
         25   -1    0    0    0    0  0.00000000000E+00  0.00000000000E+00  0.99999998245E-14  0.12500000000E+03  0.12500000000E+03 0.  0.
        -11    1    3    3    0    0 -0.37934613197E+02 -0.24181335020E+02  0.45192886781E+01  0.45212783725E+02  0.51100000000E-03 0.  1.
         23    2    1    0    0    0 -0.13721272753E+02  0.98826967533E+01 -0.23878228535E+02  0.95740628526E+02  0.91160063249E+02 0.  0.
         11    1    3    3    0    0  0.24213340444E+02  0.34064031773E+02 -0.28397517214E+02  0.50527844801E+02  0.51100000000E-03 0. -1.
         22    1    1    0    0    0  0.13721272753E+02 -0.98826967533E+01  0.23878228535E+02  0.29259371474E+02  0.00000000000E+00 0. -1.
</event>
<event>
 5    1  0.6622940E-004  0.9118800E+02  0.7818608E-02  0.1130116E+00
         25   -1    0    0    0    0  0.00000000000E+00  0.00000000000E+00  0.99999998245E-14  0.12500000000E+03  0.12500000000E+03 0.  0.
        -11    1    3    3    0    0  0.81608623136E-01  0.51166149660E+02  0.80125335531E+01  0.51789788812E+02  0.51100000000E-03 0.  1.
         23    2    1    0    0    0  0.24855148239E+02  0.25111392732E+02  0.11331825184E+02  0.87895139120E+02  0.79679261919E+02 0.  0.
         11    1    3    3    0    0  0.24773539616E+02 -0.26054756928E+02  0.33192916307E+01  0.36105350308E+02  0.51100000000E-03 0. -1.
         22    1    1    0    0    0 -0.24855148239E+02 -0.25111392732E+02 -0.11331825184E+02  0.37104860880E+02  0.00000000000E+00 0.  1.
</event>
<event>
 5    1  0.6622940E-004  0.9118800E+02  0.7818608E-02  0.1130116E+00
         25   -1    0    0    0    0  0.00000000000E+00  0.00000000000E+00  0.99999998245E-14  0.12500000000E+03  0.12500000000E+03 0.  0.
        -11    1    3    3    0    0  0.81781583142E+01 -0.49866197496E+02  0.45802824668E+01  0.50739520237E+02  0.51100000000E-03 0.  1.
         23    2    1    0    0    0 -0.23256023705E+02 -0.18570575364E+02  0.20670512295E+01  0.95167440460E+02  0.90370681723E+02 0.  0.
         11    1    3    3    0    0 -0.31434182019E+02  0.31295622132E+02 -0.25132312374E+01  0.44427920223E+02  0.51100000000E-03 0. -1.
         22    1    1    0    0    0  0.23256023705E+02  0.18570575364E+02 -0.20670512295E+01  0.29832559540E+02  0.00000000000E+00 0. -1.
</event>
<event>
 5    1  0.6622940E-004  0.9118800E+02  0.7818608E-02  0.1130116E+00
         25   -1    0    0    0    0  0.00000000000E+00  0.00000000000E+00  0.99999998245E-14  0.12500000000E+03  0.12500000000E+03 0.  0.
        -11    1    3    3    0    0  0.51658502893E+02 -0.28101099393E+01 -0.64007980595E+01  0.52129337758E+02  0.51100000000E-03 0.  1.
         23    2    1    0    0    0  0.20438927280E+02  0.45669690368E+01  0.21747949086E+02  0.94807612814E+02  0.89871592862E+02 0.  0.
         11    1    3    3    0    0 -0.31219575613E+02  0.73770789760E+01  0.28148747145E+02  0.42678275057E+02  0.51100000000E-03 0. -1.
         22    1    1    0    0    0 -0.20438927280E+02 -0.45669690368E+01 -0.21747949086E+02  0.30192387186E+02  0.00000000000E+00 0.  1.
</event>
<event>
 5    1  0.6622940E-004  0.9118800E+02  0.7818608E-02  0.1130116E+00
         25   -1    0    0    0    0  0.00000000000E+00  0.00000000000E+00  0.99999998245E-14  0.12500000000E+03  0.12500000000E+03 0.  0.
        -11    1    3    3    0    0  0.99273827065E+01 -0.38271706377E+02  0.63492041431E+01  0.40044835246E+02  0.51100000000E-03 0. -1.
         23    2    1    0    0    0  0.17001669666E+02  0.10094792410E+02  0.25662980710E+02  0.92603238060E+02  0.86751423707E+02 0.  0.
         11    1    3    3    0    0  0.70742869593E+01  0.48366498787E+02  0.19313776567E+02  0.52558402814E+02  0.51100000000E-03 0.  1.
         22    1    1    0    0    0 -0.17001669666E+02 -0.10094792410E+02 -0.25662980710E+02  0.32396761940E+02  0.00000000000E+00 0.  1.
</event>
<event>
 5    1  0.6622940E-004  0.9118800E+02  0.7818608E-02  0.1130116E+00
         25   -1    0    0    0    0  0.00000000000E+00  0.00000000000E+00  0.99999998245E-14  0.12500000000E+03  0.12500000000E+03 0.  0.
        -11    1    3    3    0    0 -0.27454592235E+02 -0.43650963708E+02 -0.98900007352E+01  0.52506888903E+02  0.51100000000E-03 0.  1.
         23    2    1    0    0    0 -0.41262126562E+02 -0.23803358554E+02 -0.63325810635E+01  0.76945192230E+02  0.60094076727E+02 0.  0.
         11    1    3    3    0    0 -0.13807534326E+02  0.19847605154E+02  0.35574196716E+01  0.24438303327E+02  0.51100000000E-03 0. -1.
         22    1    1    0    0    0  0.41262126562E+02  0.23803358554E+02  0.63325810635E+01  0.48054807770E+02  0.00000000000E+00 0.  1.
</event>
<event>
 5    1  0.6622940E-004  0.9118800E+02  0.7818608E-02  0.1130116E+00
         25   -1    0    0    0    0  0.00000000000E+00  0.00000000000E+00  0.99999998245E-14  0.12500000000E+03  0.12500000000E+03 0.  0.
        -11    1    3    3    0    0  0.13779533662E+02 -0.25673220476E+02  0.20690144192E+02  0.35736142272E+02  0.51100000000E-03 0. -1.
         23    2    1    0    0    0  0.99504442032E+01  0.23236901839E+02 -0.14264895037E+02  0.95974973259E+02  0.91480835779E+02 0.  0.
         11    1    3    3    0    0 -0.38290894592E+01  0.48910122314E+02 -0.34955039229E+02  0.60238830987E+02  0.51100000000E-03 0.  1.
         22    1    1    0    0    0 -0.99504442032E+01 -0.23236901839E+02  0.14264895037E+02  0.29025026741E+02  0.00000000000E+00 0.  1.
</event>
<event>
 5    1  0.6622940E-004  0.9118800E+02  0.7818608E-02  0.1130116E+00
         25   -1    0    0    0    0  0.00000000000E+00  0.00000000000E+00  0.99999998245E-14  0.12500000000E+03  0.12500000000E+03 0.  0.
        -11    1    3    3    0    0  0.22164640416E+01  0.22724278050E+02 -0.15252669835E+02  0.27458140198E+02  0.51100000000E-03 0. -1.
         23    2    1    0    0    0  0.31319716506E+02 -0.23344656402E+02  0.50562714568E+01  0.85611378476E+02  0.76012134682E+02 0.  0.
         11    1    3    3    0    0  0.29103252464E+02 -0.46068934453E+02  0.20308941292E+02  0.58153238278E+02  0.51100000000E-03 0.  1.
         22    1    1    0    0    0 -0.31319716506E+02  0.23344656402E+02 -0.50562714568E+01  0.39388621524E+02  0.00000000000E+00 0.  1.
</event>
<event>
 5    1  0.6622940E-004  0.9118800E+02  0.7818608E-02  0.1130116E+00
         25   -1    0    0    0    0  0.00000000000E+00  0.00000000000E+00  0.99999998245E-14  0.12500000000E+03  0.12500000000E+03 0.  0.
        -11    1    3    3    0    0  0.81077170468E+01  0.32613598688E+02 -0.19076454919E+02  0.38643149815E+02  0.51100000000E-03 0. -1.
         23    2    1    0    0    0  0.11137398645E+02 -0.23244063600E+02 -0.15990771872E+02  0.94667955455E+02  0.89677136795E+02 0.  0.
         11    1    3    3    0    0  0.30296815983E+01 -0.55857662288E+02  0.30856830468E+01  0.56024805640E+02  0.51100000000E-03 0.  1.
         22    1    1    0    0    0 -0.11137398645E+02  0.23244063600E+02  0.15990771872E+02  0.30332044545E+02  0.00000000000E+00 0.  1.
</event>
<event>
 5    1  0.6622940E-004  0.9118800E+02  0.7818608E-02  0.1130116E+00
         25   -1    0    0    0    0  0.00000000000E+00  0.00000000000E+00  0.99999998245E-14  0.12500000000E+03  0.12500000000E+03 0.  0.
        -11    1    3    3    0    0 -0.84088928111E+01 -0.31929293454E+02  0.29756924428E+01  0.33151832597E+02  0.51100000000E-03 0. -1.
         23    2    1    0    0    0  0.28674599306E+00  0.29595891015E+02 -0.66757096005E+00  0.95395192296E+02  0.90685159061E+02 0.  0.
         11    1    3    3    0    0  0.86956388042E+01  0.61525184469E+02 -0.36432634028E+01  0.62243359699E+02  0.51100000000E-03 0.  1.
         22    1    1    0    0    0 -0.28674599306E+00 -0.29595891015E+02  0.66757096005E+00  0.29604807704E+02  0.00000000000E+00 0.  1.
</event>
<event>
 5    1  0.6622940E-004  0.9118800E+02  0.7818608E-02  0.1130116E+00
         25   -1    0    0    0    0  0.00000000000E+00  0.00000000000E+00  0.99999998245E-14  0.12500000000E+03  0.12500000000E+03 0.  0.
        -11    1    3    3    0    0 -0.21577922865E-02 -0.35854620592E+02 -0.10826945593E+02  0.37453659014E+02  0.51100000000E-03 0.  1.
         23    2    1    0    0    0 -0.35716009541E+02 -0.19034081682E+01  0.42419481602E+01  0.88982637182E+02  0.81367433875E+02 0.  0.
         11    1    3    3    0    0 -0.35713851749E+02  0.33951212424E+02  0.15068893753E+02  0.51528978167E+02  0.51100000000E-03 0. -1.
         22    1    1    0    0    0  0.35716009541E+02  0.19034081682E+01 -0.42419481602E+01  0.36017362818E+02  0.00000000000E+00 0.  1.
</event>
<event>
 5    1  0.6622940E-004  0.9118800E+02  0.7818608E-02  0.1130116E+00
         25   -1    0    0    0    0  0.00000000000E+00  0.00000000000E+00  0.99999998245E-14  0.12500000000E+03  0.12500000000E+03 0.  0.
        -11    1    3    3    0    0  0.82210877055E+01 -0.49985504225E+02  0.73100482053E+00  0.50662326081E+02  0.51100000000E-03 0.  1.
         23    2    1    0    0    0  0.12344293161E+01 -0.81122674278E+01  0.24393240132E+02  0.99263588776E+02  0.95869167066E+02 0.  0.
         11    1    3    3    0    0 -0.69866583894E+01  0.41873236797E+02  0.23662235312E+02  0.48601262695E+02  0.51100000000E-03 0. -1.
         22    1    1    0    0    0 -0.12344293161E+01  0.81122674278E+01 -0.24393240132E+02  0.25736411224E+02  0.00000000000E+00 0.  1.
</event>
<event>
 5    1  0.6622940E-004  0.9118800E+02  0.7818608E-02  0.1130116E+00
         25   -1    0    0    0    0  0.00000000000E+00  0.00000000000E+00  0.99999998245E-14  0.12500000000E+03  0.12500000000E+03 0.  0.
        -11    1    3    3    0    0  0.17124275113E+02  0.42970240924E+02 -0.38040279835E+02  0.59889442253E+02  0.51100000000E-03 0.  1.
         23    2    1    0    0    0  0.55546209552E+01  0.29337359402E+02 -0.93204097734E+01  0.93720541741E+02  0.88346677556E+02 0.  0.
         11    1    3    3    0    0 -0.11569654158E+02 -0.13632881522E+02  0.28719870062E+02  0.33831099488E+02  0.51100000000E-03 0. -1.
         22    1    1    0    0    0 -0.55546209552E+01 -0.29337359402E+02  0.93204097734E+01  0.31279458259E+02  0.00000000000E+00 0.  1.
</event>
<event>
 5    1  0.6622940E-004  0.9118800E+02  0.7818608E-02  0.1130116E+00
         25   -1    0    0    0    0  0.00000000000E+00  0.00000000000E+00  0.99999998245E-14  0.12500000000E+03  0.12500000000E+03 0.  0.
        -11    1    3    3    0    0  0.11628492592E+02 -0.46715556999E+02  0.95444151478E+01  0.49078110869E+02  0.51100000000E-03 0. -1.
         23    2    1    0    0    0  0.14011882108E+02 -0.11824122404E+02 -0.22129607593E+02  0.96262180962E+02  0.91872440048E+02 0.  0.
         11    1    3    3    0    0  0.23833895164E+01  0.34891434595E+02 -0.31674022741E+02  0.47184070093E+02  0.51100000000E-03 0.  1.
         22    1    1    0    0    0 -0.14011882108E+02  0.11824122404E+02  0.22129607593E+02  0.28737819038E+02  0.00000000000E+00 0.  1.
</event>
<event>
 5    1  0.6622940E-004  0.9118800E+02  0.7818608E-02  0.1130116E+00
         25   -1    0    0    0    0  0.00000000000E+00  0.00000000000E+00  0.99999998245E-14  0.12500000000E+03  0.12500000000E+03 0.  0.
        -11    1    3    3    0    0 -0.57186910846E+01 -0.11834549230E+02  0.32389812418E+02  0.34955113102E+02  0.51100000000E-03 0.  1.
         23    2    1    0    0    0  0.15964356013E+02 -0.78293504307E+01 -0.23785550097E+02  0.95303000413E+02  0.90557993038E+02 0.  0.
         11    1    3    3    0    0  0.21683047098E+02  0.40051987996E+01 -0.56175362515E+02  0.60347887311E+02  0.51100000000E-03 0. -1.
         22    1    1    0    0    0 -0.15964356013E+02  0.78293504307E+01  0.23785550097E+02  0.29696999587E+02  0.00000000000E+00 0. -1.
</event>
<event>
 5    1  0.6622940E-004  0.9118800E+02  0.7818608E-02  0.1130116E+00
         25   -1    0    0    0    0  0.00000000000E+00  0.00000000000E+00  0.99999998245E-14  0.12500000000E+03  0.12500000000E+03 0.  0.
        -11    1    3    3    0    0 -0.76228264055E+01 -0.19776934036E+02 -0.27632396445E+02  0.34825047535E+02  0.51100000000E-03 0. -1.
         23    2    1    0    0    0  0.16427566345E+02  0.86467011144E+01  0.21578858753E+02  0.96534625925E+02  0.92242378987E+02 0.  0.
         11    1    3    3    0    0  0.24050392750E+02  0.28423635151E+02  0.49211255198E+02  0.61709578389E+02  0.51100000000E-03 0.  1.
         22    1    1    0    0    0 -0.16427566345E+02 -0.86467011144E+01 -0.21578858753E+02  0.28465374075E+02  0.00000000000E+00 0.  1.
</event>
<event>
 5    1  0.6622940E-004  0.9118800E+02  0.7818608E-02  0.1130116E+00
         25   -1    0    0    0    0  0.00000000000E+00  0.00000000000E+00  0.99999998245E-14  0.12500000000E+03  0.12500000000E+03 0.  0.
        -11    1    3    3    0    0  0.59539473516E+02  0.20826988043E+01 -0.62226674853E+01  0.59899984405E+02  0.51100000000E-03 0.  1.
         23    2    1    0    0    0  0.22807542707E+02  0.13209732011E+02 -0.11040093646E+01  0.98620086034E+02  0.95026425317E+02 0.  0.
         11    1    3    3    0    0 -0.36731930809E+02  0.11127033207E+02  0.51186581206E+01  0.38720101629E+02  0.51100000000E-03 0. -1.
         22    1    1    0    0    0 -0.22807542707E+02 -0.13209732011E+02  0.11040093646E+01  0.26379913966E+02  0.00000000000E+00 0.  1.
</event>
<event>
 5    1  0.6622940E-004  0.9118800E+02  0.7818608E-02  0.1130116E+00
         25   -1    0    0    0    0  0.00000000000E+00  0.00000000000E+00  0.99999998245E-14  0.12500000000E+03  0.12500000000E+03 0.  0.
        -11    1    3    3    0    0 -0.38881746070E+02  0.16229026228E+02  0.17394492208E+02  0.45582231508E+02  0.51100000000E-03 0.  1.
         23    2    1    0    0    0  0.84992310683E+01  0.51706312463E+01  0.27918664370E+02  0.95361778454E+02  0.90639089875E+02 0.  0.
         11    1    3    3    0    0  0.47380977139E+02 -0.11058394982E+02  0.10524172162E+02  0.49779546946E+02  0.51100000000E-03 0. -1.
         22    1    1    0    0    0 -0.84992310683E+01 -0.51706312463E+01 -0.27918664370E+02  0.29638221546E+02  0.00000000000E+00 0. -1.
</event>
<event>
 5    1  0.6622940E-004  0.9118800E+02  0.7818608E-02  0.1130116E+00
         25   -1    0    0    0    0  0.00000000000E+00  0.00000000000E+00  0.99999998245E-14  0.12500000000E+03  0.12500000000E+03 0.  0.
        -11    1    3    3    0    0 -0.49200050176E+02 -0.20503037950E+02 -0.22523520857E+01  0.53348782486E+02  0.51100000000E-03 0. -1.
         23    2    1    0    0    0 -0.23826833389E+02  0.11418436098E+02 -0.13049989749E+02  0.95531357264E+02  0.90872654391E+02 0.  0.
         11    1    3    3    0    0  0.25373216787E+02  0.31921474048E+02 -0.10797637663E+02  0.42182574778E+02  0.51100000000E-03 0.  1.
         22    1    1    0    0    0  0.23826833389E+02 -0.11418436098E+02  0.13049989749E+02  0.29468642736E+02  0.00000000000E+00 0. -1.
</event>
<event>
 5    1  0.6622940E-004  0.9118800E+02  0.7818608E-02  0.1130116E+00
         25   -1    0    0    0    0  0.00000000000E+00  0.00000000000E+00  0.99999998245E-14  0.12500000000E+03  0.12500000000E+03 0.  0.
        -11    1    3    3    0    0  0.16983152084E+02 -0.11507091996E+02  0.32481976337E+02  0.38417696546E+02  0.51100000000E-03 0. -1.
         23    2    1    0    0    0  0.38364883274E+01 -0.15138067793E+01 -0.25737634556E+02  0.98934005176E+02  0.95438468627E+02 0.  0.
         11    1    3    3    0    0 -0.13146663757E+02  0.99932852167E+01 -0.58219610893E+02  0.60516308629E+02  0.51100000000E-03 0.  1.
         22    1    1    0    0    0 -0.38364883274E+01  0.15138067793E+01  0.25737634556E+02  0.26065994824E+02  0.00000000000E+00 0.  1.
</event>
<event>
 5    1  0.6622940E-004  0.9118800E+02  0.7818608E-02  0.1130116E+00
         25   -1    0    0    0    0  0.00000000000E+00  0.00000000000E+00  0.99999998245E-14  0.12500000000E+03  0.12500000000E+03 0.  0.
        -11    1    3    3    0    0  0.78789169270E+01 -0.20594381306E+02 -0.58030748210E+02  0.62078769409E+02  0.51100000000E-03 0. -1.
         23    2    1    0    0    0 -0.10157244038E+01 -0.79463906986E+01 -0.28272823424E+02  0.95614129831E+02  0.90986441066E+02 0.  0.
         11    1    3    3    0    0 -0.88946413308E+01  0.12647990607E+02  0.29757924786E+02  0.33535360422E+02  0.51100000000E-03 0.  1.
         22    1    1    0    0    0  0.10157244038E+01  0.79463906986E+01  0.28272823424E+02  0.29385870169E+02  0.00000000000E+00 0. -1.
</event>
<event>
 5    1  0.6622940E-004  0.9118800E+02  0.7818608E-02  0.1130116E+00
         25   -1    0    0    0    0  0.00000000000E+00  0.00000000000E+00  0.99999998245E-14  0.12500000000E+03  0.12500000000E+03 0.  0.
        -11    1    3    3    0    0 -0.13634435421E+02 -0.21899695361E+02 -0.49008596232E+02  0.55383544406E+02  0.51100000000E-03 0.  1.
         23    2    1    0    0    0 -0.19609237739E+02 -0.19652959237E+02 -0.91227155057E+01  0.95776979114E+02  0.91209894083E+02 0.  0.
         11    1    3    3    0    0 -0.59748023182E+01  0.22467361243E+01  0.39885880726E+02  0.40393434708E+02  0.51100000000E-03 0. -1.
         22    1    1    0    0    0  0.19609237739E+02  0.19652959237E+02  0.91227155057E+01  0.29223020886E+02  0.00000000000E+00 0. -1.
</event>
<event>
 5    1  0.6622940E-004  0.9118800E+02  0.7818608E-02  0.1130116E+00
         25   -1    0    0    0    0  0.00000000000E+00  0.00000000000E+00  0.99999998245E-14  0.12500000000E+03  0.12500000000E+03 0.  0.
        -11    1    3    3    0    0  0.41830148194E+01  0.14719880729E+02 -0.41168208231E+02  0.43920312736E+02  0.51100000000E-03 0.  1.
         23    2    1    0    0    0 -0.24700612032E+02  0.38964247445E+01  0.50531348273E+01  0.99488501962E+02  0.96161975284E+02 0.  0.
         11    1    3    3    0    0 -0.28883626851E+02 -0.10823455984E+02  0.46221343058E+02  0.55568189226E+02  0.51100000000E-03 0. -1.
         22    1    1    0    0    0  0.24700612032E+02 -0.38964247445E+01 -0.50531348273E+01  0.25511498038E+02  0.00000000000E+00 0. -1.
</event>
<event>
 5    1  0.6622940E-004  0.9118800E+02  0.7818608E-02  0.1130116E+00
         25   -1    0    0    0    0  0.00000000000E+00  0.00000000000E+00  0.99999998245E-14  0.12500000000E+03  0.12500000000E+03 0.  0.
        -11    1    3    3    0    0 -0.12112747291E+02 -0.98395886241E+01 -0.33801136775E+02  0.37229732725E+02  0.51100000000E-03 0.  1.
         23    2    1    0    0    0  0.90964602599E+01  0.25497030331E+02  0.88302783600E+01  0.96525134577E+02  0.92229516123E+02 0.  0.
         11    1    3    3    0    0  0.21209207551E+02  0.35336618955E+02  0.42631415135E+02  0.59295401852E+02  0.51100000000E-03 0. -1.
         22    1    1    0    0    0 -0.90964602599E+01 -0.25497030331E+02 -0.88302783600E+01  0.28474865423E+02  0.00000000000E+00 0. -1.
</event>
<event>
 5    1  0.6622940E-004  0.9118800E+02  0.7818608E-02  0.1130116E+00
         25   -1    0    0    0    0  0.00000000000E+00  0.00000000000E+00  0.99999998245E-14  0.12500000000E+03  0.12500000000E+03 0.  0.
        -11    1    3    3    0    0 -0.41587830478E+02 -0.34517062611E+02  0.24182920192E+02  0.59209702621E+02  0.51100000000E-03 0. -1.
         23    2    1    0    0    0 -0.11260539770E+02 -0.13913473101E+02  0.22951014254E+02  0.95894441340E+02  0.91370730187E+02 0.  0.
         11    1    3    3    0    0  0.30327290708E+02  0.20603589510E+02 -0.12319059382E+01  0.36684738719E+02  0.51100000000E-03 0.  1.
         22    1    1    0    0    0  0.11260539770E+02  0.13913473101E+02 -0.22951014254E+02  0.29105558660E+02  0.00000000000E+00 0. -1.
</event>
<event>
 5    1  0.6622940E-004  0.9118800E+02  0.7818608E-02  0.1130116E+00
         25   -1    0    0    0    0  0.00000000000E+00  0.00000000000E+00  0.99999998245E-14  0.12500000000E+03  0.12500000000E+03 0.  0.
        -11    1    3    3    0    0 -0.28837438058E+02 -0.17125825227E+02  0.53408585085E+01  0.33961986003E+02  0.51100000000E-03 0.  1.
         23    2    1    0    0    0  0.19728520337E+02  0.21240465341E+02  0.16870501887E+01  0.95961783441E+02  0.91462811351E+02 0.  0.
         11    1    3    3    0    0  0.48565958395E+02  0.38366290568E+02 -0.36538083198E+01  0.61999797437E+02  0.51100000000E-03 0. -1.
         22    1    1    0    0    0 -0.19728520337E+02 -0.21240465341E+02 -0.16870501887E+01  0.29038216559E+02  0.00000000000E+00 0. -1.
</event>
<event>
 5    1  0.6622940E-004  0.9118800E+02  0.7818608E-02  0.1130116E+00
         25   -1    0    0    0    0  0.00000000000E+00  0.00000000000E+00  0.99999998245E-14  0.12500000000E+03  0.12500000000E+03 0.  0.
        -11    1    3    3    0    0 -0.23738521858E+02 -0.18979359332E+02 -0.12084224759E+02  0.32707216160E+02  0.51100000000E-03 0.  1.
         23    2    1    0    0    0  0.30333184525E+02  0.25869192531E+01  0.66066933973E+01  0.93848071772E+02  0.88526933433E+02 0.  0.
         11    1    3    3    0    0  0.54071706383E+02  0.21566278585E+02  0.18690918157E+02  0.61140855612E+02  0.51100000000E-03 0. -1.
         22    1    1    0    0    0 -0.30333184525E+02 -0.25869192531E+01 -0.66066933973E+01  0.31151928228E+02  0.00000000000E+00 0. -1.
</event>
<event>
 5    1  0.6622940E-004  0.9118800E+02  0.7818608E-02  0.1130116E+00
         25   -1    0    0    0    0  0.00000000000E+00  0.00000000000E+00  0.99999998245E-14  0.12500000000E+03  0.12500000000E+03 0.  0.
        -11    1    3    3    0    0  0.41101517765E+02 -0.18254425998E+02 -0.22310780078E+02  0.50202885764E+02  0.51100000000E-03 0. -1.
         23    2    1    0    0    0 -0.53601129112E+01 -0.22658035795E+02 -0.14633211999E+02  0.97500031092E+02  0.93541476218E+02 0.  0.
         11    1    3    3    0    0 -0.46461630676E+02 -0.44036097970E+01  0.76775680783E+01  0.47297145328E+02  0.51100000000E-03 0.  1.
         22    1    1    0    0    0  0.53601129112E+01  0.22658035795E+02  0.14633211999E+02  0.27499968908E+02  0.00000000000E+00 0.  1.
</event>
<event>
 5    1  0.6622940E-004  0.9118800E+02  0.7818608E-02  0.1130116E+00
         25   -1    0    0    0    0  0.00000000000E+00  0.00000000000E+00  0.99999998245E-14  0.12500000000E+03  0.12500000000E+03 0.  0.
        -11    1    3    3    0    0 -0.18970975893E+02  0.39112549044E+02  0.31219553080E+02  0.53519621765E+02  0.51100000000E-03 0.  1.
         23    2    1    0    0    0  0.13455868516E+02  0.23778984892E+02  0.70153713578E+01  0.96791562339E+02  0.92589905415E+02 0.  0.
         11    1    3    3    0    0  0.32426844409E+02 -0.15333564152E+02 -0.24204181723E+02  0.43271940574E+02  0.51100000000E-03 0. -1.
         22    1    1    0    0    0 -0.13455868516E+02 -0.23778984892E+02 -0.70153713578E+01  0.28208437661E+02  0.00000000000E+00 0.  1.
</event>
<event>
 5    1  0.6622940E-004  0.9118800E+02  0.7818608E-02  0.1130116E+00
         25   -1    0    0    0    0  0.00000000000E+00  0.00000000000E+00  0.99999998245E-14  0.12500000000E+03  0.12500000000E+03 0.  0.
        -11    1    3    3    0    0  0.37040984312E+02  0.11163791709E+02 -0.14673928785E+02  0.41376188205E+02  0.51100000000E-03 0.  1.
         23    2    1    0    0    0  0.88592255919E+01 -0.15119406876E+02  0.23544341915E+02  0.95650070211E+02  0.91035803686E+02 0.  0.
         11    1    3    3    0    0 -0.28181758721E+02 -0.26283198585E+02  0.38218270700E+02  0.54273882006E+02  0.51100000000E-03 0. -1.
         22    1    1    0    0    0 -0.88592255919E+01  0.15119406876E+02 -0.23544341915E+02  0.29349929789E+02  0.00000000000E+00 0. -1.
</event>
<event>
 5    1  0.6622940E-004  0.9118800E+02  0.7818608E-02  0.1130116E+00
         25   -1    0    0    0    0  0.00000000000E+00  0.00000000000E+00  0.99999998245E-14  0.12500000000E+03  0.12500000000E+03 0.  0.
        -11    1    3    3    0    0  0.44299445172E+02 -0.40292859853E+02  0.11676133417E+02  0.61010552280E+02  0.51100000000E-03 0.  1.
         23    2    1    0    0    0  0.24906749025E+02 -0.19374014294E+02 -0.33793110087E+01  0.93264872463E+02  0.87699590169E+02 0.  0.
         11    1    3    3    0    0 -0.19392696147E+02  0.20918845559E+02 -0.15055444426E+02  0.32254320183E+02  0.51100000000E-03 0. -1.
         22    1    1    0    0    0 -0.24906749025E+02  0.19374014294E+02  0.33793110087E+01  0.31735127537E+02  0.00000000000E+00 0.  1.
</event>
<event>
 5    1  0.6622940E-004  0.9118800E+02  0.7818608E-02  0.1130116E+00
         25   -1    0    0    0    0  0.00000000000E+00  0.00000000000E+00  0.99999998245E-14  0.12500000000E+03  0.12500000000E+03 0.  0.
        -11    1    3    3    0    0 -0.28124421551E+02  0.53075405453E+02 -0.86813199214E+01  0.60690584669E+02  0.51100000000E-03 0. -1.
         23    2    1    0    0    0 -0.20656907694E+02  0.20516918643E+02  0.21490511349E+01  0.95806332761E+02  0.91250113371E+02 0.  0.
         11    1    3    3    0    0  0.74675138572E+01 -0.32558486810E+02  0.10830371056E+02  0.35115748092E+02  0.51100000000E-03 0.  1.
         22    1    1    0    0    0  0.20656907694E+02 -0.20516918643E+02 -0.21490511349E+01  0.29193667239E+02  0.00000000000E+00 0. -1.
</event>
<event>
 5    1  0.6622940E-004  0.9118800E+02  0.7818608E-02  0.1130116E+00
         25   -1    0    0    0    0  0.00000000000E+00  0.00000000000E+00  0.99999998245E-14  0.12500000000E+03  0.12500000000E+03 0.  0.
        -11    1    3    3    0    0 -0.31687354445E+02 -0.15502082282E+02  0.33528890080E+02  0.48668156499E+02  0.51100000000E-03 0. -1.
         23    2    1    0    0    0 -0.27621562687E+02 -0.67648875395E+01 -0.11209414230E+02  0.94432608942E+02  0.89348487595E+02 0.  0.
         11    1    3    3    0    0  0.40657917578E+01  0.87371947427E+01 -0.44738304310E+02  0.45764452443E+02  0.51100000000E-03 0.  1.
         22    1    1    0    0    0  0.27621562687E+02  0.67648875395E+01  0.11209414230E+02  0.30567391058E+02  0.00000000000E+00 0.  1.
</event>
<event>
 5    1  0.6622940E-004  0.9118800E+02  0.7818608E-02  0.1130116E+00
         25   -1    0    0    0    0  0.00000000000E+00  0.00000000000E+00  0.99999998245E-14  0.12500000000E+03  0.12500000000E+03 0.  0.
        -11    1    3    3    0    0 -0.55611621514E+01  0.15939221226E+02 -0.38207241526E+02  0.41770547076E+02  0.51100000000E-03 0.  1.
         23    2    1    0    0    0 -0.25228399946E+02 -0.17971045150E+02 -0.40563205401E+01  0.93760852062E+02  0.88403693449E+02 0.  0.
         11    1    3    3    0    0 -0.19667237794E+02 -0.33910266375E+02  0.34150920986E+02  0.51990304986E+02  0.51100000000E-03 0. -1.
         22    1    1    0    0    0  0.25228399946E+02  0.17971045150E+02  0.40563205401E+01  0.31239147938E+02  0.00000000000E+00 0. -1.
</event>
<event>
 5    1  0.6622940E-004  0.9118800E+02  0.7818608E-02  0.1130116E+00
         25   -1    0    0    0    0  0.00000000000E+00  0.00000000000E+00  0.99999998245E-14  0.12500000000E+03  0.12500000000E+03 0.  0.
        -11    1    3    3    0    0  0.51587267742E+02 -0.45823059487E+01  0.13816249153E+02  0.53601608761E+02  0.51100000000E-03 0.  1.
         23    2    1    0    0    0  0.28014626098E+02 -0.31931616419E+01 -0.16732586717E+02  0.92212883400E+02  0.86187126939E+02 0.  0.
         11    1    3    3    0    0 -0.23572641644E+02  0.13891443068E+01 -0.30548835870E+02  0.38611274639E+02  0.51100000000E-03 0. -1.
         22    1    1    0    0    0 -0.28014626098E+02  0.31931616419E+01  0.16732586717E+02  0.32787116600E+02  0.00000000000E+00 0.  1.
</event>
<event>
 5    1  0.6622940E-004  0.9118800E+02  0.7818608E-02  0.1130116E+00
         25   -1    0    0    0    0  0.00000000000E+00  0.00000000000E+00  0.99999998245E-14  0.12500000000E+03  0.12500000000E+03 0.  0.
        -11    1    3    3    0    0  0.15772139633E+02 -0.21229616342E+02  0.38016026407E+02  0.46310638764E+02  0.51100000000E-03 0. -1.
         23    2    1    0    0    0  0.37875204832E+02 -0.14079763113E+02  0.87850799623E+01  0.83648476445E+02  0.72712578769E+02 0.  0.
         11    1    3    3    0    0  0.22103065199E+02  0.71498532294E+01 -0.29230946445E+02  0.37337837681E+02  0.51100000000E-03 0.  1.
         22    1    1    0    0    0 -0.37875204832E+02  0.14079763113E+02 -0.87850799623E+01  0.41351523555E+02  0.00000000000E+00 0. -1.
</event>
<event>
 5    1  0.6622940E-004  0.9118800E+02  0.7818608E-02  0.1130116E+00
         25   -1    0    0    0    0  0.00000000000E+00  0.00000000000E+00  0.99999998245E-14  0.12500000000E+03  0.12500000000E+03 0.  0.
        -11    1    3    3    0    0 -0.53833562754E+02  0.38246042009E+01 -0.47647210203E+01  0.54179171669E+02  0.51100000000E-03 0.  1.
         23    2    1    0    0    0 -0.19418717459E+02 -0.16159205982E+02 -0.15453177410E+02  0.95385692347E+02  0.90672063430E+02 0.  0.
         11    1    3    3    0    0  0.34414845295E+02 -0.19983810183E+02 -0.10688456390E+02  0.41206520678E+02  0.51100000000E-03 0. -1.
         22    1    1    0    0    0  0.19418717459E+02  0.16159205982E+02  0.15453177410E+02  0.29614307653E+02  0.00000000000E+00 0.  1.
</event>
<event>
 5    1  0.6622940E-004  0.9118800E+02  0.7818608E-02  0.1130116E+00
         25   -1    0    0    0    0  0.00000000000E+00  0.00000000000E+00  0.99999998245E-14  0.12500000000E+03  0.12500000000E+03 0.  0.
        -11    1    3    3    0    0  0.25519491566E+02 -0.90910028090E+01  0.31058311099E+02  0.41212976967E+02  0.51100000000E-03 0. -1.
         23    2    1    0    0    0 -0.68965154231E+01  0.23615046423E+02 -0.52385525033E+01  0.99846972849E+02  0.96626824496E+02 0.  0.
         11    1    3    3    0    0 -0.32416006989E+02  0.32706049232E+02 -0.36296863603E+02  0.58633995882E+02  0.51100000000E-03 0.  1.
         22    1    1    0    0    0  0.68965154231E+01 -0.23615046423E+02  0.52385525033E+01  0.25153027151E+02  0.00000000000E+00 0.  1.
</event>
<event>
 5    1  0.6622940E-004  0.9118800E+02  0.7818608E-02  0.1130116E+00
         25   -1    0    0    0    0  0.00000000000E+00  0.00000000000E+00  0.99999998245E-14  0.12500000000E+03  0.12500000000E+03 0.  0.
        -11    1    3    3    0    0  0.50791782774E+02  0.21965385026E+02  0.17348517307E+02  0.57993571969E+02  0.51100000000E-03 0. -1.
         23    2    1    0    0    0  0.13926582430E+02  0.14839407850E+02  0.21047320451E+02  0.95722919857E+02  0.91135777630E+02 0.  0.
         11    1    3    3    0    0 -0.36865200344E+02 -0.71259771762E+01  0.36988031447E+01  0.37729347888E+02  0.51100000000E-03 0.  1.
         22    1    1    0    0    0 -0.13926582430E+02 -0.14839407850E+02 -0.21047320451E+02  0.29277080143E+02  0.00000000000E+00 0. -1.
</event>
<event>
 5    1  0.6622940E-004  0.9118800E+02  0.7818608E-02  0.1130116E+00
         25   -1    0    0    0    0  0.00000000000E+00  0.00000000000E+00  0.99999998245E-14  0.12500000000E+03  0.12500000000E+03 0.  0.
        -11    1    3    3    0    0 -0.42509007362E+02  0.36121922567E+02 -0.23485553148E+02  0.60525863924E+02  0.51100000000E-03 0.  1.
         23    2    1    0    0    0 -0.15854013713E+02  0.15393438670E+02 -0.21212750233E+02  0.94368505140E+02  0.89258760271E+02 0.  0.
         11    1    3    3    0    0  0.26654993650E+02 -0.20728483897E+02  0.22728029149E+01  0.33842641216E+02  0.51100000000E-03 0. -1.
         22    1    1    0    0    0  0.15854013713E+02 -0.15393438670E+02  0.21212750233E+02  0.30631494860E+02  0.00000000000E+00 0.  1.
</event>
<event>
 5    1  0.6622940E-004  0.9118800E+02  0.7818608E-02  0.1130116E+00
         25   -1    0    0    0    0  0.00000000000E+00  0.00000000000E+00  0.99999998245E-14  0.12500000000E+03  0.12500000000E+03 0.  0.
        -11    1    3    3    0    0  0.21687975816E+02 -0.25751010748E+02 -0.92729860839E+01  0.34920926688E+02  0.51100000000E-03 0. -1.
         23    2    1    0    0    0  0.10776560271E+02 -0.19925001385E+02  0.36338086875E+02  0.82179485183E+02  0.70141794215E+02 0.  0.
         11    1    3    3    0    0 -0.10911415545E+02  0.58260093628E+01  0.45611072959E+02  0.47258558495E+02  0.51100000000E-03 0.  1.
         22    1    1    0    0    0 -0.10776560271E+02  0.19925001385E+02 -0.36338086875E+02  0.42820514817E+02  0.00000000000E+00 0.  1.
</event>
<event>
 5    1  0.6622940E-004  0.9118800E+02  0.7818608E-02  0.1130116E+00
         25   -1    0    0    0    0  0.00000000000E+00  0.00000000000E+00  0.99999998245E-14  0.12500000000E+03  0.12500000000E+03 0.  0.
        -11    1    3    3    0    0 -0.10003088029E+02 -0.16519548232E+02  0.52832077987E+02  0.56251095177E+02  0.51100000000E-03 0. -1.
         23    2    1    0    0    0  0.64089374767E+01 -0.66258130766E+01  0.48146290471E+02  0.75979176215E+02  0.58049927250E+02 0.  0.
         11    1    3    3    0    0  0.16412025506E+02  0.98937351550E+01 -0.46857875167E+01  0.19728081038E+02  0.51100000000E-03 0.  1.
         22    1    1    0    0    0 -0.64089374767E+01  0.66258130766E+01 -0.48146290471E+02  0.49020823785E+02  0.00000000000E+00 0. -1.
</event>
<event>
 5    1  0.6622940E-004  0.9118800E+02  0.7818608E-02  0.1130116E+00
         25   -1    0    0    0    0  0.00000000000E+00  0.00000000000E+00  0.99999998245E-14  0.12500000000E+03  0.12500000000E+03 0.  0.
        -11    1    3    3    0    0 -0.24941420394E+02  0.12333581466E+02 -0.21210898480E+02  0.34987053286E+02  0.51100000000E-03 0.  1.
         23    2    1    0    0    0  0.19645118815E+02 -0.21811180994E+02  0.16011503181E+01  0.95602347170E+02  0.90970252239E+02 0.  0.
         11    1    3    3    0    0  0.44586539209E+02 -0.34144762460E+02  0.22812048798E+02  0.60615293884E+02  0.51100000000E-03 0. -1.
         22    1    1    0    0    0 -0.19645118815E+02  0.21811180994E+02 -0.16011503181E+01  0.29397652830E+02  0.00000000000E+00 0. -1.
</event>
<event>
 5    1  0.6622940E-004  0.9118800E+02  0.7818608E-02  0.1130116E+00
         25   -1    0    0    0    0  0.00000000000E+00  0.00000000000E+00  0.99999998245E-14  0.12500000000E+03  0.12500000000E+03 0.  0.
        -11    1    3    3    0    0  0.82354196262E+01  0.43956608367E+02 -0.39944709157E+02  0.59963199927E+02  0.51100000000E-03 0.  1.
         23    2    1    0    0    0 -0.70852782745E+01  0.25241957365E+02 -0.14620710199E+02  0.94981293390E+02  0.90112836752E+02 0.  0.
         11    1    3    3    0    0 -0.15320697901E+02 -0.18714651002E+02  0.25323998959E+02  0.35018093463E+02  0.51100000000E-03 0. -1.
         22    1    1    0    0    0  0.70852782745E+01 -0.25241957365E+02  0.14620710199E+02  0.30018706610E+02  0.00000000000E+00 0.  1.
</event>
<event>
 5    1  0.6622940E-004  0.9118800E+02  0.7818608E-02  0.1130116E+00
         25   -1    0    0    0    0  0.00000000000E+00  0.00000000000E+00  0.99999998245E-14  0.12500000000E+03  0.12500000000E+03 0.  0.
        -11    1    3    3    0    0  0.60275843608E+01 -0.58312192951E+02 -0.68033981404E+01  0.59016352366E+02  0.51100000000E-03 0. -1.
         23    2    1    0    0    0  0.55278608394E+01 -0.29380796892E+02  0.11176100225E+02  0.93083018819E+02  0.87440006317E+02 0.  0.
         11    1    3    3    0    0 -0.49972352140E+00  0.28931396059E+02  0.17979498365E+02  0.34066666453E+02  0.51100000000E-03 0.  1.
         22    1    1    0    0    0 -0.55278608394E+01  0.29380796892E+02 -0.11176100225E+02  0.31916981181E+02  0.00000000000E+00 0. -1.
</event>
<event>
 5    1  0.6622940E-004  0.9118800E+02  0.7818608E-02  0.1130116E+00
         25   -1    0    0    0    0  0.00000000000E+00  0.00000000000E+00  0.99999998245E-14  0.12500000000E+03  0.12500000000E+03 0.  0.
        -11    1    3    3    0    0  0.36427672418E+02 -0.28768205666E+02  0.18193720902E+02  0.49855756494E+02  0.51100000000E-03 0.  1.
         23    2    1    0    0    0  0.24166888415E+02 -0.27698975653E+01 -0.17020031227E+02  0.95311748264E+02  0.90570067163E+02 0.  0.
         11    1    3    3    0    0 -0.12260784003E+02  0.25998308101E+02 -0.35213752130E+02  0.45455991770E+02  0.51100000000E-03 0. -1.
         22    1    1    0    0    0 -0.24166888415E+02  0.27698975653E+01  0.17020031227E+02  0.29688251736E+02  0.00000000000E+00 0.  1.
</event>
<event>
 5    1  0.6622940E-004  0.9118800E+02  0.7818608E-02  0.1130116E+00
         25   -1    0    0    0    0  0.00000000000E+00  0.00000000000E+00  0.99999998245E-14  0.12500000000E+03  0.12500000000E+03 0.  0.
        -11    1    3    3    0    0 -0.38051527924E+02 -0.63992370431E+01 -0.86349409267E+01  0.39540248066E+02  0.51100000000E-03 0. -1.
         23    2    1    0    0    0 -0.10815345976E+00  0.11764324953E+02  0.27559207034E+02  0.95034671183E+02  0.90186849350E+02 0.  0.
         11    1    3    3    0    0  0.37943374464E+02  0.18163561996E+02  0.36194147961E+02  0.55494423116E+02  0.51100000000E-03 0.  1.
         22    1    1    0    0    0  0.10815345976E+00 -0.11764324953E+02 -0.27559207034E+02  0.29965328817E+02  0.00000000000E+00 0.  1.
</event>
<event>
 5    1  0.6622940E-004  0.9118800E+02  0.7818608E-02  0.1130116E+00
         25   -1    0    0    0    0  0.00000000000E+00  0.00000000000E+00  0.99999998245E-14  0.12500000000E+03  0.12500000000E+03 0.  0.
        -11    1    3    3    0    0  0.50451850422E+02  0.99681178966E+01 -0.20661081451E+02  0.55422313849E+02  0.51100000000E-03 0. -1.
         23    2    1    0    0    0  0.27433289605E+02  0.93914025475E+01  0.10494348352E+02  0.94163087578E+02  0.88970623773E+02 0.  0.
         11    1    3    3    0    0 -0.23018560817E+02 -0.57671534913E+00  0.31155429803E+02  0.38740773729E+02  0.51100000000E-03 0.  1.
         22    1    1    0    0    0 -0.27433289605E+02 -0.93914025475E+01 -0.10494348352E+02  0.30836912422E+02  0.00000000000E+00 0.  1.
</event>
<event>
 5    1  0.6622940E-004  0.9118800E+02  0.7818608E-02  0.1130116E+00
         25   -1    0    0    0    0  0.00000000000E+00  0.00000000000E+00  0.99999998245E-14  0.12500000000E+03  0.12500000000E+03 0.  0.
        -11    1    3    3    0    0 -0.29746134462E+02  0.25299856311E+02 -0.60689817622E+01  0.39518954752E+02  0.51100000000E-03 0. -1.
         23    2    1    0    0    0 -0.36812937256E+02  0.68188289150E+01 -0.34454386960E+02  0.74119811734E+02  0.53897615285E+02 0.  0.
         11    1    3    3    0    0 -0.70668027945E+01 -0.18481027396E+02 -0.28385405198E+02  0.34600856982E+02  0.51100000000E-03 0.  1.
         22    1    1    0    0    0  0.36812937256E+02 -0.68188289150E+01  0.34454386960E+02  0.50880188266E+02  0.00000000000E+00 0.  1.
</event>
<event>
 5    1  0.6622940E-004  0.9118800E+02  0.7818608E-02  0.1130116E+00
         25   -1    0    0    0    0  0.00000000000E+00  0.00000000000E+00  0.99999998245E-14  0.12500000000E+03  0.12500000000E+03 0.  0.
        -11    1    3    3    0    0 -0.27514366313E+02  0.28665993996E+02 -0.29736268855E+02  0.49628875174E+02  0.51100000000E-03 0. -1.
         23    2    1    0    0    0 -0.17969044818E+02  0.20492454515E+02  0.13450514482E+02  0.94606849398E+02  0.89591921229E+02 0.  0.
         11    1    3    3    0    0  0.95453214949E+01 -0.81735394810E+01  0.43186783336E+02  0.44977974224E+02  0.51100000000E-03 0.  1.
         22    1    1    0    0    0  0.17969044818E+02 -0.20492454515E+02 -0.13450514482E+02  0.30393150602E+02  0.00000000000E+00 0.  1.
</event>
<event>
 5    1  0.6622940E-004  0.9118800E+02  0.7818608E-02  0.1130116E+00
         25   -1    0    0    0    0  0.00000000000E+00  0.00000000000E+00  0.99999998245E-14  0.12500000000E+03  0.12500000000E+03 0.  0.
        -11    1    3    3    0    0  0.34617259384E+02  0.36232967854E+02 -0.25247813441E+02  0.56112696340E+02  0.51100000000E-03 0.  1.
         23    2    1    0    0    0  0.17401433337E+02  0.16157948980E+01 -0.24655367826E+02  0.94779016595E+02  0.89831810339E+02 0.  0.
         11    1    3    3    0    0 -0.17215826047E+02 -0.34617172956E+02  0.59244561486E+00  0.38666320255E+02  0.51100000000E-03 0. -1.
         22    1    1    0    0    0 -0.17401433337E+02 -0.16157948980E+01  0.24655367826E+02  0.30220983405E+02  0.00000000000E+00 0.  1.
</event>
<event>
 5    1  0.6622940E-004  0.9118800E+02  0.7818608E-02  0.1130116E+00
         25   -1    0    0    0    0  0.00000000000E+00  0.00000000000E+00  0.99999998245E-14  0.12500000000E+03  0.12500000000E+03 0.  0.
        -11    1    3    3    0    0  0.10416495698E+01 -0.56149025875E+02 -0.25579165528E+02  0.61709738696E+02  0.51100000000E-03 0.  1.
         23    2    1    0    0    0 -0.42016023496E+01 -0.29064347430E+02 -0.75085157816E+01  0.94688821153E+02  0.89706216554E+02 0.  0.
         11    1    3    3    0    0 -0.52432519193E+01  0.27084678445E+02  0.18070649747E+02  0.32979082457E+02  0.51100000000E-03 0. -1.
         22    1    1    0    0    0  0.42016023496E+01  0.29064347430E+02  0.75085157816E+01  0.30311178847E+02  0.00000000000E+00 0.  1.
</event>
<event>
 5    1  0.6622940E-004  0.9118800E+02  0.7818608E-02  0.1130116E+00
         25   -1    0    0    0    0  0.00000000000E+00  0.00000000000E+00  0.99999998245E-14  0.12500000000E+03  0.12500000000E+03 0.  0.
        -11    1    3    3    0    0  0.52894860615E+02 -0.15180948474E+02  0.29234278958E+02  0.62313486041E+02  0.51100000000E-03 0. -1.
         23    2    1    0    0    0  0.24029104616E+02 -0.50432006769E+01  0.16299024585E+02  0.95529846554E+02  0.90870576308E+02 0.  0.
         11    1    3    3    0    0 -0.28865755999E+02  0.10137747797E+02 -0.12935254373E+02  0.33216360513E+02  0.51100000000E-03 0.  1.
         22    1    1    0    0    0 -0.24029104616E+02  0.50432006769E+01 -0.16299024585E+02  0.29470153446E+02  0.00000000000E+00 0. -1.
</event>
<event>
 5    1  0.6622940E-004  0.9118800E+02  0.7818608E-02  0.1130116E+00
         25   -1    0    0    0    0  0.00000000000E+00  0.00000000000E+00  0.99999998245E-14  0.12500000000E+03  0.12500000000E+03 0.  0.
        -11    1    3    3    0    0  0.33900979091E+02 -0.32044155121E+02 -0.26349918308E+02  0.53576323650E+02  0.51100000000E-03 0. -1.
         23    2    1    0    0    0  0.26484692945E+02  0.63383067746E+01 -0.93241727463E+01  0.96215398378E+02  0.91808766436E+02 0.  0.
         11    1    3    3    0    0 -0.74162861466E+01  0.38382461896E+02  0.17025745562E+02  0.42639074727E+02  0.51100000000E-03 0.  1.
         22    1    1    0    0    0 -0.26484692945E+02 -0.63383067746E+01  0.93241727463E+01  0.28784601622E+02  0.00000000000E+00 0. -1.
</event>
<event>
 5    1  0.6622940E-004  0.9118800E+02  0.7818608E-02  0.1130116E+00
         25   -1    0    0    0    0  0.00000000000E+00  0.00000000000E+00  0.99999998245E-14  0.12500000000E+03  0.12500000000E+03 0.  0.
        -11    1    3    3    0    0 -0.56424783662E+02 -0.17883383183E+02 -0.19563703337E+02  0.62340276658E+02  0.51100000000E-03 0. -1.
         23    2    1    0    0    0 -0.26391171405E+02 -0.69422076533E+01 -0.12009716752E+02  0.95185213875E+02  0.90395262424E+02 0.  0.
         11    1    3    3    0    0  0.30033612256E+02  0.10941175530E+02  0.75539865851E+01  0.32844937216E+02  0.51100000000E-03 0.  1.
         22    1    1    0    0    0  0.26391171405E+02  0.69422076533E+01  0.12009716752E+02  0.29814786125E+02  0.00000000000E+00 0. -1.
</event>
<event>
 5    1  0.6622940E-004  0.9118800E+02  0.7818608E-02  0.1130116E+00
         25   -1    0    0    0    0  0.00000000000E+00  0.00000000000E+00  0.99999998245E-14  0.12500000000E+03  0.12500000000E+03 0.  0.
        -11    1    3    3    0    0  0.60213628785E+01 -0.14032814622E+02  0.43679548573E+02  0.46271802007E+02  0.51100000000E-03 0.  1.
         23    2    1    0    0    0  0.21500026662E+02 -0.22435340857E+02 -0.59443851493E+00  0.93920279554E+02  0.88628832152E+02 0.  0.
         11    1    3    3    0    0  0.15478663784E+02 -0.84025262350E+01 -0.44273987088E+02  0.47648477548E+02  0.51100000000E-03 0. -1.
         22    1    1    0    0    0 -0.21500026662E+02  0.22435340857E+02  0.59443851493E+00  0.31079720446E+02  0.00000000000E+00 0. -1.
</event>
<event>
 5    1  0.6622940E-004  0.9118800E+02  0.7818608E-02  0.1130116E+00
         25   -1    0    0    0    0  0.00000000000E+00  0.00000000000E+00  0.99999998245E-14  0.12500000000E+03  0.12500000000E+03 0.  0.
        -11    1    3    3    0    0  0.28139898952E+02  0.31586668298E+02 -0.30210030545E+02  0.51982857491E+02  0.51100000000E-03 0.  1.
         23    2    1    0    0    0  0.21409043915E+02 -0.95194992293E+01 -0.18195194725E+02  0.95334647516E+02  0.90601665983E+02 0.  0.
         11    1    3    3    0    0 -0.67308550371E+01 -0.41106167527E+02  0.12014835820E+02  0.43351790025E+02  0.51100000000E-03 0. -1.
         22    1    1    0    0    0 -0.21409043915E+02  0.95194992293E+01  0.18195194725E+02  0.29665352484E+02  0.00000000000E+00 0. -1.
</event>
<event>
 5    1  0.6622940E-004  0.9118800E+02  0.7818608E-02  0.1130116E+00
         25   -1    0    0    0    0  0.00000000000E+00  0.00000000000E+00  0.99999998245E-14  0.12500000000E+03  0.12500000000E+03 0.  0.
        -11    1    3    3    0    0 -0.32729508006E+02  0.38051027865E+02  0.18903944567E+02  0.53632644316E+02  0.51100000000E-03 0. -1.
         23    2    1    0    0    0 -0.24846397080E+02  0.10967345960E+02 -0.11853952935E+02  0.95366533692E+02  0.90645647568E+02 0.  0.
         11    1    3    3    0    0  0.78831109262E+01 -0.27083681905E+02 -0.30757897502E+02  0.41733889376E+02  0.51100000000E-03 0.  1.
         22    1    1    0    0    0  0.24846397080E+02 -0.10967345960E+02  0.11853952935E+02  0.29633466308E+02  0.00000000000E+00 0. -1.
</event>
<event>
 5    1  0.6622940E-004  0.9118800E+02  0.7818608E-02  0.1130116E+00
         25   -1    0    0    0    0  0.00000000000E+00  0.00000000000E+00  0.99999998245E-14  0.12500000000E+03  0.12500000000E+03 0.  0.
        -11    1    3    3    0    0 -0.52419535755E+01 -0.29536134531E+02  0.49349002969E+02  0.57751064186E+02  0.51100000000E-03 0.  1.
         23    2    1    0    0    0  0.83527151699E+01 -0.24806439930E+02  0.15387013853E+02  0.94637399519E+02  0.89634535084E+02 0.  0.
         11    1    3    3    0    0  0.13594668745E+02  0.47296946018E+01 -0.33961989116E+02  0.36886335333E+02  0.51100000000E-03 0. -1.
         22    1    1    0    0    0 -0.83527151699E+01  0.24806439930E+02 -0.15387013853E+02  0.30362600481E+02  0.00000000000E+00 0.  1.
</event>
<event>
 5    1  0.6622940E-004  0.9118800E+02  0.7818608E-02  0.1130116E+00
         25   -1    0    0    0    0  0.00000000000E+00  0.00000000000E+00  0.99999998245E-14  0.12500000000E+03  0.12500000000E+03 0.  0.
        -11    1    3    3    0    0  0.15911260133E+02  0.36785873394E+02  0.78238267978E+01  0.40836025105E+02  0.51100000000E-03 0. -1.
         23    2    1    0    0    0 -0.68960644741E+01 -0.10530410040E+02  0.25750897222E+02  0.96337237597E+02  0.91974504071E+02 0.  0.
         11    1    3    3    0    0 -0.22807324607E+02 -0.47316283434E+02  0.17927070424E+02  0.55501212491E+02  0.51100000000E-03 0.  1.
         22    1    1    0    0    0  0.68960644741E+01  0.10530410040E+02 -0.25750897222E+02  0.28662762403E+02  0.00000000000E+00 0.  1.
</event>
<event>
 5    1  0.6622940E-004  0.9118800E+02  0.7818608E-02  0.1130116E+00
         25   -1    0    0    0    0  0.00000000000E+00  0.00000000000E+00  0.99999998245E-14  0.12500000000E+03  0.12500000000E+03 0.  0.
        -11    1    3    3    0    0 -0.33815312904E+02  0.13237937533E+02 -0.11798763098E+02  0.38182838918E+02  0.51100000000E-03 0.  1.
         23    2    1    0    0    0 -0.16782556482E+01 -0.31446547053E+01  0.30795406275E+02  0.93998992874E+02  0.88739778106E+02 0.  0.
         11    1    3    3    0    0  0.32137057256E+02 -0.16382592238E+02  0.42594169373E+02  0.55816153955E+02  0.51100000000E-03 0. -1.
         22    1    1    0    0    0  0.16782556482E+01  0.31446547053E+01 -0.30795406275E+02  0.31001007126E+02  0.00000000000E+00 0. -1.
</event>
<event>
 5    1  0.6622940E-004  0.9118800E+02  0.7818608E-02  0.1130116E+00
         25   -1    0    0    0    0  0.00000000000E+00  0.00000000000E+00  0.99999998245E-14  0.12500000000E+03  0.12500000000E+03 0.  0.
        -11    1    3    3    0    0  0.93942722123E+01  0.45756802103E+02  0.34924137481E+02  0.58323517282E+02  0.51100000000E-03 0.  1.
         23    2    1    0    0    0  0.19788015084E+02  0.18084119760E+02  0.12525496630E+02  0.95411336727E+02  0.90707409740E+02 0.  0.
         11    1    3    3    0    0  0.10393742872E+02 -0.27672682343E+02 -0.22398640851E+02  0.37087819445E+02  0.51100000000E-03 0. -1.
         22    1    1    0    0    0 -0.19788015084E+02 -0.18084119760E+02 -0.12525496630E+02  0.29588663273E+02  0.00000000000E+00 0.  1.
</event>
<event>
 5    1  0.6622940E-004  0.9118800E+02  0.7818608E-02  0.1130116E+00
         25   -1    0    0    0    0  0.00000000000E+00  0.00000000000E+00  0.99999998245E-14  0.12500000000E+03  0.12500000000E+03 0.  0.
        -11    1    3    3    0    0  0.65215454737E+01  0.25703876635E+02  0.27214643917E+02  0.37998114074E+02  0.51100000000E-03 0. -1.
         23    2    1    0    0    0 -0.65379121289E+01  0.82617498781E+01 -0.26779215873E+02  0.96222800539E+02  0.91818844116E+02 0.  0.
         11    1    3    3    0    0 -0.13059457603E+02 -0.17442126756E+02 -0.53993859790E+02  0.58224686465E+02  0.51100000000E-03 0.  1.
         22    1    1    0    0    0  0.65379121289E+01 -0.82617498781E+01  0.26779215873E+02  0.28777199461E+02  0.00000000000E+00 0.  1.
</event>
<event>
 5    1  0.6622940E-004  0.9118800E+02  0.7818608E-02  0.1130116E+00
         25   -1    0    0    0    0  0.00000000000E+00  0.00000000000E+00  0.99999998245E-14  0.12500000000E+03  0.12500000000E+03 0.  0.
        -11    1    3    3    0    0  0.21818232984E+02  0.17434640118E+02  0.21110685609E+02  0.35009470344E+02  0.51100000000E-03 0.  1.
         23    2    1    0    0    0 -0.80537637825E+01 -0.37021517293E+00 -0.28380321421E+02  0.95496732142E+02  0.90825013270E+02 0.  0.
         11    1    3    3    0    0 -0.29871996767E+02 -0.17804855291E+02 -0.49491007030E+02  0.60487261798E+02  0.51100000000E-03 0. -1.
         22    1    1    0    0    0  0.80537637825E+01  0.37021517293E+00  0.28380321421E+02  0.29503267858E+02  0.00000000000E+00 0. -1.
</event>
<event>
 5    1  0.6622940E-004  0.9118800E+02  0.7818608E-02  0.1130116E+00
         25   -1    0    0    0    0  0.00000000000E+00  0.00000000000E+00  0.99999998245E-14  0.12500000000E+03  0.12500000000E+03 0.  0.
        -11    1    3    3    0    0  0.69599211522E+01 -0.52595396631E+02  0.28549944094E+02  0.60247950648E+02  0.51100000000E-03 0.  1.
         23    2    1    0    0    0  0.10598161418E+02 -0.27082720500E+02  0.43614157319E+01  0.95592233640E+02  0.90956354423E+02 0.  0.
         11    1    3    3    0    0  0.36382402662E+01  0.25512676132E+02 -0.24188528362E+02  0.35344282992E+02  0.51100000000E-03 0. -1.
         22    1    1    0    0    0 -0.10598161418E+02  0.27082720500E+02 -0.43614157319E+01  0.29407766360E+02  0.00000000000E+00 0.  1.
</event>
<event>
 5    1  0.6622940E-004  0.9118800E+02  0.7818608E-02  0.1130116E+00
         25   -1    0    0    0    0  0.00000000000E+00  0.00000000000E+00  0.99999998245E-14  0.12500000000E+03  0.12500000000E+03 0.  0.
        -11    1    3    3    0    0  0.10324767564E+02  0.28263080749E+02  0.53072547347E+02  0.61008998032E+02  0.51100000000E-03 0. -1.
         23    2    1    0    0    0 -0.47388928147E+01  0.14714067299E+02  0.24323843792E+02  0.96179690175E+02  0.91760135918E+02 0.  0.
         11    1    3    3    0    0 -0.15063660378E+02 -0.13549013451E+02 -0.28748703555E+02  0.35170692143E+02  0.51100000000E-03 0.  1.
         22    1    1    0    0    0  0.47388928147E+01 -0.14714067299E+02 -0.24323843792E+02  0.28820309825E+02  0.00000000000E+00 0. -1.
</event>
<event>
 5    1  0.6622940E-004  0.9118800E+02  0.7818608E-02  0.1130116E+00
         25   -1    0    0    0    0  0.00000000000E+00  0.00000000000E+00  0.99999998245E-14  0.12500000000E+03  0.12500000000E+03 0.  0.
        -11    1    3    3    0    0 -0.14648403898E+02 -0.25352052861E+02 -0.16822978048E+02  0.33768549150E+02  0.51100000000E-03 0.  1.
         23    2    1    0    0    0  0.16256186549E+02  0.25355573547E+02 -0.82826385166E+01  0.93762669580E+02  0.88406263324E+02 0.  0.
         11    1    3    3    0    0  0.30904590447E+02  0.50707626408E+02  0.85403395314E+01  0.59994120430E+02  0.51100000000E-03 0. -1.
         22    1    1    0    0    0 -0.16256186549E+02 -0.25355573547E+02  0.82826385166E+01  0.31237330420E+02  0.00000000000E+00 0. -1.
</event>
<event>
 5    1  0.6622940E-004  0.9118800E+02  0.7818608E-02  0.1130116E+00
         25   -1    0    0    0    0  0.00000000000E+00  0.00000000000E+00  0.99999998245E-14  0.12500000000E+03  0.12500000000E+03 0.  0.
        -11    1    3    3    0    0  0.66785419119E+01  0.52965281293E+02  0.30193108559E+02  0.61331458072E+02  0.51100000000E-03 0. -1.
         23    2    1    0    0    0 -0.47124363980E+01  0.23296386776E+02  0.17179525471E+02  0.95673138779E+02  0.91067473309E+02 0.  0.
         11    1    3    3    0    0 -0.11390978310E+02 -0.29668894517E+02 -0.13013583088E+02  0.34341680707E+02  0.51100000000E-03 0.  1.
         22    1    1    0    0    0  0.47124363980E+01 -0.23296386776E+02 -0.17179525471E+02  0.29326861221E+02  0.00000000000E+00 0. -1.
</event>
<event>
 5    1  0.6622940E-004  0.9118800E+02  0.7818608E-02  0.1130116E+00
         25   -1    0    0    0    0  0.00000000000E+00  0.00000000000E+00  0.99999998245E-14  0.12500000000E+03  0.12500000000E+03 0.  0.
        -11    1    3    3    0    0  0.47172004546E+02  0.34983180983E+02  0.73684305504E+01  0.59188805813E+02  0.51100000000E-03 0. -1.
         23    2    1    0    0    0  0.15592949193E+02  0.19153621729E+02  0.16025119256E+02  0.95558435214E+02  0.90909893871E+02 0.  0.
         11    1    3    3    0    0 -0.31579055353E+02 -0.15829559254E+02  0.86566887054E+01  0.36369629401E+02  0.51100000000E-03 0.  1.
         22    1    1    0    0    0 -0.15592949193E+02 -0.19153621729E+02 -0.16025119256E+02  0.29441564786E+02  0.00000000000E+00 0. -1.
</event>
<event>
 5    1  0.6622940E-004  0.9118800E+02  0.7818608E-02  0.1130116E+00
         25   -1    0    0    0    0  0.00000000000E+00  0.00000000000E+00  0.99999998245E-14  0.12500000000E+03  0.12500000000E+03 0.  0.
        -11    1    3    3    0    0  0.47726834541E+02  0.31839757218E+02  0.24427936873E+02  0.62356595282E+02  0.51100000000E-03 0.  1.
         23    2    1    0    0    0  0.23444071751E+02  0.12580184091E+02  0.95931767618E+01  0.96717238954E+02  0.92489511505E+02 0.  0.
         11    1    3    3    0    0 -0.24282762790E+02 -0.19259573127E+02 -0.14834760111E+02  0.34360643672E+02  0.51100000000E-03 0. -1.
         22    1    1    0    0    0 -0.23444071751E+02 -0.12580184091E+02 -0.95931767618E+01  0.28282761046E+02  0.00000000000E+00 0.  1.
</event>
<event>
 5    1  0.6622940E-004  0.9118800E+02  0.7818608E-02  0.1130116E+00
         25   -1    0    0    0    0  0.00000000000E+00  0.00000000000E+00  0.99999998245E-14  0.12500000000E+03  0.12500000000E+03 0.  0.
        -11    1    3    3    0    0  0.45087259086E+02  0.14652814008E+02 -0.37788278769E+02  0.60626066200E+02  0.51100000000E-03 0. -1.
         23    2    1    0    0    0  0.18905402674E+02  0.16551864988E+02 -0.13096900887E+02  0.96664381113E+02  0.92418046281E+02 0.  0.
         11    1    3    3    0    0 -0.26181856413E+02  0.18990509804E+01  0.24691377882E+02  0.36038314914E+02  0.51100000000E-03 0.  1.
         22    1    1    0    0    0 -0.18905402674E+02 -0.16551864988E+02  0.13096900887E+02  0.28335618887E+02  0.00000000000E+00 0. -1.
</event>
<event>
 5    1  0.6622940E-004  0.9118800E+02  0.7818608E-02  0.1130116E+00
         25   -1    0    0    0    0  0.00000000000E+00  0.00000000000E+00  0.99999998245E-14  0.12500000000E+03  0.12500000000E+03 0.  0.
        -11    1    3    3    0    0 -0.22957007176E+02 -0.53356444095E+02 -0.16167371213E+02  0.60293599968E+02  0.51100000000E-03 0. -1.
         23    2    1    0    0    0 -0.42781857752E+01 -0.32057666778E+02 -0.52610336425E+00  0.92653846325E+02  0.86824314459E+02 0.  0.
         11    1    3    3    0    0  0.18678821401E+02  0.21298777317E+02  0.15641267849E+02  0.32360246357E+02  0.51100000000E-03 0.  1.
         22    1    1    0    0    0  0.42781857752E+01  0.32057666778E+02  0.52610336425E+00  0.32346153675E+02  0.00000000000E+00 0. -1.
</event>
<event>
 5    1  0.6622940E-004  0.9118800E+02  0.7818608E-02  0.1130116E+00
         25   -1    0    0    0    0  0.00000000000E+00  0.00000000000E+00  0.99999998245E-14  0.12500000000E+03  0.12500000000E+03 0.  0.
        -11    1    3    3    0    0  0.79157549391E+01  0.49704817862E+01  0.42270820995E+02  0.43291883458E+02  0.51100000000E-03 0.  1.
         23    2    1    0    0    0  0.35422733593E+02 -0.41438616910E+01  0.74981892094E+01  0.88556008913E+02  0.80709368901E+02 0.  0.
         11    1    3    3    0    0  0.27506978654E+02 -0.91143434772E+01 -0.34772631786E+02  0.45264125456E+02  0.51100000000E-03 0. -1.
         22    1    1    0    0    0 -0.35422733593E+02  0.41438616910E+01 -0.74981892094E+01  0.36443991087E+02  0.00000000000E+00 0.  1.
</event>
<event>
 5    1  0.6622940E-004  0.9118800E+02  0.7818608E-02  0.1130116E+00
         25   -1    0    0    0    0  0.00000000000E+00  0.00000000000E+00  0.99999998245E-14  0.12500000000E+03  0.12500000000E+03 0.  0.
        -11    1    3    3    0    0 -0.39143115374E+02 -0.47445472509E+01 -0.90036771070E+01  0.40444535001E+02  0.51100000000E-03 0. -1.
         23    2    1    0    0    0  0.10408640667E+02 -0.22930586030E+02  0.11812868394E+02  0.97184618717E+02  0.93119035000E+02 0.  0.
         11    1    3    3    0    0  0.49551756041E+02 -0.18186038779E+02  0.20816545501E+02  0.56740083716E+02  0.51100000000E-03 0.  1.
         22    1    1    0    0    0 -0.10408640667E+02  0.22930586030E+02 -0.11812868394E+02  0.27815381283E+02  0.00000000000E+00 0.  1.
</event>
<event>
 5    1  0.6622940E-004  0.9118800E+02  0.7818608E-02  0.1130116E+00
         25   -1    0    0    0    0  0.00000000000E+00  0.00000000000E+00  0.99999998245E-14  0.12500000000E+03  0.12500000000E+03 0.  0.
        -11    1    3    3    0    0  0.54414542734E+02  0.13816339246E+02 -0.74292713810E+01  0.56630625678E+02  0.51100000000E-03 0. -1.
         23    2    1    0    0    0  0.25395753585E+02 -0.12906522312E+02 -0.40939724275E+01  0.96220089844E+02  0.91815153766E+02 0.  0.
         11    1    3    3    0    0 -0.29018789149E+02 -0.26722861559E+02  0.33352989534E+01  0.39589464166E+02  0.51100000000E-03 0.  1.
         22    1    1    0    0    0 -0.25395753585E+02  0.12906522312E+02  0.40939724275E+01  0.28779910156E+02  0.00000000000E+00 0. -1.
</event>
<event>
 5    1  0.6622940E-004  0.9118800E+02  0.7818608E-02  0.1130116E+00
         25   -1    0    0    0    0  0.00000000000E+00  0.00000000000E+00  0.99999998245E-14  0.12500000000E+03  0.12500000000E+03 0.  0.
        -11    1    3    3    0    0 -0.34771930600E+02  0.12705230749E+02  0.56231610379E+00  0.37024670771E+02  0.51100000000E-03 0. -1.
         23    2    1    0    0    0  0.11077666479E+02 -0.21296953969E+02 -0.15624733833E+02  0.96357247857E+02  0.92001695443E+02 0.  0.
         11    1    3    3    0    0  0.45849597078E+02 -0.34002184718E+02 -0.16187049937E+02  0.59332577087E+02  0.51100000000E-03 0.  1.
         22    1    1    0    0    0 -0.11077666479E+02  0.21296953969E+02  0.15624733833E+02  0.28642752143E+02  0.00000000000E+00 0.  1.
</event>
<event>
 5    1  0.6622940E-004  0.9118800E+02  0.7818608E-02  0.1130116E+00
         25   -1    0    0    0    0  0.00000000000E+00  0.00000000000E+00  0.99999998245E-14  0.12500000000E+03  0.12500000000E+03 0.  0.
        -11    1    3    3    0    0  0.11386820748E+02 -0.61702232713E+01 -0.36165540725E+02  0.38414550344E+02  0.51100000000E-03 0. -1.
         23    2    1    0    0    0 -0.13648950637E+02  0.24523797969E+02  0.60353317315E+01  0.96292235380E+02  0.91913322457E+02 0.  0.
         11    1    3    3    0    0 -0.25035771385E+02  0.30694021241E+02  0.42200872457E+02  0.57877685036E+02  0.51100000000E-03 0.  1.
         22    1    1    0    0    0  0.13648950637E+02 -0.24523797969E+02 -0.60353317315E+01  0.28707764620E+02  0.00000000000E+00 0.  1.
</event>
<event>
 5    1  0.6622940E-004  0.9118800E+02  0.7818608E-02  0.1130116E+00
         25   -1    0    0    0    0  0.00000000000E+00  0.00000000000E+00  0.99999998245E-14  0.12500000000E+03  0.12500000000E+03 0.  0.
        -11    1    3    3    0    0 -0.57800860681E+02  0.11918219316E+02  0.16891640296E+02  0.61386569861E+02  0.51100000000E-03 0.  1.
         23    2    1    0    0    0 -0.26823560658E+02  0.11173729878E+02  0.17103692033E+01  0.95891908194E+02  0.91367264644E+02 0.  0.
         11    1    3    3    0    0  0.30977300023E+02 -0.74448943774E+00 -0.15181271093E+02  0.34505338333E+02  0.51100000000E-03 0. -1.
         22    1    1    0    0    0  0.26823560658E+02 -0.11173729878E+02 -0.17103692033E+01  0.29108091806E+02  0.00000000000E+00 0.  1.
</event>
<event>
 5    1  0.6622940E-004  0.9118800E+02  0.7818608E-02  0.1130116E+00
         25   -1    0    0    0    0  0.00000000000E+00  0.00000000000E+00  0.99999998245E-14  0.12500000000E+03  0.12500000000E+03 0.  0.
        -11    1    3    3    0    0  0.33948710277E+02 -0.67218669706E+01 -0.14034004119E+02  0.37345035773E+02  0.51100000000E-03 0. -1.
         23    2    1    0    0    0 -0.13539662534E+02  0.23896170083E+02 -0.14691684246E+02  0.93852046742E+02  0.88532545912E+02 0.  0.
         11    1    3    3    0    0 -0.47488372811E+02  0.30618037054E+02 -0.65768012645E+00  0.56507010969E+02  0.51100000000E-03 0.  1.
         22    1    1    0    0    0  0.13539662534E+02 -0.23896170083E+02  0.14691684246E+02  0.31147953258E+02  0.00000000000E+00 0.  1.
</event>
<event>
 5    1  0.6622940E-004  0.9118800E+02  0.7818608E-02  0.1130116E+00
         25   -1    0    0    0    0  0.00000000000E+00  0.00000000000E+00  0.99999998245E-14  0.12500000000E+03  0.12500000000E+03 0.  0.
        -11    1    3    3    0    0  0.28473258325E+02  0.10767370091E+02  0.50938827777E+02  0.59341611656E+02  0.51100000000E-03 0. -1.
         23    2    1    0    0    0  0.11479912870E+02  0.18986628013E+02  0.23160444498E+02  0.92926854969E+02  0.87216476324E+02 0.  0.
         11    1    3    3    0    0 -0.16993345455E+02  0.82192579226E+01 -0.27778383279E+02  0.33585243314E+02  0.51100000000E-03 0.  1.
         22    1    1    0    0    0 -0.11479912870E+02 -0.18986628013E+02 -0.23160444498E+02  0.32073145031E+02  0.00000000000E+00 0. -1.
</event>
<event>
 5    1  0.6622940E-004  0.9118800E+02  0.7818608E-02  0.1130116E+00
         25   -1    0    0    0    0  0.00000000000E+00  0.00000000000E+00  0.99999998245E-14  0.12500000000E+03  0.12500000000E+03 0.  0.
        -11    1    3    3    0    0 -0.30018958784E+02 -0.28329142237E+02 -0.42865726195E+02  0.59507551360E+02  0.51100000000E-03 0.  1.
         23    2    1    0    0    0 -0.20574624250E+02 -0.18629592517E+02 -0.92555424365E+01  0.95741805487E+02  0.91161677100E+02 0.  0.
         11    1    3    3    0    0  0.94443345344E+01  0.96995497195E+01  0.33610183759E+02  0.36234254127E+02  0.51100000000E-03 0. -1.
         22    1    1    0    0    0  0.20574624250E+02  0.18629592517E+02  0.92555424365E+01  0.29258194513E+02  0.00000000000E+00 0.  1.
</event>
<event>
 5    1  0.6622940E-004  0.9118800E+02  0.7818608E-02  0.1130116E+00
         25   -1    0    0    0    0  0.00000000000E+00  0.00000000000E+00  0.99999998245E-14  0.12500000000E+03  0.12500000000E+03 0.  0.
        -11    1    3    3    0    0 -0.52725119714E+02 -0.76757458777E+01  0.23479484561E+02  0.58224921804E+02  0.51100000000E-03 0. -1.
         23    2    1    0    0    0 -0.27142065829E+02  0.11421501349E+02  0.49438636582E+01  0.95140592464E+02  0.90333538157E+02 0.  0.
         11    1    3    3    0    0  0.25583053885E+02  0.19097247227E+02 -0.18535620903E+02  0.36915670660E+02  0.51100000000E-03 0.  1.
         22    1    1    0    0    0  0.27142065829E+02 -0.11421501349E+02 -0.49438636582E+01  0.29859407536E+02  0.00000000000E+00 0. -1.
</event>
<event>
 5    1  0.6622940E-004  0.9118800E+02  0.7818608E-02  0.1130116E+00
         25   -1    0    0    0    0  0.00000000000E+00  0.00000000000E+00  0.99999998245E-14  0.12500000000E+03  0.12500000000E+03 0.  0.
        -11    1    3    3    0    0 -0.36241503338E+02  0.13743465780E+02 -0.14272401518E+02  0.41304126442E+02  0.51100000000E-03 0.  1.
         23    2    1    0    0    0  0.18929412082E+02  0.10189470206E+02 -0.18344660066E+02  0.96739170257E+02  0.92519147014E+02 0.  0.
         11    1    3    3    0    0  0.55170915419E+02 -0.35539955739E+01 -0.40722585485E+01  0.55435043814E+02  0.51100000000E-03 0. -1.
         22    1    1    0    0    0 -0.18929412082E+02 -0.10189470206E+02  0.18344660066E+02  0.28260829743E+02  0.00000000000E+00 0. -1.
</event>
<event>
 5    1  0.6622940E-004  0.9118800E+02  0.7818608E-02  0.1130116E+00
         25   -1    0    0    0    0  0.00000000000E+00  0.00000000000E+00  0.99999998245E-14  0.12500000000E+03  0.12500000000E+03 0.  0.
        -11    1    3    3    0    0  0.21385852434E+02  0.18760705941E+02  0.44776949686E+02  0.53049919842E+02  0.51100000000E-03 0. -1.
         23    2    1    0    0    0 -0.86970380784E+01 -0.67114290040E+01  0.26126615449E+02  0.96657773810E+02  0.92409109142E+02 0.  0.
         11    1    3    3    0    0 -0.30082890513E+02 -0.25472134945E+02 -0.18650334237E+02  0.43607853968E+02  0.51100000000E-03 0.  1.
         22    1    1    0    0    0  0.86970380784E+01  0.67114290040E+01 -0.26126615449E+02  0.28342226190E+02  0.00000000000E+00 0. -1.
</event>
<event>
 5    1  0.6622940E-004  0.9118800E+02  0.7818608E-02  0.1130116E+00
         25   -1    0    0    0    0  0.00000000000E+00  0.00000000000E+00  0.99999998245E-14  0.12500000000E+03  0.12500000000E+03 0.  0.
        -11    1    3    3    0    0 -0.18544433712E+02 -0.51567848741E+02  0.72135460709E+01  0.55273631079E+02  0.51100000000E-03 0.  1.
         23    2    1    0    0    0 -0.25082975833E+02 -0.11965500116E+02 -0.39358938603E+01  0.96931866287E+02  0.92779127889E+02 0.  0.
         11    1    3    3    0    0 -0.65385421204E+01  0.39602348624E+02 -0.11149439931E+02  0.41658235208E+02  0.51100000000E-03 0. -1.
         22    1    1    0    0    0  0.25082975833E+02  0.11965500116E+02  0.39358938603E+01  0.28068133713E+02  0.00000000000E+00 0.  1.
</event>
<event>
 5    1  0.6622940E-004  0.9118800E+02  0.7818608E-02  0.1130116E+00
         25   -1    0    0    0    0  0.00000000000E+00  0.00000000000E+00  0.99999998245E-14  0.12500000000E+03  0.12500000000E+03 0.  0.
        -11    1    3    3    0    0 -0.11646989806E+02 -0.32625496686E+02 -0.51229380051E+02  0.61842742390E+02  0.51100000000E-03 0. -1.
         23    2    1    0    0    0 -0.48597485247E+00 -0.18910277769E+02 -0.22199556238E+02  0.95834008263E+02  0.91288017098E+02 0.  0.
         11    1    3    3    0    0  0.11161014954E+02  0.13715218918E+02  0.29029823813E+02  0.33991265873E+02  0.51100000000E-03 0.  1.
         22    1    1    0    0    0  0.48597485247E+00  0.18910277769E+02  0.22199556238E+02  0.29165991737E+02  0.00000000000E+00 0. -1.
</event>
<event>
 5    1  0.6622940E-004  0.9118800E+02  0.7818608E-02  0.1130116E+00
         25   -1    0    0    0    0  0.00000000000E+00  0.00000000000E+00  0.99999998245E-14  0.12500000000E+03  0.12500000000E+03 0.  0.
        -11    1    3    3    0    0  0.44104586464E+02 -0.12107193718E+02 -0.70491204201E+01  0.46276222683E+02  0.51100000000E-03 0. -1.
         23    2    1    0    0    0 -0.30968974201E+01 -0.28312762012E+02 -0.17066385122E+01  0.96467284017E+02  0.92151077065E+02 0.  0.
         11    1    3    3    0    0 -0.47201483884E+02 -0.16205568294E+02  0.53424819079E+01  0.50191061334E+02  0.51100000000E-03 0.  1.
         22    1    1    0    0    0  0.30968974201E+01  0.28312762012E+02  0.17066385122E+01  0.28532715983E+02  0.00000000000E+00 0. -1.
</event>
<event>
 5    1  0.6622940E-004  0.9118800E+02  0.7818608E-02  0.1130116E+00
         25   -1    0    0    0    0  0.00000000000E+00  0.00000000000E+00  0.99999998245E-14  0.12500000000E+03  0.12500000000E+03 0.  0.
        -11    1    3    3    0    0  0.37457379666E+02 -0.21880532998E+02  0.42351822045E+01  0.43586119170E+02  0.51100000000E-03 0.  1.
         23    2    1    0    0    0 -0.93828376436E+01 -0.14059846357E+02  0.24513973875E+02  0.95223300435E+02  0.90447913789E+02 0.  0.
         11    1    3    3    0    0 -0.46840217310E+02  0.78206866416E+01  0.20278791671E+02  0.51637181265E+02  0.51100000000E-03 0. -1.
         22    1    1    0    0    0  0.93828376436E+01  0.14059846357E+02 -0.24513973875E+02  0.29776699565E+02  0.00000000000E+00 0.  1.
</event>
<event>
 5    1  0.6622940E-004  0.9118800E+02  0.7818608E-02  0.1130116E+00
         25   -1    0    0    0    0  0.00000000000E+00  0.00000000000E+00  0.99999998245E-14  0.12500000000E+03  0.12500000000E+03 0.  0.
        -11    1    3    3    0    0 -0.45014003122E+02 -0.31111082727E+02 -0.17018668679E+02  0.57304406719E+02  0.51100000000E-03 0.  1.
         23    2    1    0    0    0 -0.17535201899E+02 -0.20391908299E+01 -0.21069758821E+02  0.97512251062E+02  0.93557804407E+02 0.  0.
         11    1    3    3    0    0  0.27478801223E+02  0.29071891897E+02 -0.40510901419E+01  0.40207844343E+02  0.51100000000E-03 0. -1.
         22    1    1    0    0    0  0.17535201899E+02  0.20391908299E+01  0.21069758821E+02  0.27487748938E+02  0.00000000000E+00 0.  1.
</event>
<event>
 5    1  0.6622940E-004  0.9118800E+02  0.7818608E-02  0.1130116E+00
         25   -1    0    0    0    0  0.00000000000E+00  0.00000000000E+00  0.99999998245E-14  0.12500000000E+03  0.12500000000E+03 0.  0.
        -11    1    3    3    0    0 -0.17833382170E+02  0.48600319919E+02 -0.18933221825E+02  0.55122477310E+02  0.51100000000E-03 0. -1.
         23    2    1    0    0    0 -0.85965794150E+01  0.10960048595E+02 -0.26916211386E+02  0.94693131501E+02  0.89712222552E+02 0.  0.
         11    1    3    3    0    0  0.92368027546E+01 -0.37640271325E+02 -0.79829895604E+01  0.39570654191E+02  0.51100000000E-03 0.  1.
         22    1    1    0    0    0  0.85965794150E+01 -0.10960048595E+02  0.26916211386E+02  0.30306868499E+02  0.00000000000E+00 0. -1.
</event>
<event>
 5    1  0.6622940E-004  0.9118800E+02  0.7818608E-02  0.1130116E+00
         25   -1    0    0    0    0  0.00000000000E+00  0.00000000000E+00  0.99999998245E-14  0.12500000000E+03  0.12500000000E+03 0.  0.
        -11    1    3    3    0    0 -0.14950438371E+02  0.49130084945E+02  0.20988810332E+01  0.51397336079E+02  0.51100000000E-03 0. -1.
         23    2    1    0    0    0 -0.35016916770E+01  0.13536814083E+02  0.25792139055E+02  0.95661601660E+02  0.91051635982E+02 0.  0.
         11    1    3    3    0    0  0.11448746694E+02 -0.35593270862E+02  0.23693258022E+02  0.44264265581E+02  0.51100000000E-03 0.  1.
         22    1    1    0    0    0  0.35016916770E+01 -0.13536814083E+02 -0.25792139055E+02  0.29338398340E+02  0.00000000000E+00 0. -1.
</event>
<event>
 5    1  0.6622940E-004  0.9118800E+02  0.7818608E-02  0.1130116E+00
         25   -1    0    0    0    0  0.00000000000E+00  0.00000000000E+00  0.99999998245E-14  0.12500000000E+03  0.12500000000E+03 0.  0.
        -11    1    3    3    0    0 -0.40317778821E+02  0.23862355001E+02 -0.15922976843E+02  0.49482082283E+02  0.51100000000E-03 0.  1.
         23    2    1    0    0    0 -0.20301757294E+02  0.61501349479E+01  0.21057499980E+02  0.95110138600E+02  0.90291387464E+02 0.  0.
         11    1    3    3    0    0  0.20016021527E+02 -0.17712220053E+02  0.36980476823E+02  0.45628056318E+02  0.51100000000E-03 0. -1.
         22    1    1    0    0    0  0.20301757294E+02 -0.61501349479E+01 -0.21057499980E+02  0.29889861400E+02  0.00000000000E+00 0.  1.
</event>
<event>
 5    1  0.6622940E-004  0.9118800E+02  0.7818608E-02  0.1130116E+00
         25   -1    0    0    0    0  0.00000000000E+00  0.00000000000E+00  0.99999998245E-14  0.12500000000E+03  0.12500000000E+03 0.  0.
        -11    1    3    3    0    0  0.41761863048E+02  0.38231933111E+02  0.26440832462E+02  0.62488811288E+02  0.51100000000E-03 0. -1.
         23    2    1    0    0    0  0.20562249830E+02  0.18509647770E+02  0.12033340595E+02  0.94830239237E+02  0.89903057841E+02 0.  0.
         11    1    3    3    0    0 -0.21199613217E+02 -0.19722285341E+02 -0.14407491867E+02  0.32341427949E+02  0.51100000000E-03 0.  1.
         22    1    1    0    0    0 -0.20562249830E+02 -0.18509647770E+02 -0.12033340595E+02  0.30169760763E+02  0.00000000000E+00 0. -1.
</event>
<event>
 5    1  0.6622940E-004  0.9118800E+02  0.7818608E-02  0.1130116E+00
         25   -1    0    0    0    0  0.00000000000E+00  0.00000000000E+00  0.99999998245E-14  0.12500000000E+03  0.12500000000E+03 0.  0.
        -11    1    3    3    0    0  0.14045672838E+02 -0.22051188856E+02 -0.26506821857E+02  0.37231001338E+02  0.51100000000E-03 0. -1.
         23    2    1    0    0    0 -0.27267922405E+02 -0.51906230267E+01  0.10621871693E+02  0.95279530321E+02  0.90525590747E+02 0.  0.
         11    1    3    3    0    0 -0.41313595243E+02  0.16860565829E+02  0.37128693550E+02  0.58048528982E+02  0.51100000000E-03 0.  1.
         22    1    1    0    0    0  0.27267922405E+02  0.51906230267E+01 -0.10621871693E+02  0.29720469679E+02  0.00000000000E+00 0.  1.
</event>
<event>
 5    1  0.6622940E-004  0.9118800E+02  0.7818608E-02  0.1130116E+00
         25   -1    0    0    0    0  0.00000000000E+00  0.00000000000E+00  0.99999998245E-14  0.12500000000E+03  0.12500000000E+03 0.  0.
        -11    1    3    3    0    0  0.49529798628E+02  0.48003924424E+01 -0.31993386069E+02  0.59159288976E+02  0.51100000000E-03 0. -1.
         23    2    1    0    0    0  0.20024553737E+02  0.15905551082E+02 -0.10284913948E+02  0.97436459543E+02  0.93456486590E+02 0.  0.
         11    1    3    3    0    0 -0.29505244892E+02  0.11105158640E+02  0.21708472121E+02  0.38277170567E+02  0.51100000000E-03 0.  1.
         22    1    1    0    0    0 -0.20024553737E+02 -0.15905551082E+02  0.10284913948E+02  0.27563540457E+02  0.00000000000E+00 0. -1.
</event>
<event>
 5    1  0.6622940E-004  0.9118800E+02  0.7818608E-02  0.1130116E+00
         25   -1    0    0    0    0  0.00000000000E+00  0.00000000000E+00  0.99999998245E-14  0.12500000000E+03  0.12500000000E+03 0.  0.
        -11    1    3    3    0    0 -0.48351781829E+02  0.34008999314E+02  0.26975168768E+01  0.59175868713E+02  0.51100000000E-03 0. -1.
         23    2    1    0    0    0 -0.27116829978E+02  0.69439032646E+01 -0.91353087044E+01  0.95555236021E+02  0.90905494913E+02 0.  0.
         11    1    3    3    0    0  0.21234951850E+02 -0.27065096050E+02 -0.11832825581E+02  0.36379367308E+02  0.51100000000E-03 0.  1.
         22    1    1    0    0    0  0.27116829978E+02 -0.69439032646E+01  0.91353087044E+01  0.29444763979E+02  0.00000000000E+00 0. -1.
</event>
<event>
 5    1  0.6622940E-004  0.9118800E+02  0.7818608E-02  0.1130116E+00
         25   -1    0    0    0    0  0.00000000000E+00  0.00000000000E+00  0.99999998245E-14  0.12500000000E+03  0.12500000000E+03 0.  0.
        -11    1    3    3    0    0  0.33332318939E+01 -0.22628060888E+02  0.22210512973E+02  0.31881757499E+02  0.51100000000E-03 0.  1.
         23    2    1    0    0    0 -0.75677498716E+01  0.50898399929E+01 -0.30904584829E+02  0.92777792243E+02  0.87002575023E+02 0.  0.
         11    1    3    3    0    0 -0.10900981765E+02  0.27717900881E+02 -0.53115097802E+02  0.60896034744E+02  0.51100000000E-03 0. -1.
         22    1    1    0    0    0  0.75677498716E+01 -0.50898399929E+01  0.30904584829E+02  0.32222207757E+02  0.00000000000E+00 0. -1.
</event>
<event>
 5    1  0.6622940E-004  0.9118800E+02  0.7818608E-02  0.1130116E+00
         25   -1    0    0    0    0  0.00000000000E+00  0.00000000000E+00  0.99999998245E-14  0.12500000000E+03  0.12500000000E+03 0.  0.
        -11    1    3    3    0    0  0.50637426146E+02  0.96168263365E+01 -0.95655632059E+01  0.52422631327E+02  0.51100000000E-03 0. -1.
         23    2    1    0    0    0  0.15896644837E+02 -0.84180174689E+01 -0.24746663085E+02  0.94406476682E+02  0.89311920652E+02 0.  0.
         11    1    3    3    0    0 -0.34740781309E+02 -0.18034843805E+02 -0.15181099879E+02  0.41983845355E+02  0.51100000000E-03 0.  1.
         22    1    1    0    0    0 -0.15896644837E+02  0.84180174689E+01  0.24746663085E+02  0.30593523318E+02  0.00000000000E+00 0. -1.
</event>
<event>
 5    1  0.6622940E-004  0.9118800E+02  0.7818608E-02  0.1130116E+00
         25   -1    0    0    0    0  0.00000000000E+00  0.00000000000E+00  0.99999998245E-14  0.12500000000E+03  0.12500000000E+03 0.  0.
        -11    1    3    3    0    0 -0.49963866279E+02  0.67396956310E+01 -0.41309245182E+01  0.50585333530E+02  0.51100000000E-03 0.  1.
         23    2    1    0    0    0 -0.16886814309E+02 -0.15758061043E+02  0.17462715472E+02  0.96044388851E+02  0.91575636567E+02 0.  0.
         11    1    3    3    0    0  0.33077051969E+02 -0.22497756674E+02  0.21593639991E+02  0.45459055321E+02  0.51100000000E-03 0. -1.
         22    1    1    0    0    0  0.16886814309E+02  0.15758061043E+02 -0.17462715472E+02  0.28955611149E+02  0.00000000000E+00 0.  1.
</event>
<event>
 5    1  0.6622940E-004  0.9118800E+02  0.7818608E-02  0.1130116E+00
         25   -1    0    0    0    0  0.00000000000E+00  0.00000000000E+00  0.99999998245E-14  0.12500000000E+03  0.12500000000E+03 0.  0.
        -11    1    3    3    0    0  0.85574989605E+01 -0.51419755720E+02 -0.13037407701E+02  0.53732635024E+02  0.51100000000E-03 0.  1.
         23    2    1    0    0    0 -0.11013494264E+02 -0.23742001302E+02  0.12327374236E+02  0.96070018367E+02  0.91610613969E+02 0.  0.
         11    1    3    3    0    0 -0.19570993224E+02  0.27677754418E+02  0.25364781937E+02  0.42337383344E+02  0.51100000000E-03 0. -1.
         22    1    1    0    0    0  0.11013494264E+02  0.23742001302E+02 -0.12327374236E+02  0.28929981633E+02  0.00000000000E+00 0.  1.
</event>
<event>
 5    1  0.6622940E-004  0.9118800E+02  0.7818608E-02  0.1130116E+00
         25   -1    0    0    0    0  0.00000000000E+00  0.00000000000E+00  0.99999998245E-14  0.12500000000E+03  0.12500000000E+03 0.  0.
        -11    1    3    3    0    0  0.23485641351E+02  0.30180083371E+02  0.55954338298E+01  0.38648695476E+02  0.51100000000E-03 0.  1.
         23    2    1    0    0    0  0.83965013810E+01 -0.26200135260E+02  0.51191696628E+01  0.97015107270E+02  0.92891209581E+02 0.  0.
         11    1    3    3    0    0 -0.15089139970E+02 -0.56380218631E+02 -0.47626416694E+00  0.58366411794E+02  0.51100000000E-03 0. -1.
         22    1    1    0    0    0 -0.83965013810E+01  0.26200135260E+02 -0.51191696628E+01  0.27984892730E+02  0.00000000000E+00 0. -1.
</event>
<event>
 5    1  0.6622940E-004  0.9118800E+02  0.7818608E-02  0.1130116E+00
         25   -1    0    0    0    0  0.00000000000E+00  0.00000000000E+00  0.99999998245E-14  0.12500000000E+03  0.12500000000E+03 0.  0.
        -11    1    3    3    0    0  0.10201754163E+02  0.26526255181E+02  0.27285411253E+02  0.39398117588E+02  0.51100000000E-03 0.  1.
         23    2    1    0    0    0 -0.52701532170E+01 -0.25885132967E+02  0.71946568298E+01  0.97621583125E+02  0.93703766100E+02 0.  0.
         11    1    3    3    0    0 -0.15471907380E+02 -0.52411388149E+02 -0.20090754423E+02  0.58223465538E+02  0.51100000000E-03 0. -1.
         22    1    1    0    0    0  0.52701532170E+01  0.25885132967E+02 -0.71946568298E+01  0.27378416875E+02  0.00000000000E+00 0. -1.
</event>
<event>
 5    1  0.6622940E-004  0.9118800E+02  0.7818608E-02  0.1130116E+00
         25   -1    0    0    0    0  0.00000000000E+00  0.00000000000E+00  0.99999998245E-14  0.12500000000E+03  0.12500000000E+03 0.  0.
        -11    1    3    3    0    0  0.30059843639E+01  0.35428140374E+02 -0.22845429684E+02  0.42262308622E+02  0.51100000000E-03 0. -1.
         23    2    1    0    0    0  0.25411460757E+02  0.25279133629E+01  0.13456220641E+02  0.96134751729E+02  0.91698898207E+02 0.  0.
         11    1    3    3    0    0  0.22405476393E+02 -0.32900227011E+02  0.36301650325E+02  0.53872443107E+02  0.51100000000E-03 0.  1.
         22    1    1    0    0    0 -0.25411460757E+02 -0.25279133629E+01 -0.13456220641E+02  0.28865248271E+02  0.00000000000E+00 0.  1.
</event>
<event>
 5    1  0.6622940E-004  0.9118800E+02  0.7818608E-02  0.1130116E+00
         25   -1    0    0    0    0  0.00000000000E+00  0.00000000000E+00  0.99999998245E-14  0.12500000000E+03  0.12500000000E+03 0.  0.
        -11    1    3    3    0    0  0.74186976183E+01  0.40617975989E+02 -0.44650460743E+02  0.60815464256E+02  0.51100000000E-03 0. -1.
         23    2    1    0    0    0 -0.57884010638E+01  0.23605640944E+02 -0.20219163223E+02  0.93384395740E+02  0.87869783971E+02 0.  0.
         11    1    3    3    0    0 -0.13207098682E+02 -0.17012335045E+02  0.24431297520E+02  0.32568931485E+02  0.51100000000E-03 0.  1.
         22    1    1    0    0    0  0.57884010638E+01 -0.23605640944E+02  0.20219163223E+02  0.31615604260E+02  0.00000000000E+00 0. -1.
</event>
<event>
 5    1  0.6622940E-004  0.9118800E+02  0.7818608E-02  0.1130116E+00
         25   -1    0    0    0    0  0.00000000000E+00  0.00000000000E+00  0.99999998245E-14  0.12500000000E+03  0.12500000000E+03 0.  0.
        -11    1    3    3    0    0  0.28968487572E+02  0.34141186838E+02  0.10058869730E+02  0.45890900748E+02  0.51100000000E-03 0. -1.
         23    2    1    0    0    0  0.89316366335E+01  0.85017538039E+01 -0.27065630023E+02  0.95257735809E+02  0.90495491336E+02 0.  0.
         11    1    3    3    0    0 -0.20036850938E+02 -0.25639433034E+02 -0.37124499752E+02  0.49366835061E+02  0.51100000000E-03 0.  1.
         22    1    1    0    0    0 -0.89316366335E+01 -0.85017538039E+01  0.27065630023E+02  0.29742264191E+02  0.00000000000E+00 0.  1.
</event>
<event>
 5    1  0.6622940E-004  0.9118800E+02  0.7818608E-02  0.1130116E+00
         25   -1    0    0    0    0  0.00000000000E+00  0.00000000000E+00  0.99999998245E-14  0.12500000000E+03  0.12500000000E+03 0.  0.
        -11    1    3    3    0    0 -0.13228945102E+02 -0.29407917829E+02 -0.12834021135E+02  0.34706522706E+02  0.51100000000E-03 0. -1.
         23    2    1    0    0    0  0.20861133795E+02  0.12106407385E+02  0.16370502487E+02  0.95849607985E+02  0.91309375183E+02 0.  0.
         11    1    3    3    0    0  0.34090078897E+02  0.41514325214E+02  0.29204523622E+02  0.61143085279E+02  0.51100000000E-03 0.  1.
         22    1    1    0    0    0 -0.20861133795E+02 -0.12106407385E+02 -0.16370502487E+02  0.29150392015E+02  0.00000000000E+00 0.  1.
</event>
<event>
 5    1  0.6622940E-004  0.9118800E+02  0.7818608E-02  0.1130116E+00
         25   -1    0    0    0    0  0.00000000000E+00  0.00000000000E+00  0.99999998245E-14  0.12500000000E+03  0.12500000000E+03 0.  0.
        -11    1    3    3    0    0  0.76314530890E+01  0.24477713691E+02  0.23148884874E+02  0.34543717446E+02  0.51100000000E-03 0. -1.
         23    2    1    0    0    0 -0.11482157312E+02 -0.25764534674E+02 -0.66690691333E+01  0.96015044133E+02  0.91535572502E+02 0.  0.
         11    1    3    3    0    0 -0.19113610401E+02 -0.50242248365E+02 -0.29817954007E+02  0.61471326688E+02  0.51100000000E-03 0.  1.
         22    1    1    0    0    0  0.11482157312E+02  0.25764534674E+02  0.66690691333E+01  0.28984955867E+02  0.00000000000E+00 0.  1.
</event>
<event>
 5    1  0.6622940E-004  0.9118800E+02  0.7818608E-02  0.1130116E+00
         25   -1    0    0    0    0  0.00000000000E+00  0.00000000000E+00  0.99999998245E-14  0.12500000000E+03  0.12500000000E+03 0.  0.
        -11    1    3    3    0    0 -0.10040254173E+02  0.22674218311E+01  0.50645685963E+02  0.51681074026E+02  0.51100000000E-03 0.  1.
         23    2    1    0    0    0  0.12019250943E+02  0.20918352703E+02  0.22660822311E+02  0.91900864953E+02  0.85733402115E+02 0.  0.
         11    1    3    3    0    0  0.22059505116E+02  0.18650930872E+02 -0.27984863651E+02  0.40219790927E+02  0.51100000000E-03 0. -1.
         22    1    1    0    0    0 -0.12019250943E+02 -0.20918352703E+02 -0.22660822311E+02  0.33099135047E+02  0.00000000000E+00 0.  1.
</event>
<event>
 5    1  0.6622940E-004  0.9118800E+02  0.7818608E-02  0.1130116E+00
         25   -1    0    0    0    0  0.00000000000E+00  0.00000000000E+00  0.99999998245E-14  0.12500000000E+03  0.12500000000E+03 0.  0.
        -11    1    3    3    0    0 -0.29137078427E+02  0.76888105378E+01 -0.51212758410E+02  0.59420819339E+02  0.51100000000E-03 0.  1.
         23    2    1    0    0    0 -0.17876975542E+02 -0.95109587227E+01 -0.22568085548E+02  0.94678999428E+02  0.89692529550E+02 0.  0.
         11    1    3    3    0    0  0.11260102886E+02 -0.17199769260E+02  0.28644672861E+02  0.35258180089E+02  0.51100000000E-03 0. -1.
         22    1    1    0    0    0  0.17876975542E+02  0.95109587227E+01  0.22568085548E+02  0.30321000572E+02  0.00000000000E+00 0.  1.
</event>
<event>
 5    1  0.6622940E-004  0.9118800E+02  0.7818608E-02  0.1130116E+00
         25   -1    0    0    0    0  0.00000000000E+00  0.00000000000E+00  0.99999998245E-14  0.12500000000E+03  0.12500000000E+03 0.  0.
        -11    1    3    3    0    0 -0.38075442739E+02 -0.17056620543E+02  0.41100299402E+02  0.58565367372E+02  0.51100000000E-03 0.  1.
         23    2    1    0    0    0 -0.11380301099E+02  0.44129288512E+01  0.26538175335E+02  0.95789386445E+02  0.91226896315E+02 0.  0.
         11    1    3    3    0    0  0.26695141640E+02  0.21469549394E+02 -0.14562124068E+02  0.37224019073E+02  0.51100000000E-03 0. -1.
         22    1    1    0    0    0  0.11380301099E+02 -0.44129288512E+01 -0.26538175335E+02  0.29210613555E+02  0.00000000000E+00 0.  1.
</event>
<event>
 5    1  0.6622940E-004  0.9118800E+02  0.7818608E-02  0.1130116E+00
         25   -1    0    0    0    0  0.00000000000E+00  0.00000000000E+00  0.99999998245E-14  0.12500000000E+03  0.12500000000E+03 0.  0.
        -11    1    3    3    0    0 -0.17083643123E+01  0.57743202654E+02 -0.19613970331E+02  0.61007407696E+02  0.51100000000E-03 0. -1.
         23    2    1    0    0    0  0.68166850258E+01  0.27883617074E+02 -0.32391234363E+01  0.96113061490E+02  0.91669326235E+02 0.  0.
         11    1    3    3    0    0  0.85250493381E+01 -0.29859585580E+02  0.16374846894E+02  0.35105653794E+02  0.51100000000E-03 0.  1.
         22    1    1    0    0    0 -0.68166850258E+01 -0.27883617074E+02  0.32391234363E+01  0.28886938510E+02  0.00000000000E+00 0. -1.
</event>
<event>
 5    1  0.6622940E-004  0.9118800E+02  0.7818608E-02  0.1130116E+00
         25   -1    0    0    0    0  0.00000000000E+00  0.00000000000E+00  0.99999998245E-14  0.12500000000E+03  0.12500000000E+03 0.  0.
        -11    1    3    3    0    0 -0.13158664055E+02 -0.27751400634E+02  0.22307017005E+02  0.37959105427E+02  0.51100000000E-03 0. -1.
         23    2    1    0    0    0  0.25347213741E+02  0.12520718273E+02  0.51114141307E+01  0.96270638974E+02  0.91883947149E+02 0.  0.
         11    1    3    3    0    0  0.38505877797E+02  0.40272118908E+02 -0.17195602874E+02  0.58311533548E+02  0.51100000000E-03 0.  1.
         22    1    1    0    0    0 -0.25347213741E+02 -0.12520718273E+02 -0.51114141307E+01  0.28729361026E+02  0.00000000000E+00 0.  1.
</event>
<event>
 5    1  0.6622940E-004  0.9118800E+02  0.7818608E-02  0.1130116E+00
         25   -1    0    0    0    0  0.00000000000E+00  0.00000000000E+00  0.99999998245E-14  0.12500000000E+03  0.12500000000E+03 0.  0.
        -11    1    3    3    0    0 -0.61419392840E+01  0.51486307912E+02 -0.22583355147E+02  0.56555912605E+02  0.51100000000E-03 0.  1.
         23    2    1    0    0    0  0.16393414860E+02  0.21305077045E+02 -0.10893664449E+02  0.95994443915E+02  0.91507436740E+02 0.  0.
         11    1    3    3    0    0  0.22535354144E+02 -0.30181230867E+02  0.11689690698E+02  0.39438531310E+02  0.51100000000E-03 0. -1.
         22    1    1    0    0    0 -0.16393414860E+02 -0.21305077045E+02  0.10893664449E+02  0.29005556085E+02  0.00000000000E+00 0.  1.
</event>
<event>
 5    1  0.6622940E-004  0.9118800E+02  0.7818608E-02  0.1130116E+00
         25   -1    0    0    0    0  0.00000000000E+00  0.00000000000E+00  0.99999998245E-14  0.12500000000E+03  0.12500000000E+03 0.  0.
        -11    1    3    3    0    0  0.10437401371E+02 -0.32490663529E+02 -0.51950407975E+02  0.62156475551E+02  0.51100000000E-03 0. -1.
         23    2    1    0    0    0  0.48742237629E+01 -0.11099856281E+02 -0.26461624422E+02  0.95893601497E+02  0.91369581231E+02 0.  0.
         11    1    3    3    0    0 -0.55631776085E+01  0.21390807248E+02  0.25488783553E+02  0.33737125946E+02  0.51100000000E-03 0.  1.
         22    1    1    0    0    0 -0.48742237629E+01  0.11099856281E+02  0.26461624422E+02  0.29106398503E+02  0.00000000000E+00 0. -1.
</event>
<event>
 5    1  0.6622940E-004  0.9118800E+02  0.7818608E-02  0.1130116E+00
         25   -1    0    0    0    0  0.00000000000E+00  0.00000000000E+00  0.99999998245E-14  0.12500000000E+03  0.12500000000E+03 0.  0.
        -11    1    3    3    0    0  0.29004745600E+02  0.33289068323E+02  0.11438852248E+02  0.45610137888E+02  0.51100000000E-03 0.  1.
         23    2    1    0    0    0  0.24176312112E+02 -0.13227101711E+02 -0.80734988283E+01  0.96283599280E+02  0.91901576809E+02 0.  0.
         11    1    3    3    0    0 -0.48284334888E+01 -0.46516170035E+02 -0.19512351076E+02  0.50673461392E+02  0.51100000000E-03 0. -1.
         22    1    1    0    0    0 -0.24176312112E+02  0.13227101711E+02  0.80734988283E+01  0.28716400720E+02  0.00000000000E+00 0. -1.
</event>
<event>
 5    1  0.6622940E-004  0.9118800E+02  0.7818608E-02  0.1130116E+00
         25   -1    0    0    0    0  0.00000000000E+00  0.00000000000E+00  0.99999998245E-14  0.12500000000E+03  0.12500000000E+03 0.  0.
        -11    1    3    3    0    0 -0.56290145715E+01  0.13695353128E+02 -0.35043560428E+02  0.38043391411E+02  0.51100000000E-03 0.  1.
         23    2    1    0    0    0 -0.12332463839E+02 -0.27828346446E+02  0.25478459489E+01  0.94454983234E+02  0.89379784116E+02 0.  0.
         11    1    3    3    0    0 -0.67034492673E+01 -0.41523699574E+02  0.37591406377E+02  0.56411591823E+02  0.51100000000E-03 0. -1.
         22    1    1    0    0    0  0.12332463839E+02  0.27828346446E+02 -0.25478459489E+01  0.30545016766E+02  0.00000000000E+00 0. -1.
</event>
<event>
 5    1  0.6622940E-004  0.9118800E+02  0.7818608E-02  0.1130116E+00
         25   -1    0    0    0    0  0.00000000000E+00  0.00000000000E+00  0.99999998245E-14  0.12500000000E+03  0.12500000000E+03 0.  0.
        -11    1    3    3    0    0  0.14808935693E+02  0.53706918425E+02  0.68865959470E+01  0.56135219489E+02  0.51100000000E-03 0.  1.
         23    2    1    0    0    0 -0.10846973020E+02  0.27585008431E+02 -0.56291707583E+01  0.94829201581E+02  0.89901615087E+02 0.  0.
         11    1    3    3    0    0 -0.25655908712E+02 -0.26121909994E+02 -0.12515766705E+02  0.38693982091E+02  0.51100000000E-03 0. -1.
         22    1    1    0    0    0  0.10846973020E+02 -0.27585008431E+02  0.56291707583E+01  0.30170798419E+02  0.00000000000E+00 0.  1.
</event>
<event>
 5    1  0.6622940E-004  0.9118800E+02  0.7818608E-02  0.1130116E+00
         25   -1    0    0    0    0  0.00000000000E+00  0.00000000000E+00  0.99999998245E-14  0.12500000000E+03  0.12500000000E+03 0.  0.
        -11    1    3    3    0    0 -0.34066122196E+02 -0.16616214987E+02 -0.20151339628E+02  0.42926399465E+02  0.51100000000E-03 0.  1.
         23    2    1    0    0    0  0.14361416894E+02 -0.24563800232E+02  0.13693407263E+01  0.96513061395E+02  0.92213151713E+02 0.  0.
         11    1    3    3    0    0  0.48427539090E+02 -0.79475852447E+01  0.21520680355E+02  0.53586661930E+02  0.51100000000E-03 0. -1.
         22    1    1    0    0    0 -0.14361416894E+02  0.24563800232E+02 -0.13693407263E+01  0.28486938605E+02  0.00000000000E+00 0. -1.
</event>
<event>
 5    1  0.6622940E-004  0.9118800E+02  0.7818608E-02  0.1130116E+00
         25   -1    0    0    0    0  0.00000000000E+00  0.00000000000E+00  0.99999998245E-14  0.12500000000E+03  0.12500000000E+03 0.  0.
        -11    1    3    3    0    0  0.48451191055E+02  0.99873688139E+01 -0.28963400675E+02  0.57324898861E+02  0.51100000000E-03 0.  1.
         23    2    1    0    0    0  0.19670906076E+02 -0.12416608727E+02 -0.18528494736E+02  0.95260769423E+02  0.90499681523E+02 0.  0.
         11    1    3    3    0    0 -0.28780284980E+02 -0.22403977541E+02  0.10434905939E+02  0.37935870563E+02  0.51100000000E-03 0. -1.
         22    1    1    0    0    0 -0.19670906076E+02  0.12416608727E+02  0.18528494736E+02  0.29739230577E+02  0.00000000000E+00 0.  1.
</event>
<event>
 5    1  0.6622940E-004  0.9118800E+02  0.7818608E-02  0.1130116E+00
         25   -1    0    0    0    0  0.00000000000E+00  0.00000000000E+00  0.99999998245E-14  0.12500000000E+03  0.12500000000E+03 0.  0.
        -11    1    3    3    0    0 -0.22848094662E+02  0.35169524857E+02 -0.41174600687E+02  0.58773111628E+02  0.51100000000E-03 0.  1.
         23    2    1    0    0    0 -0.13987323427E+02  0.27254895896E+01 -0.25298048322E+02  0.95964422530E+02  0.91466418058E+02 0.  0.
         11    1    3    3    0    0  0.88607712351E+01 -0.32444035268E+02  0.15876552365E+02  0.37191310902E+02  0.51100000000E-03 0. -1.
         22    1    1    0    0    0  0.13987323427E+02 -0.27254895896E+01  0.25298048322E+02  0.29035577470E+02  0.00000000000E+00 0.  1.
</event>
<event>
 5    1  0.6622940E-004  0.9118800E+02  0.7818608E-02  0.1130116E+00
         25   -1    0    0    0    0  0.00000000000E+00  0.00000000000E+00  0.99999998245E-14  0.12500000000E+03  0.12500000000E+03 0.  0.
        -11    1    3    3    0    0  0.39639270867E+02  0.26864033701E+02 -0.17554375082E+02  0.51001021425E+02  0.51100000000E-03 0. -1.
         23    2    1    0    0    0  0.33341828898E+02 -0.68879154562E+01  0.26706855816E+01  0.90849546195E+02  0.84186617397E+02 0.  0.
         11    1    3    3    0    0 -0.62974419696E+01 -0.33751949157E+02  0.20225060664E+02  0.39848524770E+02  0.51100000000E-03 0.  1.
         22    1    1    0    0    0 -0.33341828898E+02  0.68879154562E+01 -0.26706855816E+01  0.34150453805E+02  0.00000000000E+00 0. -1.
</event>
<event>
 5    1  0.6622940E-004  0.9118800E+02  0.7818608E-02  0.1130116E+00
         25   -1    0    0    0    0  0.00000000000E+00  0.00000000000E+00  0.99999998245E-14  0.12500000000E+03  0.12500000000E+03 0.  0.
        -11    1    3    3    0    0 -0.25288473870E+02 -0.11985481841E+02 -0.49290170230E+02  0.56680504295E+02  0.51100000000E-03 0.  1.
         23    2    1    0    0    0 -0.20346186968E+02  0.11436429090E+02 -0.25552235672E+02  0.90392544411E+02  0.83505305836E+02 0.  0.
         11    1    3    3    0    0  0.49422869021E+01  0.23421910931E+02  0.23737934557E+02  0.33712040116E+02  0.51100000000E-03 0. -1.
         22    1    1    0    0    0  0.20346186968E+02 -0.11436429090E+02  0.25552235672E+02  0.34607455589E+02  0.00000000000E+00 0.  1.
</event>
<event>
 5    1  0.6622940E-004  0.9118800E+02  0.7818608E-02  0.1130116E+00
         25   -1    0    0    0    0  0.00000000000E+00  0.00000000000E+00  0.99999998245E-14  0.12500000000E+03  0.12500000000E+03 0.  0.
        -11    1    3    3    0    0  0.37690558054E+02  0.20599074673E+02  0.21256999127E+02  0.47924524577E+02  0.51100000000E-03 0.  1.
         23    2    1    0    0    0  0.68449406716E+01 -0.15261571858E+02  0.24497494595E+02  0.95336958520E+02  0.90604854341E+02 0.  0.
         11    1    3    3    0    0 -0.30845617382E+02 -0.35860646531E+02  0.32404954682E+01  0.47412433943E+02  0.51100000000E-03 0. -1.
         22    1    1    0    0    0 -0.68449406716E+01  0.15261571858E+02 -0.24497494595E+02  0.29663041480E+02  0.00000000000E+00 0. -1.
</event>
<event>
 5    1  0.6622940E-004  0.9118800E+02  0.7818608E-02  0.1130116E+00
         25   -1    0    0    0    0  0.00000000000E+00  0.00000000000E+00  0.99999998245E-14  0.12500000000E+03  0.12500000000E+03 0.  0.
        -11    1    3    3    0    0  0.20198941826E+02 -0.49370572723E+02  0.30709093878E+02  0.61550785120E+02  0.51100000000E-03 0. -1.
         23    2    1    0    0    0  0.15715687405E+02 -0.18846644229E+02  0.15783657900E+02  0.95822908198E+02  0.91272816597E+02 0.  0.
         11    1    3    3    0    0 -0.44832544211E+01  0.30523928494E+02 -0.14925435978E+02  0.34272123078E+02  0.51100000000E-03 0.  1.
         22    1    1    0    0    0 -0.15715687405E+02  0.18846644229E+02 -0.15783657900E+02  0.29177091802E+02  0.00000000000E+00 0. -1.
</event>
<event>
 5    1  0.6622940E-004  0.9118800E+02  0.7818608E-02  0.1130116E+00
         25   -1    0    0    0    0  0.00000000000E+00  0.00000000000E+00  0.99999998245E-14  0.12500000000E+03  0.12500000000E+03 0.  0.
        -11    1    3    3    0    0  0.58810966524E+01 -0.60096576677E+02 -0.43003734567E+01  0.60536592555E+02  0.51100000000E-03 0.  1.
         23    2    1    0    0    0  0.12961134500E+02 -0.24850715786E+02  0.14084668982E+01  0.96936984096E+02  0.92786022784E+02 0.  0.
         11    1    3    3    0    0  0.70800378481E+01  0.35245860891E+02  0.57088403549E+01  0.36400391541E+02  0.51100000000E-03 0. -1.
         22    1    1    0    0    0 -0.12961134500E+02  0.24850715786E+02 -0.14084668982E+01  0.28063015904E+02  0.00000000000E+00 0.  1.
</event>
<event>
 5    1  0.6622940E-004  0.9118800E+02  0.7818608E-02  0.1130116E+00
         25   -1    0    0    0    0  0.00000000000E+00  0.00000000000E+00  0.99999998245E-14  0.12500000000E+03  0.12500000000E+03 0.  0.
        -11    1    3    3    0    0  0.26937030695E+02 -0.13008948425E+02 -0.46362618295E+02  0.55175435995E+02  0.51100000000E-03 0. -1.
         23    2    1    0    0    0 -0.36533833099E+01  0.62651556848E+01 -0.28667351950E+02  0.95429466471E+02  0.90732390124E+02 0.  0.
         11    1    3    3    0    0 -0.30590414005E+02  0.19274104109E+02  0.17695266345E+02  0.40254030475E+02  0.51100000000E-03 0.  1.
         22    1    1    0    0    0  0.36533833099E+01 -0.62651556848E+01  0.28667351950E+02  0.29570533529E+02  0.00000000000E+00 0. -1.
</event>
<event>
 5    1  0.6622940E-004  0.9118800E+02  0.7818608E-02  0.1130116E+00
         25   -1    0    0    0    0  0.00000000000E+00  0.00000000000E+00  0.99999998245E-14  0.12500000000E+03  0.12500000000E+03 0.  0.
        -11    1    3    3    0    0  0.86100117335E+01  0.32109656770E+02 -0.63620497752E+01  0.33847275187E+02  0.51100000000E-03 0.  1.
         23    2    1    0    0    0 -0.13441009288E+02 -0.22038404832E+02  0.13846345870E+02  0.95707111577E+02  0.91114092731E+02 0.  0.
         11    1    3    3    0    0 -0.22051021022E+02 -0.54148061602E+02  0.20208395645E+02  0.61859836390E+02  0.51100000000E-03 0. -1.
         22    1    1    0    0    0  0.13441009288E+02  0.22038404832E+02 -0.13846345870E+02  0.29292888423E+02  0.00000000000E+00 0. -1.
</event>
<event>
 5    1  0.6622940E-004  0.9118800E+02  0.7818608E-02  0.1130116E+00
         25   -1    0    0    0    0  0.00000000000E+00  0.00000000000E+00  0.99999998245E-14  0.12500000000E+03  0.12500000000E+03 0.  0.
        -11    1    3    3    0    0  0.43577030560E+01  0.25857373638E+02  0.85078483410E+01  0.27567677288E+02  0.51100000000E-03 0. -1.
         23    2    1    0    0    0  0.96916329768E+01 -0.17692344057E+02 -0.31927272879E+02  0.87233645377E+02  0.78634670116E+02 0.  0.
         11    1    3    3    0    0  0.53339299208E+01 -0.43549717695E+02 -0.40435121220E+02  0.59665968090E+02  0.51100000000E-03 0.  1.
         22    1    1    0    0    0 -0.96916329768E+01  0.17692344057E+02  0.31927272879E+02  0.37766354623E+02  0.00000000000E+00 0.  1.
</event>
<event>
 5    1  0.6622940E-004  0.9118800E+02  0.7818608E-02  0.1130116E+00
         25   -1    0    0    0    0  0.00000000000E+00  0.00000000000E+00  0.99999998245E-14  0.12500000000E+03  0.12500000000E+03 0.  0.
        -11    1    3    3    0    0  0.39135209301E+02 -0.35125757244E+01  0.46181632133E+02  0.60635352246E+02  0.51100000000E-03 0.  1.
         23    2    1    0    0    0  0.25613259759E+02  0.39042208910E+01  0.15946311857E+02  0.94576869358E+02  0.89550082855E+02 0.  0.
         11    1    3    3    0    0 -0.13521949542E+02  0.74167966154E+01 -0.30235320276E+02  0.33941517112E+02  0.51100000000E-03 0. -1.
         22    1    1    0    0    0 -0.25613259759E+02 -0.39042208910E+01 -0.15946311857E+02  0.30423130642E+02  0.00000000000E+00 0.  1.
</event>
<event>
 5    1  0.6622940E-004  0.9118800E+02  0.7818608E-02  0.1130116E+00
         25   -1    0    0    0    0  0.00000000000E+00  0.00000000000E+00  0.99999998245E-14  0.12500000000E+03  0.12500000000E+03 0.  0.
        -11    1    3    3    0    0  0.12661661136E+02 -0.22961315892E+02  0.34337830766E+02  0.43204470974E+02  0.51100000000E-03 0. -1.
         23    2    1    0    0    0 -0.14958227001E+01  0.24541463901E+02  0.95631727358E+01  0.98618657943E+02  0.95024546754E+02 0.  0.
         11    1    3    3    0    0 -0.14157483836E+02  0.47502779793E+02 -0.24774658030E+02  0.55414186969E+02  0.51100000000E-03 0.  1.
         22    1    1    0    0    0  0.14958227001E+01 -0.24541463901E+02 -0.95631727358E+01  0.26381342057E+02  0.00000000000E+00 0.  1.
</event>
<event>
 5    1  0.6622940E-004  0.9118800E+02  0.7818608E-02  0.1130116E+00
         25   -1    0    0    0    0  0.00000000000E+00  0.00000000000E+00  0.99999998245E-14  0.12500000000E+03  0.12500000000E+03 0.  0.
        -11    1    3    3    0    0 -0.22197087204E+02  0.50717769150E+02 -0.41509693739E+01  0.55517865006E+02  0.51100000000E-03 0.  1.
         23    2    1    0    0    0  0.10340527286E+02  0.26856911211E+02 -0.45193925947E+01  0.95868486243E+02  0.91335215338E+02 0.  0.
         11    1    3    3    0    0  0.32537614490E+02 -0.23860857939E+02 -0.36842322079E+00  0.40350621237E+02  0.51100000000E-03 0. -1.
         22    1    1    0    0    0 -0.10340527286E+02 -0.26856911211E+02  0.45193925947E+01  0.29131513757E+02  0.00000000000E+00 0.  1.
</event>
<event>
 5    1  0.6622940E-004  0.9118800E+02  0.7818608E-02  0.1130116E+00
         25   -1    0    0    0    0  0.00000000000E+00  0.00000000000E+00  0.99999998245E-14  0.12500000000E+03  0.12500000000E+03 0.  0.
        -11    1    3    3    0    0 -0.23396997398E+02  0.26207426187E+02 -0.43244531203E+02  0.55716587780E+02  0.51100000000E-03 0.  1.
         23    2    1    0    0    0  0.54878385907E+01  0.24432856919E+02 -0.17503161673E+02  0.94447724501E+02  0.89369632008E+02 0.  0.
         11    1    3    3    0    0  0.28884835988E+02 -0.17745692683E+01  0.25741369530E+02  0.38731136721E+02  0.51100000000E-03 0. -1.
         22    1    1    0    0    0 -0.54878385907E+01 -0.24432856919E+02  0.17503161673E+02  0.30552275499E+02  0.00000000000E+00 0.  1.
</event>
<event>
 5    1  0.6622940E-004  0.9118800E+02  0.7818608E-02  0.1130116E+00
         25   -1    0    0    0    0  0.00000000000E+00  0.00000000000E+00  0.99999998245E-14  0.12500000000E+03  0.12500000000E+03 0.  0.
        -11    1    3    3    0    0 -0.53929539786E+01 -0.14948893161E+02  0.33988536086E+02  0.37520313763E+02  0.51100000000E-03 0. -1.
         23    2    1    0    0    0 -0.12708203752E+02  0.38557919041E+01 -0.23257356005E+02  0.98218099729E+02  0.94496163585E+02 0.  0.
         11    1    3    3    0    0 -0.73152497734E+01  0.18804685065E+02 -0.57245892091E+02  0.60697785966E+02  0.51100000000E-03 0.  1.
         22    1    1    0    0    0  0.12708203752E+02 -0.38557919041E+01  0.23257356005E+02  0.26781900271E+02  0.00000000000E+00 0.  1.
</event>
<event>
 5    1  0.6622940E-004  0.9118800E+02  0.7818608E-02  0.1130116E+00
         25   -1    0    0    0    0  0.00000000000E+00  0.00000000000E+00  0.99999998245E-14  0.12500000000E+03  0.12500000000E+03 0.  0.
        -11    1    3    3    0    0 -0.13733539599E+02 -0.26110662404E+02 -0.30901847314E+02  0.42723541155E+02  0.51100000000E-03 0. -1.
         23    2    1    0    0    0 -0.61935655162E+01  0.22730874209E+02 -0.21652657165E+02  0.93001711633E+02  0.87323696144E+02 0.  0.
         11    1    3    3    0    0  0.75399740829E+01  0.48841536614E+02  0.92491901493E+01  0.50278170478E+02  0.51100000000E-03 0.  1.
         22    1    1    0    0    0  0.61935655162E+01 -0.22730874209E+02  0.21652657165E+02  0.31998288367E+02  0.00000000000E+00 0.  1.
</event>
<event>
 5    1  0.6622940E-004  0.9118800E+02  0.7818608E-02  0.1130116E+00
         25   -1    0    0    0    0  0.00000000000E+00  0.00000000000E+00  0.99999998245E-14  0.12500000000E+03  0.12500000000E+03 0.  0.
        -11    1    3    3    0    0  0.43586934266E+02  0.56640194834E+01 -0.15303430026E+02  0.46541346416E+02  0.51100000000E-03 0. -1.
         23    2    1    0    0    0  0.47771084396E+01  0.30406811561E+02 -0.37730276126E+01  0.93989829222E+02  0.88726869129E+02 0.  0.
         11    1    3    3    0    0 -0.38809825826E+02  0.24742792077E+02  0.11530402414E+02  0.47448482805E+02  0.51100000000E-03 0.  1.
         22    1    1    0    0    0 -0.47771084396E+01 -0.30406811561E+02  0.37730276126E+01  0.31010170778E+02  0.00000000000E+00 0. -1.
</event>
<event>
 5    1  0.6622940E-004  0.9118800E+02  0.7818608E-02  0.1130116E+00
         25   -1    0    0    0    0  0.00000000000E+00  0.00000000000E+00  0.99999998245E-14  0.12500000000E+03  0.12500000000E+03 0.  0.
        -11    1    3    3    0    0 -0.15835163734E+02  0.33711553176E+02 -0.49095346564E+01  0.37567602516E+02  0.51100000000E-03 0.  1.
         23    2    1    0    0    0  0.62281220210E+01 -0.20389678752E+02 -0.17596662467E+02  0.97356356364E+02  0.93349285434E+02 0.  0.
         11    1    3    3    0    0  0.22063285755E+02 -0.54101231927E+02 -0.12687127810E+02  0.59788753848E+02  0.51100000000E-03 0. -1.
         22    1    1    0    0    0 -0.62281220210E+01  0.20389678752E+02  0.17596662467E+02  0.27643643636E+02  0.00000000000E+00 0. -1.
</event>
<event>
 5    1  0.6622940E-004  0.9118800E+02  0.7818608E-02  0.1130116E+00
         25   -1    0    0    0    0  0.00000000000E+00  0.00000000000E+00  0.99999998245E-14  0.12500000000E+03  0.12500000000E+03 0.  0.
        -11    1    3    3    0    0 -0.28234229396E+02  0.68956179701E+01 -0.52553837486E+02  0.60055200371E+02  0.51100000000E-03 0. -1.
         23    2    1    0    0    0 -0.46077008484E+01  0.11706283544E+02 -0.27135148426E+02  0.95090398504E+02  0.90264055006E+02 0.  0.
         11    1    3    3    0    0  0.23626528548E+02  0.48106655738E+01  0.25418689060E+02  0.35035198134E+02  0.51100000000E-03 0.  1.
         22    1    1    0    0    0  0.46077008484E+01 -0.11706283544E+02  0.27135148426E+02  0.29909601496E+02  0.00000000000E+00 0. -1.
</event>
<event>
 5    1  0.6622940E-004  0.9118800E+02  0.7818608E-02  0.1130116E+00
         25   -1    0    0    0    0  0.00000000000E+00  0.00000000000E+00  0.99999998245E-14  0.12500000000E+03  0.12500000000E+03 0.  0.
        -11    1    3    3    0    0  0.37990021066E+02 -0.28663431556E+02 -0.27200555082E+02  0.54815182260E+02  0.51100000000E-03 0.  1.
         23    2    1    0    0    0  0.29072819295E+02 -0.28299550880E+00  0.11415700548E+01  0.95903400707E+02  0.91382986254E+02 0.  0.
         11    1    3    3    0    0 -0.89172017702E+01  0.28380436048E+02  0.28342125136E+02  0.41088218447E+02  0.51100000000E-03 0. -1.
         22    1    1    0    0    0 -0.29072819295E+02  0.28299550880E+00 -0.11415700548E+01  0.29096599293E+02  0.00000000000E+00 0.  1.
</event>
<event>
 5    1  0.6622940E-004  0.9118800E+02  0.7818608E-02  0.1130116E+00
         25   -1    0    0    0    0  0.00000000000E+00  0.00000000000E+00  0.99999998245E-14  0.12500000000E+03  0.12500000000E+03 0.  0.
        -11    1    3    3    0    0  0.19838062517E+02  0.26340416562E+02  0.15302985060E+02  0.36353096444E+02  0.51100000000E-03 0. -1.
         23    2    1    0    0    0 -0.28035610208E+02 -0.66980465074E+00 -0.76671875857E+01  0.95927163133E+02  0.91415484374E+02 0.  0.
         11    1    3    3    0    0 -0.47873672725E+02 -0.27010221212E+02 -0.22970172646E+02  0.59574066689E+02  0.51100000000E-03 0.  1.
         22    1    1    0    0    0  0.28035610208E+02  0.66980465074E+00  0.76671875857E+01  0.29072836867E+02  0.00000000000E+00 0.  1.
</event>
<event>
 5    1  0.6622940E-004  0.9118800E+02  0.7818608E-02  0.1130116E+00
         25   -1    0    0    0    0  0.00000000000E+00  0.00000000000E+00  0.99999998245E-14  0.12500000000E+03  0.12500000000E+03 0.  0.
        -11    1    3    3    0    0 -0.24096740015E+01 -0.60891849013E+02 -0.66145628631E+00  0.60943099115E+02  0.51100000000E-03 0. -1.
         23    2    1    0    0    0  0.40670102612E+01 -0.29848381660E+02  0.80289306839E+01  0.93824205092E+02  0.88493227272E+02 0.  0.
         11    1    3    3    0    0  0.64766842627E+01  0.31043467353E+02  0.86903869702E+01  0.32881105977E+02  0.51100000000E-03 0.  1.
         22    1    1    0    0    0 -0.40670102612E+01  0.29848381660E+02 -0.80289306839E+01  0.31175794908E+02  0.00000000000E+00 0. -1.
</event>
<event>
 5    1  0.6622940E-004  0.9118800E+02  0.7818608E-02  0.1130116E+00
         25   -1    0    0    0    0  0.00000000000E+00  0.00000000000E+00  0.99999998245E-14  0.12500000000E+03  0.12500000000E+03 0.  0.
        -11    1    3    3    0    0  0.19095376778E+01 -0.10207093344E+02  0.31318942891E+02  0.32995564441E+02  0.51100000000E-03 0.  1.
         23    2    1    0    0    0 -0.69585111581E+01 -0.97675507605E+01 -0.28818905700E+02  0.93785335959E+02  0.88438306123E+02 0.  0.
         11    1    3    3    0    0 -0.88680488358E+01  0.43954258362E+00 -0.60137848592E+02  0.60789771519E+02  0.51100000000E-03 0. -1.
         22    1    1    0    0    0  0.69585111581E+01  0.97675507605E+01  0.28818905700E+02  0.31214664041E+02  0.00000000000E+00 0. -1.
</event>
<event>
 5    1  0.6622940E-004  0.9118800E+02  0.7818608E-02  0.1130116E+00
         25   -1    0    0    0    0  0.00000000000E+00  0.00000000000E+00  0.99999998245E-14  0.12500000000E+03  0.12500000000E+03 0.  0.
        -11    1    3    3    0    0 -0.48462163621E+02 -0.31711468071E+02 -0.19460154732E+02  0.61097431472E+02  0.51100000000E-03 0.  1.
         23    2    1    0    0    0 -0.24679743270E+02 -0.16097746313E+02 -0.56476573158E-01  0.95534251175E+02  0.90876635027E+02 0.  0.
         11    1    3    3    0    0  0.23782420351E+02  0.15613721759E+02  0.19403678159E+02  0.34436819703E+02  0.51100000000E-03 0. -1.
         22    1    1    0    0    0  0.24679743270E+02  0.16097746313E+02  0.56476573158E-01  0.29465748825E+02  0.00000000000E+00 0.  1.
</event>
<event>
 5    1  0.6622940E-004  0.9118800E+02  0.7818608E-02  0.1130116E+00
         25   -1    0    0    0    0  0.00000000000E+00  0.00000000000E+00  0.99999998245E-14  0.12500000000E+03  0.12500000000E+03 0.  0.
        -11    1    3    3    0    0  0.13897379766E+02 -0.10279843983E+02  0.48798678509E+02  0.51769908066E+02  0.51100000000E-03 0. -1.
         23    2    1    0    0    0  0.28558324222E+02  0.72605458138E+01  0.16848138217E+02  0.91056618182E+02  0.84493517772E+02 0.  0.
         11    1    3    3    0    0  0.14660944456E+02  0.17540389796E+02 -0.31950540292E+02  0.39286710116E+02  0.51100000000E-03 0.  1.
         22    1    1    0    0    0 -0.28558324222E+02 -0.72605458138E+01 -0.16848138217E+02  0.33943381818E+02  0.00000000000E+00 0. -1.
</event>
<event>
 5    1  0.6622940E-004  0.9118800E+02  0.7818608E-02  0.1130116E+00
         25   -1    0    0    0    0  0.00000000000E+00  0.00000000000E+00  0.99999998245E-14  0.12500000000E+03  0.12500000000E+03 0.  0.
        -11    1    3    3    0    0  0.27397951261E+02  0.30545170820E+02 -0.37203672404E+01  0.41200683567E+02  0.51100000000E-03 0. -1.
         23    2    1    0    0    0 -0.18582213430E+02  0.12107471371E+02  0.19088141633E+02  0.95738307125E+02  0.91156880054E+02 0.  0.
         11    1    3    3    0    0 -0.45980164691E+02 -0.18437699449E+02  0.22808508873E+02  0.54537623557E+02  0.51100000000E-03 0.  1.
         22    1    1    0    0    0  0.18582213430E+02 -0.12107471371E+02 -0.19088141633E+02  0.29261692875E+02  0.00000000000E+00 0.  1.
</event>
<event>
 5    1  0.6622940E-004  0.9118800E+02  0.7818608E-02  0.1130116E+00
         25   -1    0    0    0    0  0.00000000000E+00  0.00000000000E+00  0.99999998245E-14  0.12500000000E+03  0.12500000000E+03 0.  0.
        -11    1    3    3    0    0 -0.15161593719E+01  0.42296453408E+02 -0.15383007617E+02  0.45032495309E+02  0.51100000000E-03 0. -1.
         23    2    1    0    0    0 -0.47785126852E+01  0.12246851458E+02  0.25756679665E+02  0.96082425734E+02  0.91627541893E+02 0.  0.
         11    1    3    3    0    0 -0.32623533133E+01 -0.30049601950E+02  0.41139687282E+02  0.51049930425E+02  0.51100000000E-03 0.  1.
         22    1    1    0    0    0  0.47785126852E+01 -0.12246851458E+02 -0.25756679665E+02  0.28917574266E+02  0.00000000000E+00 0. -1.
</event>
<event>
 5    1  0.6622940E-004  0.9118800E+02  0.7818608E-02  0.1130116E+00
         25   -1    0    0    0    0  0.00000000000E+00  0.00000000000E+00  0.99999998245E-14  0.12500000000E+03  0.12500000000E+03 0.  0.
        -11    1    3    3    0    0  0.32916370378E+02  0.83987797302E+01  0.24053718849E+02  0.41624612077E+02  0.51100000000E-03 0.  1.
         23    2    1    0    0    0  0.16095706045E+02 -0.15102699067E+02 -0.20595818209E+02  0.94811409442E+02  0.89876873335E+02 0.  0.
         11    1    3    3    0    0 -0.16820664333E+02 -0.23501478797E+02 -0.44649537057E+02  0.53186797365E+02  0.51100000000E-03 0. -1.
         22    1    1    0    0    0 -0.16095706045E+02  0.15102699067E+02  0.20595818209E+02  0.30188590558E+02  0.00000000000E+00 0. -1.
</event>
<event>
 5    1  0.6622940E-004  0.9118800E+02  0.7818608E-02  0.1130116E+00
         25   -1    0    0    0    0  0.00000000000E+00  0.00000000000E+00  0.99999998245E-14  0.12500000000E+03  0.12500000000E+03 0.  0.
        -11    1    3    3    0    0 -0.27803857392E+02  0.81193453620E+01 -0.32818365049E+02  0.43772403860E+02  0.51100000000E-03 0. -1.
         23    2    1    0    0    0 -0.16661116616E+02 -0.18455220248E+02  0.12263259128E+02  0.97276805997E+02  0.93242702124E+02 0.  0.
         11    1    3    3    0    0  0.11142740776E+02 -0.26574565610E+02  0.45081624177E+02  0.53504402137E+02  0.51100000000E-03 0.  1.
         22    1    1    0    0    0  0.16661116616E+02  0.18455220248E+02 -0.12263259128E+02  0.27723194003E+02  0.00000000000E+00 0.  1.
</event>
<event>
 5    1  0.6622940E-004  0.9118800E+02  0.7818608E-02  0.1130116E+00
         25   -1    0    0    0    0  0.00000000000E+00  0.00000000000E+00  0.99999998245E-14  0.12500000000E+03  0.12500000000E+03 0.  0.
        -11    1    3    3    0    0  0.34561373359E+02 -0.11586183889E+02 -0.35158991489E+02  0.50644672656E+02  0.51100000000E-03 0.  1.
         23    2    1    0    0    0 -0.99726690854E+01 -0.16362924120E+02 -0.18303043838E+02  0.98500927786E+02  0.94869552263E+02 0.  0.
         11    1    3    3    0    0 -0.44534042444E+02 -0.47767402304E+01  0.16855947651E+02  0.47856255131E+02  0.51100000000E-03 0. -1.
         22    1    1    0    0    0  0.99726690854E+01  0.16362924120E+02  0.18303043838E+02  0.26499072214E+02  0.00000000000E+00 0. -1.
</event>
<event>
 5    1  0.6622940E-004  0.9118800E+02  0.7818608E-02  0.1130116E+00
         25   -1    0    0    0    0  0.00000000000E+00  0.00000000000E+00  0.99999998245E-14  0.12500000000E+03  0.12500000000E+03 0.  0.
        -11    1    3    3    0    0  0.36900447708E+02  0.46645760920E+01  0.22287628745E+02  0.43360577793E+02  0.51100000000E-03 0.  1.
         23    2    1    0    0    0  0.91692467364E+01 -0.27240058837E+02 -0.77662668519E+01  0.95227348254E+02  0.90453507746E+02 0.  0.
         11    1    3    3    0    0 -0.27731200972E+02 -0.31904634929E+02 -0.30053895597E+02  0.51866770461E+02  0.51100000000E-03 0. -1.
         22    1    1    0    0    0 -0.91692467364E+01  0.27240058837E+02  0.77662668519E+01  0.29772651746E+02  0.00000000000E+00 0. -1.
</event>
<event>
 5    1  0.6622940E-004  0.9118800E+02  0.7818608E-02  0.1130116E+00
         25   -1    0    0    0    0  0.00000000000E+00  0.00000000000E+00  0.99999998245E-14  0.12500000000E+03  0.12500000000E+03 0.  0.
        -11    1    3    3    0    0 -0.35389755064E+02  0.34132011373E+02  0.96665328022E+01  0.50108590287E+02  0.51100000000E-03 0. -1.
         23    2    1    0    0    0 -0.25637170070E+02 -0.10630612578E+02  0.86385899710E+01  0.95932842422E+02  0.91423249808E+02 0.  0.
         11    1    3    3    0    0  0.97525849940E+01 -0.44762623950E+02 -0.10279428312E+01  0.45824252135E+02  0.51100000000E-03 0.  1.
         22    1    1    0    0    0  0.25637170070E+02  0.10630612578E+02 -0.86385899710E+01  0.29067157578E+02  0.00000000000E+00 0. -1.
</event>
<event>
 5    1  0.6622940E-004  0.9118800E+02  0.7818608E-02  0.1130116E+00
         25   -1    0    0    0    0  0.00000000000E+00  0.00000000000E+00  0.99999998245E-14  0.12500000000E+03  0.12500000000E+03 0.  0.
        -11    1    3    3    0    0  0.11006059782E+02 -0.36757915127E+02 -0.28993198253E+01  0.38479653482E+02  0.51100000000E-03 0.  1.
         23    2    1    0    0    0 -0.27395793178E+02  0.25179024717E+01  0.11368602852E+02  0.95232325459E+02  0.90460385611E+02 0.  0.
         11    1    3    3    0    0 -0.38401852960E+02  0.39275817598E+02  0.14267922678E+02  0.56752671977E+02  0.51100000000E-03 0. -1.
         22    1    1    0    0    0  0.27395793178E+02 -0.25179024717E+01 -0.11368602852E+02  0.29767674541E+02  0.00000000000E+00 0. -1.
</event>
<event>
 5    1  0.6622940E-004  0.9118800E+02  0.7818608E-02  0.1130116E+00
         25   -1    0    0    0    0  0.00000000000E+00  0.00000000000E+00  0.99999998245E-14  0.12500000000E+03  0.12500000000E+03 0.  0.
        -11    1    3    3    0    0  0.88543916327E+01  0.43756197837E+02 -0.29045129061E+02  0.53259972050E+02  0.51100000000E-03 0. -1.
         23    2    1    0    0    0 -0.10818081270E+02  0.27346302911E+02  0.42670631670E+01  0.95283691458E+02  0.90531336368E+02 0.  0.
         11    1    3    3    0    0 -0.19672472903E+02 -0.16409894925E+02  0.33312192228E+02  0.42023719408E+02  0.51100000000E-03 0.  1.
         22    1    1    0    0    0  0.10818081270E+02 -0.27346302911E+02 -0.42670631670E+01  0.29716308542E+02  0.00000000000E+00 0. -1.
</event>
<event>
 5    1  0.6622940E-004  0.9118800E+02  0.7818608E-02  0.1130116E+00
         25   -1    0    0    0    0  0.00000000000E+00  0.00000000000E+00  0.99999998245E-14  0.12500000000E+03  0.12500000000E+03 0.  0.
        -11    1    3    3    0    0 -0.16070370789E+02  0.32511998430E+02 -0.17791981847E+02  0.40396057698E+02  0.51100000000E-03 0.  1.
         23    2    1    0    0    0 -0.24648034610E+02 -0.14712074880E+02  0.84223583066E+01  0.95085005819E+02  0.90256586766E+02 0.  0.
         11    1    3    3    0    0 -0.85776638216E+01 -0.47224073310E+02  0.26214340154E+02  0.54688948121E+02  0.51100000000E-03 0. -1.
         22    1    1    0    0    0  0.24648034610E+02  0.14712074880E+02 -0.84223583066E+01  0.29914994181E+02  0.00000000000E+00 0. -1.
</event>
<event>
 5    1  0.6622940E-004  0.9118800E+02  0.7818608E-02  0.1130116E+00
         25   -1    0    0    0    0  0.00000000000E+00  0.00000000000E+00  0.99999998245E-14  0.12500000000E+03  0.12500000000E+03 0.  0.
        -11    1    3    3    0    0  0.35342552478E+02  0.11405664840E+01  0.60677325645E+01  0.35877768692E+02  0.51100000000E-03 0. -1.
         23    2    1    0    0    0 -0.23033077611E+02 -0.12515724197E+02  0.12092450681E+02  0.96131446522E+02  0.91694392580E+02 0.  0.
         11    1    3    3    0    0 -0.58375630089E+02 -0.13656290681E+02  0.60247181164E+01  0.60253677831E+02  0.51100000000E-03 0.  1.
         22    1    1    0    0    0  0.23033077611E+02  0.12515724197E+02 -0.12092450681E+02  0.28868553478E+02  0.00000000000E+00 0.  1.
</event>
<event>
 5    1  0.6622940E-004  0.9118800E+02  0.7818608E-02  0.1130116E+00
         25   -1    0    0    0    0  0.00000000000E+00  0.00000000000E+00  0.99999998245E-14  0.12500000000E+03  0.12500000000E+03 0.  0.
        -11    1    3    3    0    0  0.35570362321E+02  0.10785093046E+02  0.40867975058E+02  0.55242739734E+02  0.51100000000E-03 0.  1.
         23    2    1    0    0    0  0.26527000632E+02  0.13064452259E+02  0.18359888346E+01  0.95373448896E+02  0.90655183106E+02 0.  0.
         11    1    3    3    0    0 -0.90433616897E+01  0.22793592121E+01 -0.39031986223E+02  0.40130709162E+02  0.51100000000E-03 0. -1.
         22    1    1    0    0    0 -0.26527000632E+02 -0.13064452259E+02 -0.18359888346E+01  0.29626551104E+02  0.00000000000E+00 0.  1.
</event>
<event>
 5    1  0.6622940E-004  0.9118800E+02  0.7818608E-02  0.1130116E+00
         25   -1    0    0    0    0  0.00000000000E+00  0.00000000000E+00  0.99999998245E-14  0.12500000000E+03  0.12500000000E+03 0.  0.
        -11    1    3    3    0    0  0.46156347868E+02  0.95334999459E+00  0.98640610627E+01  0.47208230486E+02  0.51100000000E-03 0.  1.
         23    2    1    0    0    0  0.18918407166E+02 -0.18458761963E+02 -0.19847247289E+02  0.91946327771E+02  0.85799661670E+02 0.  0.
         11    1    3    3    0    0 -0.27237940703E+02 -0.19412111957E+02 -0.29711308352E+02  0.44738097284E+02  0.51100000000E-03 0. -1.
         22    1    1    0    0    0 -0.18918407166E+02  0.18458761963E+02  0.19847247289E+02  0.33053672229E+02  0.00000000000E+00 0.  1.
</event>
<event>
 5    1  0.6622940E-004  0.9118800E+02  0.7818608E-02  0.1130116E+00
         25   -1    0    0    0    0  0.00000000000E+00  0.00000000000E+00  0.99999998245E-14  0.12500000000E+03  0.12500000000E+03 0.  0.
        -11    1    3    3    0    0 -0.22736237655E+02 -0.48288812499E+02 -0.14477996357E+02  0.55302425752E+02  0.51100000000E-03 0. -1.
         23    2    1    0    0    0 -0.28703731791E+02 -0.12596405558E+02 -0.11494067355E+02  0.91613067885E+02  0.85312759721E+02 0.  0.
         11    1    3    3    0    0 -0.59674941357E+01  0.35692406941E+02  0.29839290021E+01  0.36310642133E+02  0.51100000000E-03 0.  1.
         22    1    1    0    0    0  0.28703731791E+02  0.12596405558E+02  0.11494067355E+02  0.33386932115E+02  0.00000000000E+00 0. -1.
</event>
<event>
 5    1  0.6622940E-004  0.9118800E+02  0.7818608E-02  0.1130116E+00
         25   -1    0    0    0    0  0.00000000000E+00  0.00000000000E+00  0.99999998245E-14  0.12500000000E+03  0.12500000000E+03 0.  0.
        -11    1    3    3    0    0  0.39986503937E+02  0.10566375282E+02  0.44652947589E+02  0.60864230155E+02  0.51100000000E-03 0.  1.
         23    2    1    0    0    0  0.10965126668E+02  0.53502827057E+01  0.27348721981E+02  0.95053178434E+02  0.90212496964E+02 0.  0.
         11    1    3    3    0    0 -0.29021377268E+02 -0.52160925766E+01 -0.17304225608E+02  0.34188948280E+02  0.51100000000E-03 0. -1.
         22    1    1    0    0    0 -0.10965126668E+02 -0.53502827057E+01 -0.27348721981E+02  0.29946821566E+02  0.00000000000E+00 0.  1.
</event>
<event>
 5    1  0.6622940E-004  0.9118800E+02  0.7818608E-02  0.1130116E+00
         25   -1    0    0    0    0  0.00000000000E+00  0.00000000000E+00  0.99999998245E-14  0.12500000000E+03  0.12500000000E+03 0.  0.
        -11    1    3    3    0    0 -0.24903102033E+02  0.43316732359E+02 -0.97100156044E+01  0.50899785819E+02  0.51100000000E-03 0.  1.
         23    2    1    0    0    0 -0.26758841760E+02  0.59276244612E+01 -0.21519784687E+02  0.90153572966E+02  0.83146817386E+02 0.  0.
         11    1    3    3    0    0 -0.18557397266E+01 -0.37389107898E+02 -0.11809769082E+02  0.39253787147E+02  0.51100000000E-03 0. -1.
         22    1    1    0    0    0  0.26758841760E+02 -0.59276244612E+01  0.21519784687E+02  0.34846427034E+02  0.00000000000E+00 0.  1.
</event>
<event>
 5    1  0.6622940E-004  0.9118800E+02  0.7818608E-02  0.1130116E+00
         25   -1    0    0    0    0  0.00000000000E+00  0.00000000000E+00  0.99999998245E-14  0.12500000000E+03  0.12500000000E+03 0.  0.
        -11    1    3    3    0    0  0.29970580102E+01  0.33475714785E+02 -0.20879840216E+02  0.39567329513E+02  0.51100000000E-03 0.  1.
         23    2    1    0    0    0 -0.25689913289E+02 -0.11785361150E+02 -0.10141788753E+01  0.96717586011E+02  0.92489980554E+02 0.  0.
         11    1    3    3    0    0 -0.28686971299E+02 -0.45261075935E+02  0.19865661341E+02  0.57150256499E+02  0.51100000000E-03 0. -1.
         22    1    1    0    0    0  0.25689913289E+02  0.11785361150E+02  0.10141788753E+01  0.28282413989E+02  0.00000000000E+00 0. -1.
</event>
<event>
 5    1  0.6622940E-004  0.9118800E+02  0.7818608E-02  0.1130116E+00
         25   -1    0    0    0    0  0.00000000000E+00  0.00000000000E+00  0.99999998245E-14  0.12500000000E+03  0.12500000000E+03 0.  0.
        -11    1    3    3    0    0  0.67390352677E+01  0.41215805254E+02 -0.43978264712E+02  0.60648536392E+02  0.51100000000E-03 0.  1.
         23    2    1    0    0    0  0.10602898977E+02  0.24892217432E+02 -0.15179842060E+02  0.93976274235E+02  0.88707770565E+02 0.  0.
         11    1    3    3    0    0  0.38638637092E+01 -0.16323587822E+02  0.28798422653E+02  0.33327737843E+02  0.51100000000E-03 0. -1.
         22    1    1    0    0    0 -0.10602898977E+02 -0.24892217432E+02  0.15179842060E+02  0.31023725765E+02  0.00000000000E+00 0.  1.
</event>
<event>
 5    1  0.6622940E-004  0.9118800E+02  0.7818608E-02  0.1130116E+00
         25   -1    0    0    0    0  0.00000000000E+00  0.00000000000E+00  0.99999998245E-14  0.12500000000E+03  0.12500000000E+03 0.  0.
        -11    1    3    3    0    0  0.43374482438E+01 -0.12732638257E+02  0.60446548392E+02  0.61925105951E+02  0.51100000000E-03 0.  1.
         23    2    1    0    0    0  0.76549776824E+01 -0.73728537372E+01  0.26568714701E+02  0.96384370417E+02  0.92038538690E+02 0.  0.
         11    1    3    3    0    0  0.33175294386E+01  0.53597845202E+01 -0.33877833691E+02  0.34459264466E+02  0.51100000000E-03 0. -1.
         22    1    1    0    0    0 -0.76549776824E+01  0.73728537372E+01 -0.26568714701E+02  0.28615629583E+02  0.00000000000E+00 0.  1.
</event>
<event>
 5    1  0.6622940E-004  0.9118800E+02  0.7818608E-02  0.1130116E+00
         25   -1    0    0    0    0  0.00000000000E+00  0.00000000000E+00  0.99999998245E-14  0.12500000000E+03  0.12500000000E+03 0.  0.
        -11    1    3    3    0    0 -0.23589285788E+02  0.42068859867E+02  0.45632028561E+01  0.48446529236E+02  0.51100000000E-03 0. -1.
         23    2    1    0    0    0 -0.13351148555E+02  0.36520488571E+00 -0.22233319900E+02  0.99063403151E+02  0.95607796689E+02 0.  0.
         11    1    3    3    0    0  0.10238137234E+02 -0.41703654981E+02 -0.26796522756E+02  0.50616873915E+02  0.51100000000E-03 0.  1.
         22    1    1    0    0    0  0.13351148555E+02 -0.36520488571E+00  0.22233319900E+02  0.25936596849E+02  0.00000000000E+00 0.  1.
</event>
<event>
 5    1  0.6622940E-004  0.9118800E+02  0.7818608E-02  0.1130116E+00
         25   -1    0    0    0    0  0.00000000000E+00  0.00000000000E+00  0.99999998245E-14  0.12500000000E+03  0.12500000000E+03 0.  0.
        -11    1    3    3    0    0 -0.32563266667E+02 -0.86168186120E+01 -0.18353104890E+02  0.38359514575E+02  0.51100000000E-03 0.  1.
         23    2    1    0    0    0  0.18317439209E+02 -0.11540335786E+02  0.14452344420E+02  0.98969667915E+02  0.95485166275E+02 0.  0.
         11    1    3    3    0    0  0.50880705877E+02 -0.29235171736E+01  0.32805449310E+02  0.60610153340E+02  0.51100000000E-03 0. -1.
         22    1    1    0    0    0 -0.18317439209E+02  0.11540335786E+02 -0.14452344420E+02  0.26030332085E+02  0.00000000000E+00 0. -1.
</event>
<event>
 5    1  0.6622940E-004  0.9118800E+02  0.7818608E-02  0.1130116E+00
         25   -1    0    0    0    0  0.00000000000E+00  0.00000000000E+00  0.99999998245E-14  0.12500000000E+03  0.12500000000E+03 0.  0.
        -11    1    3    3    0    0  0.70177684541E+01 -0.21047960441E+01 -0.35277650350E+02  0.36030429569E+02  0.51100000000E-03 0. -1.
         23    2    1    0    0    0  0.30906961460E+01  0.24807290926E+02  0.16867949921E+02  0.94842383710E+02  0.89919941768E+02 0.  0.
         11    1    3    3    0    0 -0.39270723081E+01  0.26912086970E+02  0.52145600271E+02  0.58811954141E+02  0.51100000000E-03 0.  1.
         22    1    1    0    0    0 -0.30906961460E+01 -0.24807290926E+02 -0.16867949921E+02  0.30157616290E+02  0.00000000000E+00 0.  1.
</event>
<event>
 5    1  0.6622940E-004  0.9118800E+02  0.7818608E-02  0.1130116E+00
         25   -1    0    0    0    0  0.00000000000E+00  0.00000000000E+00  0.99999998245E-14  0.12500000000E+03  0.12500000000E+03 0.  0.
        -11    1    3    3    0    0  0.20439543375E+02  0.18242122838E+02 -0.30341344344E+02  0.40879666778E+02  0.51100000000E-03 0.  1.
         23    2    1    0    0    0 -0.24387964437E+02 -0.87755653604E+01 -0.12895171697E+02  0.96050581874E+02  0.91584089603E+02 0.  0.
         11    1    3    3    0    0 -0.44827507812E+02 -0.27017688199E+02  0.17446172646E+02  0.55170915096E+02  0.51100000000E-03 0. -1.
         22    1    1    0    0    0  0.24387964437E+02  0.87755653604E+01  0.12895171697E+02  0.28949418126E+02  0.00000000000E+00 0. -1.
</event>
<event>
 5    1  0.6622940E-004  0.9118800E+02  0.7818608E-02  0.1130116E+00
         25   -1    0    0    0    0  0.00000000000E+00  0.00000000000E+00  0.99999998245E-14  0.12500000000E+03  0.12500000000E+03 0.  0.
        -11    1    3    3    0    0 -0.52311678873E+02  0.20404478649E+02 -0.26599247054E+02  0.62131911603E+02  0.51100000000E-03 0.  1.
         23    2    1    0    0    0 -0.26891170398E+02  0.93663980504E+01 -0.83094630558E+01  0.95336695496E+02  0.90604491467E+02 0.  0.
         11    1    3    3    0    0  0.25420508475E+02 -0.11038080599E+02  0.18289783998E+02  0.33204783893E+02  0.51100000000E-03 0. -1.
         22    1    1    0    0    0  0.26891170398E+02 -0.93663980504E+01  0.83094630558E+01  0.29663304504E+02  0.00000000000E+00 0.  1.
</event>
<event>
 5    1  0.6622940E-004  0.9118800E+02  0.7818608E-02  0.1130116E+00
         25   -1    0    0    0    0  0.00000000000E+00  0.00000000000E+00  0.99999998245E-14  0.12500000000E+03  0.12500000000E+03 0.  0.
        -11    1    3    3    0    0  0.14251315841E+02  0.12541339287E+02 -0.23242364642E+02  0.30009876853E+02  0.51100000000E-03 0. -1.
         23    2    1    0    0    0 -0.17213088516E+02 -0.31499337086E+01  0.27896359610E+02  0.92069476498E+02  0.85978887667E+02 0.  0.
         11    1    3    3    0    0 -0.31464404357E+02 -0.15691272996E+02  0.51138724252E+02  0.62059599645E+02  0.51100000000E-03 0.  1.
         22    1    1    0    0    0  0.17213088516E+02  0.31499337086E+01 -0.27896359610E+02  0.32930523502E+02  0.00000000000E+00 0.  1.
</event>
<event>
 5    1  0.6622940E-004  0.9118800E+02  0.7818608E-02  0.1130116E+00
         25   -1    0    0    0    0  0.00000000000E+00  0.00000000000E+00  0.99999998245E-14  0.12500000000E+03  0.12500000000E+03 0.  0.
        -11    1    3    3    0    0  0.34971884183E+02 -0.17127913092E+02 -0.13010434498E+02  0.41056905586E+02  0.51100000000E-03 0. -1.
         23    2    1    0    0    0 -0.64212278177E+01 -0.13002552758E+02  0.24146393023E+02  0.96833586652E+02  0.92646622512E+02 0.  0.
         11    1    3    3    0    0 -0.41393112001E+02  0.41253603344E+01  0.37156827521E+02  0.55776681065E+02  0.51100000000E-03 0.  1.
         22    1    1    0    0    0  0.64212278177E+01  0.13002552758E+02 -0.24146393023E+02  0.28166413348E+02  0.00000000000E+00 0.  1.
</event>
<event>
 5    1  0.6622940E-004  0.9118800E+02  0.7818608E-02  0.1130116E+00
         25   -1    0    0    0    0  0.00000000000E+00  0.00000000000E+00  0.99999998245E-14  0.12500000000E+03  0.12500000000E+03 0.  0.
        -11    1    3    3    0    0  0.16825049376E+02  0.24537563189E+02  0.40262796248E+02  0.50062631330E+02  0.51100000000E-03 0.  1.
         23    2    1    0    0    0 -0.34543614143E+00  0.29422824979E+02 -0.15576448630E+01  0.95533948121E+02  0.90876218177E+02 0.  0.
         11    1    3    3    0    0 -0.17170485518E+02  0.48852617896E+01 -0.41820441111E+02  0.45471316790E+02  0.51100000000E-03 0. -1.
         22    1    1    0    0    0  0.34543614143E+00 -0.29422824979E+02  0.15576448630E+01  0.29466051879E+02  0.00000000000E+00 0.  1.
</event>
<event>
 5    1  0.6622940E-004  0.9118800E+02  0.7818608E-02  0.1130116E+00
         25   -1    0    0    0    0  0.00000000000E+00  0.00000000000E+00  0.99999998245E-14  0.12500000000E+03  0.12500000000E+03 0.  0.
        -11    1    3    3    0    0  0.24278793599E+01  0.26155254543E+02 -0.20840866916E+02  0.33531085167E+02  0.51100000000E-03 0.  1.
         23    2    1    0    0    0  0.70100443505E+01 -0.28838070072E+02  0.57225082413E+01  0.94775471752E+02  0.89826877592E+02 0.  0.
         11    1    3    3    0    0  0.45821649907E+01 -0.54993324614E+02  0.26563375157E+02  0.61244386585E+02  0.51100000000E-03 0. -1.
         22    1    1    0    0    0 -0.70100443505E+01  0.28838070072E+02 -0.57225082413E+01  0.30224528248E+02  0.00000000000E+00 0. -1.
</event>
<event>
 5    1  0.6622940E-004  0.9118800E+02  0.7818608E-02  0.1130116E+00
         25   -1    0    0    0    0  0.00000000000E+00  0.00000000000E+00  0.99999998245E-14  0.12500000000E+03  0.12500000000E+03 0.  0.
        -11    1    3    3    0    0 -0.98644827357E+01  0.31382199049E+02  0.30331711441E+02  0.44745537834E+02  0.51100000000E-03 0.  1.
         23    2    1    0    0    0 -0.11219138284E+02 -0.18794894786E+02  0.18557493263E+02  0.96303350543E+02  0.91928437579E+02 0.  0.
         11    1    3    3    0    0 -0.13546555486E+01 -0.50177093835E+02 -0.11774218179E+02  0.51557812709E+02  0.51100000000E-03 0. -1.
         22    1    1    0    0    0  0.11219138284E+02  0.18794894786E+02 -0.18557493263E+02  0.28696649457E+02  0.00000000000E+00 0. -1.
</event>
<event>
 5    1  0.6622940E-004  0.9118800E+02  0.7818608E-02  0.1130116E+00
         25   -1    0    0    0    0  0.00000000000E+00  0.00000000000E+00  0.99999998245E-14  0.12500000000E+03  0.12500000000E+03 0.  0.
        -11    1    3    3    0    0  0.44020146419E+02  0.20429720709E+02 -0.19558475157E+02  0.52322850932E+02  0.51100000000E-03 0. -1.
         23    2    1    0    0    0  0.19410685692E+02 -0.16142650500E+02 -0.11998779627E+02  0.97047708560E+02  0.92935069484E+02 0.  0.
         11    1    3    3    0    0 -0.24609460726E+02 -0.36572371209E+02  0.75596955297E+01  0.44724857628E+02  0.51100000000E-03 0.  1.
         22    1    1    0    0    0 -0.19410685692E+02  0.16142650500E+02  0.11998779627E+02  0.27952291440E+02  0.00000000000E+00 0. -1.
</event>
<event>
 5    1  0.6622940E-004  0.9118800E+02  0.7818608E-02  0.1130116E+00
         25   -1    0    0    0    0  0.00000000000E+00  0.00000000000E+00  0.99999998245E-14  0.12500000000E+03  0.12500000000E+03 0.  0.
        -11    1    3    3    0    0  0.31407176744E+02 -0.17280603218E+02 -0.45982609435E+02  0.58304634201E+02  0.51100000000E-03 0. -1.
         23    2    1    0    0    0  0.26432604805E+02 -0.56070348771E+01 -0.10460580978E+02  0.96025093766E+02  0.91549295144E+02 0.  0.
         11    1    3    3    0    0 -0.49745719389E+01  0.11673568341E+02  0.35522028458E+02  0.37720459565E+02  0.51100000000E-03 0.  1.
         22    1    1    0    0    0 -0.26432604805E+02  0.56070348771E+01  0.10460580978E+02  0.28974906234E+02  0.00000000000E+00 0. -1.
</event>
<event>
 5    1  0.6622940E-004  0.9118800E+02  0.7818608E-02  0.1130116E+00
         25   -1    0    0    0    0  0.00000000000E+00  0.00000000000E+00  0.99999998245E-14  0.12500000000E+03  0.12500000000E+03 0.  0.
        -11    1    3    3    0    0  0.35413015491E+02  0.28939010381E+02  0.41609170070E+02  0.61829370223E+02  0.51100000000E-03 0. -1.
         23    2    1    0    0    0  0.21209359219E+02  0.13120415899E+02  0.14967691598E+02  0.95913679785E+02  0.91397045611E+02 0.  0.
         11    1    3    3    0    0 -0.14203656272E+02 -0.15818594482E+02 -0.26641478472E+02  0.34084309562E+02  0.51100000000E-03 0.  1.
         22    1    1    0    0    0 -0.21209359219E+02 -0.13120415899E+02 -0.14967691598E+02  0.29086320215E+02  0.00000000000E+00 0. -1.
</event>
<event>
 5    1  0.6622940E-004  0.9118800E+02  0.7818608E-02  0.1130116E+00
         25   -1    0    0    0    0  0.00000000000E+00  0.00000000000E+00  0.99999998245E-14  0.12500000000E+03  0.12500000000E+03 0.  0.
        -11    1    3    3    0    0 -0.35316609897E+02 -0.29539131011E+01  0.48148178023E+02  0.59784911010E+02  0.51100000000E-03 0. -1.
         23    2    1    0    0    0 -0.23004620376E+02 -0.12108438564E+02  0.18745675572E+02  0.92949614733E+02  0.87249089871E+02 0.  0.
         11    1    3    3    0    0  0.12311989521E+02 -0.91545254630E+01 -0.29402502451E+02  0.33164703724E+02  0.51100000000E-03 0.  1.
         22    1    1    0    0    0  0.23004620376E+02  0.12108438564E+02 -0.18745675572E+02  0.32050385267E+02  0.00000000000E+00 0. -1.
</event>
<event>
 5    1  0.6622940E-004  0.9118800E+02  0.7818608E-02  0.1130116E+00
         25   -1    0    0    0    0  0.00000000000E+00  0.00000000000E+00  0.99999998245E-14  0.12500000000E+03  0.12500000000E+03 0.  0.
        -11    1    3    3    0    0  0.37379542239E+02 -0.71877314705E+01  0.50249893849E+01  0.38394585299E+02  0.51100000000E-03 0. -1.
         23    2    1    0    0    0 -0.73840743016E+01  0.22162448993E+02 -0.16826401237E+02  0.96210653407E+02  0.91802305808E+02 0.  0.
         11    1    3    3    0    0 -0.44763616541E+02  0.29350180464E+02 -0.21851390622E+02  0.57816068108E+02  0.51100000000E-03 0.  1.
         22    1    1    0    0    0  0.73840743016E+01 -0.22162448993E+02  0.16826401237E+02  0.28789346593E+02  0.00000000000E+00 0.  1.
</event>
<event>
 5    1  0.6622940E-004  0.9118800E+02  0.7818608E-02  0.1130116E+00
         25   -1    0    0    0    0  0.00000000000E+00  0.00000000000E+00  0.99999998245E-14  0.12500000000E+03  0.12500000000E+03 0.  0.
        -11    1    3    3    0    0 -0.16175208304E+02  0.48119061040E+02  0.35317054896E+02  0.61841537544E+02  0.51100000000E-03 0. -1.
         23    2    1    0    0    0 -0.99111438127E+01  0.18606726108E+02  0.21027285507E+02  0.95224376347E+02  0.90449400699E+02 0.  0.
         11    1    3    3    0    0  0.62640644915E+01 -0.29512334932E+02 -0.14289769389E+02  0.33382838803E+02  0.51100000000E-03 0.  1.
         22    1    1    0    0    0  0.99111438127E+01 -0.18606726108E+02 -0.21027285507E+02  0.29775623653E+02  0.00000000000E+00 0. -1.
</event>
<event>
 5    1  0.6622940E-004  0.9118800E+02  0.7818608E-02  0.1130116E+00
         25   -1    0    0    0    0  0.00000000000E+00  0.00000000000E+00  0.99999998245E-14  0.12500000000E+03  0.12500000000E+03 0.  0.
        -11    1    3    3    0    0  0.34290314117E+02 -0.34781859512E+02  0.23898082169E+01  0.48901069282E+02  0.51100000000E-03 0.  1.
         23    2    1    0    0    0  0.16562302693E+02 -0.16162889459E+01 -0.24677809222E+02  0.95235650042E+02  0.90464979470E+02 0.  0.
         11    1    3    3    0    0 -0.17728011424E+02  0.33165570567E+02 -0.27067617439E+02  0.46334580759E+02  0.51100000000E-03 0. -1.
         22    1    1    0    0    0 -0.16562302693E+02  0.16162889459E+01  0.24677809222E+02  0.29764349958E+02  0.00000000000E+00 0. -1.
</event>
<event>
 5    1  0.6622940E-004  0.9118800E+02  0.7818608E-02  0.1130116E+00
         25   -1    0    0    0    0  0.00000000000E+00  0.00000000000E+00  0.99999998245E-14  0.12500000000E+03  0.12500000000E+03 0.  0.
        -11    1    3    3    0    0 -0.53594468448E+02  0.18091255038E+02  0.14098445517E+02  0.58296026651E+02  0.51100000000E-03 0.  1.
         23    2    1    0    0    0 -0.21878335340E+02  0.18764250425E+00  0.20197380626E+02  0.95223651145E+02  0.90448398473E+02 0.  0.
         11    1    3    3    0    0  0.31716133108E+02 -0.17903612534E+02  0.60989351086E+01  0.36927624494E+02  0.51100000000E-03 0. -1.
         22    1    1    0    0    0  0.21878335340E+02 -0.18764250425E+00 -0.20197380626E+02  0.29776348855E+02  0.00000000000E+00 0.  1.
</event>
<event>
 5    1  0.6622940E-004  0.9118800E+02  0.7818608E-02  0.1130116E+00
         25   -1    0    0    0    0  0.00000000000E+00  0.00000000000E+00  0.99999998245E-14  0.12500000000E+03  0.12500000000E+03 0.  0.
        -11    1    3    3    0    0 -0.32876657948E+02 -0.10261738661E+02  0.50268757356E+02  0.60935423890E+02  0.51100000000E-03 0. -1.
         23    2    1    0    0    0 -0.26668609846E+02 -0.83623153204E+01  0.23487341936E+02  0.88492489816E+02  0.80610932596E+02 0.  0.
         11    1    3    3    0    0  0.62080481019E+01  0.18994233401E+01 -0.26781415421E+02  0.27557065926E+02  0.51100000000E-03 0.  1.
         22    1    1    0    0    0  0.26668609846E+02  0.83623153204E+01 -0.23487341936E+02  0.36507510184E+02  0.00000000000E+00 0. -1.
</event>
<event>
 5    1  0.6622940E-004  0.9118800E+02  0.7818608E-02  0.1130116E+00
         25   -1    0    0    0    0  0.00000000000E+00  0.00000000000E+00  0.99999998245E-14  0.12500000000E+03  0.12500000000E+03 0.  0.
        -11    1    3    3    0    0 -0.15028617656E+01  0.41712505966E+02 -0.57086378152E+01  0.42128141348E+02  0.51100000000E-03 0. -1.
         23    2    1    0    0    0  0.29912539231E+02 -0.66861873673E+00 -0.20375287484E+01  0.95010692278E+02  0.90153608189E+02 0.  0.
         11    1    3    3    0    0  0.31415400997E+02 -0.42381124703E+02  0.36711090668E+01  0.52882550930E+02  0.51100000000E-03 0.  1.
         22    1    1    0    0    0 -0.29912539231E+02  0.66861873673E+00  0.20375287484E+01  0.29989307722E+02  0.00000000000E+00 0.  1.
</event>
<event>
 5    1  0.6622940E-004  0.9118800E+02  0.7818608E-02  0.1130116E+00
         25   -1    0    0    0    0  0.00000000000E+00  0.00000000000E+00  0.99999998245E-14  0.12500000000E+03  0.12500000000E+03 0.  0.
        -11    1    3    3    0    0  0.12054312090E+01 -0.17229426483E+02  0.59491484581E+02  0.61947905043E+02  0.51100000000E-03 0.  1.
         23    2    1    0    0    0 -0.52589681327E+01 -0.86766169824E+01  0.27495159172E+02  0.95692591279E+02  0.91094170064E+02 0.  0.
         11    1    3    3    0    0 -0.64643993417E+01  0.85528095005E+01 -0.31996325409E+02  0.33744686236E+02  0.51100000000E-03 0. -1.
         22    1    1    0    0    0  0.52589681327E+01  0.86766169824E+01 -0.27495159172E+02  0.29307408721E+02  0.00000000000E+00 0.  1.
</event>
<event>
 5    1  0.6622940E-004  0.9118800E+02  0.7818608E-02  0.1130116E+00
         25   -1    0    0    0    0  0.00000000000E+00  0.00000000000E+00  0.99999998245E-14  0.12500000000E+03  0.12500000000E+03 0.  0.
        -11    1    3    3    0    0 -0.49111370147E+02 -0.10788966877E+02 -0.31402095478E+02  0.59282544519E+02  0.51100000000E-03 0.  1.
         23    2    1    0    0    0 -0.26965657793E+02  0.77119929329E+01 -0.99463602024E+01  0.95241780690E+02  0.90473450098E+02 0.  0.
         11    1    3    3    0    0  0.22145712354E+02  0.18500959810E+02  0.21455735275E+02  0.35959236171E+02  0.51100000000E-03 0. -1.
         22    1    1    0    0    0  0.26965657793E+02 -0.77119929329E+01  0.99463602024E+01  0.29758219310E+02  0.00000000000E+00 0.  1.
</event>
<event>
 5    1  0.6622940E-004  0.9118800E+02  0.7818608E-02  0.1130116E+00
         25   -1    0    0    0    0  0.00000000000E+00  0.00000000000E+00  0.99999998245E-14  0.12500000000E+03  0.12500000000E+03 0.  0.
        -11    1    3    3    0    0  0.40269574639E+01 -0.17083262751E+02  0.29993492435E+02  0.34751458118E+02  0.51100000000E-03 0.  1.
         23    2    1    0    0    0  0.67774296937E+00  0.44650865390E+01 -0.27962905685E+02  0.96674738700E+02  0.92432054370E+02 0.  0.
         11    1    3    3    0    0 -0.33492144945E+01  0.21548349290E+02 -0.57956398120E+02  0.61923280583E+02  0.51100000000E-03 0. -1.
         22    1    1    0    0    0 -0.67774296937E+00 -0.44650865390E+01  0.27962905685E+02  0.28325261300E+02  0.00000000000E+00 0. -1.
</event>
<event>
 5    1  0.6622940E-004  0.9118800E+02  0.7818608E-02  0.1130116E+00
         25   -1    0    0    0    0  0.00000000000E+00  0.00000000000E+00  0.99999998245E-14  0.12500000000E+03  0.12500000000E+03 0.  0.
        -11    1    3    3    0    0  0.14021116321E+02 -0.46407739668E+02 -0.24807852935E+02  0.54458236948E+02  0.51100000000E-03 0. -1.
         23    2    1    0    0    0  0.26970819298E+02 -0.12702462637E+02 -0.91437964694E+01  0.93816884945E+02  0.88482886686E+02 0.  0.
         11    1    3    3    0    0  0.12949702977E+02  0.33705277031E+02  0.15664056466E+02  0.39358647997E+02  0.51100000000E-03 0.  1.
         22    1    1    0    0    0 -0.26970819298E+02  0.12702462637E+02  0.91437964694E+01  0.31183115055E+02  0.00000000000E+00 0. -1.
</event>
<event>
 5    1  0.6622940E-004  0.9118800E+02  0.7818608E-02  0.1130116E+00
         25   -1    0    0    0    0  0.00000000000E+00  0.00000000000E+00  0.99999998245E-14  0.12500000000E+03  0.12500000000E+03 0.  0.
        -11    1    3    3    0    0 -0.26274214600E+02  0.18375308161E+02  0.50704771614E+02  0.59991334104E+02  0.51100000000E-03 0.  1.
         23    2    1    0    0    0 -0.33543006935E+01  0.17837586962E+01  0.29259532573E+02  0.95494858506E+02  0.90822434598E+02 0.  0.
         11    1    3    3    0    0  0.22919913906E+02 -0.16591549465E+02 -0.21445239042E+02  0.35503524401E+02  0.51100000000E-03 0. -1.
         22    1    1    0    0    0  0.33543006935E+01 -0.17837586962E+01 -0.29259532573E+02  0.29505141494E+02  0.00000000000E+00 0.  1.
</event>
<event>
 5    1  0.6622940E-004  0.9118800E+02  0.7818608E-02  0.1130116E+00
         25   -1    0    0    0    0  0.00000000000E+00  0.00000000000E+00  0.99999998245E-14  0.12500000000E+03  0.12500000000E+03 0.  0.
        -11    1    3    3    0    0  0.21433245305E+02 -0.10447172464E+02  0.57627696695E+02  0.62365686426E+02  0.51100000000E-03 0.  1.
         23    2    1    0    0    0  0.10914411633E+02 -0.21281456341E+01  0.26868987029E+02  0.95920869183E+02  0.91406877727E+02 0.  0.
         11    1    3    3    0    0 -0.10518833672E+02  0.83190268294E+01 -0.30758709667E+02  0.33555182757E+02  0.51100000000E-03 0. -1.
         22    1    1    0    0    0 -0.10914411633E+02  0.21281456341E+01 -0.26868987029E+02  0.29079130817E+02  0.00000000000E+00 0.  1.
</event>
<event>
 5    1  0.6622940E-004  0.9118800E+02  0.7818608E-02  0.1130116E+00
         25   -1    0    0    0    0  0.00000000000E+00  0.00000000000E+00  0.99999998245E-14  0.12500000000E+03  0.12500000000E+03 0.  0.
        -11    1    3    3    0    0  0.49931560051E+02 -0.50599795596E+01  0.33210106474E+02  0.60180356052E+02  0.51100000000E-03 0.  1.
         23    2    1    0    0    0  0.18414292723E+02 -0.13202934797E+02  0.17747973925E+02  0.96218161244E+02  0.91812528072E+02 0.  0.
         11    1    3    3    0    0 -0.31517267328E+02 -0.81429552377E+01 -0.15462132549E+02  0.36037805192E+02  0.51100000000E-03 0. -1.
         22    1    1    0    0    0 -0.18414292723E+02  0.13202934797E+02 -0.17747973925E+02  0.28781838756E+02  0.00000000000E+00 0.  1.
</event>
<event>
 5    1  0.6622940E-004  0.9118800E+02  0.7818608E-02  0.1130116E+00
         25   -1    0    0    0    0  0.00000000000E+00  0.00000000000E+00  0.99999998245E-14  0.12500000000E+03  0.12500000000E+03 0.  0.
        -11    1    3    3    0    0 -0.20553238126E+02  0.25903124344E+02 -0.35372233581E+02  0.48421094132E+02  0.51100000000E-03 0. -1.
         23    2    1    0    0    0 -0.16906905288E+02 -0.17492703530E+02 -0.11368863206E+02  0.98146896384E+02  0.94401928455E+02 0.  0.
         11    1    3    3    0    0  0.36463328382E+01 -0.43395827873E+02  0.24003370375E+02  0.49725802252E+02  0.51100000000E-03 0.  1.
         22    1    1    0    0    0  0.16906905288E+02  0.17492703530E+02  0.11368863206E+02  0.26853103616E+02  0.00000000000E+00 0. -1.
</event>
<event>
 5    1  0.6622940E-004  0.9118800E+02  0.7818608E-02  0.1130116E+00
         25   -1    0    0    0    0  0.00000000000E+00  0.00000000000E+00  0.99999998245E-14  0.12500000000E+03  0.12500000000E+03 0.  0.
        -11    1    3    3    0    0 -0.24812665319E+01  0.21017342431E+02  0.45253998836E+02  0.49958080201E+02  0.51100000000E-03 0. -1.
         23    2    1    0    0    0 -0.27269802731E+02  0.53054836581E+01  0.10860374677E+02  0.95171523070E+02  0.90376328579E+02 0.  0.
         11    1    3    3    0    0 -0.24788536199E+02 -0.15711858773E+02 -0.34393624159E+02  0.45213442869E+02  0.51100000000E-03 0.  1.
         22    1    1    0    0    0  0.27269802731E+02 -0.53054836581E+01 -0.10860374677E+02  0.29828476930E+02  0.00000000000E+00 0. -1.
</event>
<event>
 5    1  0.6622940E-004  0.9118800E+02  0.7818608E-02  0.1130116E+00
         25   -1    0    0    0    0  0.00000000000E+00  0.00000000000E+00  0.99999998245E-14  0.12500000000E+03  0.12500000000E+03 0.  0.
        -11    1    3    3    0    0 -0.25261665827E+02  0.20116959436E+01  0.24665350711E+02  0.35363515194E+02  0.51100000000E-03 0.  1.
         23    2    1    0    0    0  0.59897926715E+01 -0.11590154344E+02 -0.25700414575E+02  0.96177775879E+02  0.91757528137E+02 0.  0.
         11    1    3    3    0    0  0.31251458498E+02 -0.13601850287E+02 -0.50365765286E+02  0.60814260685E+02  0.51100000000E-03 0. -1.
         22    1    1    0    0    0 -0.59897926715E+01  0.11590154344E+02  0.25700414575E+02  0.28822224121E+02  0.00000000000E+00 0. -1.
</event>
<event>
 5    1  0.6622940E-004  0.9118800E+02  0.7818608E-02  0.1130116E+00
         25   -1    0    0    0    0  0.00000000000E+00  0.00000000000E+00  0.99999998245E-14  0.12500000000E+03  0.12500000000E+03 0.  0.
        -11    1    3    3    0    0  0.30325435267E+02  0.52053974097E+02  0.44033216936E+01  0.60403952566E+02  0.51100000000E-03 0. -1.
         23    2    1    0    0    0  0.10657951482E+02  0.23165708232E+02  0.12977089608E+02  0.96387995136E+02  0.92043461386E+02 0.  0.
         11    1    3    3    0    0 -0.19667483785E+02 -0.28888265865E+02  0.85737679149E+01  0.35984042570E+02  0.51100000000E-03 0.  1.
         22    1    1    0    0    0 -0.10657951482E+02 -0.23165708232E+02 -0.12977089608E+02  0.28612004864E+02  0.00000000000E+00 0. -1.
</event>
<event>
 5    1  0.6622940E-004  0.9118800E+02  0.7818608E-02  0.1130116E+00
         25   -1    0    0    0    0  0.00000000000E+00  0.00000000000E+00  0.99999998245E-14  0.12500000000E+03  0.12500000000E+03 0.  0.
        -11    1    3    3    0    0 -0.20522655001E+02  0.86677426120E+01 -0.30104866097E+02  0.37451463166E+02  0.51100000000E-03 0. -1.
         23    2    1    0    0    0  0.29175687449E+02 -0.71646317188E+01 -0.11590297817E+02  0.92799259492E+02  0.87033412394E+02 0.  0.
         11    1    3    3    0    0  0.49698342450E+02 -0.15832374331E+02  0.18514568280E+02  0.55347796326E+02  0.51100000000E-03 0.  1.
         22    1    1    0    0    0 -0.29175687449E+02  0.71646317188E+01  0.11590297817E+02  0.32200740508E+02  0.00000000000E+00 0.  1.
</event>
<event>
 5    1  0.6622940E-004  0.9118800E+02  0.7818608E-02  0.1130116E+00
         25   -1    0    0    0    0  0.00000000000E+00  0.00000000000E+00  0.99999998245E-14  0.12500000000E+03  0.12500000000E+03 0.  0.
        -11    1    3    3    0    0  0.60711695793E+02  0.72664434721E+01 -0.22262987814E+01  0.61185518004E+02  0.51100000000E-03 0.  1.
         23    2    1    0    0    0  0.27831810761E+02 -0.56151418512E+01  0.49152361545E+00  0.96603149757E+02  0.92335190687E+02 0.  0.
         11    1    3    3    0    0 -0.32879885032E+02 -0.12881585323E+02  0.27178223968E+01  0.35417631753E+02  0.51100000000E-03 0. -1.
         22    1    1    0    0    0 -0.27831810761E+02  0.56151418512E+01 -0.49152361545E+00  0.28396850243E+02  0.00000000000E+00 0.  1.
</event>
<event>
 5    1  0.6622940E-004  0.9118800E+02  0.7818608E-02  0.1130116E+00
         25   -1    0    0    0    0  0.00000000000E+00  0.00000000000E+00  0.99999998245E-14  0.12500000000E+03  0.12500000000E+03 0.  0.
        -11    1    3    3    0    0 -0.35605142573E+02 -0.16136813864E+02 -0.32855363415E+02  0.51064643784E+02  0.51100000000E-03 0.  1.
         23    2    1    0    0    0 -0.36791445139E+01 -0.28521576408E+02 -0.37652501170E+01  0.95996663406E+02  0.91510468535E+02 0.  0.
         11    1    3    3    0    0  0.31925998059E+02 -0.12384762544E+02  0.29090113298E+02  0.44932019622E+02  0.51100000000E-03 0. -1.
         22    1    1    0    0    0  0.36791445139E+01  0.28521576408E+02  0.37652501170E+01  0.29003336594E+02  0.00000000000E+00 0.  1.
</event>
<event>
 5    1  0.6622940E-004  0.9118800E+02  0.7818608E-02  0.1130116E+00
         25   -1    0    0    0    0  0.00000000000E+00  0.00000000000E+00  0.99999998245E-14  0.12500000000E+03  0.12500000000E+03 0.  0.
        -11    1    3    3    0    0 -0.13229095076E+01  0.52913465585E+02 -0.16987920126E+02  0.55589336750E+02  0.51100000000E-03 0.  1.
         23    2    1    0    0    0 -0.10867811848E+02  0.31625333748E+02  0.88566823776E+01  0.90406476159E+02  0.83526157817E+02 0.  0.
         11    1    3    3    0    0 -0.95449023401E+01 -0.21288131837E+02  0.25844602504E+02  0.34817139409E+02  0.51100000000E-03 0. -1.
         22    1    1    0    0    0  0.10867811848E+02 -0.31625333748E+02 -0.88566823776E+01  0.34593523841E+02  0.00000000000E+00 0.  1.
</event>
<event>
 5    1  0.6622940E-004  0.9118800E+02  0.7818608E-02  0.1130116E+00
         25   -1    0    0    0    0  0.00000000000E+00  0.00000000000E+00  0.99999998245E-14  0.12500000000E+03  0.12500000000E+03 0.  0.
        -11    1    3    3    0    0  0.33382232957E+02  0.23413344729E+02 -0.49664968788E+00  0.40777504212E+02  0.51100000000E-03 0. -1.
         23    2    1    0    0    0 -0.17447611014E+02  0.16902972404E+02  0.17466751667E+02  0.95079822527E+02  0.90249407930E+02 0.  0.
         11    1    3    3    0    0 -0.50829843971E+02 -0.65103723242E+01  0.17963401355E+02  0.54302318315E+02  0.51100000000E-03 0.  1.
         22    1    1    0    0    0  0.17447611014E+02 -0.16902972404E+02 -0.17466751667E+02  0.29920177473E+02  0.00000000000E+00 0.  1.
</event>
<event>
 5    1  0.6622940E-004  0.9118800E+02  0.7818608E-02  0.1130116E+00
         25   -1    0    0    0    0  0.00000000000E+00  0.00000000000E+00  0.99999998245E-14  0.12500000000E+03  0.12500000000E+03 0.  0.
        -11    1    3    3    0    0 -0.65534756473E+01 -0.42211807940E+02  0.10247309087E+02  0.43929399227E+02  0.51100000000E-03 0.  1.
         23    2    1    0    0    0 -0.67405277847E+01  0.55330159373E+01  0.28614915764E+02  0.95085749477E+02  0.90257616683E+02 0.  0.
         11    1    3    3    0    0 -0.18705213735E+00  0.47744823878E+02  0.18367606677E+02  0.51156350250E+02  0.51100000000E-03 0. -1.
         22    1    1    0    0    0  0.67405277847E+01 -0.55330159373E+01 -0.28614915764E+02  0.29914250523E+02  0.00000000000E+00 0. -1.
</event>
<event>
 5    1  0.6622940E-004  0.9118800E+02  0.7818608E-02  0.1130116E+00
         25   -1    0    0    0    0  0.00000000000E+00  0.00000000000E+00  0.99999998245E-14  0.12500000000E+03  0.12500000000E+03 0.  0.
        -11    1    3    3    0    0  0.58889496595E+02 -0.20782130914E+02 -0.22190261225E+00  0.62449331586E+02  0.51100000000E-03 0.  1.
         23    2    1    0    0    0  0.28077977988E+02 -0.80572047945E+01  0.21958041798E+00  0.95788022789E+02  0.91225027801E+02 0.  0.
         11    1    3    3    0    0 -0.30811518607E+02  0.12724926119E+02  0.44148303023E+00  0.33338691203E+02  0.51100000000E-03 0. -1.
         22    1    1    0    0    0 -0.28077977988E+02  0.80572047945E+01 -0.21958041798E+00  0.29211977211E+02  0.00000000000E+00 0.  1.
</event>
<event>
 5    1  0.6622940E-004  0.9118800E+02  0.7818608E-02  0.1130116E+00
         25   -1    0    0    0    0  0.00000000000E+00  0.00000000000E+00  0.99999998245E-14  0.12500000000E+03  0.12500000000E+03 0.  0.
        -11    1    3    3    0    0 -0.12134329872E+02  0.30879431877E+02  0.24031459377E+02  0.40966966138E+02  0.51100000000E-03 0.  1.
         23    2    1    0    0    0 -0.23879520459E+02 -0.42221246092E+00 -0.18302330478E+02  0.94910382826E+02  0.90014419437E+02 0.  0.
         11    1    3    3    0    0 -0.11745190587E+02 -0.31301644338E+02 -0.42333789855E+02  0.53943416688E+02  0.51100000000E-03 0. -1.
         22    1    1    0    0    0  0.23879520459E+02  0.42221246092E+00  0.18302330478E+02  0.30089617174E+02  0.00000000000E+00 0.  1.
</event>
<event>
 5    1  0.6622940E-004  0.9118800E+02  0.7818608E-02  0.1130116E+00
         25   -1    0    0    0    0  0.00000000000E+00  0.00000000000E+00  0.99999998245E-14  0.12500000000E+03  0.12500000000E+03 0.  0.
        -11    1    3    3    0    0  0.15052222910E+02 -0.46031279549E+02 -0.28693112020E+01  0.48514750937E+02  0.51100000000E-03 0.  1.
         23    2    1    0    0    0 -0.32526021731E+01 -0.15066219522E+02 -0.28442487027E+02  0.92649645135E+02  0.86818265842E+02 0.  0.
         11    1    3    3    0    0 -0.18304825083E+02  0.30965060027E+02 -0.25573175825E+02  0.44134894198E+02  0.51100000000E-03 0. -1.
         22    1    1    0    0    0  0.32526021731E+01  0.15066219522E+02  0.28442487027E+02  0.32350354865E+02  0.00000000000E+00 0.  1.
</event>
<event>
 5    1  0.6622940E-004  0.9118800E+02  0.7818608E-02  0.1130116E+00
         25   -1    0    0    0    0  0.00000000000E+00  0.00000000000E+00  0.99999998245E-14  0.12500000000E+03  0.12500000000E+03 0.  0.
        -11    1    3    3    0    0  0.36657416469E+02  0.22626163841E+02 -0.27702556473E+02  0.51216609686E+02  0.51100000000E-03 0.  1.
         23    2    1    0    0    0  0.81428084398E-01  0.19940852494E+02  0.90179438768E+01  0.10311467294E+03  0.10076541190E+03 0.  0.
         11    1    3    3    0    0 -0.36575988384E+02 -0.26853113465E+01  0.36720500350E+02  0.51898063254E+02  0.51100000000E-03 0. -1.
         22    1    1    0    0    0 -0.81428084398E-01 -0.19940852494E+02 -0.90179438768E+01  0.21885327060E+02  0.00000000000E+00 0. -1.
</event>
<event>
 5    1  0.6622940E-004  0.9118800E+02  0.7818608E-02  0.1130116E+00
         25   -1    0    0    0    0  0.00000000000E+00  0.00000000000E+00  0.99999998245E-14  0.12500000000E+03  0.12500000000E+03 0.  0.
        -11    1    3    3    0    0  0.10978530447E+02  0.35599498260E+02 -0.30276587605E+01  0.37376719024E+02  0.51100000000E-03 0. -1.
         23    2    1    0    0    0 -0.20311823562E+02 -0.10754044424E+02 -0.18603372892E+02  0.95431348850E+02  0.90734983400E+02 0.  0.
         11    1    3    3    0    0 -0.31290354009E+02 -0.46353542684E+02 -0.15575714131E+02  0.58054629827E+02  0.51100000000E-03 0.  1.
         22    1    1    0    0    0  0.20311823562E+02  0.10754044424E+02  0.18603372892E+02  0.29568651150E+02  0.00000000000E+00 0.  1.
</event>
<event>
 5    1  0.6622940E-004  0.9118800E+02  0.7818608E-02  0.1130116E+00
         25   -1    0    0    0    0  0.00000000000E+00  0.00000000000E+00  0.99999998245E-14  0.12500000000E+03  0.12500000000E+03 0.  0.
        -11    1    3    3    0    0  0.30786494762E+02  0.40960383892E+02  0.81375865843E+01  0.51882382598E+02  0.51100000000E-03 0.  1.
         23    2    1    0    0    0  0.21063724923E+02  0.54573279128E+01  0.24557982778E+02  0.92189065029E+02  0.86152575453E+02 0.  0.
         11    1    3    3    0    0 -0.97227698390E+01 -0.35503055979E+02  0.16420396193E+02  0.40306682431E+02  0.51100000000E-03 0. -1.
         22    1    1    0    0    0 -0.21063724923E+02 -0.54573279128E+01 -0.24557982778E+02  0.32810934971E+02  0.00000000000E+00 0.  1.
</event>
<event>
 5    1  0.6622940E-004  0.9118800E+02  0.7818608E-02  0.1130116E+00
         25   -1    0    0    0    0  0.00000000000E+00  0.00000000000E+00  0.99999998245E-14  0.12500000000E+03  0.12500000000E+03 0.  0.
        -11    1    3    3    0    0 -0.48416427081E+02 -0.33549799643E+02  0.12200089421E+02  0.60154647779E+02  0.51100000000E-03 0.  1.
         23    2    1    0    0    0 -0.18654180141E+02 -0.17804599848E+02 -0.61341173663E+01  0.98493215805E+02  0.94859390422E+02 0.  0.
         11    1    3    3    0    0  0.29762246940E+02  0.15745199794E+02 -0.18334206787E+02  0.38338568026E+02  0.51100000000E-03 0. -1.
         22    1    1    0    0    0  0.18654180141E+02  0.17804599848E+02  0.61341173663E+01  0.26506784195E+02  0.00000000000E+00 0.  1.
</event>
<event>
 5    1  0.6622940E-004  0.9118800E+02  0.7818608E-02  0.1130116E+00
         25   -1    0    0    0    0  0.00000000000E+00  0.00000000000E+00  0.99999998245E-14  0.12500000000E+03  0.12500000000E+03 0.  0.
        -11    1    3    3    0    0 -0.63162690919E+01 -0.21085438855E+01 -0.39479575637E+02  0.40037209010E+02  0.51100000000E-03 0. -1.
         23    2    1    0    0    0 -0.82068292226E+01 -0.23657548661E+02  0.12989708450E+02  0.96790707557E+02  0.92588751418E+02 0.  0.
         11    1    3    3    0    0 -0.18905601307E+01 -0.21549004775E+02  0.52469284087E+02  0.56753498547E+02  0.51100000000E-03 0.  1.
         22    1    1    0    0    0  0.82068292226E+01  0.23657548661E+02 -0.12989708450E+02  0.28209292443E+02  0.00000000000E+00 0.  1.
</event>
<event>
 5    1  0.6622940E-004  0.9118800E+02  0.7818608E-02  0.1130116E+00
         25   -1    0    0    0    0  0.00000000000E+00  0.00000000000E+00  0.99999998245E-14  0.12500000000E+03  0.12500000000E+03 0.  0.
        -11    1    3    3    0    0  0.14403485110E+01  0.44219722565E+02 -0.62627016402E+01  0.44684224282E+02  0.51100000000E-03 0. -1.
         23    2    1    0    0    0 -0.29400668200E+02  0.58223641297E+01  0.32786007147E+01  0.94849569865E+02  0.89929930870E+02 0.  0.
         11    1    3    3    0    0 -0.30841016711E+02 -0.38397358436E+02  0.95413023549E+01  0.50165345583E+02  0.51100000000E-03 0.  1.
         22    1    1    0    0    0  0.29400668200E+02 -0.58223641297E+01 -0.32786007147E+01  0.30150430135E+02  0.00000000000E+00 0.  1.
</event>
<event>
 5    1  0.6622940E-004  0.9118800E+02  0.7818608E-02  0.1130116E+00
         25   -1    0    0    0    0  0.00000000000E+00  0.00000000000E+00  0.99999998245E-14  0.12500000000E+03  0.12500000000E+03 0.  0.
        -11    1    3    3    0    0  0.20816388745E+02 -0.44691484105E+02 -0.13329167523E+02  0.51071689799E+02  0.51100000000E-03 0. -1.
         23    2    1    0    0    0 -0.16566545660E+02 -0.25074153021E+02 -0.95889142222E+01  0.93454622196E+02  0.87969628560E+02 0.  0.
         11    1    3    3    0    0 -0.37382934405E+02  0.19617331083E+02  0.37402533004E+01  0.42382932397E+02  0.51100000000E-03 0.  1.
         22    1    1    0    0    0  0.16566545660E+02  0.25074153021E+02  0.95889142222E+01  0.31545377804E+02  0.00000000000E+00 0. -1.
</event>
<event>
 5    1  0.6622940E-004  0.9118800E+02  0.7818608E-02  0.1130116E+00
         25   -1    0    0    0    0  0.00000000000E+00  0.00000000000E+00  0.99999998245E-14  0.12500000000E+03  0.12500000000E+03 0.  0.
        -11    1    3    3    0    0  0.44382900345E+02 -0.25444527373E+02 -0.30017176332E+02  0.59315231530E+02  0.51100000000E-03 0. -1.
         23    2    1    0    0    0  0.10380142606E+02 -0.19592713144E+02 -0.19733497185E+02  0.95317805337E+02  0.90578426428E+02 0.  0.
         11    1    3    3    0    0 -0.34002757739E+02  0.58518142291E+01  0.10283679147E+02  0.36002573807E+02  0.51100000000E-03 0.  1.
         22    1    1    0    0    0 -0.10380142606E+02  0.19592713144E+02  0.19733497185E+02  0.29682194663E+02  0.00000000000E+00 0. -1.
</event>
<event>
 5    1  0.6622940E-004  0.9118800E+02  0.7818608E-02  0.1130116E+00
         25   -1    0    0    0    0  0.00000000000E+00  0.00000000000E+00  0.99999998245E-14  0.12500000000E+03  0.12500000000E+03 0.  0.
        -11    1    3    3    0    0 -0.23427271702E+01  0.17376609486E+02 -0.52317479669E+02  0.55177473727E+02  0.51100000000E-03 0.  1.
         23    2    1    0    0    0 -0.21282954712E+02  0.99308816627E+01 -0.16759452340E+02  0.96147516319E+02  0.91716296696E+02 0.  0.
         11    1    3    3    0    0 -0.18940227542E+02 -0.74457278228E+01  0.35558027329E+02  0.40970042591E+02  0.51100000000E-03 0. -1.
         22    1    1    0    0    0  0.21282954712E+02 -0.99308816627E+01  0.16759452340E+02  0.28852483681E+02  0.00000000000E+00 0. -1.
</event>
<event>
 5    1  0.6622940E-004  0.9118800E+02  0.7818608E-02  0.1130116E+00
         25   -1    0    0    0    0  0.00000000000E+00  0.00000000000E+00  0.99999998245E-14  0.12500000000E+03  0.12500000000E+03 0.  0.
        -11    1    3    3    0    0  0.50719932193E+02 -0.32358010723E+01  0.43145403381E+01  0.51005854457E+02  0.51100000000E-03 0. -1.
         23    2    1    0    0    0  0.12228712744E+02  0.23742810803E+02  0.38824373074E+01  0.98012302809E+02  0.94223541126E+02 0.  0.
         11    1    3    3    0    0 -0.38491219449E+02  0.26978611876E+02 -0.43210303073E+00  0.47006448353E+02  0.51100000000E-03 0.  1.
         22    1    1    0    0    0 -0.12228712744E+02 -0.23742810803E+02 -0.38824373074E+01  0.26987697191E+02  0.00000000000E+00 0. -1.
</event>
<event>
 5    1  0.6622940E-004  0.9118800E+02  0.7818608E-02  0.1130116E+00
         25   -1    0    0    0    0  0.00000000000E+00  0.00000000000E+00  0.99999998245E-14  0.12500000000E+03  0.12500000000E+03 0.  0.
        -11    1    3    3    0    0  0.49231751813E+02 -0.27432561854E+02 -0.14738271314E+01  0.56378036532E+02  0.51100000000E-03 0.  1.
         23    2    1    0    0    0  0.19253690071E+02 -0.14575292478E+02 -0.19781812950E+02  0.93783596367E+02  0.88435847323E+02 0.  0.
         11    1    3    3    0    0 -0.29978061742E+02  0.12857269376E+02 -0.18307985818E+02  0.37405559836E+02  0.51100000000E-03 0. -1.
         22    1    1    0    0    0 -0.19253690071E+02  0.14575292478E+02  0.19781812950E+02  0.31216403633E+02  0.00000000000E+00 0.  1.
</event>
<event>
 5    1  0.6622940E-004  0.9118800E+02  0.7818608E-02  0.1130116E+00
         25   -1    0    0    0    0  0.00000000000E+00  0.00000000000E+00  0.99999998245E-14  0.12500000000E+03  0.12500000000E+03 0.  0.
        -11    1    3    3    0    0  0.14805926672E+02  0.24070800118E+02 -0.47441013489E+02  0.55220183303E+02  0.51100000000E-03 0. -1.
         23    2    1    0    0    0  0.23888487890E+02  0.22673042075E+00 -0.13907872895E+02  0.97356914267E+02  0.93350032495E+02 0.  0.
         11    1    3    3    0    0  0.90825612183E+01 -0.23844069698E+02  0.33533140593E+02  0.42136730964E+02  0.51100000000E-03 0.  1.
         22    1    1    0    0    0 -0.23888487890E+02 -0.22673042075E+00  0.13907872895E+02  0.27643085733E+02  0.00000000000E+00 0. -1.
</event>
<event>
 5    1  0.6622940E-004  0.9118800E+02  0.7818608E-02  0.1130116E+00
         25   -1    0    0    0    0  0.00000000000E+00  0.00000000000E+00  0.99999998245E-14  0.12500000000E+03  0.12500000000E+03 0.  0.
        -11    1    3    3    0    0  0.82587085595E+01  0.33276002366E+02 -0.11960603184E+02  0.36311907541E+02  0.51100000000E-03 0.  1.
         23    2    1    0    0    0 -0.25584351350E+02  0.34598175506E+02  0.14819808632E+02  0.79489347289E+02  0.65171595210E+02 0.  0.
         11    1    3    3    0    0 -0.33843059910E+02  0.13221731401E+01  0.26780411815E+02  0.43177439747E+02  0.51100000000E-03 0. -1.
         22    1    1    0    0    0  0.25584351350E+02 -0.34598175506E+02 -0.14819808632E+02  0.45510652711E+02  0.00000000000E+00 0.  1.
</event>
<event>
 5    1  0.6622940E-004  0.9118800E+02  0.7818608E-02  0.1130116E+00
         25   -1    0    0    0    0  0.00000000000E+00  0.00000000000E+00  0.99999998245E-14  0.12500000000E+03  0.12500000000E+03 0.  0.
        -11    1    3    3    0    0  0.31373546731E+02  0.21347292591E+02  0.29138350911E+02  0.47844015608E+02  0.51100000000E-03 0.  1.
         23    2    1    0    0    0 -0.69001523691E+01  0.29535649375E+02  0.38906428315E+01  0.94420533223E+02  0.89331591868E+02 0.  0.
         11    1    3    3    0    0 -0.38273699100E+02  0.81883567841E+01 -0.25247708079E+02  0.46576517615E+02  0.51100000000E-03 0. -1.
         22    1    1    0    0    0  0.69001523691E+01 -0.29535649375E+02 -0.38906428315E+01  0.30579466777E+02  0.00000000000E+00 0. -1.
</event>
<event>
 5    1  0.6622940E-004  0.9118800E+02  0.7818608E-02  0.1130116E+00
         25   -1    0    0    0    0  0.00000000000E+00  0.00000000000E+00  0.99999998245E-14  0.12500000000E+03  0.12500000000E+03 0.  0.
        -11    1    3    3    0    0 -0.78714735297E+01 -0.38640501244E+02 -0.35876272798E+02  0.53311869054E+02  0.51100000000E-03 0.  1.
         23    2    1    0    0    0 -0.79548843495E+01 -0.32084033430E+02  0.21265146235E+01  0.91876180012E+02  0.85697403712E+02 0.  0.
         11    1    3    3    0    0 -0.83410819746E-01  0.65564678131E+01  0.38002787422E+02  0.38564310958E+02  0.51100000000E-03 0. -1.
         22    1    1    0    0    0  0.79548843495E+01  0.32084033430E+02 -0.21265146235E+01  0.33123819988E+02  0.00000000000E+00 0.  1.
</event>
<event>
 5    1  0.6622940E-004  0.9118800E+02  0.7818608E-02  0.1130116E+00
         25   -1    0    0    0    0  0.00000000000E+00  0.00000000000E+00  0.99999998245E-14  0.12500000000E+03  0.12500000000E+03 0.  0.
        -11    1    3    3    0    0  0.51358003373E+02 -0.40795918973E+01  0.32471042167E+00  0.51520801796E+02  0.51100000000E-03 0.  1.
         23    2    1    0    0    0  0.32335355910E+02  0.53481083164E+01  0.24784366420E+02  0.83909340195E+02  0.73159654515E+02 0.  0.
         11    1    3    3    0    0 -0.19022647464E+02  0.94277002137E+01  0.24459655998E+02  0.32388538400E+02  0.51100000000E-03 0. -1.
         22    1    1    0    0    0 -0.32335355910E+02 -0.53481083164E+01 -0.24784366420E+02  0.41090659805E+02  0.00000000000E+00 0.  1.
</event>
<event>
 5    1  0.6622940E-004  0.9118800E+02  0.7818608E-02  0.1130116E+00
         25   -1    0    0    0    0  0.00000000000E+00  0.00000000000E+00  0.99999998245E-14  0.12500000000E+03  0.12500000000E+03 0.  0.
        -11    1    3    3    0    0 -0.30613758069E+02  0.39954448762E+02 -0.34189596597E+02  0.60848078644E+02  0.51100000000E-03 0. -1.
         23    2    1    0    0    0 -0.18057709629E+02  0.98689252733E+01 -0.19659269567E+02  0.96540143307E+02  0.92249855429E+02 0.  0.
         11    1    3    3    0    0  0.12556048440E+02 -0.30085523489E+02  0.14530327030E+02  0.35692064662E+02  0.51100000000E-03 0.  1.
         22    1    1    0    0    0  0.18057709629E+02 -0.98689252733E+01  0.19659269567E+02  0.28459856693E+02  0.00000000000E+00 0. -1.
</event>
<event>
 5    1  0.6622940E-004  0.9118800E+02  0.7818608E-02  0.1130116E+00
         25   -1    0    0    0    0  0.00000000000E+00  0.00000000000E+00  0.99999998245E-14  0.12500000000E+03  0.12500000000E+03 0.  0.
        -11    1    3    3    0    0 -0.30164751030E+02  0.47012919637E+02  0.24914581766E+02  0.61162596432E+02  0.51100000000E-03 0.  1.
         23    2    1    0    0    0 -0.83673896651E+01  0.28876358243E+02  0.16316763436E+02  0.90793362571E+02  0.84103154773E+02 0.  0.
         11    1    3    3    0    0  0.21797361365E+02 -0.18136561394E+02 -0.85978183299E+01  0.29630766139E+02  0.51100000000E-03 0. -1.
         22    1    1    0    0    0  0.83673896651E+01 -0.28876358243E+02 -0.16316763436E+02  0.34206637429E+02  0.00000000000E+00 0.  1.
</event>
<event>
 5    1  0.6622940E-004  0.9118800E+02  0.7818608E-02  0.1130116E+00
         25   -1    0    0    0    0  0.00000000000E+00  0.00000000000E+00  0.99999998245E-14  0.12500000000E+03  0.12500000000E+03 0.  0.
        -11    1    3    3    0    0 -0.29778712257E+02  0.22757930973E+02  0.46873658188E+02  0.60015289369E+02  0.51100000000E-03 0. -1.
         23    2    1    0    0    0 -0.19416706420E+01  0.12896204249E+02  0.25125742416E+02  0.96691253986E+02  0.92454386032E+02 0.  0.
         11    1    3    3    0    0  0.27837041615E+02 -0.98617267239E+01 -0.21747915772E+02  0.36675964617E+02  0.51100000000E-03 0.  1.
         22    1    1    0    0    0  0.19416706420E+01 -0.12896204249E+02 -0.25125742416E+02  0.28308746014E+02  0.00000000000E+00 0. -1.
</event>
<event>
 5    1  0.6622940E-004  0.9118800E+02  0.7818608E-02  0.1130116E+00
         25   -1    0    0    0    0  0.00000000000E+00  0.00000000000E+00  0.99999998245E-14  0.12500000000E+03  0.12500000000E+03 0.  0.
        -11    1    3    3    0    0  0.35721430721E+01  0.60586317580E+02  0.42762018094E+01  0.60841991965E+02  0.51100000000E-03 0.  1.
         23    2    1    0    0    0 -0.76520554354E+01  0.25159107656E+02 -0.23775371456E+01  0.98595694795E+02  0.94994335088E+02 0.  0.
         11    1    3    3    0    0 -0.11224198508E+02 -0.35427209924E+02 -0.66537389550E+01  0.37753702831E+02  0.51100000000E-03 0. -1.
         22    1    1    0    0    0  0.76520554354E+01 -0.25159107656E+02  0.23775371456E+01  0.26404305205E+02  0.00000000000E+00 0.  1.
</event>
<event>
 5    1  0.6622940E-004  0.9118800E+02  0.7818608E-02  0.1130116E+00
         25   -1    0    0    0    0  0.00000000000E+00  0.00000000000E+00  0.99999998245E-14  0.12500000000E+03  0.12500000000E+03 0.  0.
        -11    1    3    3    0    0 -0.17231348791E+02 -0.14598705450E+02 -0.25946762504E+02  0.34398780017E+02  0.51100000000E-03 0.  1.
         23    2    1    0    0    0  0.15680391077E+02 -0.12276574203E+02  0.23721855306E+02  0.94027183569E+02  0.88779479004E+02 0.  0.
         11    1    3    3    0    0  0.32911739868E+02  0.23221312473E+01  0.49668617810E+02  0.59628403552E+02  0.51100000000E-03 0. -1.
         22    1    1    0    0    0 -0.15680391077E+02  0.12276574203E+02 -0.23721855306E+02  0.30972816431E+02  0.00000000000E+00 0. -1.
</event>
<event>
 5    1  0.6622940E-004  0.9118800E+02  0.7818608E-02  0.1130116E+00
         25   -1    0    0    0    0  0.00000000000E+00  0.00000000000E+00  0.99999998245E-14  0.12500000000E+03  0.12500000000E+03 0.  0.
        -11    1    3    3    0    0  0.88028865294E+01  0.39080846933E+02  0.20182620522E+02  0.44856901137E+02  0.51100000000E-03 0. -1.
         23    2    1    0    0    0 -0.75606074424E+01 -0.91419275980E+01  0.26301634548E+02  0.96146688145E+02  0.91715167973E+02 0.  0.
         11    1    3    3    0    0 -0.16363493972E+02 -0.48222774531E+02  0.61190140259E+01  0.51289787008E+02  0.51100000000E-03 0.  1.
         22    1    1    0    0    0  0.75606074424E+01  0.91419275980E+01 -0.26301634548E+02  0.28853311855E+02  0.00000000000E+00 0.  1.
</event>
<event>
 5    1  0.6622940E-004  0.9118800E+02  0.7818608E-02  0.1130116E+00
         25   -1    0    0    0    0  0.00000000000E+00  0.00000000000E+00  0.99999998245E-14  0.12500000000E+03  0.12500000000E+03 0.  0.
        -11    1    3    3    0    0  0.42750029069E+02 -0.80211618221E+00 -0.43184791972E+01  0.42975081601E+02  0.51100000000E-03 0.  1.
         23    2    1    0    0    0 -0.26591876674E+00  0.29367999593E+02 -0.16817316029E+01  0.95582686491E+02  0.90943232969E+02 0.  0.
         11    1    3    3    0    0 -0.43015947836E+02  0.30170115775E+02  0.26367475943E+01  0.52607604890E+02  0.51100000000E-03 0. -1.
         22    1    1    0    0    0  0.26591876674E+00 -0.29367999593E+02  0.16817316029E+01  0.29417313509E+02  0.00000000000E+00 0. -1.
</event>
<event>
 5    1  0.6622940E-004  0.9118800E+02  0.7818608E-02  0.1130116E+00
         25   -1    0    0    0    0  0.00000000000E+00  0.00000000000E+00  0.99999998245E-14  0.12500000000E+03  0.12500000000E+03 0.  0.
        -11    1    3    3    0    0  0.25872600395E+02  0.27511192684E+02  0.16313605607E+02  0.41138678908E+02  0.51100000000E-03 0. -1.
         23    2    1    0    0    0 -0.20140567206E+01  0.19142245676E+02 -0.26091542015E+02  0.92577005710E+02  0.86713617313E+02 0.  0.
         11    1    3    3    0    0 -0.27886657116E+02 -0.83689470076E+01 -0.42405147622E+02  0.51438326802E+02  0.51100000000E-03 0.  1.
         22    1    1    0    0    0  0.20140567206E+01 -0.19142245676E+02  0.26091542015E+02  0.32422994290E+02  0.00000000000E+00 0.  1.
</event>
<event>
 5    1  0.6622940E-004  0.9118800E+02  0.7818608E-02  0.1130116E+00
         25   -1    0    0    0    0  0.00000000000E+00  0.00000000000E+00  0.99999998245E-14  0.12500000000E+03  0.12500000000E+03 0.  0.
        -11    1    3    3    0    0 -0.23057913848E+02  0.20386902159E+02 -0.50817681188E+02  0.59411529960E+02  0.51100000000E-03 0.  1.
         23    2    1    0    0    0  0.10110395927E+01  0.16724561144E+02 -0.25064811259E+02  0.94850739479E+02  0.89931556584E+02 0.  0.
         11    1    3    3    0    0  0.24068953441E+02 -0.36623410141E+01  0.25752869929E+02  0.35439209518E+02  0.51100000000E-03 0. -1.
         22    1    1    0    0    0 -0.10110395927E+01 -0.16724561144E+02  0.25064811259E+02  0.30149260521E+02  0.00000000000E+00 0.  1.
</event>
<event>
 5    1  0.6622940E-004  0.9118800E+02  0.7818608E-02  0.1130116E+00
         25   -1    0    0    0    0  0.00000000000E+00  0.00000000000E+00  0.99999998245E-14  0.12500000000E+03  0.12500000000E+03 0.  0.
        -11    1    3    3    0    0 -0.13218853995E+02  0.33025844183E+02 -0.14152259090E+02  0.38284865450E+02  0.51100000000E-03 0. -1.
         23    2    1    0    0    0  0.12945827778E+01 -0.22602211873E+02 -0.18249899058E+02  0.95920888223E+02  0.91406903764E+02 0.  0.
         11    1    3    3    0    0  0.14513436773E+02 -0.55628056056E+02 -0.40976399686E+01  0.57636022773E+02  0.51100000000E-03 0.  1.
         22    1    1    0    0    0 -0.12945827778E+01  0.22602211873E+02  0.18249899058E+02  0.29079111777E+02  0.00000000000E+00 0.  1.
</event>
<event>
 5    1  0.6622940E-004  0.9118800E+02  0.7818608E-02  0.1130116E+00
         25   -1    0    0    0    0  0.00000000000E+00  0.00000000000E+00  0.99999998245E-14  0.12500000000E+03  0.12500000000E+03 0.  0.
        -11    1    3    3    0    0  0.75698484038E+01 -0.28547479177E+02  0.25188232413E+02  0.38816339660E+02  0.51100000000E-03 0.  1.
         23    2    1    0    0    0  0.35819140647E+02  0.46876676213E+00 -0.43129601054E+01  0.88919088096E+02  0.81269748517E+02 0.  0.
         11    1    3    3    0    0  0.28249292243E+02  0.29016245939E+02 -0.29501192519E+02  0.50102748437E+02  0.51100000000E-03 0. -1.
         22    1    1    0    0    0 -0.35819140647E+02 -0.46876676213E+00  0.43129601054E+01  0.36080911904E+02  0.00000000000E+00 0. -1.
</event>
<event>
 5    1  0.6622940E-004  0.9118800E+02  0.7818608E-02  0.1130116E+00
         25   -1    0    0    0    0  0.00000000000E+00  0.00000000000E+00  0.99999998245E-14  0.12500000000E+03  0.12500000000E+03 0.  0.
        -11    1    3    3    0    0 -0.27307025966E+02 -0.21152906129E+02  0.11045651232E+02  0.36264659328E+02  0.51100000000E-03 0. -1.
         23    2    1    0    0    0 -0.32447772597E+02  0.16844340224E+02 -0.17887250829E+02  0.84299342925E+02  0.73823002725E+02 0.  0.
         11    1    3    3    0    0 -0.51407466318E+01  0.37997246353E+02 -0.28932902061E+02  0.48034683597E+02  0.51100000000E-03 0.  1.
         22    1    1    0    0    0  0.32447772597E+02 -0.16844340224E+02  0.17887250829E+02  0.40700657075E+02  0.00000000000E+00 0.  1.
</event>
<event>
 5    1  0.6622940E-004  0.9118800E+02  0.7818608E-02  0.1130116E+00
         25   -1    0    0    0    0  0.00000000000E+00  0.00000000000E+00  0.99999998245E-14  0.12500000000E+03  0.12500000000E+03 0.  0.
        -11    1    3    3    0    0 -0.35149562767E+02  0.40977346584E+02  0.27934580033E+02  0.60786309788E+02  0.51100000000E-03 0. -1.
         23    2    1    0    0    0 -0.74817920580E+01  0.22085898499E+02  0.17397445177E+02  0.95906440170E+02  0.91387143748E+02 0.  0.
         11    1    3    3    0    0  0.27667770709E+02 -0.18891448085E+02 -0.10537134856E+02  0.35120130381E+02  0.51100000000E-03 0.  1.
         22    1    1    0    0    0  0.74817920580E+01 -0.22085898499E+02 -0.17397445177E+02  0.29093559830E+02  0.00000000000E+00 0. -1.
</event>
<event>
 5    1  0.6622940E-004  0.9118800E+02  0.7818608E-02  0.1130116E+00
         25   -1    0    0    0    0  0.00000000000E+00  0.00000000000E+00  0.99999998245E-14  0.12500000000E+03  0.12500000000E+03 0.  0.
        -11    1    3    3    0    0  0.32295276218E+02 -0.92681843192E+01  0.95774729220E+01  0.34937259400E+02  0.51100000000E-03 0. -1.
         23    2    1    0    0    0 -0.20505400287E+02 -0.11623476104E+02 -0.18730018544E+02  0.94893684511E+02  0.89991228060E+02 0.  0.
         11    1    3    3    0    0 -0.52800676505E+02 -0.23552917849E+01 -0.28307491466E+02  0.59956425111E+02  0.51100000000E-03 0.  1.
         22    1    1    0    0    0  0.20505400287E+02  0.11623476104E+02  0.18730018544E+02  0.30106315489E+02  0.00000000000E+00 0.  1.
</event>
<event>
 5    1  0.6622940E-004  0.9118800E+02  0.7818608E-02  0.1130116E+00
         25   -1    0    0    0    0  0.00000000000E+00  0.00000000000E+00  0.99999998245E-14  0.12500000000E+03  0.12500000000E+03 0.  0.
        -11    1    3    3    0    0  0.17095516680E+02 -0.12392802439E+02 -0.47423958898E+02  0.51912138471E+02  0.51100000000E-03 0.  1.
         23    2    1    0    0    0 -0.13913926022E+02 -0.18663420070E+02 -0.14492199132E+02  0.97578394982E+02  0.93646135775E+02 0.  0.
         11    1    3    3    0    0 -0.31009442702E+02 -0.62706176312E+01  0.32931759766E+02  0.45666256511E+02  0.51100000000E-03 0. -1.
         22    1    1    0    0    0  0.13913926022E+02  0.18663420070E+02  0.14492199132E+02  0.27421605018E+02  0.00000000000E+00 0.  1.
</event>
<event>
 5    1  0.6622940E-004  0.9118800E+02  0.7818608E-02  0.1130116E+00
         25   -1    0    0    0    0  0.00000000000E+00  0.00000000000E+00  0.99999998245E-14  0.12500000000E+03  0.12500000000E+03 0.  0.
        -11    1    3    3    0    0  0.34835349650E+02  0.22519815469E+02 -0.29408236076E+01  0.41584758239E+02  0.51100000000E-03 0. -1.
         23    2    1    0    0    0 -0.16065158832E+02 -0.84535725843E+01  0.12281607496E+02  0.10308219672E+03  0.10072511693E+03 0.  0.
         11    1    3    3    0    0 -0.50900508483E+02 -0.30973388054E+02  0.15222431104E+02  0.61497438485E+02  0.51100000000E-03 0.  1.
         22    1    1    0    0    0  0.16065158832E+02  0.84535725843E+01 -0.12281607496E+02  0.21917803276E+02  0.00000000000E+00 0.  1.
</event>
<event>
 5    1  0.6622940E-004  0.9118800E+02  0.7818608E-02  0.1130116E+00
         25   -1    0    0    0    0  0.00000000000E+00  0.00000000000E+00  0.99999998245E-14  0.12500000000E+03  0.12500000000E+03 0.  0.
        -11    1    3    3    0    0 -0.30674622892E+02 -0.41491556119E+02 -0.31401982785E+02  0.60403362836E+02  0.51100000000E-03 0. -1.
         23    2    1    0    0    0 -0.53074418896E+01 -0.26236028545E+02 -0.13178482136E+02  0.95164274357E+02  0.90366302288E+02 0.  0.
         11    1    3    3    0    0  0.25367181002E+02  0.15255527574E+02  0.18223500649E+02  0.34760911521E+02  0.51100000000E-03 0.  1.
         22    1    1    0    0    0  0.53074418896E+01  0.26236028545E+02  0.13178482136E+02  0.29835725643E+02  0.00000000000E+00 0. -1.
</event>
<event>
 5    1  0.6622940E-004  0.9118800E+02  0.7818608E-02  0.1130116E+00
         25   -1    0    0    0    0  0.00000000000E+00  0.00000000000E+00  0.99999998245E-14  0.12500000000E+03  0.12500000000E+03 0.  0.
        -11    1    3    3    0    0  0.11126465327E+02  0.13419691890E+02 -0.34029304723E+02  0.38234538591E+02  0.51100000000E-03 0.  1.
         23    2    1    0    0    0 -0.16523219242E+02  0.15902359141E+02  0.17086208069E+02  0.96402092620E+02  0.92062604541E+02 0.  0.
         11    1    3    3    0    0 -0.27649684569E+02  0.24826672505E+01  0.51115512792E+02  0.58167554028E+02  0.51100000000E-03 0. -1.
         22    1    1    0    0    0  0.16523219242E+02 -0.15902359141E+02 -0.17086208069E+02  0.28597907380E+02  0.00000000000E+00 0. -1.
</event>
<event>
 5    1  0.6622940E-004  0.9118800E+02  0.7818608E-02  0.1130116E+00
         25   -1    0    0    0    0  0.00000000000E+00  0.00000000000E+00  0.99999998245E-14  0.12500000000E+03  0.12500000000E+03 0.  0.
        -11    1    3    3    0    0  0.46812171595E+02  0.72284634242E+01  0.16871442391E+02  0.50281961592E+02  0.51100000000E-03 0. -1.
         23    2    1    0    0    0  0.22150021709E+02 -0.16691018577E+02 -0.11633906508E+02  0.94924073688E+02  0.90033429470E+02 0.  0.
         11    1    3    3    0    0 -0.24662149886E+02 -0.23919482002E+02 -0.28505348900E+02  0.44642112096E+02  0.51100000000E-03 0.  1.
         22    1    1    0    0    0 -0.22150021709E+02  0.16691018577E+02  0.11633906508E+02  0.30075926312E+02  0.00000000000E+00 0.  1.
</event>
<event>
 5    1  0.6622940E-004  0.9118800E+02  0.7818608E-02  0.1130116E+00
         25   -1    0    0    0    0  0.00000000000E+00  0.00000000000E+00  0.99999998245E-14  0.12500000000E+03  0.12500000000E+03 0.  0.
        -11    1    3    3    0    0  0.16551542886E+02 -0.18894395927E+02  0.56611168041E+02  0.61933642849E+02  0.51100000000E-03 0.  1.
         23    2    1    0    0    0  0.53064095512E+01 -0.43827173852E+01  0.29716854562E+02  0.94496596271E+02  0.89437962117E+02 0.  0.
         11    1    3    3    0    0 -0.11245133335E+02  0.14511678542E+02 -0.26894313479E+02  0.32562953422E+02  0.51100000000E-03 0. -1.
         22    1    1    0    0    0 -0.53064095512E+01  0.43827173852E+01 -0.29716854562E+02  0.30503403729E+02  0.00000000000E+00 0.  1.
</event>
<event>
 5    1  0.6622940E-004  0.9118800E+02  0.7818608E-02  0.1130116E+00
         25   -1    0    0    0    0  0.00000000000E+00  0.00000000000E+00  0.99999998245E-14  0.12500000000E+03  0.12500000000E+03 0.  0.
        -11    1    3    3    0    0  0.29890564607E+02 -0.19344270062E+02 -0.10430929601E+02  0.37100551604E+02  0.51100000000E-03 0. -1.
         23    2    1    0    0    0  0.23869305203E+01  0.25784759166E+02  0.14265321660E+02  0.95435652475E+02  0.90740912045E+02 0.  0.
         11    1    3    3    0    0 -0.27503634087E+02  0.45129029227E+02  0.24696251261E+02  0.58335100870E+02  0.51100000000E-03 0.  1.
         22    1    1    0    0    0 -0.23869305203E+01 -0.25784759166E+02 -0.14265321660E+02  0.29564347525E+02  0.00000000000E+00 0.  1.
</event>
<event>
 5    1  0.6622940E-004  0.9118800E+02  0.7818608E-02  0.1130116E+00
         25   -1    0    0    0    0  0.00000000000E+00  0.00000000000E+00  0.99999998245E-14  0.12500000000E+03  0.12500000000E+03 0.  0.
        -11    1    3    3    0    0  0.17657952189E+02  0.78236444200E+01  0.30184701068E+02  0.35834743843E+02  0.51100000000E-03 0. -1.
         23    2    1    0    0    0 -0.11013804747E+02  0.22888487766E+02 -0.17982266558E+02  0.93878485291E+02  0.88569866901E+02 0.  0.
         11    1    3    3    0    0 -0.28671756935E+02  0.15064843346E+02 -0.48166967626E+02  0.58043741448E+02  0.51100000000E-03 0.  1.
         22    1    1    0    0    0  0.11013804747E+02 -0.22888487766E+02  0.17982266558E+02  0.31121514709E+02  0.00000000000E+00 0.  1.
</event>
<event>
 5    1  0.6622940E-004  0.9118800E+02  0.7818608E-02  0.1130116E+00
         25   -1    0    0    0    0  0.00000000000E+00  0.00000000000E+00  0.99999998245E-14  0.12500000000E+03  0.12500000000E+03 0.  0.
        -11    1    3    3    0    0  0.40992224607E+01 -0.32315175771E+02 -0.16714834526E+02  0.36612291698E+02  0.51100000000E-03 0. -1.
         23    2    1    0    0    0  0.83210765800E+01  0.16936141215E+02  0.19480240784E+02  0.97878920086E+02  0.94046424820E+02 0.  0.
         11    1    3    3    0    0  0.42218541194E+01  0.49251316986E+02  0.36195075310E+02  0.61266628388E+02  0.51100000000E-03 0.  1.
         22    1    1    0    0    0 -0.83210765800E+01 -0.16936141215E+02 -0.19480240784E+02  0.27121079914E+02  0.00000000000E+00 0.  1.
</event>
<event>
 5    1  0.6622940E-004  0.9118800E+02  0.7818608E-02  0.1130116E+00
         25   -1    0    0    0    0  0.00000000000E+00  0.00000000000E+00  0.99999998245E-14  0.12500000000E+03  0.12500000000E+03 0.  0.
        -11    1    3    3    0    0  0.51052784383E+01  0.57533425233E+02  0.17014244254E+02  0.60213315760E+02  0.51100000000E-03 0. -1.
         23    2    1    0    0    0  0.70062941321E+01  0.21669113125E+02  0.17735203639E+02  0.96135210564E+02  0.91699523668E+02 0.  0.
         11    1    3    3    0    0  0.19010156938E+01 -0.35864312108E+02  0.72095938448E+00  0.35921894804E+02  0.51100000000E-03 0.  1.
         22    1    1    0    0    0 -0.70062941321E+01 -0.21669113125E+02 -0.17735203639E+02  0.28864789436E+02  0.00000000000E+00 0. -1.
</event>
<event>
 5    1  0.6622940E-004  0.9118800E+02  0.7818608E-02  0.1130116E+00
         25   -1    0    0    0    0  0.00000000000E+00  0.00000000000E+00  0.99999998245E-14  0.12500000000E+03  0.12500000000E+03 0.  0.
        -11    1    3    3    0    0  0.39903070765E+02 -0.41682341927E+02  0.12639407338E+01  0.57717157167E+02  0.51100000000E-03 0.  1.
         23    2    1    0    0    0  0.34603475270E+02 -0.18421268452E+02  0.12175789983E+02  0.83951327745E+02  0.73231358968E+02 0.  0.
         11    1    3    3    0    0 -0.52995954945E+01  0.23261073475E+02  0.10911849249E+02  0.26234170578E+02  0.51100000000E-03 0. -1.
         22    1    1    0    0    0 -0.34603475270E+02  0.18421268452E+02 -0.12175789983E+02  0.41048672255E+02  0.00000000000E+00 0.  1.
</event>
<event>
 5    1  0.6622940E-004  0.9118800E+02  0.7818608E-02  0.1130116E+00
         25   -1    0    0    0    0  0.00000000000E+00  0.00000000000E+00  0.99999998245E-14  0.12500000000E+03  0.12500000000E+03 0.  0.
        -11    1    3    3    0    0  0.41514715664E+02 -0.94606137481E+01 -0.10936198655E+02  0.43961065392E+02  0.51100000000E-03 0.  1.
         23    2    1    0    0    0  0.25808596395E+01  0.44569359993E+01  0.25447460794E+02  0.99036595449E+02  0.95572741210E+02 0.  0.
         11    1    3    3    0    0 -0.38933856024E+02  0.13917549747E+02  0.36383659449E+02  0.55075530057E+02  0.51100000000E-03 0. -1.
         22    1    1    0    0    0 -0.25808596395E+01 -0.44569359993E+01 -0.25447460794E+02  0.25963404551E+02  0.00000000000E+00 0. -1.
</event>
<event>
 5    1  0.6622940E-004  0.9118800E+02  0.7818608E-02  0.1130116E+00
         25   -1    0    0    0    0  0.00000000000E+00  0.00000000000E+00  0.99999998245E-14  0.12500000000E+03  0.12500000000E+03 0.  0.
        -11    1    3    3    0    0 -0.87492329342E+01  0.25308121314E+02  0.18681267011E+02  0.32650265218E+02  0.51100000000E-03 0. -1.
         23    2    1    0    0    0 -0.23120255239E+02 -0.17804027345E+02 -0.17706164849E+02  0.90867348980E+02  0.84213046762E+02 0.  0.
         11    1    3    3    0    0 -0.14371022305E+02 -0.43112148659E+02 -0.36387431860E+02  0.58217083762E+02  0.51100000000E-03 0.  1.
         22    1    1    0    0    0  0.23120255239E+02  0.17804027345E+02  0.17706164849E+02  0.34132651020E+02  0.00000000000E+00 0.  1.
</event>
<event>
 5    1  0.6622940E-004  0.9118800E+02  0.7818608E-02  0.1130116E+00
         25   -1    0    0    0    0  0.00000000000E+00  0.00000000000E+00  0.99999998245E-14  0.12500000000E+03  0.12500000000E+03 0.  0.
        -11    1    3    3    0    0  0.10087761255E+02 -0.39035249511E+02  0.18539032660E+02  0.44375774515E+02  0.51100000000E-03 0. -1.
         23    2    1    0    0    0  0.16513595927E+01  0.12650848641E+02  0.24792013481E+02  0.97117839175E+02  0.93029349098E+02 0.  0.
         11    1    3    3    0    0 -0.84364016625E+01  0.51686098152E+02  0.62529808218E+01  0.52742064660E+02  0.51100000000E-03 0.  1.
         22    1    1    0    0    0 -0.16513595927E+01 -0.12650848641E+02 -0.24792013481E+02  0.27882160825E+02  0.00000000000E+00 0.  1.
</event>
<event>
 5    1  0.6622940E-004  0.9118800E+02  0.7818608E-02  0.1130116E+00
         25   -1    0    0    0    0  0.00000000000E+00  0.00000000000E+00  0.99999998245E-14  0.12500000000E+03  0.12500000000E+03 0.  0.
        -11    1    3    3    0    0 -0.14935598852E+02 -0.54354363682E+02 -0.17913172205E+02  0.59146857085E+02  0.51100000000E-03 0. -1.
         23    2    1    0    0    0  0.27116669379E+01 -0.32277106429E+02 -0.19030246376E+02  0.87432527180E+02  0.78950185528E+02 0.  0.
         11    1    3    3    0    0  0.17647265790E+02  0.22077257253E+02 -0.11170741705E+01  0.28285670094E+02  0.51100000000E-03 0.  1.
         22    1    1    0    0    0 -0.27116669379E+01  0.32277106429E+02  0.19030246376E+02  0.37567472820E+02  0.00000000000E+00 0. -1.
</event>
<event>
 5    1  0.6622940E-004  0.9118800E+02  0.7818608E-02  0.1130116E+00
         25   -1    0    0    0    0  0.00000000000E+00  0.00000000000E+00  0.99999998245E-14  0.12500000000E+03  0.12500000000E+03 0.  0.
        -11    1    3    3    0    0 -0.89740945379E+01 -0.56555565909E+02  0.12566719383E+02  0.58625837686E+02  0.51100000000E-03 0. -1.
         23    2    1    0    0    0  0.56754613477E+00 -0.26741455325E+02 -0.91565325062E+01  0.96728642957E+02  0.92504922783E+02 0.  0.
         11    1    3    3    0    0  0.95416406726E+01  0.29814110583E+02 -0.21723251889E+02  0.38102805271E+02  0.51100000000E-03 0.  1.
         22    1    1    0    0    0 -0.56754613477E+00  0.26741455325E+02  0.91565325062E+01  0.28271357043E+02  0.00000000000E+00 0. -1.
</event>
<event>
 5    1  0.6622940E-004  0.9118800E+02  0.7818608E-02  0.1130116E+00
         25   -1    0    0    0    0  0.00000000000E+00  0.00000000000E+00  0.99999998245E-14  0.12500000000E+03  0.12500000000E+03 0.  0.
        -11    1    3    3    0    0 -0.52153453911E+02 -0.16044986206E+02 -0.19958757648E+02  0.58101431517E+02  0.51100000000E-03 0. -1.
         23    2    1    0    0    0 -0.26379886892E+02 -0.54627302457E+01  0.73096278313E+01  0.97086374059E+02  0.92987061007E+02 0.  0.
         11    1    3    3    0    0  0.25773567019E+02  0.10582255961E+02  0.27268385479E+02  0.38984942542E+02  0.51100000000E-03 0.  1.
         22    1    1    0    0    0  0.26379886892E+02  0.54627302457E+01 -0.73096278313E+01  0.27913625941E+02  0.00000000000E+00 0. -1.
</event>
<event>
 5    1  0.6622940E-004  0.9118800E+02  0.7818608E-02  0.1130116E+00
         25   -1    0    0    0    0  0.00000000000E+00  0.00000000000E+00  0.99999998245E-14  0.12500000000E+03  0.12500000000E+03 0.  0.
        -11    1    3    3    0    0  0.27848312312E+02 -0.15184492024E+02 -0.29344356688E+02  0.43210977383E+02  0.51100000000E-03 0.  1.
         23    2    1    0    0    0  0.17451638420E+02 -0.22818801279E+01  0.21805445073E+02  0.96977792819E+02  0.92840983433E+02 0.  0.
         11    1    3    3    0    0 -0.10396673892E+02  0.12902611896E+02  0.51149801761E+02  0.53766815437E+02  0.51100000000E-03 0. -1.
         22    1    1    0    0    0 -0.17451638420E+02  0.22818801279E+01 -0.21805445073E+02  0.28022207181E+02  0.00000000000E+00 0. -1.
</event>
<event>
 5    1  0.6622940E-004  0.9118800E+02  0.7818608E-02  0.1130116E+00
         25   -1    0    0    0    0  0.00000000000E+00  0.00000000000E+00  0.99999998245E-14  0.12500000000E+03  0.12500000000E+03 0.  0.
        -11    1    3    3    0    0 -0.15492836469E+02 -0.23683220904E+02  0.31849264120E+02  0.42606320652E+02  0.51100000000E-03 0. -1.
         23    2    1    0    0    0 -0.12448442285E+02  0.24620952224E+02  0.11605728369E+02  0.95069281086E+02  0.90234806319E+02 0.  0.
         11    1    3    3    0    0  0.30443941839E+01  0.48304173128E+02 -0.20243535751E+02  0.52462960434E+02  0.51100000000E-03 0.  1.
         22    1    1    0    0    0  0.12448442285E+02 -0.24620952224E+02 -0.11605728369E+02  0.29930718914E+02  0.00000000000E+00 0.  1.
</event>
<event>
 5    1  0.6622940E-004  0.9118800E+02  0.7818608E-02  0.1130116E+00
         25   -1    0    0    0    0  0.00000000000E+00  0.00000000000E+00  0.99999998245E-14  0.12500000000E+03  0.12500000000E+03 0.  0.
        -11    1    3    3    0    0 -0.39650911599E+02  0.38234842364E+02  0.10840873980E+02  0.56139313410E+02  0.51100000000E-03 0. -1.
         23    2    1    0    0    0  0.64024330435E+00  0.22945844028E+02  0.11685521680E+02  0.99242028679E+02  0.95841051589E+02 0.  0.
         11    1    3    3    0    0  0.40291154903E+02 -0.15288998335E+02  0.84464769984E+00  0.43102715269E+02  0.51100000000E-03 0.  1.
         22    1    1    0    0    0 -0.64024330435E+00 -0.22945844028E+02 -0.11685521680E+02  0.25757971321E+02  0.00000000000E+00 0. -1.
</event>
<event>
 5    1  0.6622940E-004  0.9118800E+02  0.7818608E-02  0.1130116E+00
         25   -1    0    0    0    0  0.00000000000E+00  0.00000000000E+00  0.99999998245E-14  0.12500000000E+03  0.12500000000E+03 0.  0.
        -11    1    3    3    0    0 -0.35668006433E+02 -0.11055926624E+02  0.43668145343E+02  0.57457350395E+02  0.51100000000E-03 0. -1.
         23    2    1    0    0    0 -0.21860755700E+02  0.10926172031E+02  0.14174163430E+02  0.96747906556E+02  0.92530949627E+02 0.  0.
         11    1    3    3    0    0  0.13807250733E+02  0.21982098655E+02 -0.29493981912E+02  0.39290556161E+02  0.51100000000E-03 0.  1.
         22    1    1    0    0    0  0.21860755700E+02 -0.10926172031E+02 -0.14174163430E+02  0.28252093444E+02  0.00000000000E+00 0. -1.
</event>
<event>
 5    1  0.6622940E-004  0.9118800E+02  0.7818608E-02  0.1130116E+00
         25   -1    0    0    0    0  0.00000000000E+00  0.00000000000E+00  0.99999998245E-14  0.12500000000E+03  0.12500000000E+03 0.  0.
        -11    1    3    3    0    0 -0.63608606429E+01 -0.36853135889E+02  0.41486599240E+02  0.55854740978E+02  0.51100000000E-03 0. -1.
         23    2    1    0    0    0  0.12560669428E+02 -0.25939376223E+02  0.93719247282E+01  0.94693983627E+02  0.89713409849E+02 0.  0.
         11    1    3    3    0    0  0.18921530071E+02  0.10913759666E+02 -0.32114674512E+02  0.38839242649E+02  0.51100000000E-03 0.  1.
         22    1    1    0    0    0 -0.12560669428E+02  0.25939376223E+02 -0.93719247282E+01  0.30306016373E+02  0.00000000000E+00 0. -1.
</event>
<event>
 5    1  0.6622940E-004  0.9118800E+02  0.7818608E-02  0.1130116E+00
         25   -1    0    0    0    0  0.00000000000E+00  0.00000000000E+00  0.99999998245E-14  0.12500000000E+03  0.12500000000E+03 0.  0.
        -11    1    3    3    0    0 -0.44109429995E+02  0.24473791069E+02  0.30628112407E+02  0.59014316345E+02  0.51100000000E-03 0.  1.
         23    2    1    0    0    0 -0.20287460334E+02 -0.16667006103E+01  0.21185549181E+02  0.95619965422E+02  0.90994457828E+02 0.  0.
         11    1    3    3    0    0  0.23821969661E+02 -0.26140491680E+02 -0.94425632256E+01  0.36605649077E+02  0.51100000000E-03 0. -1.
         22    1    1    0    0    0  0.20287460334E+02  0.16667006103E+01 -0.21185549181E+02  0.29380034578E+02  0.00000000000E+00 0.  1.
</event>
<event>
 5    1  0.6622940E-004  0.9118800E+02  0.7818608E-02  0.1130116E+00
         25   -1    0    0    0    0  0.00000000000E+00  0.00000000000E+00  0.99999998245E-14  0.12500000000E+03  0.12500000000E+03 0.  0.
        -11    1    3    3    0    0 -0.15882702945E+01  0.41852982912E+02 -0.26772509635E+02  0.49708772400E+02  0.51100000000E-03 0. -1.
         23    2    1    0    0    0 -0.24498354057E+02  0.30433586699E+01 -0.14302498328E+02  0.96469440210E+02  0.92154001826E+02 0.  0.
         11    1    3    3    0    0 -0.22910083762E+02 -0.38809624242E+02  0.12470011307E+02  0.46760667810E+02  0.51100000000E-03 0.  1.
         22    1    1    0    0    0  0.24498354057E+02 -0.30433586699E+01  0.14302498328E+02  0.28530559790E+02  0.00000000000E+00 0. -1.
</event>
<event>
 5    1  0.6622940E-004  0.9118800E+02  0.7818608E-02  0.1130116E+00
         25   -1    0    0    0    0  0.00000000000E+00  0.00000000000E+00  0.99999998245E-14  0.12500000000E+03  0.12500000000E+03 0.  0.
        -11    1    3    3    0    0 -0.99049891797E+00  0.59917689278E+01 -0.33477476510E+02  0.34023871278E+02  0.51100000000E-03 0.  1.
         23    2    1    0    0    0 -0.19748399495E+02 -0.12468760095E+02  0.20402606059E+02  0.93988137835E+02  0.88724486241E+02 0.  0.
         11    1    3    3    0    0 -0.18757900577E+02 -0.18460529023E+02  0.53880082569E+02  0.59964266557E+02  0.51100000000E-03 0. -1.
         22    1    1    0    0    0  0.19748399495E+02  0.12468760095E+02 -0.20402606059E+02  0.31011862165E+02  0.00000000000E+00 0. -1.
</event>
<event>
 5    1  0.6622940E-004  0.9118800E+02  0.7818608E-02  0.1130116E+00
         25   -1    0    0    0    0  0.00000000000E+00  0.00000000000E+00  0.99999998245E-14  0.12500000000E+03  0.12500000000E+03 0.  0.
        -11    1    3    3    0    0 -0.15230830247E+02 -0.35648170799E+02 -0.36673469764E+02  0.53363973391E+02  0.51100000000E-03 0.  1.
         23    2    1    0    0    0 -0.24411709950E+02 -0.40418995219E+01 -0.36495738680E+01  0.99988244287E+02  0.96809405905E+02 0.  0.
         11    1    3    3    0    0 -0.91808797036E+01  0.31606271277E+02  0.33023895896E+02  0.46624270896E+02  0.51100000000E-03 0. -1.
         22    1    1    0    0    0  0.24411709950E+02  0.40418995219E+01  0.36495738680E+01  0.25011755713E+02  0.00000000000E+00 0.  1.
</event>
<event>
 5    1  0.6622940E-004  0.9118800E+02  0.7818608E-02  0.1130116E+00
         25   -1    0    0    0    0  0.00000000000E+00  0.00000000000E+00  0.99999998245E-14  0.12500000000E+03  0.12500000000E+03 0.  0.
        -11    1    3    3    0    0 -0.34919573633E+01 -0.14518896742E+02 -0.52919168232E+02  0.54985729926E+02  0.51100000000E-03 0.  1.
         23    2    1    0    0    0 -0.67869959217E+01 -0.25823699311E+02 -0.15694695711E+02  0.94028234903E+02  0.88780959253E+02 0.  0.
         11    1    3    3    0    0 -0.32950385585E+01 -0.11304802568E+02  0.37224472521E+02  0.39042504978E+02  0.51100000000E-03 0. -1.
         22    1    1    0    0    0  0.67869959217E+01  0.25823699311E+02  0.15694695711E+02  0.30971765097E+02  0.00000000000E+00 0.  1.
</event>
<event>
 5    1  0.6622940E-004  0.9118800E+02  0.7818608E-02  0.1130116E+00
         25   -1    0    0    0    0  0.00000000000E+00  0.00000000000E+00  0.99999998245E-14  0.12500000000E+03  0.12500000000E+03 0.  0.
        -11    1    3    3    0    0 -0.67801275542E+01 -0.53786832642E+01  0.60914447119E+02  0.61526175173E+02  0.51100000000E-03 0.  1.
         23    2    1    0    0    0 -0.14605756312E+01 -0.99861769275E+01  0.26715125273E+02  0.96442077647E+02  0.92116879081E+02 0.  0.
         11    1    3    3    0    0  0.53195519230E+01 -0.46074936634E+01 -0.34199321846E+02  0.34915902474E+02  0.51100000000E-03 0. -1.
         22    1    1    0    0    0  0.14605756312E+01  0.99861769275E+01 -0.26715125273E+02  0.28557922353E+02  0.00000000000E+00 0.  1.
</event>
<event>
 5    1  0.6622940E-004  0.9118800E+02  0.7818608E-02  0.1130116E+00
         25   -1    0    0    0    0  0.00000000000E+00  0.00000000000E+00  0.99999998245E-14  0.12500000000E+03  0.12500000000E+03 0.  0.
        -11    1    3    3    0    0  0.27792761035E+02 -0.18504292175E+02 -0.16341490780E+02  0.37173790714E+02  0.51100000000E-03 0.  1.
         23    2    1    0    0    0 -0.88659758861E+01  0.26312841529E+02 -0.39108862582E+00  0.97230878515E+02  0.93181111974E+02 0.  0.
         11    1    3    3    0    0 -0.36658736921E+02  0.44817133704E+02  0.15950402154E+02  0.60057087802E+02  0.51100000000E-03 0. -1.
         22    1    1    0    0    0  0.88659758861E+01 -0.26312841529E+02  0.39108862582E+00  0.27769121485E+02  0.00000000000E+00 0. -1.
</event>
<event>
 5    1  0.6622940E-004  0.9118800E+02  0.7818608E-02  0.1130116E+00
         25   -1    0    0    0    0  0.00000000000E+00  0.00000000000E+00  0.99999998245E-14  0.12500000000E+03  0.12500000000E+03 0.  0.
        -11    1    3    3    0    0  0.18803015785E+02 -0.56818077599E+02  0.15207866917E+02  0.61750518711E+02  0.51100000000E-03 0.  1.
         23    2    1    0    0    0  0.11614509949E+02 -0.23138641262E+02  0.12373776488E+02  0.96304984660E+02  0.91930659548E+02 0.  0.
         11    1    3    3    0    0 -0.71885058365E+01  0.33679436338E+02 -0.28340904289E+01  0.34554465949E+02  0.51100000000E-03 0. -1.
         22    1    1    0    0    0 -0.11614509949E+02  0.23138641262E+02 -0.12373776488E+02  0.28695015340E+02  0.00000000000E+00 0.  1.
</event>
<event>
 5    1  0.6622940E-004  0.9118800E+02  0.7818608E-02  0.1130116E+00
         25   -1    0    0    0    0  0.00000000000E+00  0.00000000000E+00  0.99999998245E-14  0.12500000000E+03  0.12500000000E+03 0.  0.
        -11    1    3    3    0    0  0.18839162135E+02 -0.37644898681E+02 -0.24769593361E+02  0.48842452664E+02  0.51100000000E-03 0.  1.
         23    2    1    0    0    0  0.17889656816E+02 -0.18031421823E+02  0.16614204144E+02  0.94648661096E+02  0.89650238560E+02 0.  0.
         11    1    3    3    0    0 -0.94950531960E+00  0.19613476858E+02  0.41383797504E+02  0.45806208432E+02  0.51100000000E-03 0. -1.
         22    1    1    0    0    0 -0.17889656816E+02  0.18031421823E+02 -0.16614204144E+02  0.30351338904E+02  0.00000000000E+00 0. -1.
</event>
<event>
 5    1  0.6622940E-004  0.9118800E+02  0.7818608E-02  0.1130116E+00
         25   -1    0    0    0    0  0.00000000000E+00  0.00000000000E+00  0.99999998245E-14  0.12500000000E+03  0.12500000000E+03 0.  0.
        -11    1    3    3    0    0  0.49906510906E+02  0.66028633650E+01 -0.31222773098E+02  0.59237818964E+02  0.51100000000E-03 0. -1.
         23    2    1    0    0    0  0.19642295399E+02  0.16893898710E+02 -0.14334574539E+02  0.95390818833E+02  0.90679130499E+02 0.  0.
         11    1    3    3    0    0 -0.30264215506E+02  0.10291035345E+02  0.16888198559E+02  0.36152999869E+02  0.51100000000E-03 0.  1.
         22    1    1    0    0    0 -0.19642295399E+02 -0.16893898710E+02  0.14334574539E+02  0.29609181167E+02  0.00000000000E+00 0. -1.
</event>
<event>
 5    1  0.6622940E-004  0.9118800E+02  0.7818608E-02  0.1130116E+00
         25   -1    0    0    0    0  0.00000000000E+00  0.00000000000E+00  0.99999998245E-14  0.12500000000E+03  0.12500000000E+03 0.  0.
        -11    1    3    3    0    0  0.12843604972E+02 -0.69989396219E+01 -0.38535408688E+02  0.41217970202E+02  0.51100000000E-03 0. -1.
         23    2    1    0    0    0  0.22238088029E+02  0.18246984827E+02  0.81362884455E+01  0.95105448588E+02  0.90284894345E+02 0.  0.
         11    1    3    3    0    0  0.93944830570E+01  0.25245924449E+02  0.46671697134E+02  0.53887478386E+02  0.51100000000E-03 0.  1.
         22    1    1    0    0    0 -0.22238088029E+02 -0.18246984827E+02 -0.81362884455E+01  0.29894551412E+02  0.00000000000E+00 0. -1.
</event>
<event>
 5    1  0.6622940E-004  0.9118800E+02  0.7818608E-02  0.1130116E+00
         25   -1    0    0    0    0  0.00000000000E+00  0.00000000000E+00  0.99999998245E-14  0.12500000000E+03  0.12500000000E+03 0.  0.
        -11    1    3    3    0    0 -0.17233427532E+02 -0.91284220020E+01 -0.28775159790E+02  0.34761026077E+02  0.51100000000E-03 0.  1.
         23    2    1    0    0    0 -0.51408894157E+01  0.80969088403E+01  0.28048513583E+02  0.95356994232E+02  0.90632491734E+02 0.  0.
         11    1    3    3    0    0  0.12092538116E+02  0.17225330842E+02  0.56823673373E+02  0.60595968155E+02  0.51100000000E-03 0. -1.
         22    1    1    0    0    0  0.51408894157E+01 -0.80969088403E+01 -0.28048513583E+02  0.29643005768E+02  0.00000000000E+00 0. -1.
</event>
<event>
 5    1  0.6622940E-004  0.9118800E+02  0.7818608E-02  0.1130116E+00
         25   -1    0    0    0    0  0.00000000000E+00  0.00000000000E+00  0.99999998245E-14  0.12500000000E+03  0.12500000000E+03 0.  0.
        -11    1    3    3    0    0 -0.37118913674E+02 -0.38165753009E+02  0.26270934933E+01  0.53304221930E+02  0.51100000000E-03 0.  1.
         23    2    1    0    0    0 -0.55707825572E+01 -0.14350504841E+02  0.22649901576E+02  0.97614079367E+02  0.93693755617E+02 0.  0.
         11    1    3    3    0    0  0.31548131117E+02  0.23815248168E+02  0.20022808083E+02  0.44309857437E+02  0.51100000000E-03 0. -1.
         22    1    1    0    0    0  0.55707825572E+01  0.14350504841E+02 -0.22649901576E+02  0.27385920633E+02  0.00000000000E+00 0.  1.
</event>
<event>
 5    1  0.6622940E-004  0.9118800E+02  0.7818608E-02  0.1130116E+00
         25   -1    0    0    0    0  0.00000000000E+00  0.00000000000E+00  0.99999998245E-14  0.12500000000E+03  0.12500000000E+03 0.  0.
        -11    1    3    3    0    0 -0.38336963725E+02  0.20616958151E+02 -0.43866469532E+02  0.61798453869E+02  0.51100000000E-03 0.  1.
         23    2    1    0    0    0 -0.19265844964E+02  0.14653762952E+02 -0.16409362018E+02  0.95756663790E+02  0.91182048384E+02 0.  0.
         11    1    3    3    0    0  0.19071118762E+02 -0.59631951992E+01  0.27457107514E+02  0.33958209922E+02  0.51100000000E-03 0. -1.
         22    1    1    0    0    0  0.19265844964E+02 -0.14653762952E+02  0.16409362018E+02  0.29243336210E+02  0.00000000000E+00 0.  1.
</event>
<event>
 5    1  0.6622940E-004  0.9118800E+02  0.7818608E-02  0.1130116E+00
         25   -1    0    0    0    0  0.00000000000E+00  0.00000000000E+00  0.99999998245E-14  0.12500000000E+03  0.12500000000E+03 0.  0.
        -11    1    3    3    0    0 -0.37591576701E+02  0.38932304567E+02  0.15499397215E+02  0.56294602690E+02  0.51100000000E-03 0. -1.
         23    2    1    0    0    0 -0.11985488964E+02  0.11616595464E+02  0.25016733155E+02  0.94926187910E+02  0.90036364751E+02 0.  0.
         11    1    3    3    0    0  0.25606087737E+02 -0.27315709103E+02  0.95173359398E+01  0.38631585220E+02  0.51100000000E-03 0.  1.
         22    1    1    0    0    0  0.11985488964E+02 -0.11616595464E+02 -0.25016733155E+02  0.30073812090E+02  0.00000000000E+00 0. -1.
</event>
<event>
 5    1  0.6622940E-004  0.9118800E+02  0.7818608E-02  0.1130116E+00
         25   -1    0    0    0    0  0.00000000000E+00  0.00000000000E+00  0.99999998245E-14  0.12500000000E+03  0.12500000000E+03 0.  0.
        -11    1    3    3    0    0  0.48011118754E+02  0.71639049740E+01 -0.56472708098E+01  0.48870039148E+02  0.51100000000E-03 0. -1.
         23    2    1    0    0    0  0.80500883837E+01  0.10958171542E+02  0.23066936558E+02  0.98223723024E+02  0.94503601814E+02 0.  0.
         11    1    3    3    0    0 -0.39961030370E+02  0.37942665684E+01  0.28714207368E+02  0.49353683875E+02  0.51100000000E-03 0.  1.
         22    1    1    0    0    0 -0.80500883837E+01 -0.10958171542E+02 -0.23066936558E+02  0.26776276976E+02  0.00000000000E+00 0. -1.
</event>
<event>
 5    1  0.6622940E-004  0.9118800E+02  0.7818608E-02  0.1130116E+00
         25   -1    0    0    0    0  0.00000000000E+00  0.00000000000E+00  0.99999998245E-14  0.12500000000E+03  0.12500000000E+03 0.  0.
        -11    1    3    3    0    0  0.24460263469E+02  0.49978112516E+02  0.17221660428E+02  0.58246903847E+02  0.51100000000E-03 0. -1.
         23    2    1    0    0    0 -0.12280017448E+01  0.29063896823E+02 -0.68432241603E+00  0.95902124064E+02  0.91381239957E+02 0.  0.
         11    1    3    3    0    0 -0.25688265214E+02 -0.20914215693E+02 -0.17905982844E+02  0.37655220217E+02  0.51100000000E-03 0.  1.
         22    1    1    0    0    0  0.12280017448E+01 -0.29063896823E+02  0.68432241603E+00  0.29097875936E+02  0.00000000000E+00 0. -1.
</event>
<event>
 5    1  0.6622940E-004  0.9118800E+02  0.7818608E-02  0.1130116E+00
         25   -1    0    0    0    0  0.00000000000E+00  0.00000000000E+00  0.99999998245E-14  0.12500000000E+03  0.12500000000E+03 0.  0.
        -11    1    3    3    0    0 -0.17023786555E+02 -0.46360081622E+02 -0.72381407387E+01  0.49914498478E+02  0.51100000000E-03 0. -1.
         23    2    1    0    0    0  0.11313261718E+02 -0.15012259759E+02 -0.23248154256E+02  0.95102934758E+02  0.90281413865E+02 0.  0.
         11    1    3    3    0    0  0.28337048272E+02  0.31347821863E+02 -0.16010013518E+02  0.45188436280E+02  0.51100000000E-03 0.  1.
         22    1    1    0    0    0 -0.11313261718E+02  0.15012259759E+02  0.23248154256E+02  0.29897065242E+02  0.00000000000E+00 0. -1.
</event>
<event>
 5    1  0.6622940E-004  0.9118800E+02  0.7818608E-02  0.1130116E+00
         25   -1    0    0    0    0  0.00000000000E+00  0.00000000000E+00  0.99999998245E-14  0.12500000000E+03  0.12500000000E+03 0.  0.
        -11    1    3    3    0    0  0.11303572372E+02 -0.46902674265E+02  0.95313759332E+01  0.49178030959E+02  0.51100000000E-03 0.  1.
         23    2    1    0    0    0  0.26766194181E+02 -0.14200441368E+01 -0.21196989144E+00  0.98195324895E+02  0.94466032116E+02 0.  0.
         11    1    3    3    0    0  0.15462621809E+02  0.45482630129E+02 -0.97433458247E+01  0.49017293935E+02  0.51100000000E-03 0. -1.
         22    1    1    0    0    0 -0.26766194181E+02  0.14200441368E+01  0.21196989144E+00  0.26804675105E+02  0.00000000000E+00 0.  1.
</event>
<event>
 5    1  0.6622940E-004  0.9118800E+02  0.7818608E-02  0.1130116E+00
         25   -1    0    0    0    0  0.00000000000E+00  0.00000000000E+00  0.99999998245E-14  0.12500000000E+03  0.12500000000E+03 0.  0.
        -11    1    3    3    0    0  0.83988979910E+01 -0.44701045988E+02 -0.14156535065E+02  0.47635412092E+02  0.51100000000E-03 0. -1.
         23    2    1    0    0    0  0.15425174365E+02 -0.10778571224E+02  0.20869529004E+02  0.96899273271E+02  0.92735205385E+02 0.  0.
         11    1    3    3    0    0  0.70262763743E+01  0.33922474764E+02  0.35026064070E+02  0.49263861179E+02  0.51100000000E-03 0.  1.
         22    1    1    0    0    0 -0.15425174365E+02  0.10778571224E+02 -0.20869529004E+02  0.28100726729E+02  0.00000000000E+00 0. -1.
</event>
<event>
 5    1  0.6622940E-004  0.9118800E+02  0.7818608E-02  0.1130116E+00
         25   -1    0    0    0    0  0.00000000000E+00  0.00000000000E+00  0.99999998245E-14  0.12500000000E+03  0.12500000000E+03 0.  0.
        -11    1    3    3    0    0  0.14853844826E+02 -0.42008595641E+02 -0.24874087504E+02  0.51030177770E+02  0.51100000000E-03 0. -1.
         23    2    1    0    0    0 -0.96737925245E+01 -0.59134497639E+01 -0.28009393633E+02  0.94782831344E+02  0.89837118364E+02 0.  0.
         11    1    3    3    0    0 -0.24527637351E+02  0.36095145877E+02 -0.31353061296E+01  0.43752653573E+02  0.51100000000E-03 0.  1.
         22    1    1    0    0    0  0.96737925245E+01  0.59134497639E+01  0.28009393633E+02  0.30217168656E+02  0.00000000000E+00 0. -1.
</event>
<event>
 5    1  0.6622940E-004  0.9118800E+02  0.7818608E-02  0.1130116E+00
         25   -1    0    0    0    0  0.00000000000E+00  0.00000000000E+00  0.99999998245E-14  0.12500000000E+03  0.12500000000E+03 0.  0.
        -11    1    3    3    0    0  0.25180791403E+02 -0.52770282595E+02  0.19023921618E+02  0.61487271648E+02  0.51100000000E-03 0. -1.
         23    2    1    0    0    0  0.67908840100E+01 -0.21637268182E+02  0.14865035486E+02  0.97884381622E+02  0.94053683636E+02 0.  0.
         11    1    3    3    0    0 -0.18389907393E+02  0.31133014413E+02 -0.41588861320E+01  0.36397109974E+02  0.51100000000E-03 0.  1.
         22    1    1    0    0    0 -0.67908840100E+01  0.21637268182E+02 -0.14865035486E+02  0.27115618378E+02  0.00000000000E+00 0. -1.
</event>
<event>
 5    1  0.6622940E-004  0.9118800E+02  0.7818608E-02  0.1130116E+00
         25   -1    0    0    0    0  0.00000000000E+00  0.00000000000E+00  0.99999998245E-14  0.12500000000E+03  0.12500000000E+03 0.  0.
        -11    1    3    3    0    0  0.14536782026E+01 -0.24039801084E+02  0.20287629716E+02  0.31489889429E+02  0.51100000000E-03 0.  1.
         23    2    1    0    0    0 -0.36875504564E+01  0.16490761117E+02 -0.26478820198E+02  0.93588678002E+02  0.88159908691E+02 0.  0.
         11    1    3    3    0    0 -0.51412286591E+01  0.40530562200E+02 -0.46766449915E+02  0.62098788573E+02  0.51100000000E-03 0. -1.
         22    1    1    0    0    0  0.36875504564E+01 -0.16490761117E+02  0.26478820198E+02  0.31411321998E+02  0.00000000000E+00 0. -1.
</event>
<event>
 5    1  0.6622940E-004  0.9118800E+02  0.7818608E-02  0.1130116E+00
         25   -1    0    0    0    0  0.00000000000E+00  0.00000000000E+00  0.99999998245E-14  0.12500000000E+03  0.12500000000E+03 0.  0.
        -11    1    3    3    0    0  0.93754879634E+01 -0.13411561008E+02  0.44555559007E+02  0.47465435655E+02  0.51100000000E-03 0.  1.
         23    2    1    0    0    0 -0.23823904243E+02  0.65585114605E+01  0.17133682383E+02  0.94930820464E+02  0.90042796025E+02 0.  0.
         11    1    3    3    0    0 -0.33199392206E+02  0.19970072468E+02 -0.27421876624E+02  0.47465384809E+02  0.51100000000E-03 0. -1.
         22    1    1    0    0    0  0.23823904243E+02 -0.65585114605E+01 -0.17133682383E+02  0.30069179536E+02  0.00000000000E+00 0. -1.
</event>
<event>
 5    1  0.6622940E-004  0.9118800E+02  0.7818608E-02  0.1130116E+00
         25   -1    0    0    0    0  0.00000000000E+00  0.00000000000E+00  0.99999998245E-14  0.12500000000E+03  0.12500000000E+03 0.  0.
        -11    1    3    3    0    0 -0.77902412571E+01  0.13083164958E+02  0.32819924937E+02  0.36180167734E+02  0.51100000000E-03 0. -1.
         23    2    1    0    0    0 -0.14855042781E+02 -0.19493305675E+02 -0.16317010332E+02  0.95556731018E+02  0.90907550591E+02 0.  0.
         11    1    3    3    0    0 -0.70648015244E+01 -0.32576470633E+02 -0.49136935269E+02  0.59376563284E+02  0.51100000000E-03 0.  1.
         22    1    1    0    0    0  0.14855042781E+02  0.19493305675E+02  0.16317010332E+02  0.29443268982E+02  0.00000000000E+00 0.  1.
</event>
<event>
 5    1  0.6622940E-004  0.9118800E+02  0.7818608E-02  0.1130116E+00
         25   -1    0    0    0    0  0.00000000000E+00  0.00000000000E+00  0.99999998245E-14  0.12500000000E+03  0.12500000000E+03 0.  0.
        -11    1    3    3    0    0  0.48229358086E+02 -0.23942177165E+02  0.19693825586E+02  0.57333634067E+02  0.51100000000E-03 0. -1.
         23    2    1    0    0    0  0.27479491884E+02 -0.10477051967E+01 -0.52008175433E+01  0.97013062627E+02  0.92888458147E+02 0.  0.
         11    1    3    3    0    0 -0.20749866202E+02  0.22894471969E+02 -0.24894643129E+02  0.39679428561E+02  0.51100000000E-03 0.  1.
         22    1    1    0    0    0 -0.27479491884E+02  0.10477051967E+01  0.52008175433E+01  0.27986937373E+02  0.00000000000E+00 0. -1.
</event>
<event>
 4    1  0.6622940E-004  0.9118800E+02  0.7818608E-02  0.1130116E+00
         25   -1    0    0    0    0  0.00000000000E+00  0.00000000000E+00  0.99999998245E-14  0.12500000000E+03  0.12500000000E+03 0.  0.
        -11    1    1    0    0    0 -0.59700677776E+01 -0.15622672375E+01  0.12274784289E+01  0.62919863116E+01  0.51100000000E-03 0.  1.
         11    1    1    0    0    0  0.49922969286E+02  0.10427556504E+02 -0.35612267512E+02  0.62203459668E+02  0.51100000000E-03 0. -1.
         22    1    1    0    0    0 -0.43952901509E+02 -0.88652892668E+01  0.34384789083E+02  0.56504554021E+02  0.00000000000E+00 0. -1.
</event>
<event>
 5    1  0.6622940E-004  0.9118800E+02  0.7818608E-02  0.1130116E+00
         25   -1    0    0    0    0  0.00000000000E+00  0.00000000000E+00  0.99999998245E-14  0.12500000000E+03  0.12500000000E+03 0.  0.
        -11    1    3    3    0    0 -0.42661720748E+02  0.11051159728E+02 -0.29000949135E+02  0.52756095378E+02  0.51100000000E-03 0.  1.
         23    2    1    0    0    0 -0.15359267553E+02  0.27570544933E+02 -0.42204184356E+01  0.93158926220E+02  0.87548452613E+02 0.  0.
         11    1    3    3    0    0  0.27302453195E+02  0.16519385205E+02  0.24780530700E+02  0.40402830842E+02  0.51100000000E-03 0. -1.
         22    1    1    0    0    0  0.15359267553E+02 -0.27570544933E+02  0.42204184356E+01  0.31841073780E+02  0.00000000000E+00 0.  1.
</event>
<event>
 5    1  0.6622940E-004  0.9118800E+02  0.7818608E-02  0.1130116E+00
         25   -1    0    0    0    0  0.00000000000E+00  0.00000000000E+00  0.99999998245E-14  0.12500000000E+03  0.12500000000E+03 0.  0.
        -11    1    3    3    0    0 -0.14369708032E+02  0.34402196370E+02 -0.42948605537E+01  0.37529261269E+02  0.51100000000E-03 0.  1.
         23    2    1    0    0    0  0.16682036312E+01 -0.13389797875E+02  0.25545169932E+02  0.96110117734E+02  0.91665312051E+02 0.  0.
         11    1    3    3    0    0  0.16037911663E+02 -0.47791994245E+02  0.29840030486E+02  0.58580856464E+02  0.51100000000E-03 0. -1.
         22    1    1    0    0    0 -0.16682036312E+01  0.13389797875E+02 -0.25545169932E+02  0.28889882266E+02  0.00000000000E+00 0. -1.
</event>
<event>
 5    1  0.6622940E-004  0.9118800E+02  0.7818608E-02  0.1130116E+00
         25   -1    0    0    0    0  0.00000000000E+00  0.00000000000E+00  0.99999998245E-14  0.12500000000E+03  0.12500000000E+03 0.  0.
        -11    1    3    3    0    0  0.34956933673E+02  0.16622092094E+01 -0.11107571526E+02  0.36716866652E+02  0.51100000000E-03 0.  1.
         23    2    1    0    0    0 -0.25593180773E+02 -0.33719311412E+01  0.27604894201E+01  0.99038468390E+02  0.95575190805E+02 0.  0.
         11    1    3    3    0    0 -0.60550114446E+02 -0.50341403506E+01  0.13868060946E+02  0.62321601738E+02  0.51100000000E-03 0. -1.
         22    1    1    0    0    0  0.25593180773E+02  0.33719311412E+01 -0.27604894201E+01  0.25961531610E+02  0.00000000000E+00 0. -1.
</event>
<event>
 5    1  0.6622940E-004  0.9118800E+02  0.7818608E-02  0.1130116E+00
         25   -1    0    0    0    0  0.00000000000E+00  0.00000000000E+00  0.99999998245E-14  0.12500000000E+03  0.12500000000E+03 0.  0.
        -11    1    3    3    0    0  0.21665735682E+02  0.96196386305E+01  0.23332106253E+02  0.33261520297E+02  0.51100000000E-03 0.  1.
         23    2    1    0    0    0  0.13631627104E+02  0.13507533611E+02 -0.31119141940E+02  0.88439424008E+02  0.80528603627E+02 0.  0.
         11    1    3    3    0    0 -0.80341085774E+01  0.38878949801E+01 -0.54451248193E+02  0.55177903712E+02  0.51100000000E-03 0. -1.
         22    1    1    0    0    0 -0.13631627104E+02 -0.13507533611E+02  0.31119141940E+02  0.36560575992E+02  0.00000000000E+00 0. -1.
</event>
<event>
 5    1  0.6622940E-004  0.9118800E+02  0.7818608E-02  0.1130116E+00
         25   -1    0    0    0    0  0.00000000000E+00  0.00000000000E+00  0.99999998245E-14  0.12500000000E+03  0.12500000000E+03 0.  0.
        -11    1    3    3    0    0 -0.30511116986E+02  0.86257393118E+00  0.19941057951E+02  0.36459814673E+02  0.51100000000E-03 0.  1.
         23    2    1    0    0    0 -0.88144030154E+01  0.43842766941E+01 -0.31285018202E+02  0.92202622871E+02  0.86172244474E+02 0.  0.
         11    1    3    3    0    0  0.21696713971E+02  0.35217027629E+01 -0.51226076153E+02  0.55742808198E+02  0.51100000000E-03 0. -1.
         22    1    1    0    0    0  0.88144030154E+01 -0.43842766941E+01  0.31285018202E+02  0.32797377129E+02  0.00000000000E+00 0. -1.
</event>
<event>
 5    1  0.6622940E-004  0.9118800E+02  0.7818608E-02  0.1130116E+00
         25   -1    0    0    0    0  0.00000000000E+00  0.00000000000E+00  0.99999998245E-14  0.12500000000E+03  0.12500000000E+03 0.  0.
        -11    1    3    3    0    0 -0.41225531331E+02  0.68449611871E+00  0.15050313392E+02  0.43892196367E+02  0.51100000000E-03 0. -1.
         23    2    1    0    0    0 -0.68527394732E+01  0.22144452306E+02 -0.17570638940E+02  0.95912817961E+02  0.91395866921E+02 0.  0.
         11    1    3    3    0    0  0.34372791858E+02  0.21459956187E+02 -0.32620952332E+02  0.52020621594E+02  0.51100000000E-03 0.  1.
         22    1    1    0    0    0  0.68527394732E+01 -0.22144452306E+02  0.17570638940E+02  0.29087182039E+02  0.00000000000E+00 0. -1.
</event>
<event>
 5    1  0.6622940E-004  0.9118800E+02  0.7818608E-02  0.1130116E+00
         25   -1    0    0    0    0  0.00000000000E+00  0.00000000000E+00  0.99999998245E-14  0.12500000000E+03  0.12500000000E+03 0.  0.
        -11    1    3    3    0    0  0.99804389564E+01  0.47427141488E+01  0.33718383859E+02  0.35482839650E+02  0.51100000000E-03 0. -1.
         23    2    1    0    0    0  0.16072796436E+02  0.83020167509E+01 -0.24732262622E+02  0.94357821850E+02  0.89243797893E+02 0.  0.
         11    1    3    3    0    0  0.60923574798E+01  0.35593026021E+01 -0.58450646481E+02  0.58874982200E+02  0.51100000000E-03 0.  1.
         22    1    1    0    0    0 -0.16072796436E+02 -0.83020167509E+01  0.24732262622E+02  0.30642178150E+02  0.00000000000E+00 0.  1.
</event>
<event>
 5    1  0.6622940E-004  0.9118800E+02  0.7818608E-02  0.1130116E+00
         25   -1    0    0    0    0  0.00000000000E+00  0.00000000000E+00  0.99999998245E-14  0.12500000000E+03  0.12500000000E+03 0.  0.
        -11    1    3    3    0    0  0.17490197218E+02 -0.18806806235E+02 -0.20471899598E+02  0.32843593483E+02  0.51100000000E-03 0. -1.
         23    2    1    0    0    0 -0.70397177825E+01  0.10873903953E+02  0.27644943455E+02  0.94470631971E+02  0.89401666610E+02 0.  0.
         11    1    3    3    0    0 -0.24529915000E+02  0.29680710188E+02  0.48116843053E+02  0.61627038488E+02  0.51100000000E-03 0.  1.
         22    1    1    0    0    0  0.70397177825E+01 -0.10873903953E+02 -0.27644943455E+02  0.30529368029E+02  0.00000000000E+00 0.  1.
</event>
<event>
 5    1  0.6622940E-004  0.9118800E+02  0.7818608E-02  0.1130116E+00
         25   -1    0    0    0    0  0.00000000000E+00  0.00000000000E+00  0.99999998245E-14  0.12500000000E+03  0.12500000000E+03 0.  0.
        -11    1    3    3    0    0  0.25428931571E+02 -0.28098490524E+02 -0.48572200651E+02  0.61606934730E+02  0.51100000000E-03 0.  1.
         23    2    1    0    0    0  0.68474184386E+01 -0.94863621391E+01 -0.26829113680E+02  0.95730911412E+02  0.91146738028E+02 0.  0.
         11    1    3    3    0    0 -0.18581513133E+02  0.18612128385E+02  0.21743086971E+02  0.34123976682E+02  0.51100000000E-03 0. -1.
         22    1    1    0    0    0 -0.68474184386E+01  0.94863621391E+01  0.26829113680E+02  0.29269088588E+02  0.00000000000E+00 0.  1.
</event>
<event>
 5    1  0.6622940E-004  0.9118800E+02  0.7818608E-02  0.1130116E+00
         25   -1    0    0    0    0  0.00000000000E+00  0.00000000000E+00  0.99999998245E-14  0.12500000000E+03  0.12500000000E+03 0.  0.
        -11    1    3    3    0    0  0.39297432503E+01  0.13609451694E+02 -0.52448057178E+02  0.54327329765E+02  0.51100000000E-03 0.  1.
         23    2    1    0    0    0 -0.15110249840E+02  0.19244339640E+02 -0.16206842385E+02  0.95651644024E+02  0.91037964641E+02 0.  0.
         11    1    3    3    0    0 -0.19039993090E+02  0.56348879464E+01  0.36241214793E+02  0.41324314259E+02  0.51100000000E-03 0. -1.
         22    1    1    0    0    0  0.15110249840E+02 -0.19244339640E+02  0.16206842385E+02  0.29348355976E+02  0.00000000000E+00 0.  1.
</event>
<event>
 5    1  0.6622940E-004  0.9118800E+02  0.7818608E-02  0.1130116E+00
         25   -1    0    0    0    0  0.00000000000E+00  0.00000000000E+00  0.99999998245E-14  0.12500000000E+03  0.12500000000E+03 0.  0.
        -11    1    3    3    0    0  0.37504926468E+02  0.22603117859E+02  0.21777923926E+02  0.48906016165E+02  0.51100000000E-03 0.  1.
         23    2    1    0    0    0  0.25062398835E+02 -0.16816904681E+02  0.19421040214E+01  0.94755928078E+02  0.89799677167E+02 0.  0.
         11    1    3    3    0    0 -0.12442527632E+02 -0.39420022539E+02 -0.19835819905E+02  0.45849911913E+02  0.51100000000E-03 0. -1.
         22    1    1    0    0    0 -0.25062398835E+02  0.16816904681E+02 -0.19421040214E+01  0.30244071922E+02  0.00000000000E+00 0.  1.
</event>
<event>
 5    1  0.6622940E-004  0.9118800E+02  0.7818608E-02  0.1130116E+00
         25   -1    0    0    0    0  0.00000000000E+00  0.00000000000E+00  0.99999998245E-14  0.12500000000E+03  0.12500000000E+03 0.  0.
        -11    1    3    3    0    0 -0.44172647958E+02  0.17635308798E+02 -0.60619124309E+01  0.47947614399E+02  0.51100000000E-03 0.  1.
         23    2    1    0    0    0 -0.99931328497E+01  0.78413559143E+00 -0.30282835617E+02  0.93101289904E+02  0.87466121877E+02 0.  0.
         11    1    3    3    0    0  0.34179515108E+02 -0.16851173206E+02 -0.24220923186E+02  0.45153675506E+02  0.51100000000E-03 0. -1.
         22    1    1    0    0    0  0.99931328497E+01 -0.78413559143E+00  0.30282835617E+02  0.31898710096E+02  0.00000000000E+00 0.  1.
</event>
<event>
 5    1  0.6622940E-004  0.9118800E+02  0.7818608E-02  0.1130116E+00
         25   -1    0    0    0    0  0.00000000000E+00  0.00000000000E+00  0.99999998245E-14  0.12500000000E+03  0.12500000000E+03 0.  0.
        -11    1    3    3    0    0 -0.62816956645E+01 -0.46940319083E+02  0.19689535972E+02  0.51288703270E+02  0.51100000000E-03 0.  1.
         23    2    1    0    0    0 -0.23125368983E+02 -0.71730478642E+01  0.18562883866E+02  0.94490723318E+02  0.89429753603E+02 0.  0.
         11    1    3    3    0    0 -0.16843673318E+02  0.39767271219E+02 -0.11266521062E+01  0.43202020048E+02  0.51100000000E-03 0. -1.
         22    1    1    0    0    0  0.23125368983E+02  0.71730478642E+01 -0.18562883866E+02  0.30509276682E+02  0.00000000000E+00 0. -1.
</event>
<event>
 5    1  0.6622940E-004  0.9118800E+02  0.7818608E-02  0.1130116E+00
         25   -1    0    0    0    0  0.00000000000E+00  0.00000000000E+00  0.99999998245E-14  0.12500000000E+03  0.12500000000E+03 0.  0.
        -11    1    3    3    0    0 -0.11537670136E+02 -0.43548603467E+02 -0.29026075445E+02  0.53592086656E+02  0.51100000000E-03 0.  1.
         23    2    1    0    0    0 -0.36599557563E+01 -0.11148625498E+01 -0.27975945007E+02  0.96763645886E+02  0.92552209435E+02 0.  0.
         11    1    3    3    0    0  0.78777143792E+01  0.42433740918E+02  0.10501304383E+01  0.43171559230E+02  0.51100000000E-03 0. -1.
         22    1    1    0    0    0  0.36599557563E+01  0.11148625498E+01  0.27975945007E+02  0.28236354114E+02  0.00000000000E+00 0. -1.
</event>
<event>
 5    1  0.6622940E-004  0.9118800E+02  0.7818608E-02  0.1130116E+00
         25   -1    0    0    0    0  0.00000000000E+00  0.00000000000E+00  0.99999998245E-14  0.12500000000E+03  0.12500000000E+03 0.  0.
        -11    1    3    3    0    0 -0.28933574095E+02 -0.43418818074E+02 -0.33388723247E+02  0.61944752104E+02  0.51100000000E-03 0.  1.
         23    2    1    0    0    0 -0.74554837724E+01 -0.21637921885E+02 -0.15004333325E+02  0.97633708320E+02  0.93719939607E+02 0.  0.
         11    1    3    3    0    0  0.21478090323E+02  0.21780896190E+02  0.18384389922E+02  0.35688956216E+02  0.51100000000E-03 0. -1.
         22    1    1    0    0    0  0.74554837724E+01  0.21637921885E+02  0.15004333325E+02  0.27366291680E+02  0.00000000000E+00 0.  1.
</event>
<event>
 5    1  0.6622940E-004  0.9118800E+02  0.7818608E-02  0.1130116E+00
         25   -1    0    0    0    0  0.00000000000E+00  0.00000000000E+00  0.99999998245E-14  0.12500000000E+03  0.12500000000E+03 0.  0.
        -11    1    3    3    0    0  0.35115000031E+02  0.10198812851E+02 -0.37602385313E+02  0.52450151499E+02  0.51100000000E-03 0.  1.
         23    2    1    0    0    0  0.11185599880E+02 -0.20074830658E+02 -0.18443225235E+02  0.95533594932E+02  0.90875732365E+02 0.  0.
         11    1    3    3    0    0 -0.23929400152E+02 -0.30273643508E+02  0.19159160078E+02  0.43083443433E+02  0.51100000000E-03 0. -1.
         22    1    1    0    0    0 -0.11185599880E+02  0.20074830658E+02  0.18443225235E+02  0.29466405068E+02  0.00000000000E+00 0.  1.
</event>
<event>
 5    1  0.6622940E-004  0.9118800E+02  0.7818608E-02  0.1130116E+00
         25   -1    0    0    0    0  0.00000000000E+00  0.00000000000E+00  0.99999998245E-14  0.12500000000E+03  0.12500000000E+03 0.  0.
        -11    1    3    3    0    0 -0.29376555742E+02  0.36675753485E+02  0.23316792146E+02  0.52457275160E+02  0.51100000000E-03 0.  1.
         23    2    1    0    0    0  0.69699769124E+01  0.27077252557E+02 -0.63684209411E+00  0.97032809364E+02  0.92915027531E+02 0.  0.
         11    1    3    3    0    0  0.36346532654E+02 -0.95985009278E+01 -0.23953634240E+02  0.44575534204E+02  0.51100000000E-03 0. -1.
         22    1    1    0    0    0 -0.69699769124E+01 -0.27077252557E+02  0.63684209411E+00  0.27967190636E+02  0.00000000000E+00 0.  1.
</event>
<event>
 5    1  0.6622940E-004  0.9118800E+02  0.7818608E-02  0.1130116E+00
         25   -1    0    0    0    0  0.00000000000E+00  0.00000000000E+00  0.99999998245E-14  0.12500000000E+03  0.12500000000E+03 0.  0.
        -11    1    3    3    0    0 -0.39397801885E+02  0.28821086240E+02 -0.38114329225E+01  0.48962933190E+02  0.51100000000E-03 0.  1.
         23    2    1    0    0    0 -0.21633724028E+02 -0.11897065070E+02  0.13758888369E+02  0.96735796813E+02  0.92514589138E+02 0.  0.
         11    1    3    3    0    0  0.17764077857E+02 -0.40718151310E+02  0.17570321292E+02  0.47772863623E+02  0.51100000000E-03 0. -1.
         22    1    1    0    0    0  0.21633724028E+02  0.11897065070E+02 -0.13758888369E+02  0.28264203187E+02  0.00000000000E+00 0. -1.
</event>
<event>
 5    1  0.6622940E-004  0.9118800E+02  0.7818608E-02  0.1130116E+00
         25   -1    0    0    0    0  0.00000000000E+00  0.00000000000E+00  0.99999998245E-14  0.12500000000E+03  0.12500000000E+03 0.  0.
        -11    1    3    3    0    0 -0.20837638838E+02 -0.33893703149E+02 -0.86234344437E+01  0.40710611975E+02  0.51100000000E-03 0.  1.
         23    2    1    0    0    0  0.97570158540E+01 -0.42698807966E+01  0.26836534325E+02  0.96127334467E+02  0.91688786756E+02 0.  0.
         11    1    3    3    0    0  0.30594654692E+02  0.29623822352E+02  0.35459968769E+02  0.55416722493E+02  0.51100000000E-03 0. -1.
         22    1    1    0    0    0 -0.97570158540E+01  0.42698807966E+01 -0.26836534325E+02  0.28872665533E+02  0.00000000000E+00 0. -1.
</event>
<event>
 5    1  0.6622940E-004  0.9118800E+02  0.7818608E-02  0.1130116E+00
         25   -1    0    0    0    0  0.00000000000E+00  0.00000000000E+00  0.99999998245E-14  0.12500000000E+03  0.12500000000E+03 0.  0.
        -11    1    3    3    0    0  0.20073702614E+02 -0.29930968842E+02 -0.50468666224E+02  0.62015342482E+02  0.51100000000E-03 0.  1.
         23    2    1    0    0    0  0.55953758192E+01 -0.11619893769E+02 -0.26797568600E+02  0.95260466637E+02  0.90499263308E+02 0.  0.
         11    1    3    3    0    0 -0.14478326795E+02  0.18311075073E+02  0.23671097624E+02  0.33245124155E+02  0.51100000000E-03 0. -1.
         22    1    1    0    0    0 -0.55953758192E+01  0.11619893769E+02  0.26797568600E+02  0.29739533363E+02  0.00000000000E+00 0.  1.
</event>
<event>
 5    1  0.6622940E-004  0.9118800E+02  0.7818608E-02  0.1130116E+00
         25   -1    0    0    0    0  0.00000000000E+00  0.00000000000E+00  0.99999998245E-14  0.12500000000E+03  0.12500000000E+03 0.  0.
        -11    1    3    3    0    0  0.24764345289E+02  0.37645108227E+01 -0.23532994660E+02  0.34369262100E+02  0.51100000000E-03 0. -1.
         23    2    1    0    0    0 -0.27321055123E+02 -0.13614832614E+02 -0.18017069027E+02  0.89554005918E+02  0.82240509965E+02 0.  0.
         11    1    3    3    0    0 -0.52085400412E+02 -0.17379343437E+02  0.55159256331E+01  0.55184743818E+02  0.51100000000E-03 0.  1.
         22    1    1    0    0    0  0.27321055123E+02  0.13614832614E+02  0.18017069027E+02  0.35445994082E+02  0.00000000000E+00 0.  1.
</event>
<event>
 5    1  0.6622940E-004  0.9118800E+02  0.7818608E-02  0.1130116E+00
         25   -1    0    0    0    0  0.00000000000E+00  0.00000000000E+00  0.99999998245E-14  0.12500000000E+03  0.12500000000E+03 0.  0.
        -11    1    3    3    0    0  0.33153556082E+02  0.16273178622E+01  0.12147110180E+00  0.33193692169E+02  0.51100000000E-03 0.  1.
         23    2    1    0    0    0 -0.26782147025E+02  0.14552386696E+02 -0.66776784607E+00  0.94512276705E+02  0.89459874672E+02 0.  0.
         11    1    3    3    0    0 -0.59935703106E+02  0.12925068834E+02 -0.78923894786E+00  0.61318584537E+02  0.51100000000E-03 0. -1.
         22    1    1    0    0    0  0.26782147025E+02 -0.14552386696E+02  0.66776784607E+00  0.30487723295E+02  0.00000000000E+00 0. -1.
</event>
<event>
 5    1  0.6622940E-004  0.9118800E+02  0.7818608E-02  0.1130116E+00
         25   -1    0    0    0    0  0.00000000000E+00  0.00000000000E+00  0.99999998245E-14  0.12500000000E+03  0.12500000000E+03 0.  0.
        -11    1    3    3    0    0 -0.38943773726E+02  0.24691029116E+02  0.41757219210E+02  0.62208759731E+02  0.51100000000E-03 0. -1.
         23    2    1    0    0    0 -0.15057609567E+02  0.90429488740E+01  0.21590172671E+02  0.97167607251E+02  0.93096196553E+02 0.  0.
         11    1    3    3    0    0  0.23886164160E+02 -0.15648080242E+02 -0.20167046539E+02  0.34958847520E+02  0.51100000000E-03 0.  1.
         22    1    1    0    0    0  0.15057609567E+02 -0.90429488740E+01 -0.21590172671E+02  0.27832392749E+02  0.00000000000E+00 0. -1.
</event>
<event>
 5    1  0.6622940E-004  0.9118800E+02  0.7818608E-02  0.1130116E+00
         25   -1    0    0    0    0  0.00000000000E+00  0.00000000000E+00  0.99999998245E-14  0.12500000000E+03  0.12500000000E+03 0.  0.
        -11    1    3    3    0    0 -0.23850819034E+01 -0.38807145358E+02  0.36861776015E-01  0.38880387158E+02  0.51100000000E-03 0. -1.
         23    2    1    0    0    0  0.28767981853E+02  0.78003319317E+01 -0.31249340358E+01  0.95029895382E+02  0.90180229792E+02 0.  0.
         11    1    3    3    0    0  0.31153063756E+02  0.46607477290E+02 -0.31617958118E+01  0.56149508223E+02  0.51100000000E-03 0.  1.
         22    1    1    0    0    0 -0.28767981853E+02 -0.78003319317E+01  0.31249340358E+01  0.29970104618E+02  0.00000000000E+00 0.  1.
</event>
<event>
 5    1  0.6622940E-004  0.9118800E+02  0.7818608E-02  0.1130116E+00
         25   -1    0    0    0    0  0.00000000000E+00  0.00000000000E+00  0.99999998245E-14  0.12500000000E+03  0.12500000000E+03 0.  0.
        -11    1    3    3    0    0  0.19973457805E+02  0.49991524604E+02 -0.12560350577E+02  0.55279778905E+02  0.51100000000E-03 0. -1.
         23    2    1    0    0    0  0.22054472213E+02  0.82925184177E+01 -0.14943865734E+02  0.97098660796E+02  0.93003576270E+02 0.  0.
         11    1    3    3    0    0  0.20810144084E+01 -0.41699006186E+02 -0.23835151568E+01  0.41818881891E+02  0.51100000000E-03 0.  1.
         22    1    1    0    0    0 -0.22054472213E+02 -0.82925184177E+01  0.14943865734E+02  0.27901339204E+02  0.00000000000E+00 0. -1.
</event>
<event>
 5    1  0.6622940E-004  0.9118800E+02  0.7818608E-02  0.1130116E+00
         25   -1    0    0    0    0  0.00000000000E+00  0.00000000000E+00  0.99999998245E-14  0.12500000000E+03  0.12500000000E+03 0.  0.
        -11    1    3    3    0    0 -0.89683336645E+01 -0.19023444179E+00  0.51325593588E+02  0.52103586779E+02  0.51100000000E-03 0.  1.
         23    2    1    0    0    0  0.16959942838E+02  0.13945919931E+02  0.18211564874E+02  0.96473005084E+02  0.92158837184E+02 0.  0.
         11    1    3    3    0    0  0.25928276502E+02  0.14136154373E+02 -0.33114028714E+02  0.44369418305E+02  0.51100000000E-03 0. -1.
         22    1    1    0    0    0 -0.16959942838E+02 -0.13945919931E+02 -0.18211564874E+02  0.28526994916E+02  0.00000000000E+00 0.  1.
</event>
<event>
 5    1  0.6622940E-004  0.9118800E+02  0.7818608E-02  0.1130116E+00
         25   -1    0    0    0    0  0.00000000000E+00  0.00000000000E+00  0.99999998245E-14  0.12500000000E+03  0.12500000000E+03 0.  0.
        -11    1    3    3    0    0  0.39955651759E+02 -0.10941682395E+02  0.38458595323E+01  0.41604869390E+02  0.51100000000E-03 0.  1.
         23    2    1    0    0    0  0.15716296679E+01  0.27841972648E+02 -0.43268308806E+01  0.96780026112E+02  0.92574329747E+02 0.  0.
         11    1    3    3    0    0 -0.38384022091E+02  0.38783655044E+02 -0.81726904129E+01  0.55175156722E+02  0.51100000000E-03 0. -1.
         22    1    1    0    0    0 -0.15716296679E+01 -0.27841972648E+02  0.43268308806E+01  0.28219973888E+02  0.00000000000E+00 0. -1.
</event>
<event>
 5    1  0.6622940E-004  0.9118800E+02  0.7818608E-02  0.1130116E+00
         25   -1    0    0    0    0  0.00000000000E+00  0.00000000000E+00  0.99999998245E-14  0.12500000000E+03  0.12500000000E+03 0.  0.
        -11    1    3    3    0    0  0.28873591116E+02  0.43936770211E+01  0.29325166708E+02  0.41387849236E+02  0.51100000000E-03 0.  1.
         23    2    1    0    0    0  0.11599459000E+02  0.14962487779E+02 -0.21650972286E+02  0.96239122222E+02  0.91841061381E+02 0.  0.
         11    1    3    3    0    0 -0.17274132116E+02  0.10568810758E+02 -0.50976138994E+02  0.54851272986E+02  0.51100000000E-03 0. -1.
         22    1    1    0    0    0 -0.11599459000E+02 -0.14962487779E+02  0.21650972286E+02  0.28760877778E+02  0.00000000000E+00 0.  1.
</event>
<event>
 5    1  0.6622940E-004  0.9118800E+02  0.7818608E-02  0.1130116E+00
         25   -1    0    0    0    0  0.00000000000E+00  0.00000000000E+00  0.99999998245E-14  0.12500000000E+03  0.12500000000E+03 0.  0.
        -11    1    3    3    0    0  0.48139789960E+02 -0.32525668380E+01 -0.24590706297E+02  0.54154606497E+02  0.51100000000E-03 0.  1.
         23    2    1    0    0    0  0.25389761211E+02  0.68191276326E+01  0.10093448543E+02  0.96839421535E+02  0.92654494676E+02 0.  0.
         11    1    3    3    0    0 -0.22750028749E+02  0.10071694471E+02  0.34684154840E+02  0.42684815037E+02  0.51100000000E-03 0. -1.
         22    1    1    0    0    0 -0.25389761211E+02 -0.68191276326E+01 -0.10093448543E+02  0.28160578465E+02  0.00000000000E+00 0.  1.
</event>
<event>
 5    1  0.6622940E-004  0.9118800E+02  0.7818608E-02  0.1130116E+00
         25   -1    0    0    0    0  0.00000000000E+00  0.00000000000E+00  0.99999998245E-14  0.12500000000E+03  0.12500000000E+03 0.  0.
        -11    1    3    3    0    0 -0.23567703685E+02 -0.10012182261E+02 -0.21806291592E+02  0.33633239569E+02  0.51100000000E-03 0.  1.
         23    2    1    0    0    0  0.23370606057E+02 -0.86749708242E+01  0.17229147316E+02  0.94696801101E+02  0.89717335422E+02 0.  0.
         11    1    3    3    0    0  0.46938309743E+02  0.13372114370E+01  0.39035438908E+02  0.61063561532E+02  0.51100000000E-03 0. -1.
         22    1    1    0    0    0 -0.23370606057E+02  0.86749708242E+01 -0.17229147316E+02  0.30303198899E+02  0.00000000000E+00 0. -1.
</event>
<event>
 5    1  0.6622940E-004  0.9118800E+02  0.7818608E-02  0.1130116E+00
         25   -1    0    0    0    0  0.00000000000E+00  0.00000000000E+00  0.99999998245E-14  0.12500000000E+03  0.12500000000E+03 0.  0.
        -11    1    3    3    0    0  0.22824813848E+02 -0.19720346315E+02  0.20430595242E+02  0.36431763725E+02  0.51100000000E-03 0.  1.
         23    2    1    0    0    0 -0.13959288753E+02 -0.69459849600E+01 -0.24544774811E+02  0.95921581541E+02  0.91407851880E+02 0.  0.
         11    1    3    3    0    0 -0.36784102601E+02  0.12774361355E+02 -0.44975370052E+02  0.59489817816E+02  0.51100000000E-03 0. -1.
         22    1    1    0    0    0  0.13959288753E+02  0.69459849600E+01  0.24544774811E+02  0.29078418459E+02  0.00000000000E+00 0. -1.
</event>
<event>
 5    1  0.6622940E-004  0.9118800E+02  0.7818608E-02  0.1130116E+00
         25   -1    0    0    0    0  0.00000000000E+00  0.00000000000E+00  0.99999998245E-14  0.12500000000E+03  0.12500000000E+03 0.  0.
        -11    1    3    3    0    0 -0.66882177244E+01 -0.46185048758E+01 -0.39001340520E+02  0.39839269650E+02  0.51100000000E-03 0. -1.
         23    2    1    0    0    0 -0.24217245130E+02  0.16471170666E+02  0.83383245188E+01  0.94548364895E+02  0.89510285575E+02 0.  0.
         11    1    3    3    0    0 -0.17529027406E+02  0.21089675541E+02  0.47339665039E+02  0.54709095245E+02  0.51100000000E-03 0.  1.
         22    1    1    0    0    0  0.24217245130E+02 -0.16471170666E+02 -0.83383245188E+01  0.30451635105E+02  0.00000000000E+00 0.  1.
</event>
<event>
 5    1  0.6622940E-004  0.9118800E+02  0.7818608E-02  0.1130116E+00
         25   -1    0    0    0    0  0.00000000000E+00  0.00000000000E+00  0.99999998245E-14  0.12500000000E+03  0.12500000000E+03 0.  0.
        -11    1    3    3    0    0 -0.20830655295E+02 -0.57010308477E+02 -0.91594292891E+00  0.60703627770E+02  0.51100000000E-03 0.  1.
         23    2    1    0    0    0 -0.13497605059E+01 -0.28329901912E+02  0.58814255748E+01  0.96034566073E+02  0.91562227574E+02 0.  0.
         11    1    3    3    0    0  0.19480894790E+02  0.28680406565E+02  0.67973685037E+01  0.35330938303E+02  0.51100000000E-03 0. -1.
         22    1    1    0    0    0  0.13497605059E+01  0.28329901912E+02 -0.58814255748E+01  0.28965433927E+02  0.00000000000E+00 0.  1.
</event>
<event>
 5    1  0.6622940E-004  0.9118800E+02  0.7818608E-02  0.1130116E+00
         25   -1    0    0    0    0  0.00000000000E+00  0.00000000000E+00  0.99999998245E-14  0.12500000000E+03  0.12500000000E+03 0.  0.
        -11    1    3    3    0    0 -0.24123788191E+02 -0.75825934388E+01  0.12979978161E+02  0.28424157213E+02  0.51100000000E-03 0.  1.
         23    2    1    0    0    0 -0.73181818480E+01  0.16079558343E+02 -0.35739095734E+02  0.85132833736E+02  0.75221063765E+02 0.  0.
         11    1    3    3    0    0  0.16805606343E+02  0.23662151782E+02 -0.48719073895E+02  0.56708676523E+02  0.51100000000E-03 0. -1.
         22    1    1    0    0    0  0.73181818480E+01 -0.16079558343E+02  0.35739095734E+02  0.39867166264E+02  0.00000000000E+00 0. -1.
</event>
<event>
 5    1  0.6622940E-004  0.9118800E+02  0.7818608E-02  0.1130116E+00
         25   -1    0    0    0    0  0.00000000000E+00  0.00000000000E+00  0.99999998245E-14  0.12500000000E+03  0.12500000000E+03 0.  0.
        -11    1    3    3    0    0  0.17367075174E+02 -0.33384919109E+02 -0.21877798931E+02  0.43529371812E+02  0.51100000000E-03 0. -1.
         23    2    1    0    0    0 -0.26413129126E+02 -0.80521277433E+01 -0.11058484340E+02  0.95254744457E+02  0.90491359335E+02 0.  0.
         11    1    3    3    0    0 -0.43780204299E+02  0.25332791366E+02  0.10819314591E+02  0.51725372646E+02  0.51100000000E-03 0.  1.
         22    1    1    0    0    0  0.26413129126E+02  0.80521277433E+01  0.11058484340E+02  0.29745255543E+02  0.00000000000E+00 0.  1.
</event>
<event>
 5    1  0.6622940E-004  0.9118800E+02  0.7818608E-02  0.1130116E+00
         25   -1    0    0    0    0  0.00000000000E+00  0.00000000000E+00  0.99999998245E-14  0.12500000000E+03  0.12500000000E+03 0.  0.
        -11    1    3    3    0    0 -0.45712949850E+02  0.31555577391E+02  0.25844270421E+02  0.61264627333E+02  0.51100000000E-03 0.  1.
         23    2    1    0    0    0 -0.22503320291E+02  0.81260061637E+01  0.17712107004E+02  0.95231726036E+02  0.90459557311E+02 0.  0.
         11    1    3    3    0    0  0.23209629559E+02 -0.23429571228E+02 -0.81321634170E+01  0.33967098703E+02  0.51100000000E-03 0. -1.
         22    1    1    0    0    0  0.22503320291E+02 -0.81260061637E+01 -0.17712107004E+02  0.29768273964E+02  0.00000000000E+00 0.  1.
</event>
<event>
 5    1  0.6622940E-004  0.9118800E+02  0.7818608E-02  0.1130116E+00
         25   -1    0    0    0    0  0.00000000000E+00  0.00000000000E+00  0.99999998245E-14  0.12500000000E+03  0.12500000000E+03 0.  0.
        -11    1    3    3    0    0 -0.26679955379E+02  0.78564243003E+01  0.38571593762E+02  0.47553246654E+02  0.51100000000E-03 0.  1.
         23    2    1    0    0    0  0.24917408460E+01  0.28444580697E+02  0.61291953755E+01  0.95796062262E+02  0.91236043127E+02 0.  0.
         11    1    3    3    0    0  0.29171696225E+02  0.20588156396E+02 -0.32442398386E+02  0.48242815607E+02  0.51100000000E-03 0. -1.
         22    1    1    0    0    0 -0.24917408460E+01 -0.28444580697E+02 -0.61291953755E+01  0.29203937738E+02  0.00000000000E+00 0. -1.
</event>
<event>
 5    1  0.6622940E-004  0.9118800E+02  0.7818608E-02  0.1130116E+00
         25   -1    0    0    0    0  0.00000000000E+00  0.00000000000E+00  0.99999998245E-14  0.12500000000E+03  0.12500000000E+03 0.  0.
        -11    1    3    3    0    0 -0.11686837718E+02  0.15268732252E+02 -0.30474171479E+02  0.36033199803E+02  0.51100000000E-03 0. -1.
         23    2    1    0    0    0  0.18674188215E+02 -0.68799768725E+01  0.18542758407E+02  0.97799020669E+02  0.93940168017E+02 0.  0.
         11    1    3    3    0    0  0.30361025933E+02 -0.22148709125E+02  0.49016929886E+02  0.61765820866E+02  0.51100000000E-03 0.  1.
         22    1    1    0    0    0 -0.18674188215E+02  0.68799768725E+01 -0.18542758407E+02  0.27200979331E+02  0.00000000000E+00 0.  1.
</event>
<event>
 5    1  0.6622940E-004  0.9118800E+02  0.7818608E-02  0.1130116E+00
         25   -1    0    0    0    0  0.00000000000E+00  0.00000000000E+00  0.99999998245E-14  0.12500000000E+03  0.12500000000E+03 0.  0.
        -11    1    3    3    0    0  0.47748905497E+02  0.28846239992E+02 -0.31291658696E+01  0.55873564565E+02  0.51100000000E-03 0. -1.
         23    2    1    0    0    0  0.17428233317E+02  0.12997502979E+02  0.18586981659E+02  0.96396603569E+02  0.92055151362E+02 0.  0.
         11    1    3    3    0    0 -0.30320672180E+02 -0.15848737014E+02  0.21716147528E+02  0.40523039004E+02  0.51100000000E-03 0.  1.
         22    1    1    0    0    0 -0.17428233317E+02 -0.12997502979E+02 -0.18586981659E+02  0.28603396431E+02  0.00000000000E+00 0. -1.
</event>
<event>
 5    1  0.6622940E-004  0.9118800E+02  0.7818608E-02  0.1130116E+00
         25   -1    0    0    0    0  0.00000000000E+00  0.00000000000E+00  0.99999998245E-14  0.12500000000E+03  0.12500000000E+03 0.  0.
        -11    1    3    3    0    0 -0.15918620923E+02  0.30305409629E+01  0.17140854454E+01  0.16294930493E+02  0.51100000000E-03 0.  1.
         23    2    1    0    0    0  0.22008042576E+02  0.32062526148E+01 -0.44002777723E+02  0.75696060591E+02  0.57437053788E+02 0.  0.
         11    1    3    3    0    0  0.37926663498E+02  0.17571165182E+00 -0.45716863169E+02  0.59401130098E+02  0.51100000000E-03 0. -1.
         22    1    1    0    0    0 -0.22008042576E+02 -0.32062526148E+01  0.44002777723E+02  0.49303939409E+02  0.00000000000E+00 0. -1.
</event>
<event>
 5    1  0.6622940E-004  0.9118800E+02  0.7818608E-02  0.1130116E+00
         25   -1    0    0    0    0  0.00000000000E+00  0.00000000000E+00  0.99999998245E-14  0.12500000000E+03  0.12500000000E+03 0.  0.
        -11    1    3    3    0    0  0.57297385423E+01 -0.17770898156E+02 -0.30533496459E+02  0.35790070290E+02  0.51100000000E-03 0. -1.
         23    2    1    0    0    0  0.18900421189E+02  0.17973367210E+02  0.14806282574E+02  0.95008436959E+02  0.90150481084E+02 0.  0.
         11    1    3    3    0    0  0.13170682647E+02  0.35744265365E+02  0.45339779034E+02  0.59218366669E+02  0.51100000000E-03 0.  1.
         22    1    1    0    0    0 -0.18900421189E+02 -0.17973367210E+02 -0.14806282574E+02  0.29991563041E+02  0.00000000000E+00 0.  1.
</event>
<event>
 5    1  0.6622940E-004  0.9118800E+02  0.7818608E-02  0.1130116E+00
         25   -1    0    0    0    0  0.00000000000E+00  0.00000000000E+00  0.99999998245E-14  0.12500000000E+03  0.12500000000E+03 0.  0.
        -11    1    3    3    0    0  0.14457551603E+02 -0.12805525350E+02 -0.31746385430E+02  0.37159591843E+02  0.51100000000E-03 0. -1.
         23    2    1    0    0    0  0.87513606071E+01 -0.88836282926E+01  0.26445440645E+02  0.95761899941E+02  0.91189226257E+02 0.  0.
         11    1    3    3    0    0 -0.57061909958E+01  0.39218970574E+01  0.58191826075E+02  0.58602308098E+02  0.51100000000E-03 0.  1.
         22    1    1    0    0    0 -0.87513606071E+01  0.88836282926E+01 -0.26445440645E+02  0.29238100059E+02  0.00000000000E+00 0.  1.
</event>
<event>
 5    1  0.6622940E-004  0.9118800E+02  0.7818608E-02  0.1130116E+00
         25   -1    0    0    0    0  0.00000000000E+00  0.00000000000E+00  0.99999998245E-14  0.12500000000E+03  0.12500000000E+03 0.  0.
        -11    1    3    3    0    0 -0.50383350353E+02 -0.31124761188E+02  0.15486963966E+02  0.61213387465E+02  0.51100000000E-03 0. -1.
         23    2    1    0    0    0 -0.27915978617E+02 -0.68534533916E+01  0.85936992689E+01  0.94997944193E+02  0.90135930950E+02 0.  0.
         11    1    3    3    0    0  0.22467371736E+02  0.24271307796E+02 -0.68932646969E+01  0.33784556728E+02  0.51100000000E-03 0.  1.
         22    1    1    0    0    0  0.27915978617E+02  0.68534533916E+01 -0.85936992689E+01  0.30002055807E+02  0.00000000000E+00 0. -1.
</event>
<event>
 5    1  0.6622940E-004  0.9118800E+02  0.7818608E-02  0.1130116E+00
         25   -1    0    0    0    0  0.00000000000E+00  0.00000000000E+00  0.99999998245E-14  0.12500000000E+03  0.12500000000E+03 0.  0.
        -11    1    3    3    0    0 -0.20743613622E+02 -0.12479862877E+02  0.29877453242E+02  0.38453955531E+02  0.51100000000E-03 0.  1.
         23    2    1    0    0    0 -0.23582154853E+02 -0.75371019776E+01 -0.22742872763E+02  0.91382085204E+02  0.84973650628E+02 0.  0.
         11    1    3    3    0    0 -0.28385412306E+01  0.49427608992E+01 -0.52620326004E+02  0.52928129673E+02  0.51100000000E-03 0. -1.
         22    1    1    0    0    0  0.23582154853E+02  0.75371019776E+01  0.22742872763E+02  0.33617914796E+02  0.00000000000E+00 0.  1.
</event>
<event>
 5    1  0.6622940E-004  0.9118800E+02  0.7818608E-02  0.1130116E+00
         25   -1    0    0    0    0  0.00000000000E+00  0.00000000000E+00  0.99999998245E-14  0.12500000000E+03  0.12500000000E+03 0.  0.
        -11    1    3    3    0    0 -0.18647039767E+02 -0.32656224655E+02  0.14818248009E+02  0.40419321804E+02  0.51100000000E-03 0. -1.
         23    2    1    0    0    0  0.28438482383E+02 -0.66558808846E+01  0.19286871562E+01  0.95729402726E+02  0.91144668970E+02 0.  0.
         11    1    3    3    0    0  0.47085522150E+02  0.26000343770E+02 -0.12889560853E+02  0.55310080922E+02  0.51100000000E-03 0.  1.
         22    1    1    0    0    0 -0.28438482383E+02  0.66558808846E+01 -0.19286871562E+01  0.29270597274E+02  0.00000000000E+00 0.  1.
</event>
<event>
 5    1  0.6622940E-004  0.9118800E+02  0.7818608E-02  0.1130116E+00
         25   -1    0    0    0    0  0.00000000000E+00  0.00000000000E+00  0.99999998245E-14  0.12500000000E+03  0.12500000000E+03 0.  0.
        -11    1    3    3    0    0 -0.47908657314E+02 -0.32928612016E+02 -0.25374483850E+01  0.58189101896E+02  0.51100000000E-03 0. -1.
         23    2    1    0    0    0 -0.27139137790E+02 -0.37277904129E+01 -0.11756587792E+02  0.95189824256E+02  0.90401637508E+02 0.  0.
         11    1    3    3    0    0  0.20769519523E+02  0.29200821603E+02 -0.92191394068E+01  0.37000722360E+02  0.51100000000E-03 0.  1.
         22    1    1    0    0    0  0.27139137790E+02  0.37277904129E+01  0.11756587792E+02  0.29810175744E+02  0.00000000000E+00 0. -1.
</event>
<event>
 5    1  0.6622940E-004  0.9118800E+02  0.7818608E-02  0.1130116E+00
         25   -1    0    0    0    0  0.00000000000E+00  0.00000000000E+00  0.99999998245E-14  0.12500000000E+03  0.12500000000E+03 0.  0.
        -11    1    3    3    0    0  0.28508031648E+02  0.54414474013E+01  0.41629558036E+01  0.29319744534E+02  0.51100000000E-03 0.  1.
         23    2    1    0    0    0 -0.29679244069E+02 -0.15639659485E+02  0.40530829742E+01  0.91208226461E+02  0.84717510676E+02 0.  0.
         11    1    3    3    0    0 -0.58187275717E+02 -0.21081106886E+02 -0.10987282947E+00  0.61888481927E+02  0.51100000000E-03 0. -1.
         22    1    1    0    0    0  0.29679244069E+02  0.15639659485E+02 -0.40530829742E+01  0.33791773539E+02  0.00000000000E+00 0. -1.
</event>
<event>
 5    1  0.6622940E-004  0.9118800E+02  0.7818608E-02  0.1130116E+00
         25   -1    0    0    0    0  0.00000000000E+00  0.00000000000E+00  0.99999998245E-14  0.12500000000E+03  0.12500000000E+03 0.  0.
        -11    1    3    3    0    0 -0.38395916909E+02  0.41740861523E+00  0.16934500699E+02  0.41966629355E+02  0.51100000000E-03 0. -1.
         23    2    1    0    0    0  0.13318172289E+01 -0.30548627296E+02  0.27351416413E+01  0.94300270903E+02  0.89163152287E+02 0.  0.
         11    1    3    3    0    0  0.39727734138E+02 -0.30966035912E+02 -0.14199359058E+02  0.52333641548E+02  0.51100000000E-03 0.  1.
         22    1    1    0    0    0 -0.13318172289E+01  0.30548627296E+02 -0.27351416413E+01  0.30699729097E+02  0.00000000000E+00 0.  1.
</event>
<event>
 5    1  0.6622940E-004  0.9118800E+02  0.7818608E-02  0.1130116E+00
         25   -1    0    0    0    0  0.00000000000E+00  0.00000000000E+00  0.99999998245E-14  0.12500000000E+03  0.12500000000E+03 0.  0.
        -11    1    3    3    0    0 -0.19896146643E+02  0.15412089472E+02  0.96875414772E+01  0.26967343460E+02  0.51100000000E-03 0.  1.
         23    2    1    0    0    0  0.29614813772E+02 -0.16409535922E+02 -0.11074849256E+02  0.89377502194E+02  0.81971797274E+02 0.  0.
         11    1    3    3    0    0  0.49510960415E+02 -0.31821625394E+02 -0.20762390733E+02  0.62410158734E+02  0.51100000000E-03 0. -1.
         22    1    1    0    0    0 -0.29614813772E+02  0.16409535922E+02  0.11074849256E+02  0.35622497806E+02  0.00000000000E+00 0. -1.
</event>
<event>
 5    1  0.6622940E-004  0.9118800E+02  0.7818608E-02  0.1130116E+00
         25   -1    0    0    0    0  0.00000000000E+00  0.00000000000E+00  0.99999998245E-14  0.12500000000E+03  0.12500000000E+03 0.  0.
        -11    1    3    3    0    0  0.18186973056E+01  0.14237429192E+02  0.30372848810E+02  0.33593481436E+02  0.51100000000E-03 0.  1.
         23    2    1    0    0    0 -0.12482228711E+02 -0.70903099096E+01 -0.25866015794E+02  0.95417415574E+02  0.90715786353E+02 0.  0.
         11    1    3    3    0    0 -0.14300926017E+02 -0.21327739101E+02 -0.56238864604E+02  0.61823934139E+02  0.51100000000E-03 0. -1.
         22    1    1    0    0    0  0.12482228711E+02  0.70903099096E+01  0.25866015794E+02  0.29582584426E+02  0.00000000000E+00 0. -1.
</event>
<event>
 5    1  0.6622940E-004  0.9118800E+02  0.7818608E-02  0.1130116E+00
         25   -1    0    0    0    0  0.00000000000E+00  0.00000000000E+00  0.99999998245E-14  0.12500000000E+03  0.12500000000E+03 0.  0.
        -11    1    3    3    0    0 -0.51423754628E+02  0.50559961705E+01 -0.30232245253E+02  0.59866136426E+02  0.51100000000E-03 0. -1.
         23    2    1    0    0    0 -0.36529265307E+02  0.12674775778E+02 -0.12220211182E+02  0.84449158748E+02  0.74076242393E+02 0.  0.
         11    1    3    3    0    0  0.14894489321E+02  0.76187796077E+01  0.18012034071E+02  0.24583022322E+02  0.51100000000E-03 0.  1.
         22    1    1    0    0    0  0.36529265307E+02 -0.12674775778E+02  0.12220211182E+02  0.40550841252E+02  0.00000000000E+00 0. -1.
</event>
<event>
 5    1  0.6622940E-004  0.9118800E+02  0.7818608E-02  0.1130116E+00
         25   -1    0    0    0    0  0.00000000000E+00  0.00000000000E+00  0.99999998245E-14  0.12500000000E+03  0.12500000000E+03 0.  0.
        -11    1    3    3    0    0  0.13070409356E+02 -0.43142242897E+02 -0.29730530814E+02  0.53999936905E+02  0.51100000000E-03 0.  1.
         23    2    1    0    0    0 -0.15357464322E+02 -0.21674499787E+02 -0.35692004380E+01  0.98197484387E+02  0.94468889570E+02 0.  0.
         11    1    3    3    0    0 -0.28427873679E+02  0.21467743110E+02  0.26161330376E+02  0.44197547482E+02  0.51100000000E-03 0. -1.
         22    1    1    0    0    0  0.15357464322E+02  0.21674499787E+02  0.35692004380E+01  0.26802515613E+02  0.00000000000E+00 0.  1.
</event>
<event>
 5    1  0.6622940E-004  0.9118800E+02  0.7818608E-02  0.1130116E+00
         25   -1    0    0    0    0  0.00000000000E+00  0.00000000000E+00  0.99999998245E-14  0.12500000000E+03  0.12500000000E+03 0.  0.
        -11    1    3    3    0    0 -0.36230040715E+02  0.36827518083E+01  0.23889268349E+01  0.36495006272E+02  0.51100000000E-03 0.  1.
         23    2    1    0    0    0  0.22833876714E+02  0.15621719030E+02 -0.38145572106E+01  0.97071969673E+02  0.92967695562E+02 0.  0.
         11    1    3    3    0    0  0.59063917429E+02  0.11938967222E+02 -0.62034840455E+01  0.60576963401E+02  0.51100000000E-03 0. -1.
         22    1    1    0    0    0 -0.22833876714E+02 -0.15621719030E+02  0.38145572106E+01  0.27928030327E+02  0.00000000000E+00 0. -1.
</event>
<event>
 5    1  0.6622940E-004  0.9118800E+02  0.7818608E-02  0.1130116E+00
         25   -1    0    0    0    0  0.00000000000E+00  0.00000000000E+00  0.99999998245E-14  0.12500000000E+03  0.12500000000E+03 0.  0.
        -11    1    3    3    0    0 -0.35354618712E+02  0.12809429575E+02 -0.17714384425E+02  0.41567174142E+02  0.51100000000E-03 0. -1.
         23    2    1    0    0    0  0.15184439795E+02  0.20674593932E+02  0.70540265172E+01  0.98396140576E+02  0.94731384156E+02 0.  0.
         11    1    3    3    0    0  0.50539058507E+02  0.78651643570E+01  0.24768410942E+02  0.56828966434E+02  0.51100000000E-03 0.  1.
         22    1    1    0    0    0 -0.15184439795E+02 -0.20674593932E+02 -0.70540265172E+01  0.26603859424E+02  0.00000000000E+00 0.  1.
</event>
<event>
 5    1  0.6622940E-004  0.9118800E+02  0.7818608E-02  0.1130116E+00
         25   -1    0    0    0    0  0.00000000000E+00  0.00000000000E+00  0.99999998245E-14  0.12500000000E+03  0.12500000000E+03 0.  0.
        -11    1    3    3    0    0  0.54404766288E+02  0.90888585533E+01 -0.26157175978E+02  0.61046570747E+02  0.51100000000E-03 0.  1.
         23    2    1    0    0    0  0.23896816837E+02  0.12323611150E+02 -0.69970396666E+01  0.97217130983E+02  0.93162668198E+02 0.  0.
         11    1    3    3    0    0 -0.30507949451E+02  0.32347525963E+01  0.19160136311E+02  0.36170560236E+02  0.51100000000E-03 0. -1.
         22    1    1    0    0    0 -0.23896816837E+02 -0.12323611150E+02  0.69970396666E+01  0.27782869017E+02  0.00000000000E+00 0.  1.
</event>
<event>
 5    1  0.6622940E-004  0.9118800E+02  0.7818608E-02  0.1130116E+00
         25   -1    0    0    0    0  0.00000000000E+00  0.00000000000E+00  0.99999998245E-14  0.12500000000E+03  0.12500000000E+03 0.  0.
        -11    1    3    3    0    0 -0.44628474184E+01  0.14903545119E+02  0.44108938870E+02  0.46772119395E+02  0.51100000000E-03 0.  1.
         23    2    1    0    0    0 -0.17396079851E+01 -0.24728238106E+02  0.18992529124E+02  0.93771356765E+02  0.88418545517E+02 0.  0.
         11    1    3    3    0    0  0.27232394334E+01 -0.39631783225E+02 -0.25116409746E+02  0.46999237370E+02  0.51100000000E-03 0. -1.
         22    1    1    0    0    0  0.17396079851E+01  0.24728238106E+02 -0.18992529124E+02  0.31228643235E+02  0.00000000000E+00 0.  1.
</event>
<event>
 5    1  0.6622940E-004  0.9118800E+02  0.7818608E-02  0.1130116E+00
         25   -1    0    0    0    0  0.00000000000E+00  0.00000000000E+00  0.99999998245E-14  0.12500000000E+03  0.12500000000E+03 0.  0.
        -11    1    3    3    0    0 -0.37619011869E+02  0.29683757199E+02 -0.13980814256E+02  0.49917718928E+02  0.51100000000E-03 0.  1.
         23    2    1    0    0    0 -0.28373812338E+02 -0.45187411542E+01  0.12010824675E+02  0.93859156120E+02  0.88542583145E+02 0.  0.
         11    1    3    3    0    0  0.92451995313E+01 -0.34202498353E+02  0.25991638931E+02  0.43941437192E+02  0.51100000000E-03 0. -1.
         22    1    1    0    0    0  0.28373812338E+02  0.45187411542E+01 -0.12010824675E+02  0.31140843880E+02  0.00000000000E+00 0. -1.
</event>
<event>
 5    1  0.6622940E-004  0.9118800E+02  0.7818608E-02  0.1130116E+00
         25   -1    0    0    0    0  0.00000000000E+00  0.00000000000E+00  0.99999998245E-14  0.12500000000E+03  0.12500000000E+03 0.  0.
        -11    1    3    3    0    0  0.37947250745E+02 -0.27787796501E+02 -0.33781285366E+02  0.57907950359E+02  0.51100000000E-03 0.  1.
         23    2    1    0    0    0  0.14261566534E+02  0.41232886792E+01 -0.20253962932E+02  0.99887915180E+02  0.96679774488E+02 0.  0.
         11    1    3    3    0    0 -0.23685684211E+02  0.31911085181E+02  0.13527322434E+02  0.41979964822E+02  0.51100000000E-03 0. -1.
         22    1    1    0    0    0 -0.14261566534E+02 -0.41232886792E+01  0.20253962932E+02  0.25112084820E+02  0.00000000000E+00 0.  1.
</event>
<event>
 5    1  0.6622940E-004  0.9118800E+02  0.7818608E-02  0.1130116E+00
         25   -1    0    0    0    0  0.00000000000E+00  0.00000000000E+00  0.99999998245E-14  0.12500000000E+03  0.12500000000E+03 0.  0.
        -11    1    3    3    0    0  0.47806774301E+01 -0.30587981550E+01 -0.35018268243E+02  0.35475205903E+02  0.51100000000E-03 0. -1.
         23    2    1    0    0    0  0.21021126599E+02 -0.68221518754E+01  0.21358669914E+02  0.94265291603E+02  0.89114100460E+02 0.  0.
         11    1    3    3    0    0  0.16240449169E+02 -0.37633537204E+01  0.56376938157E+02  0.58790085701E+02  0.51100000000E-03 0.  1.
         22    1    1    0    0    0 -0.21021126599E+02  0.68221518754E+01 -0.21358669914E+02  0.30734708397E+02  0.00000000000E+00 0.  1.
</event>
<event>
 5    1  0.6622940E-004  0.9118800E+02  0.7818608E-02  0.1130116E+00
         25   -1    0    0    0    0  0.00000000000E+00  0.00000000000E+00  0.99999998245E-14  0.12500000000E+03  0.12500000000E+03 0.  0.
        -11    1    3    3    0    0  0.29864811195E+02  0.15525153133E+02  0.19830099280E+02  0.39066227937E+02  0.51100000000E-03 0. -1.
         23    2    1    0    0    0 -0.15084939820E+02  0.20136108237E+02 -0.14632851138E+02  0.95894354556E+02  0.91370611463E+02 0.  0.
         11    1    3    3    0    0 -0.44949751015E+02  0.46109551042E+01 -0.34462950418E+02  0.56828126619E+02  0.51100000000E-03 0.  1.
         22    1    1    0    0    0  0.15084939820E+02 -0.20136108237E+02  0.14632851138E+02  0.29105645444E+02  0.00000000000E+00 0.  1.
</event>
<event>
 5    1  0.6622940E-004  0.9118800E+02  0.7818608E-02  0.1130116E+00
         25   -1    0    0    0    0  0.00000000000E+00  0.00000000000E+00  0.99999998245E-14  0.12500000000E+03  0.12500000000E+03 0.  0.
        -11    1    3    3    0    0  0.35789719331E+02 -0.32214256238E+01 -0.40260283166E+02  0.53964543857E+02  0.51100000000E-03 0.  1.
         23    2    1    0    0    0  0.18998131449E+02  0.19751440411E+02 -0.91929745706E+01  0.96093959484E+02  0.91643275099E+02 0.  0.
         11    1    3    3    0    0 -0.16791587882E+02  0.22972866035E+02  0.31067308595E+02  0.42129415627E+02  0.51100000000E-03 0. -1.
         22    1    1    0    0    0 -0.18998131449E+02 -0.19751440411E+02  0.91929745706E+01  0.28906040516E+02  0.00000000000E+00 0.  1.
</event>
<event>
 5    1  0.6622940E-004  0.9118800E+02  0.7818608E-02  0.1130116E+00
         25   -1    0    0    0    0  0.00000000000E+00  0.00000000000E+00  0.99999998245E-14  0.12500000000E+03  0.12500000000E+03 0.  0.
        -11    1    3    3    0    0 -0.31461173662E+02 -0.19703887499E+02 -0.30538276457E+01  0.37247476348E+02  0.51100000000E-03 0. -1.
         23    2    1    0    0    0  0.18260937293E+02  0.43183863213E+01 -0.22417905652E+02  0.95765212758E+02  0.91193767274E+02 0.  0.
         11    1    3    3    0    0  0.49722110955E+02  0.24022273821E+02 -0.19364078006E+02  0.58517736410E+02  0.51100000000E-03 0.  1.
         22    1    1    0    0    0 -0.18260937293E+02 -0.43183863213E+01  0.22417905652E+02  0.29234787242E+02  0.00000000000E+00 0.  1.
</event>
<event>
 5    1  0.6622940E-004  0.9118800E+02  0.7818608E-02  0.1130116E+00
         25   -1    0    0    0    0  0.00000000000E+00  0.00000000000E+00  0.99999998245E-14  0.12500000000E+03  0.12500000000E+03 0.  0.
        -11    1    3    3    0    0  0.40390696701E+02 -0.64295761600E+01 -0.15314958867E+02  0.43672597758E+02  0.51100000000E-03 0.  1.
         23    2    1    0    0    0 -0.94132386456E+01 -0.23966782333E+02 -0.12038938598E+02  0.96575507748E+02  0.92297762362E+02 0.  0.
         11    1    3    3    0    0 -0.49803935347E+02 -0.17537206173E+02  0.32760202693E+01  0.52902909990E+02  0.51100000000E-03 0. -1.
         22    1    1    0    0    0  0.94132386456E+01  0.23966782333E+02  0.12038938598E+02  0.28424492252E+02  0.00000000000E+00 0. -1.
</event>
<event>
 5    1  0.6622940E-004  0.9118800E+02  0.7818608E-02  0.1130116E+00
         25   -1    0    0    0    0  0.00000000000E+00  0.00000000000E+00  0.99999998245E-14  0.12500000000E+03  0.12500000000E+03 0.  0.
        -11    1    3    3    0    0 -0.23419614734E+02 -0.41383639314E+02  0.15210049069E+02  0.49924238103E+02  0.51100000000E-03 0. -1.
         23    2    1    0    0    0  0.17252989805E+02 -0.21181281342E+02  0.44548514422E+00  0.97677650293E+02  0.93778529383E+02 0.  0.
         11    1    3    3    0    0  0.40672604540E+02  0.20202357972E+02 -0.14764563925E+02  0.47753412190E+02  0.51100000000E-03 0.  1.
         22    1    1    0    0    0 -0.17252989805E+02  0.21181281342E+02 -0.44548514422E+00  0.27322349707E+02  0.00000000000E+00 0. -1.
</event>
<event>
 5    1  0.6622940E-004  0.9118800E+02  0.7818608E-02  0.1130116E+00
         25   -1    0    0    0    0  0.00000000000E+00  0.00000000000E+00  0.99999998245E-14  0.12500000000E+03  0.12500000000E+03 0.  0.
        -11    1    3    3    0    0  0.24758379258E+02 -0.10994136314E+02  0.20888523492E+02  0.34207876150E+02  0.51100000000E-03 0. -1.
         23    2    1    0    0    0 -0.26010507043E+02  0.35390405983E+01 -0.11698426751E+02  0.96261098257E+02  0.91870966927E+02 0.  0.
         11    1    3    3    0    0 -0.50768886301E+02  0.14533176912E+02 -0.32586950243E+02  0.62053222106E+02  0.51100000000E-03 0.  1.
         22    1    1    0    0    0  0.26010507043E+02 -0.35390405983E+01  0.11698426751E+02  0.28738901743E+02  0.00000000000E+00 0.  1.
</event>
<event>
 5    1  0.6622940E-004  0.9118800E+02  0.7818608E-02  0.1130116E+00
         25   -1    0    0    0    0  0.00000000000E+00  0.00000000000E+00  0.99999998245E-14  0.12500000000E+03  0.12500000000E+03 0.  0.
        -11    1    3    3    0    0 -0.42636495926E+02  0.22529618150E+02  0.13357266128E+02  0.50038695402E+02  0.51100000000E-03 0.  1.
         23    2    1    0    0    0 -0.92343054062E+01  0.23480713102E+02  0.28680869952E+02  0.86800411189E+02  0.77942945782E+02 0.  0.
         11    1    3    3    0    0  0.33402190520E+02  0.95109495205E+00  0.15323603824E+02  0.36761715786E+02  0.51100000000E-03 0. -1.
         22    1    1    0    0    0  0.92343054062E+01 -0.23480713102E+02 -0.28680869952E+02  0.38199588811E+02  0.00000000000E+00 0.  1.
</event>
<event>
 5    1  0.6622940E-004  0.9118800E+02  0.7818608E-02  0.1130116E+00
         25   -1    0    0    0    0  0.00000000000E+00  0.00000000000E+00  0.99999998245E-14  0.12500000000E+03  0.12500000000E+03 0.  0.
        -11    1    3    3    0    0  0.29449147011E+02 -0.15938123992E+02 -0.23144342382E-01  0.33485468370E+02  0.51100000000E-03 0.  1.
         23    2    1    0    0    0 -0.19569826702E+02  0.21896779340E+02 -0.30046097878E+01  0.95479248950E+02  0.90800948439E+02 0.  0.
         11    1    3    3    0    0 -0.49018973713E+02  0.37834903332E+02 -0.29814654454E+01  0.61993780579E+02  0.51100000000E-03 0. -1.
         22    1    1    0    0    0  0.19569826702E+02 -0.21896779340E+02  0.30046097878E+01  0.29520751050E+02  0.00000000000E+00 0. -1.
</event>
<event>
 5    1  0.6622940E-004  0.9118800E+02  0.7818608E-02  0.1130116E+00
         25   -1    0    0    0    0  0.00000000000E+00  0.00000000000E+00  0.99999998245E-14  0.12500000000E+03  0.12500000000E+03 0.  0.
        -11    1    3    3    0    0 -0.16615010240E+02  0.39786962575E+02 -0.80466948701E+01  0.43861261437E+02  0.51100000000E-03 0.  1.
         23    2    1    0    0    0 -0.13650144735E+02 -0.16792134065E+02  0.65908647277E+01  0.10237829105E+03  0.99847747915E+02 0.  0.
         11    1    3    3    0    0  0.29648655053E+01 -0.56579096640E+02  0.14637559598E+02  0.58517029618E+02  0.51100000000E-03 0. -1.
         22    1    1    0    0    0  0.13650144735E+02  0.16792134065E+02 -0.65908647277E+01  0.22621708945E+02  0.00000000000E+00 0. -1.
</event>
<event>
 5    1  0.6622940E-004  0.9118800E+02  0.7818608E-02  0.1130116E+00
         25   -1    0    0    0    0  0.00000000000E+00  0.00000000000E+00  0.99999998245E-14  0.12500000000E+03  0.12500000000E+03 0.  0.
        -11    1    3    3    0    0  0.16684456539E-02 -0.27527150172E+02 -0.37204292625E+02  0.46280702127E+02  0.51100000000E-03 0.  1.
         23    2    1    0    0    0 -0.27313452125E+02 -0.69852772875E+01  0.95451577019E-02  0.96807468066E+02  0.92611376280E+02 0.  0.
         11    1    3    3    0    0 -0.27315120570E+02  0.20541872885E+02  0.37213837783E+02  0.50526765938E+02  0.51100000000E-03 0. -1.
         22    1    1    0    0    0  0.27313452125E+02  0.69852772875E+01 -0.95451577019E-02  0.28192531934E+02  0.00000000000E+00 0.  1.
</event>
<event>
 5    1  0.6622940E-004  0.9118800E+02  0.7818608E-02  0.1130116E+00
         25   -1    0    0    0    0  0.00000000000E+00  0.00000000000E+00  0.99999998245E-14  0.12500000000E+03  0.12500000000E+03 0.  0.
        -11    1    3    3    0    0  0.17943059877E+02 -0.55928861931E+02 -0.42862422082E+01  0.58892808281E+02  0.51100000000E-03 0. -1.
         23    2    1    0    0    0 -0.43236398737E+01 -0.27419128265E+02  0.62027021302E+01  0.96557497116E+02  0.92273367117E+02 0.  0.
         11    1    3    3    0    0 -0.22266699751E+02  0.28509733666E+02  0.10488944338E+02  0.37664688836E+02  0.51100000000E-03 0.  1.
         22    1    1    0    0    0  0.43236398737E+01  0.27419128265E+02 -0.62027021302E+01  0.28442502884E+02  0.00000000000E+00 0. -1.
</event>
<event>
 5    1  0.6622940E-004  0.9118800E+02  0.7818608E-02  0.1130116E+00
         25   -1    0    0    0    0  0.00000000000E+00  0.00000000000E+00  0.99999998245E-14  0.12500000000E+03  0.12500000000E+03 0.  0.
        -11    1    3    3    0    0 -0.74957198446E+01 -0.20503962652E+02  0.45107909373E+02  0.50113089993E+02  0.51100000000E-03 0.  1.
         23    2    1    0    0    0 -0.26956305488E+02 -0.69157925593E+01  0.49893143284E+01  0.96726976643E+02  0.92502671101E+02 0.  0.
         11    1    3    3    0    0 -0.19460585643E+02  0.13588170092E+02 -0.40118595045E+02  0.46613886650E+02  0.51100000000E-03 0. -1.
         22    1    1    0    0    0  0.26956305488E+02  0.69157925593E+01 -0.49893143284E+01  0.28273023357E+02  0.00000000000E+00 0.  1.
</event>
<event>
 5    1  0.6622940E-004  0.9118800E+02  0.7818608E-02  0.1130116E+00
         25   -1    0    0    0    0  0.00000000000E+00  0.00000000000E+00  0.99999998245E-14  0.12500000000E+03  0.12500000000E+03 0.  0.
        -11    1    3    3    0    0  0.20406904733E+02 -0.25094540578E+02 -0.36902507972E+02  0.49071099667E+02  0.51100000000E-03 0.  1.
         23    2    1    0    0    0 -0.19448414730E+02 -0.12500572211E+02 -0.20920983816E+02  0.93819995110E+02  0.88487280314E+02 0.  0.
         11    1    3    3    0    0 -0.39855319464E+02  0.12593968366E+02  0.15981524156E+02  0.44748895443E+02  0.51100000000E-03 0. -1.
         22    1    1    0    0    0  0.19448414730E+02  0.12500572211E+02  0.20920983816E+02  0.31180004890E+02  0.00000000000E+00 0.  1.
</event>
<event>
 5    1  0.6622940E-004  0.9118800E+02  0.7818608E-02  0.1130116E+00
         25   -1    0    0    0    0  0.00000000000E+00  0.00000000000E+00  0.99999998245E-14  0.12500000000E+03  0.12500000000E+03 0.  0.
        -11    1    3    3    0    0 -0.79160379785E+01  0.42445652519E+01 -0.53917249918E+02  0.54660313121E+02  0.51100000000E-03 0.  1.
         23    2    1    0    0    0  0.80277922221E+01  0.20048006839E+02 -0.18651256401E+02  0.96465154784E+02  0.92148188783E+02 0.  0.
         11    1    3    3    0    0  0.15943830201E+02  0.15803441587E+02  0.35265993518E+02  0.41804841663E+02  0.51100000000E-03 0. -1.
         22    1    1    0    0    0 -0.80277922221E+01 -0.20048006839E+02  0.18651256401E+02  0.28534845216E+02  0.00000000000E+00 0.  1.
</event>
<event>
 5    1  0.6622940E-004  0.9118800E+02  0.7818608E-02  0.1130116E+00
         25   -1    0    0    0    0  0.00000000000E+00  0.00000000000E+00  0.99999998245E-14  0.12500000000E+03  0.12500000000E+03 0.  0.
        -11    1    3    3    0    0  0.10937500455E+02  0.65051453574E+01 -0.43930817046E+02  0.45736883572E+02  0.51100000000E-03 0. -1.
         23    2    1    0    0    0 -0.26453344212E+02  0.52691252814E+01 -0.10032148649E+02  0.96221759822E+02  0.91817427297E+02 0.  0.
         11    1    3    3    0    0 -0.37390844668E+02 -0.12360200760E+01  0.33898668397E+02  0.50484876249E+02  0.51100000000E-03 0.  1.
         22    1    1    0    0    0  0.26453344212E+02 -0.52691252814E+01  0.10032148649E+02  0.28778240178E+02  0.00000000000E+00 0.  1.
</event>
<event>
 5    1  0.6622940E-004  0.9118800E+02  0.7818608E-02  0.1130116E+00
         25   -1    0    0    0    0  0.00000000000E+00  0.00000000000E+00  0.99999998245E-14  0.12500000000E+03  0.12500000000E+03 0.  0.
        -11    1    3    3    0    0  0.37686823495E+02 -0.88308141603E+01  0.42367830906E+01  0.38938801665E+02  0.51100000000E-03 0.  1.
         23    2    1    0    0    0 -0.95424432360E+01  0.18231176210E+02  0.20705264791E+02  0.95808528661E+02  0.91253121400E+02 0.  0.
         11    1    3    3    0    0 -0.47229266731E+02  0.27061990370E+02  0.16468481700E+02  0.56869726995E+02  0.51100000000E-03 0. -1.
         22    1    1    0    0    0  0.95424432360E+01 -0.18231176210E+02 -0.20705264791E+02  0.29191471339E+02  0.00000000000E+00 0. -1.
</event>
<event>
 5    1  0.6622940E-004  0.9118800E+02  0.7818608E-02  0.1130116E+00
         25   -1    0    0    0    0  0.00000000000E+00  0.00000000000E+00  0.99999998245E-14  0.12500000000E+03  0.12500000000E+03 0.  0.
        -11    1    3    3    0    0 -0.21668682096E+02 -0.30758137808E+02 -0.60018182815E+01  0.38100087246E+02  0.51100000000E-03 0. -1.
         23    2    1    0    0    0 -0.83811442706E+01  0.44959058046E+01  0.32002598585E+02  0.91614028927E+02  0.85314167825E+02 0.  0.
         11    1    3    3    0    0  0.13287537826E+02  0.35254043613E+02  0.38004416867E+02  0.53513941680E+02  0.51100000000E-03 0.  1.
         22    1    1    0    0    0  0.83811442706E+01 -0.44959058046E+01 -0.32002598585E+02  0.33385971073E+02  0.00000000000E+00 0.  1.
</event>
<event>
 5    1  0.6622940E-004  0.9118800E+02  0.7818608E-02  0.1130116E+00
         25   -1    0    0    0    0  0.00000000000E+00  0.00000000000E+00  0.99999998245E-14  0.12500000000E+03  0.12500000000E+03 0.  0.
        -11    1    3    3    0    0 -0.33209906741E+02  0.37978726383E+02 -0.10256892603E+02  0.51482865203E+02  0.51100000000E-03 0.  1.
         23    2    1    0    0    0 -0.11202373426E+01  0.11281277595E+02 -0.26423376279E+02  0.96247313693E+02  0.91852209681E+02 0.  0.
         11    1    3    3    0    0  0.32089669398E+02 -0.26697448788E+02 -0.16166483676E+02  0.44764448490E+02  0.51100000000E-03 0. -1.
         22    1    1    0    0    0  0.11202373426E+01 -0.11281277595E+02  0.26423376279E+02  0.28752686307E+02  0.00000000000E+00 0.  1.
</event>
<event>
 5    1  0.6622940E-004  0.9118800E+02  0.7818608E-02  0.1130116E+00
         25   -1    0    0    0    0  0.00000000000E+00  0.00000000000E+00  0.99999998245E-14  0.12500000000E+03  0.12500000000E+03 0.  0.
        -11    1    3    3    0    0  0.22920678757E+02  0.16866160180E+02  0.52103346926E+02  0.59368203906E+02  0.51100000000E-03 0.  1.
         23    2    1    0    0    0  0.15840292748E+02  0.18370204927E+02  0.16587373884E+02  0.95614284495E+02  0.90986653547E+02 0.  0.
         11    1    3    3    0    0 -0.70803860096E+01  0.15040447462E+01 -0.35515973042E+02  0.36246080588E+02  0.51100000000E-03 0. -1.
         22    1    1    0    0    0 -0.15840292748E+02 -0.18370204927E+02 -0.16587373884E+02  0.29385715505E+02  0.00000000000E+00 0.  1.
</event>
<event>
 5    1  0.6622940E-004  0.9118800E+02  0.7818608E-02  0.1130116E+00
         25   -1    0    0    0    0  0.00000000000E+00  0.00000000000E+00  0.99999998245E-14  0.12500000000E+03  0.12500000000E+03 0.  0.
        -11    1    3    3    0    0 -0.92734439989E+01 -0.22576788309E+02  0.24188672628E+02  0.34362770810E+02  0.51100000000E-03 0. -1.
         23    2    1    0    0    0 -0.61740732027E+01  0.28762344882E+02 -0.73277275463E+01  0.94683548129E+02  0.89698868623E+02 0.  0.
         11    1    3    3    0    0  0.30993707962E+01  0.51339133192E+02 -0.31516400174E+02  0.60320777319E+02  0.51100000000E-03 0.  1.
         22    1    1    0    0    0  0.61740732027E+01 -0.28762344882E+02  0.73277275463E+01  0.30316451871E+02  0.00000000000E+00 0.  1.
</event>
<event>
 5    1  0.6622940E-004  0.9118800E+02  0.7818608E-02  0.1130116E+00
         25   -1    0    0    0    0  0.00000000000E+00  0.00000000000E+00  0.99999998245E-14  0.12500000000E+03  0.12500000000E+03 0.  0.
        -11    1    3    3    0    0  0.79509400666E+01 -0.29006073597E+02  0.25140218342E+02  0.39199494028E+02  0.51100000000E-03 0.  1.
         23    2    1    0    0    0 -0.24952669814E+02  0.13215150765E+02  0.53969075701E+01  0.96252781841E+02  0.91859650882E+02 0.  0.
         11    1    3    3    0    0 -0.32903609880E+02  0.42221224362E+02 -0.19743310772E+02  0.57053287813E+02  0.51100000000E-03 0. -1.
         22    1    1    0    0    0  0.24952669814E+02 -0.13215150765E+02 -0.53969075701E+01  0.28747218159E+02  0.00000000000E+00 0. -1.
</event>
<event>
 5    1  0.6622940E-004  0.9118800E+02  0.7818608E-02  0.1130116E+00
         25   -1    0    0    0    0  0.00000000000E+00  0.00000000000E+00  0.99999998245E-14  0.12500000000E+03  0.12500000000E+03 0.  0.
        -11    1    3    3    0    0  0.16928229019E+02 -0.20853475889E+02  0.49602673893E+02  0.56407957346E+02  0.51100000000E-03 0. -1.
         23    2    1    0    0    0 -0.60888397892E-02  0.70709904715E+01  0.29291964998E+02  0.94866660378E+02  0.89953683052E+02 0.  0.
         11    1    3    3    0    0 -0.16934317859E+02  0.27924466360E+02 -0.20310708895E+02  0.38458703032E+02  0.51100000000E-03 0.  1.
         22    1    1    0    0    0  0.60888397892E-02 -0.70709904715E+01 -0.29291964998E+02  0.30133339622E+02  0.00000000000E+00 0. -1.
</event>
<event>
 5    1  0.6622940E-004  0.9118800E+02  0.7818608E-02  0.1130116E+00
         25   -1    0    0    0    0  0.00000000000E+00  0.00000000000E+00  0.99999998245E-14  0.12500000000E+03  0.12500000000E+03 0.  0.
        -11    1    3    3    0    0 -0.27856517580E+02 -0.62887596867E+01 -0.19443722661E+02  0.34548406928E+02  0.51100000000E-03 0.  1.
         23    2    1    0    0    0  0.12442825165E+02  0.59322915435E-01  0.26338588135E+02  0.95870141740E+02  0.91337480998E+02 0.  0.
         11    1    3    3    0    0  0.40299342745E+02  0.63480826021E+01  0.45782310796E+02  0.61321734813E+02  0.51100000000E-03 0. -1.
         22    1    1    0    0    0 -0.12442825165E+02 -0.59322915435E-01 -0.26338588135E+02  0.29129858260E+02  0.00000000000E+00 0. -1.
</event>
<event>
 5    1  0.6622940E-004  0.9118800E+02  0.7818608E-02  0.1130116E+00
         25   -1    0    0    0    0  0.00000000000E+00  0.00000000000E+00  0.99999998245E-14  0.12500000000E+03  0.12500000000E+03 0.  0.
        -11    1    3    3    0    0 -0.37624072260E+02  0.44174430148E+01 -0.12159688511E+02  0.39786211696E+02  0.51100000000E-03 0.  1.
         23    2    1    0    0    0  0.73474247225E+01  0.22894771978E+02  0.16138500382E+02  0.96041297879E+02  0.91571417318E+02 0.  0.
         11    1    3    3    0    0  0.44971496982E+02  0.18477328963E+02  0.28298188893E+02  0.56255086182E+02  0.51100000000E-03 0. -1.
         22    1    1    0    0    0 -0.73474247225E+01 -0.22894771978E+02 -0.16138500382E+02  0.28958702121E+02  0.00000000000E+00 0. -1.
</event>
<event>
 5    1  0.6622940E-004  0.9118800E+02  0.7818608E-02  0.1130116E+00
         25   -1    0    0    0    0  0.00000000000E+00  0.00000000000E+00  0.99999998245E-14  0.12500000000E+03  0.12500000000E+03 0.  0.
        -11    1    3    3    0    0 -0.34948585014E+02 -0.30722252396E+02 -0.13967653917E+02  0.48583492494E+02  0.51100000000E-03 0. -1.
         23    2    1    0    0    0 -0.13850515989E+02 -0.12968746376E+02  0.23305423322E+02  0.94947247515E+02  0.90065597643E+02 0.  0.
         11    1    3    3    0    0  0.21098069025E+02  0.17753506020E+02  0.37273077238E+02  0.46363755021E+02  0.51100000000E-03 0.  1.
         22    1    1    0    0    0  0.13850515989E+02  0.12968746376E+02 -0.23305423322E+02  0.30052752485E+02  0.00000000000E+00 0. -1.
</event>
<event>
 5    1  0.6622940E-004  0.9118800E+02  0.7818608E-02  0.1130116E+00
         25   -1    0    0    0    0  0.00000000000E+00  0.00000000000E+00  0.99999998245E-14  0.12500000000E+03  0.12500000000E+03 0.  0.
        -11    1    3    3    0    0  0.15032114917E+02  0.30827407988E+02 -0.21630139018E+02  0.40548199421E+02  0.51100000000E-03 0. -1.
         23    2    1    0    0    0 -0.78552563955E+01 -0.19467606805E+02 -0.20263586030E+02  0.95822856779E+02  0.91272746177E+02 0.  0.
         11    1    3    3    0    0 -0.22887371313E+02 -0.50295014793E+02  0.13665529886E+01  0.55274657357E+02  0.51100000000E-03 0.  1.
         22    1    1    0    0    0  0.78552563955E+01  0.19467606805E+02  0.20263586030E+02  0.29177143221E+02  0.00000000000E+00 0.  1.
</event>
<event>
 5    1  0.6622940E-004  0.9118800E+02  0.7818608E-02  0.1130116E+00
         25   -1    0    0    0    0  0.00000000000E+00  0.00000000000E+00  0.99999998245E-14  0.12500000000E+03  0.12500000000E+03 0.  0.
        -11    1    3    3    0    0 -0.23524096091E+02 -0.49022838548E+01  0.18013529194E+02  0.30031695226E+02  0.51100000000E-03 0.  1.
         23    2    1    0    0    0  0.33732193687E+02  0.66912054634E+01  0.22620302780E+01  0.90536252344E+02  0.83720147432E+02 0.  0.
         11    1    3    3    0    0  0.57256289778E+02  0.11593489318E+02 -0.15751498916E+02  0.60504557118E+02  0.51100000000E-03 0. -1.
         22    1    1    0    0    0 -0.33732193687E+02 -0.66912054634E+01 -0.22620302780E+01  0.34463747656E+02  0.00000000000E+00 0. -1.
</event>
<event>
 5    1  0.6622940E-004  0.9118800E+02  0.7818608E-02  0.1130116E+00
         25   -1    0    0    0    0  0.00000000000E+00  0.00000000000E+00  0.99999998245E-14  0.12500000000E+03  0.12500000000E+03 0.  0.
        -11    1    3    3    0    0 -0.11464797219E+01  0.43836454464E+02  0.78118900717E+01  0.44541831827E+02  0.51100000000E-03 0.  1.
         23    2    1    0    0    0  0.79692484332E+01  0.10045032195E+01  0.30218235645E+02  0.93732449523E+02  0.88363524041E+02 0.  0.
         11    1    3    3    0    0  0.91157281550E+01 -0.42831951244E+02  0.22406345573E+02  0.49190617697E+02  0.51100000000E-03 0. -1.
         22    1    1    0    0    0 -0.79692484332E+01 -0.10045032195E+01 -0.30218235645E+02  0.31267550477E+02  0.00000000000E+00 0.  1.
</event>
<event>
 5    1  0.6622940E-004  0.9118800E+02  0.7818608E-02  0.1130116E+00
         25   -1    0    0    0    0  0.00000000000E+00  0.00000000000E+00  0.99999998245E-14  0.12500000000E+03  0.12500000000E+03 0.  0.
        -11    1    3    3    0    0  0.18762481987E+01 -0.34235296096E+02  0.28354608562E+01  0.34403715564E+02  0.51100000000E-03 0.  1.
         23    2    1    0    0    0  0.12089653056E+02  0.25956739427E+02 -0.49185071789E+01  0.95946536427E+02  0.91441971254E+02 0.  0.
         11    1    3    3    0    0  0.10213404857E+02  0.60192035524E+02 -0.77539680351E+01  0.61542820863E+02  0.51100000000E-03 0. -1.
         22    1    1    0    0    0 -0.12089653056E+02 -0.25956739427E+02  0.49185071789E+01  0.29053463573E+02  0.00000000000E+00 0. -1.
</event>
<event>
 5    1  0.6622940E-004  0.9118800E+02  0.7818608E-02  0.1130116E+00
         25   -1    0    0    0    0  0.00000000000E+00  0.00000000000E+00  0.99999998245E-14  0.12500000000E+03  0.12500000000E+03 0.  0.
        -11    1    3    3    0    0  0.30455954370E+02  0.44784487838E+02  0.27103480788E+02  0.60562481608E+02  0.51100000000E-03 0. -1.
         23    2    1    0    0    0  0.12270745221E+02  0.18245919615E+02  0.23308202200E+02  0.92956949885E+02  0.87259598161E+02 0.  0.
         11    1    3    3    0    0 -0.18185209149E+02 -0.26538568223E+02 -0.37952785879E+01  0.32394468276E+02  0.51100000000E-03 0.  1.
         22    1    1    0    0    0 -0.12270745221E+02 -0.18245919615E+02 -0.23308202200E+02  0.32043050115E+02  0.00000000000E+00 0. -1.
</event>
<event>
 5    1  0.6622940E-004  0.9118800E+02  0.7818608E-02  0.1130116E+00
         25   -1    0    0    0    0  0.00000000000E+00  0.00000000000E+00  0.99999998245E-14  0.12500000000E+03  0.12500000000E+03 0.  0.
        -11    1    3    3    0    0  0.11178933227E+02  0.20056417849E+02 -0.42034472220E+02  0.47897028093E+02  0.51100000000E-03 0. -1.
         23    2    1    0    0    0 -0.24359162266E+02  0.12982114113E+01 -0.14295889618E+02  0.96725866960E+02  0.92501171561E+02 0.  0.
         11    1    3    3    0    0 -0.35538095493E+02 -0.18758206438E+02  0.27738582602E+02  0.48828838867E+02  0.51100000000E-03 0.  1.
         22    1    1    0    0    0  0.24359162266E+02 -0.12982114113E+01  0.14295889618E+02  0.28274133040E+02  0.00000000000E+00 0.  1.
</event>
<event>
 5    1  0.6622940E-004  0.9118800E+02  0.7818608E-02  0.1130116E+00
         25   -1    0    0    0    0  0.00000000000E+00  0.00000000000E+00  0.99999998245E-14  0.12500000000E+03  0.12500000000E+03 0.  0.
        -11    1    3    3    0    0 -0.29375496210E+02 -0.16434748307E+02  0.49844480336E+02  0.60145597925E+02  0.51100000000E-03 0. -1.
         23    2    1    0    0    0 -0.24071326029E+02 -0.15797771994E+02  0.21300862857E+02  0.89184848245E+02  0.81677488094E+02 0.  0.
         11    1    3    3    0    0  0.53041701809E+01  0.63697631292E+00 -0.28543617479E+02  0.29039250321E+02  0.51100000000E-03 0.  1.
         22    1    1    0    0    0  0.24071326029E+02  0.15797771994E+02 -0.21300862857E+02  0.35815151755E+02  0.00000000000E+00 0. -1.
</event>
<event>
 5    1  0.6622940E-004  0.9118800E+02  0.7818608E-02  0.1130116E+00
         25   -1    0    0    0    0  0.00000000000E+00  0.00000000000E+00  0.99999998245E-14  0.12500000000E+03  0.12500000000E+03 0.  0.
        -11    1    3    3    0    0 -0.52016054412E+00  0.25681181927E+02 -0.27478446770E+02  0.37614607658E+02  0.51100000000E-03 0. -1.
         23    2    1    0    0    0 -0.16914423984E+02  0.39912727044E+01  0.23726106417E+02  0.95589863614E+02  0.90953097273E+02 0.  0.
         11    1    3    3    0    0 -0.16394263440E+02 -0.21689909222E+02  0.51204553187E+02  0.57975255956E+02  0.51100000000E-03 0.  1.
         22    1    1    0    0    0  0.16914423984E+02 -0.39912727044E+01 -0.23726106417E+02  0.29410136386E+02  0.00000000000E+00 0.  1.
</event>
<event>
 5    1  0.6622940E-004  0.9118800E+02  0.7818608E-02  0.1130116E+00
         25   -1    0    0    0    0  0.00000000000E+00  0.00000000000E+00  0.99999998245E-14  0.12500000000E+03  0.12500000000E+03 0.  0.
        -11    1    3    3    0    0 -0.30374632089E+01  0.41814334836E+02 -0.39524879271E+02  0.57618407321E+02  0.51100000000E-03 0.  1.
         23    2    1    0    0    0  0.13234188185E+02  0.11216672860E+02 -0.23476556231E+02  0.95809142194E+02  0.91253961824E+02 0.  0.
         11    1    3    3    0    0  0.16271651394E+02 -0.30597661976E+02  0.16048323040E+02  0.38190734874E+02  0.51100000000E-03 0. -1.
         22    1    1    0    0    0 -0.13234188185E+02 -0.11216672860E+02  0.23476556231E+02  0.29190857806E+02  0.00000000000E+00 0.  1.
</event>
<event>
 5    1  0.6622940E-004  0.9118800E+02  0.7818608E-02  0.1130116E+00
         25   -1    0    0    0    0  0.00000000000E+00  0.00000000000E+00  0.99999998245E-14  0.12500000000E+03  0.12500000000E+03 0.  0.
        -11    1    3    3    0    0  0.39896066680E+02  0.18229618361E+01  0.98200282334E+01  0.41127269313E+02  0.51100000000E-03 0.  1.
         23    2    1    0    0    0 -0.12883877370E+02 -0.84124019262E+01  0.23782402205E+02  0.96673943852E+02  0.92430979455E+02 0.  0.
         11    1    3    3    0    0 -0.52779944049E+02 -0.10235363762E+02  0.13962373972E+02  0.55546674539E+02  0.51100000000E-03 0. -1.
         22    1    1    0    0    0  0.12883877370E+02  0.84124019262E+01 -0.23782402205E+02  0.28326056148E+02  0.00000000000E+00 0. -1.
</event>
<event>
 5    1  0.6622940E-004  0.9118800E+02  0.7818608E-02  0.1130116E+00
         25   -1    0    0    0    0  0.00000000000E+00  0.00000000000E+00  0.99999998245E-14  0.12500000000E+03  0.12500000000E+03 0.  0.
        -11    1    3    3    0    0 -0.41908082359E+02 -0.32084897766E+02 -0.25249814511E+02  0.58508812710E+02  0.51100000000E-03 0. -1.
         23    2    1    0    0    0 -0.23652548109E+02 -0.16069404606E+01 -0.19082109403E+02  0.94567251374E+02  0.89536656423E+02 0.  0.
         11    1    3    3    0    0  0.18255534250E+02  0.30477957306E+02  0.61677051078E+01  0.36058438663E+02  0.51100000000E-03 0.  1.
         22    1    1    0    0    0  0.23652548109E+02  0.16069404606E+01  0.19082109403E+02  0.30432748626E+02  0.00000000000E+00 0. -1.
</event>
<event>
 5    1  0.6622940E-004  0.9118800E+02  0.7818608E-02  0.1130116E+00
         25   -1    0    0    0    0  0.00000000000E+00  0.00000000000E+00  0.99999998245E-14  0.12500000000E+03  0.12500000000E+03 0.  0.
        -11    1    3    3    0    0  0.17191802643E+02  0.40962040990E+02  0.80062924344E+01  0.45139202463E+02  0.51100000000E-03 0. -1.
         23    2    1    0    0    0 -0.20487278089E+02  0.11250583703E+02  0.19591268629E+02  0.94502098373E+02  0.89445651617E+02 0.  0.
         11    1    3    3    0    0 -0.37679080731E+02 -0.29711457287E+02  0.11584976195E+02  0.49362895910E+02  0.51100000000E-03 0.  1.
         22    1    1    0    0    0  0.20487278089E+02 -0.11250583703E+02 -0.19591268629E+02  0.30497901627E+02  0.00000000000E+00 0.  1.
</event>
<event>
 5    1  0.6622940E-004  0.9118800E+02  0.7818608E-02  0.1130116E+00
         25   -1    0    0    0    0  0.00000000000E+00  0.00000000000E+00  0.99999998245E-14  0.12500000000E+03  0.12500000000E+03 0.  0.
        -11    1    3    3    0    0 -0.40458159000E+02 -0.28148157280E+02  0.36607857946E+02  0.61394760782E+02  0.51100000000E-03 0. -1.
         23    2    1    0    0    0 -0.24359544523E+02 -0.85774712466E+01  0.12754146866E+02  0.96196724411E+02  0.91783337828E+02 0.  0.
         11    1    3    3    0    0  0.16098614476E+02  0.19570686033E+02 -0.23853711080E+02  0.34801963629E+02  0.51100000000E-03 0.  1.
         22    1    1    0    0    0  0.24359544523E+02  0.85774712466E+01 -0.12754146866E+02  0.28803275589E+02  0.00000000000E+00 0. -1.
</event>
<event>
 5    1  0.6622940E-004  0.9118800E+02  0.7818608E-02  0.1130116E+00
         25   -1    0    0    0    0  0.00000000000E+00  0.00000000000E+00  0.99999998245E-14  0.12500000000E+03  0.12500000000E+03 0.  0.
        -11    1    3    3    0    0 -0.34250682440E+02 -0.35150069735E+02 -0.28270640958E+02  0.56638024245E+02  0.51100000000E-03 0.  1.
         23    2    1    0    0    0 -0.64213335953E+01 -0.91729386375E+01 -0.28146897320E+02  0.94707688151E+02  0.89732502683E+02 0.  0.
         11    1    3    3    0    0  0.27829348845E+02  0.25977131097E+02  0.12374363824E+00  0.38069663906E+02  0.51100000000E-03 0. -1.
         22    1    1    0    0    0  0.64213335953E+01  0.91729386375E+01  0.28146897320E+02  0.30292311849E+02  0.00000000000E+00 0.  1.
</event>
<event>
 5    1  0.6622940E-004  0.9118800E+02  0.7818608E-02  0.1130116E+00
         25   -1    0    0    0    0  0.00000000000E+00  0.00000000000E+00  0.99999998245E-14  0.12500000000E+03  0.12500000000E+03 0.  0.
        -11    1    3    3    0    0 -0.96279852950E+01  0.36304571802E+02 -0.35927027496E+01  0.37730989224E+02  0.51100000000E-03 0.  1.
         23    2    1    0    0    0 -0.20158684295E+01 -0.14256310125E+02 -0.27334809700E+02  0.94105050166E+02  0.88889046241E+02 0.  0.
         11    1    3    3    0    0  0.76121168655E+01 -0.50560881927E+02 -0.23742106950E+02  0.56374060942E+02  0.51100000000E-03 0. -1.
         22    1    1    0    0    0  0.20158684295E+01  0.14256310125E+02  0.27334809700E+02  0.30894949834E+02  0.00000000000E+00 0. -1.
</event>
<event>
 5    1  0.6622940E-004  0.9118800E+02  0.7818608E-02  0.1130116E+00
         25   -1    0    0    0    0  0.00000000000E+00  0.00000000000E+00  0.99999998245E-14  0.12500000000E+03  0.12500000000E+03 0.  0.
        -11    1    3    3    0    0  0.48529291342E+00 -0.18672859225E+02  0.22598230324E+02  0.29318785700E+02  0.51100000000E-03 0. -1.
         23    2    1    0    0    0 -0.19640978377E+02  0.32356775828E+02  0.56721004590E+01  0.86725965757E+02  0.77823463295E+02 0.  0.
         11    1    3    3    0    0 -0.20126271291E+02  0.51029635053E+02 -0.16926129865E+02  0.57407180058E+02  0.51100000000E-03 0.  1.
         22    1    1    0    0    0  0.19640978377E+02 -0.32356775828E+02 -0.56721004590E+01  0.38274034243E+02  0.00000000000E+00 0.  1.
</event>
<event>
 5    1  0.6622940E-004  0.9118800E+02  0.7818608E-02  0.1130116E+00
         25   -1    0    0    0    0  0.00000000000E+00  0.00000000000E+00  0.99999998245E-14  0.12500000000E+03  0.12500000000E+03 0.  0.
        -11    1    3    3    0    0 -0.32751873267E+01 -0.21240465296E+02 -0.36817161869E+02  0.42630829530E+02  0.51100000000E-03 0.  1.
         23    2    1    0    0    0  0.29017362715E+02 -0.77253508559E+01  0.20045580584E+01  0.94905039661E+02  0.90006999258E+02 0.  0.
         11    1    3    3    0    0  0.32292550042E+02  0.13515114440E+02  0.38821719928E+02  0.52274210132E+02  0.51100000000E-03 0. -1.
         22    1    1    0    0    0 -0.29017362715E+02  0.77253508559E+01 -0.20045580584E+01  0.30094960339E+02  0.00000000000E+00 0. -1.
</event>
<event>
 5    1  0.6622940E-004  0.9118800E+02  0.7818608E-02  0.1130116E+00
         25   -1    0    0    0    0  0.00000000000E+00  0.00000000000E+00  0.99999998245E-14  0.12500000000E+03  0.12500000000E+03 0.  0.
        -11    1    3    3    0    0 -0.21712662673E+02  0.17736811452E+01  0.34233713806E+02  0.40577491623E+02  0.51100000000E-03 0.  1.
         23    2    1    0    0    0 -0.23078216041E+02 -0.51437994338E+01 -0.19241533243E+02  0.94515588741E+02  0.89464502376E+02 0.  0.
         11    1    3    3    0    0 -0.13655533678E+01 -0.69174805790E+01 -0.53475247049E+02  0.53938097119E+02  0.51100000000E-03 0. -1.
         22    1    1    0    0    0  0.23078216041E+02  0.51437994338E+01  0.19241533243E+02  0.30484411259E+02  0.00000000000E+00 0. -1.
</event>
<event>
 5    1  0.6622940E-004  0.9118800E+02  0.7818608E-02  0.1130116E+00
         25   -1    0    0    0    0  0.00000000000E+00  0.00000000000E+00  0.99999998245E-14  0.12500000000E+03  0.12500000000E+03 0.  0.
        -11    1    3    3    0    0 -0.36595486928E+02 -0.13148589181E+02 -0.13725797498E+02  0.41237271711E+02  0.51100000000E-03 0.  1.
         23    2    1    0    0    0  0.90912721509E+01 -0.19805890627E+02  0.17563916722E+02  0.97010435812E+02  0.92884923173E+02 0.  0.
         11    1    3    3    0    0  0.45686759078E+02 -0.66573014457E+01  0.31289714220E+02  0.55773164101E+02  0.51100000000E-03 0. -1.
         22    1    1    0    0    0 -0.90912721509E+01  0.19805890627E+02 -0.17563916722E+02  0.27989564188E+02  0.00000000000E+00 0.  1.
</event>
<event>
 5    1  0.6622940E-004  0.9118800E+02  0.7818608E-02  0.1130116E+00
         25   -1    0    0    0    0  0.00000000000E+00  0.00000000000E+00  0.99999998245E-14  0.12500000000E+03  0.12500000000E+03 0.  0.
        -11    1    3    3    0    0 -0.11538145387E+02 -0.10058771252E+02  0.39236829266E+02  0.42116937794E+02  0.51100000000E-03 0. -1.
         23    2    1    0    0    0 -0.83066569770E+01  0.29169891855E+02  0.50483177443E+01  0.94253152145E+02  0.89097070863E+02 0.  0.
         11    1    3    3    0    0  0.32314884097E+01  0.39228663107E+02 -0.34188511522E+02  0.52136214351E+02  0.51100000000E-03 0.  1.
         22    1    1    0    0    0  0.83066569770E+01 -0.29169891855E+02 -0.50483177443E+01  0.30746847855E+02  0.00000000000E+00 0.  1.
</event>
<event>
 5    1  0.6622940E-004  0.9118800E+02  0.7818608E-02  0.1130116E+00
         25   -1    0    0    0    0  0.00000000000E+00  0.00000000000E+00  0.99999998245E-14  0.12500000000E+03  0.12500000000E+03 0.  0.
        -11    1    3    3    0    0 -0.13886617338E+02 -0.41350810340E+02 -0.10797479188E+01  0.43633628232E+02  0.51100000000E-03 0.  1.
         23    2    1    0    0    0  0.20434477435E+02 -0.89601691814E+01  0.19734885104E+02  0.95212113370E+02  0.90432451822E+02 0.  0.
         11    1    3    3    0    0  0.34321094773E+02  0.32390641158E+02  0.20814633022E+02  0.51578485139E+02  0.51100000000E-03 0. -1.
         22    1    1    0    0    0 -0.20434477435E+02  0.89601691814E+01 -0.19734885104E+02  0.29787886630E+02  0.00000000000E+00 0. -1.
</event>
<event>
 5    1  0.6622940E-004  0.9118800E+02  0.7818608E-02  0.1130116E+00
         25   -1    0    0    0    0  0.00000000000E+00  0.00000000000E+00  0.99999998245E-14  0.12500000000E+03  0.12500000000E+03 0.  0.
        -11    1    3    3    0    0 -0.30756789269E+02  0.17474620434E+02 -0.51336265328E+02  0.62343841585E+02  0.51100000000E-03 0.  1.
         23    2    1    0    0    0 -0.11472845064E+02  0.97684605289E+01 -0.23758189796E+02  0.96866379946E+02  0.92690857081E+02 0.  0.
         11    1    3    3    0    0  0.19283944204E+02 -0.77061599046E+01  0.27578075533E+02  0.34522538361E+02  0.51100000000E-03 0. -1.
         22    1    1    0    0    0  0.11472845064E+02 -0.97684605289E+01  0.23758189796E+02  0.28133620054E+02  0.00000000000E+00 0.  1.
</event>
<event>
 5    1  0.6622940E-004  0.9118800E+02  0.7818608E-02  0.1130116E+00
         25   -1    0    0    0    0  0.00000000000E+00  0.00000000000E+00  0.99999998245E-14  0.12500000000E+03  0.12500000000E+03 0.  0.
        -11    1    3    3    0    0 -0.80391894906E+01  0.48473082381E+02  0.24105891791E+02  0.54729903184E+02  0.51100000000E-03 0.  1.
         23    2    1    0    0    0  0.13004883791E+02  0.24508113589E+02 -0.36584500639E+01  0.97015023835E+02  0.92891097306E+02 0.  0.
         11    1    3    3    0    0  0.21044073282E+02 -0.23964968792E+02 -0.27764341855E+02  0.42285120651E+02  0.51100000000E-03 0. -1.
         22    1    1    0    0    0 -0.13004883791E+02 -0.24508113589E+02  0.36584500639E+01  0.27984976165E+02  0.00000000000E+00 0. -1.
</event>
<event>
 5    1  0.6622940E-004  0.9118800E+02  0.7818608E-02  0.1130116E+00
         25   -1    0    0    0    0  0.00000000000E+00  0.00000000000E+00  0.99999998245E-14  0.12500000000E+03  0.12500000000E+03 0.  0.
        -11    1    3    3    0    0  0.24435445115E+02 -0.22440561489E+02  0.14240096037E+02  0.36103325516E+02  0.51100000000E-03 0.  1.
         23    2    1    0    0    0 -0.22341678251E+02 -0.32643112317E+01 -0.18052114710E+02  0.96091780401E+02  0.91640302816E+02 0.  0.
         11    1    3    3    0    0 -0.46777123366E+02  0.19176250257E+02 -0.32292210748E+02  0.59988454885E+02  0.51100000000E-03 0. -1.
         22    1    1    0    0    0  0.22341678251E+02  0.32643112317E+01  0.18052114710E+02  0.28908219599E+02  0.00000000000E+00 0. -1.
</event>
<event>
 5    1  0.6622940E-004  0.9118800E+02  0.7818608E-02  0.1130116E+00
         25   -1    0    0    0    0  0.00000000000E+00  0.00000000000E+00  0.99999998245E-14  0.12500000000E+03  0.12500000000E+03 0.  0.
        -11    1    3    3    0    0  0.33619921007E+02  0.36420163647E+01 -0.14648290816E+01  0.33848324865E+02  0.51100000000E-03 0. -1.
         23    2    1    0    0    0 -0.26895502789E+02  0.73135581587E+01 -0.10641294699E+02  0.95165567609E+02  0.90368091174E+02 0.  0.
         11    1    3    3    0    0 -0.60515423795E+02  0.36715417941E+01 -0.91764656178E+01  0.61317242744E+02  0.51100000000E-03 0.  1.
         22    1    1    0    0    0  0.26895502789E+02 -0.73135581587E+01  0.10641294699E+02  0.29834432391E+02  0.00000000000E+00 0.  1.
</event>
<event>
 5    1  0.6622940E-004  0.9118800E+02  0.7818608E-02  0.1130116E+00
         25   -1    0    0    0    0  0.00000000000E+00  0.00000000000E+00  0.99999998245E-14  0.12500000000E+03  0.12500000000E+03 0.  0.
        -11    1    3    3    0    0 -0.89244073190E+01 -0.56485861569E+02  0.22914532011E+02  0.61606601763E+02  0.51100000000E-03 0. -1.
         23    2    1    0    0    0 -0.62018868367E+01 -0.27529752446E+02  0.35253933696E+01  0.96560958727E+02  0.92278056340E+02 0.  0.
         11    1    3    3    0    0  0.27225204823E+01  0.28956109123E+02 -0.19389138641E+02  0.34954356965E+02  0.51100000000E-03 0.  1.
         22    1    1    0    0    0  0.62018868367E+01  0.27529752446E+02 -0.35253933696E+01  0.28439041273E+02  0.00000000000E+00 0. -1.
</event>
<event>
 5    1  0.6622940E-004  0.9118800E+02  0.7818608E-02  0.1130116E+00
         25   -1    0    0    0    0  0.00000000000E+00  0.00000000000E+00  0.99999998245E-14  0.12500000000E+03  0.12500000000E+03 0.  0.
        -11    1    3    3    0    0 -0.27426921497E+02 -0.50527558447E+02 -0.93966932108E+01  0.58254339143E+02  0.51100000000E-03 0. -1.
         23    2    1    0    0    0 -0.28174138826E+01 -0.16816901180E+02 -0.17272835287E+02  0.10072868308E+03  0.97760783392E+02 0.  0.
         11    1    3    3    0    0  0.24609507615E+02  0.33710657267E+02 -0.78761420763E+01  0.42474343934E+02  0.51100000000E-03 0.  1.
         22    1    1    0    0    0  0.28174138826E+01  0.16816901180E+02  0.17272835287E+02  0.24271316922E+02  0.00000000000E+00 0. -1.
</event>
<event>
 5    1  0.6622940E-004  0.9118800E+02  0.7818608E-02  0.1130116E+00
         25   -1    0    0    0    0  0.00000000000E+00  0.00000000000E+00  0.99999998245E-14  0.12500000000E+03  0.12500000000E+03 0.  0.
        -11    1    3    3    0    0 -0.32018598193E+02 -0.12163876503E+02 -0.16763767966E+02  0.38133639198E+02  0.51100000000E-03 0. -1.
         23    2    1    0    0    0 -0.88629693207E+01  0.28276201200E+02  0.12147831412E+02  0.92973985769E+02  0.87283998776E+02 0.  0.
         11    1    3    3    0    0  0.23155628873E+02  0.40440077703E+02  0.28911599378E+02  0.54840346571E+02  0.51100000000E-03 0.  1.
         22    1    1    0    0    0  0.88629693207E+01 -0.28276201200E+02 -0.12147831412E+02  0.32026014231E+02  0.00000000000E+00 0.  1.
</event>
<event>
 5    1  0.6622940E-004  0.9118800E+02  0.7818608E-02  0.1130116E+00
         25   -1    0    0    0    0  0.00000000000E+00  0.00000000000E+00  0.99999998245E-14  0.12500000000E+03  0.12500000000E+03 0.  0.
        -11    1    3    3    0    0 -0.21170497536E+02 -0.24358543462E+02 -0.42829871442E+02  0.53627665374E+02  0.51100000000E-03 0.  1.
         23    2    1    0    0    0 -0.83659798623E+01  0.14054469417E+02 -0.15400904133E+02  0.10253434671E+03  0.10004292417E+03 0.  0.
         11    1    3    3    0    0  0.12804517673E+02  0.38413012879E+02  0.27428967309E+02  0.48906681335E+02  0.51100000000E-03 0. -1.
         22    1    1    0    0    0  0.83659798623E+01 -0.14054469417E+02  0.15400904133E+02  0.22465653291E+02  0.00000000000E+00 0.  1.
</event>
<event>
 5    1  0.6622940E-004  0.9118800E+02  0.7818608E-02  0.1130116E+00
         25   -1    0    0    0    0  0.00000000000E+00  0.00000000000E+00  0.99999998245E-14  0.12500000000E+03  0.12500000000E+03 0.  0.
        -11    1    3    3    0    0  0.58235574915E+02  0.15431905692E+02 -0.40437345888E+01  0.60381103738E+02  0.51100000000E-03 0.  1.
         23    2    1    0    0    0  0.26754131798E+02  0.17200281498E+02 -0.81176209517E+01  0.92174262814E+02  0.86131096031E+02 0.  0.
         11    1    3    3    0    0 -0.31481443117E+02  0.17683758065E+01 -0.40738863630E+01  0.31793159076E+02  0.51100000000E-03 0. -1.
         22    1    1    0    0    0 -0.26754131798E+02 -0.17200281498E+02  0.81176209517E+01  0.32825737186E+02  0.00000000000E+00 0.  1.
</event>
<event>
 5    1  0.6622940E-004  0.9118800E+02  0.7818608E-02  0.1130116E+00
         25   -1    0    0    0    0  0.00000000000E+00  0.00000000000E+00  0.99999998245E-14  0.12500000000E+03  0.12500000000E+03 0.  0.
        -11    1    3    3    0    0 -0.10741498119E+02  0.52154012522E+02  0.25365441168E+02  0.58981576868E+02  0.51100000000E-03 0.  1.
         23    2    1    0    0    0  0.80011382830E+01  0.23308247748E+02  0.18804170574E+02  0.94001782988E+02  0.88743708211E+02 0.  0.
         11    1    3    3    0    0  0.18742636402E+02 -0.28845764773E+02 -0.65612705935E+01  0.35020206120E+02  0.51100000000E-03 0. -1.
         22    1    1    0    0    0 -0.80011382830E+01 -0.23308247748E+02 -0.18804170574E+02  0.30998217012E+02  0.00000000000E+00 0.  1.
</event>
<event>
 5    1  0.6622940E-004  0.9118800E+02  0.7818608E-02  0.1130116E+00
         25   -1    0    0    0    0  0.00000000000E+00  0.00000000000E+00  0.99999998245E-14  0.12500000000E+03  0.12500000000E+03 0.  0.
        -11    1    3    3    0    0  0.35409509839E+01  0.14435071873E+02  0.50125221294E+02  0.52282381773E+02  0.51100000000E-03 0.  1.
         23    2    1    0    0    0  0.23873255835E+02 -0.37142859420E+01  0.15715578930E+02  0.96177999977E+02  0.91757833422E+02 0.  0.
         11    1    3    3    0    0  0.20332304851E+02 -0.18149357815E+02 -0.34409642364E+02  0.43895618204E+02  0.51100000000E-03 0. -1.
         22    1    1    0    0    0 -0.23873255835E+02  0.37142859420E+01 -0.15715578930E+02  0.28822000023E+02  0.00000000000E+00 0.  1.
</event>
<event>
 5    1  0.6622940E-004  0.9118800E+02  0.7818608E-02  0.1130116E+00
         25   -1    0    0    0    0  0.00000000000E+00  0.00000000000E+00  0.99999998245E-14  0.12500000000E+03  0.12500000000E+03 0.  0.
        -11    1    3    3    0    0 -0.24975454077E+02  0.35547178514E+02  0.55081541021E+01  0.43791722603E+02  0.51100000000E-03 0. -1.
         23    2    1    0    0    0  0.11627009690E+02  0.56914515977E+01  0.26520158283E+02  0.95489005930E+02  0.90814379272E+02 0.  0.
         11    1    3    3    0    0  0.36602463767E+02 -0.29855726916E+02  0.21012004181E+02  0.51697283328E+02  0.51100000000E-03 0.  1.
         22    1    1    0    0    0 -0.11627009690E+02 -0.56914515977E+01 -0.26520158283E+02  0.29510994070E+02  0.00000000000E+00 0.  1.
</event>
<event>
 5    1  0.6622940E-004  0.9118800E+02  0.7818608E-02  0.1130116E+00
         25   -1    0    0    0    0  0.00000000000E+00  0.00000000000E+00  0.99999998245E-14  0.12500000000E+03  0.12500000000E+03 0.  0.
        -11    1    3    3    0    0  0.40361480806E+02  0.22620428441E+01  0.10801204549E+02  0.41842944336E+02  0.51100000000E-03 0.  1.
         23    2    1    0    0    0 -0.90850477319E+01 -0.18906716565E+02  0.19536645954E+02  0.96334994180E+02  0.91971455055E+02 0.  0.
         11    1    3    3    0    0 -0.49446528538E+02 -0.21168759409E+02  0.87354414052E+01  0.54492049844E+02  0.51100000000E-03 0. -1.
         22    1    1    0    0    0  0.90850477319E+01  0.18906716565E+02 -0.19536645954E+02  0.28665005820E+02  0.00000000000E+00 0. -1.
</event>
<event>
 5    1  0.6622940E-004  0.9118800E+02  0.7818608E-02  0.1130116E+00
         25   -1    0    0    0    0  0.00000000000E+00  0.00000000000E+00  0.99999998245E-14  0.12500000000E+03  0.12500000000E+03 0.  0.
        -11    1    3    3    0    0  0.11098109110E+02 -0.10665861020E+02  0.41386926683E+02  0.44156611256E+02  0.51100000000E-03 0.  1.
         23    2    1    0    0    0  0.28969841234E+02 -0.59060929467E+00 -0.56548116210E+01  0.95477510014E+02  0.90798554524E+02 0.  0.
         11    1    3    3    0    0  0.17871732124E+02  0.10075251725E+02 -0.47041738304E+02  0.51320898758E+02  0.51100000000E-03 0. -1.
         22    1    1    0    0    0 -0.28969841234E+02  0.59060929467E+00  0.56548116210E+01  0.29522489986E+02  0.00000000000E+00 0. -1.
</event>
<event>
 5    1  0.6622940E-004  0.9118800E+02  0.7818608E-02  0.1130116E+00
         25   -1    0    0    0    0  0.00000000000E+00  0.00000000000E+00  0.99999998245E-14  0.12500000000E+03  0.12500000000E+03 0.  0.
        -11    1    3    3    0    0 -0.22644721797E+02  0.13003507081E+02 -0.36785294258E+02  0.45111334447E+02  0.51100000000E-03 0.  1.
         23    2    1    0    0    0  0.11476245747E+02 -0.20035827539E+02 -0.15707632022E+02  0.97073877724E+02  0.92970261003E+02 0.  0.
         11    1    3    3    0    0  0.34120967545E+02 -0.33039334620E+02  0.21077662235E+02  0.51962543277E+02  0.51100000000E-03 0. -1.
         22    1    1    0    0    0 -0.11476245747E+02  0.20035827539E+02  0.15707632022E+02  0.27926122276E+02  0.00000000000E+00 0. -1.
</event>
<event>
 5    1  0.6622940E-004  0.9118800E+02  0.7818608E-02  0.1130116E+00
         25   -1    0    0    0    0  0.00000000000E+00  0.00000000000E+00  0.99999998245E-14  0.12500000000E+03  0.12500000000E+03 0.  0.
        -11    1    3    3    0    0  0.39964257156E+02 -0.56715605753E+01 -0.17048938061E+02  0.43817516345E+02  0.51100000000E-03 0.  1.
         23    2    1    0    0    0 -0.20549073611E+01  0.18274799656E+02 -0.26151060631E+02  0.93030187382E+02  0.87364448407E+02 0.  0.
         11    1    3    3    0    0 -0.42019164517E+02  0.23946360232E+02 -0.91021225694E+01  0.49212671037E+02  0.51100000000E-03 0. -1.
         22    1    1    0    0    0  0.20549073611E+01 -0.18274799656E+02  0.26151060631E+02  0.31969812618E+02  0.00000000000E+00 0. -1.
</event>
<event>
 5    1  0.6622940E-004  0.9118800E+02  0.7818608E-02  0.1130116E+00
         25   -1    0    0    0    0  0.00000000000E+00  0.00000000000E+00  0.99999998245E-14  0.12500000000E+03  0.12500000000E+03 0.  0.
        -11    1    3    3    0    0  0.26890950965E+02 -0.36517197204E+02  0.16285885976E+02  0.48185672329E+02  0.51100000000E-03 0.  1.
         23    2    1    0    0    0  0.16421094012E+02 -0.14123744373E+02 -0.22236947739E+02  0.93957862051E+02  0.88681821772E+02 0.  0.
         11    1    3    3    0    0 -0.10469856953E+02  0.22393452831E+02 -0.38522833715E+02  0.45772189723E+02  0.51100000000E-03 0. -1.
         22    1    1    0    0    0 -0.16421094012E+02  0.14123744373E+02  0.22236947739E+02  0.31042137949E+02  0.00000000000E+00 0.  1.
</event>
<event>
 5    1  0.6622940E-004  0.9118800E+02  0.7818608E-02  0.1130116E+00
         25   -1    0    0    0    0  0.00000000000E+00  0.00000000000E+00  0.99999998245E-14  0.12500000000E+03  0.12500000000E+03 0.  0.
        -11    1    3    3    0    0 -0.17015719053E+02  0.24635198002E+02 -0.20509743134E+02  0.36291558787E+02  0.51100000000E-03 0.  1.
         23    2    1    0    0    0  0.48805167533E+01 -0.28456505272E+02 -0.72213277946E+01  0.95238620475E+02  0.90469083773E+02 0.  0.
         11    1    3    3    0    0  0.21896235806E+02 -0.53091703275E+02  0.13288415340E+02  0.58947061688E+02  0.51100000000E-03 0. -1.
         22    1    1    0    0    0 -0.48805167533E+01  0.28456505272E+02  0.72213277946E+01  0.29761379525E+02  0.00000000000E+00 0. -1.
</event>
<event>
 5    1  0.6622940E-004  0.9118800E+02  0.7818608E-02  0.1130116E+00
         25   -1    0    0    0    0  0.00000000000E+00  0.00000000000E+00  0.99999998245E-14  0.12500000000E+03  0.12500000000E+03 0.  0.
        -11    1    3    3    0    0 -0.15049700254E+02 -0.13586031285E+02 -0.50182214680E+02  0.54123270359E+02  0.51100000000E-03 0.  1.
         23    2    1    0    0    0 -0.24380018162E+02  0.82622797703E+01 -0.20824206007E+02  0.91889607245E+02  0.85716986713E+02 0.  0.
         11    1    3    3    0    0 -0.93303179084E+01  0.21848311055E+02  0.29358008674E+02  0.37766336886E+02  0.51100000000E-03 0. -1.
         22    1    1    0    0    0  0.24380018162E+02 -0.82622797703E+01  0.20824206007E+02  0.33110392755E+02  0.00000000000E+00 0.  1.
</event>
<event>
 5    1  0.6622940E-004  0.9118800E+02  0.7818608E-02  0.1130116E+00
         25   -1    0    0    0    0  0.00000000000E+00  0.00000000000E+00  0.99999998245E-14  0.12500000000E+03  0.12500000000E+03 0.  0.
        -11    1    3    3    0    0 -0.43980892624E+02 -0.56883607876E+01  0.52475672917E+01  0.44656615716E+02  0.51100000000E-03 0.  1.
         23    2    1    0    0    0 -0.64736932100E+01  0.27395297082E+02  0.10523834204E+02  0.94947344670E+02  0.90065732482E+02 0.  0.
         11    1    3    3    0    0  0.37507199414E+02  0.33083657870E+02  0.52762669122E+01  0.50290728954E+02  0.51100000000E-03 0. -1.
         22    1    1    0    0    0  0.64736932100E+01 -0.27395297082E+02 -0.10523834204E+02  0.30052655330E+02  0.00000000000E+00 0. -1.
</event>
<event>
 5    1  0.6622940E-004  0.9118800E+02  0.7818608E-02  0.1130116E+00
         25   -1    0    0    0    0  0.00000000000E+00  0.00000000000E+00  0.99999998245E-14  0.12500000000E+03  0.12500000000E+03 0.  0.
        -11    1    3    3    0    0  0.24327943932E+01  0.44341161025E+01  0.51213979542E+02  0.51463108874E+02  0.51100000000E-03 0.  1.
         23    2    1    0    0    0 -0.28423670041E+01 -0.22578036469E+02  0.12282407931E+02  0.99140682036E+02  0.95708779686E+02 0.  0.
         11    1    3    3    0    0 -0.52751613973E+01 -0.27012152571E+02 -0.38931571611E+02  0.47677573162E+02  0.51100000000E-03 0. -1.
         22    1    1    0    0    0  0.28423670041E+01  0.22578036469E+02 -0.12282407931E+02  0.25859317964E+02  0.00000000000E+00 0.  1.
</event>
<event>
 5    1  0.6622940E-004  0.9118800E+02  0.7818608E-02  0.1130116E+00
         25   -1    0    0    0    0  0.00000000000E+00  0.00000000000E+00  0.99999998245E-14  0.12500000000E+03  0.12500000000E+03 0.  0.
        -11    1    3    3    0    0  0.21675540693E+02 -0.16955792159E+02  0.19589597318E+02  0.33779879743E+02  0.51100000000E-03 0.  1.
         23    2    1    0    0    0 -0.11380190452E+02  0.12712981200E+02 -0.23695776652E+02  0.95800368891E+02  0.91241943331E+02 0.  0.
         11    1    3    3    0    0 -0.33055731146E+02  0.29668773360E+02 -0.43285373970E+02  0.62020489149E+02  0.51100000000E-03 0. -1.
         22    1    1    0    0    0  0.11380190452E+02 -0.12712981200E+02  0.23695776652E+02  0.29199631109E+02  0.00000000000E+00 0. -1.
</event>
<event>
 5    1  0.6622940E-004  0.9118800E+02  0.7818608E-02  0.1130116E+00
         25   -1    0    0    0    0  0.00000000000E+00  0.00000000000E+00  0.99999998245E-14  0.12500000000E+03  0.12500000000E+03 0.  0.
        -11    1    3    3    0    0  0.10704120513E+02 -0.42867045258E+02 -0.15461031619E+02  0.46810311514E+02  0.51100000000E-03 0.  1.
         23    2    1    0    0    0  0.18847228566E+02 -0.89254304045E+01  0.19669821762E+02  0.96333238399E+02  0.91969068712E+02 0.  0.
         11    1    3    3    0    0  0.81431080538E+01  0.33941614854E+02  0.35130853381E+02  0.49522926884E+02  0.51100000000E-03 0. -1.
         22    1    1    0    0    0 -0.18847228566E+02  0.89254304045E+01 -0.19669821762E+02  0.28666761601E+02  0.00000000000E+00 0.  1.
</event>
<event>
 5    1  0.6622940E-004  0.9118800E+02  0.7818608E-02  0.1130116E+00
         25   -1    0    0    0    0  0.00000000000E+00  0.00000000000E+00  0.99999998245E-14  0.12500000000E+03  0.12500000000E+03 0.  0.
        -11    1    3    3    0    0 -0.13263660967E+02 -0.27190917150E+02  0.53475274490E+02  0.61440016763E+02  0.51100000000E-03 0.  1.
         23    2    1    0    0    0 -0.12755956868E+02 -0.77944684395E+01  0.23692078191E+02  0.96986025935E+02  0.92852067741E+02 0.  0.
         11    1    3    3    0    0  0.50770409824E+00  0.19396448711E+02 -0.29783196299E+02  0.35546009173E+02  0.51100000000E-03 0. -1.
         22    1    1    0    0    0  0.12755956868E+02  0.77944684395E+01 -0.23692078191E+02  0.28013974065E+02  0.00000000000E+00 0.  1.
</event>
<event>
 5    1  0.6622940E-004  0.9118800E+02  0.7818608E-02  0.1130116E+00
         25   -1    0    0    0    0  0.00000000000E+00  0.00000000000E+00  0.99999998245E-14  0.12500000000E+03  0.12500000000E+03 0.  0.
        -11    1    3    3    0    0 -0.20249635811E+02  0.34646389118E+02  0.17012708433E+02  0.43587294914E+02  0.51100000000E-03 0.  1.
         23    2    1    0    0    0  0.24197007526E+02  0.14170474310E+02 -0.36795622316E+01  0.96718615777E+02  0.92491372269E+02 0.  0.
         11    1    3    3    0    0  0.44446643337E+02 -0.20475914808E+02 -0.20692270665E+02  0.53131320863E+02  0.51100000000E-03 0. -1.
         22    1    1    0    0    0 -0.24197007526E+02 -0.14170474310E+02  0.36795622316E+01  0.28281384223E+02  0.00000000000E+00 0. -1.
</event>
<event>
 5    1  0.6622940E-004  0.9118800E+02  0.7818608E-02  0.1130116E+00
         25   -1    0    0    0    0  0.00000000000E+00  0.00000000000E+00  0.99999998245E-14  0.12500000000E+03  0.12500000000E+03 0.  0.
        -11    1    3    3    0    0  0.39233720950E+02  0.44588259029E+02 -0.18367568971E+02  0.62167236491E+02  0.51100000000E-03 0. -1.
         23    2    1    0    0    0  0.15689145880E+02  0.23434630803E+02 -0.58875399295E+01  0.96190377550E+02  0.91774693611E+02 0.  0.
         11    1    3    3    0    0 -0.23544575070E+02 -0.21153628226E+02  0.12480029041E+02  0.34023141058E+02  0.51100000000E-03 0.  1.
         22    1    1    0    0    0 -0.15689145880E+02 -0.23434630803E+02  0.58875399295E+01  0.28809622450E+02  0.00000000000E+00 0. -1.
</event>
<event>
 5    1  0.6622940E-004  0.9118800E+02  0.7818608E-02  0.1130116E+00
         25   -1    0    0    0    0  0.00000000000E+00  0.00000000000E+00  0.99999998245E-14  0.12500000000E+03  0.12500000000E+03 0.  0.
        -11    1    3    3    0    0 -0.87857734585E+01 -0.34609038538E+02  0.36121474687E+02  0.50791104512E+02  0.51100000000E-03 0.  1.
         23    2    1    0    0    0 -0.95988962822E+01  0.92437772606E+01  0.25969374189E+02  0.95811053057E+02  0.91256579293E+02 0.  0.
         11    1    3    3    0    0 -0.81312282367E+00  0.43852815799E+02 -0.10152100498E+02  0.45019948545E+02  0.51100000000E-03 0. -1.
         22    1    1    0    0    0  0.95988962822E+01 -0.92437772606E+01 -0.25969374189E+02  0.29188946943E+02  0.00000000000E+00 0.  1.
</event>
<event>
 5    1  0.6622940E-004  0.9118800E+02  0.7818608E-02  0.1130116E+00
         25   -1    0    0    0    0  0.00000000000E+00  0.00000000000E+00  0.99999998245E-14  0.12500000000E+03  0.12500000000E+03 0.  0.
        -11    1    3    3    0    0 -0.55526518222E+01 -0.32890890286E+02 -0.30940699771E+00  0.33357732822E+02  0.51100000000E-03 0.  1.
         23    2    1    0    0    0  0.12806851782E+02  0.26155069606E+02  0.51240963027E+01  0.95430429804E+02  0.90733717278E+02 0.  0.
         11    1    3    3    0    0  0.18359503604E+02  0.59045959892E+02  0.54335033004E+01  0.62072696982E+02  0.51100000000E-03 0. -1.
         22    1    1    0    0    0 -0.12806851782E+02 -0.26155069606E+02 -0.51240963027E+01  0.29569570196E+02  0.00000000000E+00 0. -1.
</event>
<event>
 5    1  0.6622940E-004  0.9118800E+02  0.7818608E-02  0.1130116E+00
         25   -1    0    0    0    0  0.00000000000E+00  0.00000000000E+00  0.99999998245E-14  0.12500000000E+03  0.12500000000E+03 0.  0.
        -11    1    3    3    0    0  0.45277859087E+02  0.18388830345E+02 -0.16856904209E+02  0.51695152817E+02  0.51100000000E-03 0. -1.
         23    2    1    0    0    0  0.57850670963E+01  0.15668697335E+01 -0.28261055467E+02  0.96110393942E+02  0.91665688704E+02 0.  0.
         11    1    3    3    0    0 -0.39492791991E+02 -0.16821960611E+02 -0.11404151257E+02  0.44415241125E+02  0.51100000000E-03 0.  1.
         22    1    1    0    0    0 -0.57850670963E+01 -0.15668697335E+01  0.28261055467E+02  0.28889606058E+02  0.00000000000E+00 0. -1.
</event>
<event>
 5    1  0.6622940E-004  0.9118800E+02  0.7818608E-02  0.1130116E+00
         25   -1    0    0    0    0  0.00000000000E+00  0.00000000000E+00  0.99999998245E-14  0.12500000000E+03  0.12500000000E+03 0.  0.
        -11    1    3    3    0    0  0.25893644678E+02  0.21429320125E+02  0.18651997847E+02  0.38439479961E+02  0.51100000000E-03 0.  1.
         23    2    1    0    0    0 -0.79998185735E+01 -0.24623903188E+02 -0.14953311069E+01  0.99066050811E+02  0.95611258242E+02 0.  0.
         11    1    3    3    0    0 -0.33893463252E+02 -0.46053223314E+02 -0.20147328953E+02  0.60626570850E+02  0.51100000000E-03 0. -1.
         22    1    1    0    0    0  0.79998185735E+01  0.24623903188E+02  0.14953311069E+01  0.25933949189E+02  0.00000000000E+00 0. -1.
</event>
<event>
 5    1  0.6622940E-004  0.9118800E+02  0.7818608E-02  0.1130116E+00
         25   -1    0    0    0    0  0.00000000000E+00  0.00000000000E+00  0.99999998245E-14  0.12500000000E+03  0.12500000000E+03 0.  0.
        -11    1    3    3    0    0  0.19686393060E+02  0.11893474472E+02 -0.22098750786E+02  0.31896137592E+02  0.51100000000E-03 0.  1.
         23    2    1    0    0    0 -0.37869572316E+01 -0.16788778969E+02  0.26736443985E+02  0.93203119944E+02  0.87611528841E+02 0.  0.
         11    1    3    3    0    0 -0.23473350292E+02 -0.28682253441E+02  0.48835194772E+02  0.61306982351E+02  0.51100000000E-03 0. -1.
         22    1    1    0    0    0  0.37869572316E+01  0.16788778969E+02 -0.26736443985E+02  0.31796880056E+02  0.00000000000E+00 0. -1.
</event>
<event>
 5    1  0.6622940E-004  0.9118800E+02  0.7818608E-02  0.1130116E+00
         25   -1    0    0    0    0  0.00000000000E+00  0.00000000000E+00  0.99999998245E-14  0.12500000000E+03  0.12500000000E+03 0.  0.
        -11    1    3    3    0    0  0.63751841802E+01  0.18014185314E+02 -0.30152710067E+02  0.35697895884E+02  0.51100000000E-03 0. -1.
         23    2    1    0    0    0 -0.33192971003E+01  0.98327874078E+01  0.27958486842E+02  0.95177551611E+02  0.90384666303E+02 0.  0.
         11    1    3    3    0    0 -0.96944812805E+01 -0.81813979066E+01  0.58111196909E+02  0.59479655727E+02  0.51100000000E-03 0.  1.
         22    1    1    0    0    0  0.33192971003E+01 -0.98327874078E+01 -0.27958486842E+02  0.29822448389E+02  0.00000000000E+00 0.  1.
</event>
<event>
 5    1  0.6622940E-004  0.9118800E+02  0.7818608E-02  0.1130116E+00
         25   -1    0    0    0    0  0.00000000000E+00  0.00000000000E+00  0.99999998245E-14  0.12500000000E+03  0.12500000000E+03 0.  0.
        -11    1    3    3    0    0 -0.33606679231E+02 -0.37377907895E+02 -0.14644700701E+02  0.52354409045E+02  0.51100000000E-03 0.  1.
         23    2    1    0    0    0  0.36270440832E+01 -0.13059154143E+02 -0.23661896231E+02  0.97731294696E+02  0.93850006255E+02 0.  0.
         11    1    3    3    0    0  0.37233723315E+02  0.24318753752E+02 -0.90171955292E+01  0.45376885651E+02  0.51100000000E-03 0. -1.
         22    1    1    0    0    0 -0.36270440832E+01  0.13059154143E+02  0.23661896231E+02  0.27268705304E+02  0.00000000000E+00 0.  1.
</event>
<event>
 5    1  0.6622940E-004  0.9118800E+02  0.7818608E-02  0.1130116E+00
         25   -1    0    0    0    0  0.00000000000E+00  0.00000000000E+00  0.99999998245E-14  0.12500000000E+03  0.12500000000E+03 0.  0.
        -11    1    3    3    0    0 -0.97209056972E+01  0.20103042609E+02  0.50163670104E+02  0.54909217153E+02  0.51100000000E-03 0. -1.
         23    2    1    0    0    0  0.17276143770E+02  0.10714316594E+02  0.22259342115E+02  0.94854684692E+02  0.89937040050E+02 0.  0.
         11    1    3    3    0    0  0.26997049467E+02 -0.93887260147E+01 -0.27904327990E+02  0.39945467539E+02  0.51100000000E-03 0.  1.
         22    1    1    0    0    0 -0.17276143770E+02 -0.10714316594E+02 -0.22259342115E+02  0.30145315308E+02  0.00000000000E+00 0. -1.
</event>
<event>
 5    1  0.6622940E-004  0.9118800E+02  0.7818608E-02  0.1130116E+00
         25   -1    0    0    0    0  0.00000000000E+00  0.00000000000E+00  0.99999998245E-14  0.12500000000E+03  0.12500000000E+03 0.  0.
        -11    1    3    3    0    0  0.13980820918E+02 -0.70864508624E+01  0.34711587755E+02  0.38086420994E+02  0.51100000000E-03 0. -1.
         23    2    1    0    0    0 -0.11369286758E+02 -0.20509736772E+02 -0.16182989154E+02  0.96507911242E+02  0.92206170133E+02 0.  0.
         11    1    3    3    0    0 -0.25350107677E+02 -0.13423285909E+02 -0.50894576909E+02  0.58421490248E+02  0.51100000000E-03 0.  1.
         22    1    1    0    0    0  0.11369286758E+02  0.20509736772E+02  0.16182989154E+02  0.28492088758E+02  0.00000000000E+00 0.  1.
</event>
<event>
 5    1  0.6622940E-004  0.9118800E+02  0.7818608E-02  0.1130116E+00
         25   -1    0    0    0    0  0.00000000000E+00  0.00000000000E+00  0.99999998245E-14  0.12500000000E+03  0.12500000000E+03 0.  0.
        -11    1    3    3    0    0  0.29718468499E+01  0.35249993186E+02  0.29789790991E+02  0.46247438209E+02  0.51100000000E-03 0. -1.
         23    2    1    0    0    0  0.13467332552E+02 -0.13185692266E+02  0.21350496830E+02  0.96520617256E+02  0.92223393529E+02 0.  0.
         11    1    3    3    0    0  0.10495485702E+02 -0.48435685452E+02 -0.84392941615E+01  0.50273179048E+02  0.51100000000E-03 0.  1.
         22    1    1    0    0    0 -0.13467332552E+02  0.13185692266E+02 -0.21350496830E+02  0.28479382744E+02  0.00000000000E+00 0.  1.
</event>
<event>
 5    1  0.6622940E-004  0.9118800E+02  0.7818608E-02  0.1130116E+00
         25   -1    0    0    0    0  0.00000000000E+00  0.00000000000E+00  0.99999998245E-14  0.12500000000E+03  0.12500000000E+03 0.  0.
        -11    1    3    3    0    0  0.11764433543E+02 -0.19848951645E+02 -0.56243098770E+02  0.60792013764E+02  0.51100000000E-03 0.  1.
         23    2    1    0    0    0  0.13793862655E+02 -0.31465302041E+01 -0.25529325941E+02  0.95812369362E+02  0.91258382302E+02 0.  0.
         11    1    3    3    0    0  0.20294291124E+01  0.16702421441E+02  0.30713772829E+02  0.35020355597E+02  0.51100000000E-03 0. -1.
         22    1    1    0    0    0 -0.13793862655E+02  0.31465302041E+01  0.25529325941E+02  0.29187630638E+02  0.00000000000E+00 0.  1.
</event>
<event>
 5    1  0.6622940E-004  0.9118800E+02  0.7818608E-02  0.1130116E+00
         25   -1    0    0    0    0  0.00000000000E+00  0.00000000000E+00  0.99999998245E-14  0.12500000000E+03  0.12500000000E+03 0.  0.
        -11    1    3    3    0    0  0.28206556110E+02 -0.51013694742E+02 -0.16471129665E+02  0.60574788250E+02  0.51100000000E-03 0.  1.
         23    2    1    0    0    0  0.28116315335E+02 -0.36855460081E+02 -0.58450908744E+01  0.78277230250E+02  0.62803722521E+02 0.  0.
         11    1    3    3    0    0 -0.90240775019E-01  0.14158234661E+02  0.10626038791E+02  0.17702442000E+02  0.51100000000E-03 0. -1.
         22    1    1    0    0    0 -0.28116315335E+02  0.36855460081E+02  0.58450908744E+01  0.46722769750E+02  0.00000000000E+00 0.  1.
</event>
<event>
 5    1  0.6622940E-004  0.9118800E+02  0.7818608E-02  0.1130116E+00
         25   -1    0    0    0    0  0.00000000000E+00  0.00000000000E+00  0.99999998245E-14  0.12500000000E+03  0.12500000000E+03 0.  0.
        -11    1    3    3    0    0 -0.27667138697E+02 -0.29104416566E+02 -0.39126211284E+02  0.56066014992E+02  0.51100000000E-03 0.  1.
         23    2    1    0    0    0  0.36313230320E+01 -0.24910723646E+02 -0.17641464729E+02  0.94259929452E+02  0.89106578674E+02 0.  0.
         11    1    3    3    0    0  0.31298461730E+02  0.41936929206E+01  0.21484746556E+02  0.38193914460E+02  0.51100000000E-03 0. -1.
         22    1    1    0    0    0 -0.36313230320E+01  0.24910723646E+02  0.17641464729E+02  0.30740070548E+02  0.00000000000E+00 0.  1.
</event>
<event>
 5    1  0.6622940E-004  0.9118800E+02  0.7818608E-02  0.1130116E+00
         25   -1    0    0    0    0  0.00000000000E+00  0.00000000000E+00  0.99999998245E-14  0.12500000000E+03  0.12500000000E+03 0.  0.
        -11    1    3    3    0    0  0.35808575658E+02  0.91340650724E+01 -0.11719851887E+02  0.38769061943E+02  0.51100000000E-03 0. -1.
         23    2    1    0    0    0 -0.19472892139E+02  0.22625030277E-02 -0.21875872104E+02  0.95712676570E+02  0.91121727061E+02 0.  0.
         11    1    3    3    0    0 -0.55281467797E+02 -0.91318025694E+01 -0.10156020216E+02  0.56943614628E+02  0.51100000000E-03 0.  1.
         22    1    1    0    0    0  0.19472892139E+02 -0.22625030277E-02  0.21875872104E+02  0.29287323430E+02  0.00000000000E+00 0.  1.
</event>
<event>
 5    1  0.6622940E-004  0.9118800E+02  0.7818608E-02  0.1130116E+00
         25   -1    0    0    0    0  0.00000000000E+00  0.00000000000E+00  0.99999998245E-14  0.12500000000E+03  0.12500000000E+03 0.  0.
        -11    1    3    3    0    0  0.27139106326E+02  0.28613495392E+02  0.17787342710E+02  0.43262602460E+02  0.51100000000E-03 0. -1.
         23    2    1    0    0    0 -0.27695605680E+01 -0.15304538270E+02  0.23622631585E+02  0.96717000152E+02  0.92489188763E+02 0.  0.
         11    1    3    3    0    0 -0.29908666894E+02 -0.43918033661E+02  0.58352888755E+01  0.53454397692E+02  0.51100000000E-03 0.  1.
         22    1    1    0    0    0  0.27695605680E+01  0.15304538270E+02 -0.23622631585E+02  0.28282999848E+02  0.00000000000E+00 0. -1.
</event>
<event>
 5    1  0.6622940E-004  0.9118800E+02  0.7818608E-02  0.1130116E+00
         25   -1    0    0    0    0  0.00000000000E+00  0.00000000000E+00  0.99999998245E-14  0.12500000000E+03  0.12500000000E+03 0.  0.
        -11    1    3    3    0    0 -0.32516164469E+02  0.36535491523E+02 -0.95870548734E+01  0.49840292074E+02  0.51100000000E-03 0. -1.
         23    2    1    0    0    0  0.10932727158E+02  0.22299593224E+02 -0.15164557898E+02  0.95900855729E+02  0.91379504990E+02 0.  0.
         11    1    3    3    0    0  0.43448891627E+02 -0.14235898299E+02 -0.55775030243E+01  0.46060563655E+02  0.51100000000E-03 0.  1.
         22    1    1    0    0    0 -0.10932727158E+02 -0.22299593224E+02  0.15164557898E+02  0.29099144271E+02  0.00000000000E+00 0. -1.
</event>
<event>
 5    1  0.6622940E-004  0.9118800E+02  0.7818608E-02  0.1130116E+00
         25   -1    0    0    0    0  0.00000000000E+00  0.00000000000E+00  0.99999998245E-14  0.12500000000E+03  0.12500000000E+03 0.  0.
        -11    1    3    3    0    0  0.20933044484E+02  0.91316627842E+01 -0.24961186398E+02  0.33832535276E+02  0.51100000000E-03 0. -1.
         23    2    1    0    0    0 -0.68622837376E+01 -0.36427438670E+01  0.28518076681E+02  0.95442577606E+02  0.90750451247E+02 0.  0.
         11    1    3    3    0    0 -0.27795328222E+02 -0.12774406651E+02  0.53479263079E+02  0.61610042330E+02  0.51100000000E-03 0.  1.
         22    1    1    0    0    0  0.68622837376E+01  0.36427438670E+01 -0.28518076681E+02  0.29557422394E+02  0.00000000000E+00 0.  1.
</event>
<event>
 5    1  0.6622940E-004  0.9118800E+02  0.7818608E-02  0.1130116E+00
         25   -1    0    0    0    0  0.00000000000E+00  0.00000000000E+00  0.99999998245E-14  0.12500000000E+03  0.12500000000E+03 0.  0.
        -11    1    3    3    0    0 -0.37430043335E+02 -0.40439671979E+02 -0.22386566004E+02  0.59477168321E+02  0.51100000000E-03 0. -1.
         23    2    1    0    0    0 -0.29715816568E+01 -0.20998356507E+02 -0.12948990346E+02  0.10015170781E+03  0.97020239918E+02 0.  0.
         11    1    3    3    0    0  0.34458461678E+02  0.19441315471E+02  0.94375756577E+01  0.40674539494E+02  0.51100000000E-03 0.  1.
         22    1    1    0    0    0  0.29715816568E+01  0.20998356507E+02  0.12948990346E+02  0.24848292185E+02  0.00000000000E+00 0. -1.
</event>
<event>
 5    1  0.6622940E-004  0.9118800E+02  0.7818608E-02  0.1130116E+00
         25   -1    0    0    0    0  0.00000000000E+00  0.00000000000E+00  0.99999998245E-14  0.12500000000E+03  0.12500000000E+03 0.  0.
        -11    1    3    3    0    0 -0.66045428228E+01 -0.29202957323E+02 -0.14361075241E+02  0.33206523225E+02  0.51100000000E-03 0.  1.
         23    2    1    0    0    0  0.15230666252E+02  0.23032334081E+02  0.11043890008E+02  0.95260647044E+02  0.90499512491E+02 0.  0.
         11    1    3    3    0    0  0.21835209075E+02  0.52235291404E+02  0.25404965249E+02  0.62054123820E+02  0.51100000000E-03 0. -1.
         22    1    1    0    0    0 -0.15230666252E+02 -0.23032334081E+02 -0.11043890008E+02  0.29739352956E+02  0.00000000000E+00 0. -1.
</event>
<event>
 5    1  0.6622940E-004  0.9118800E+02  0.7818608E-02  0.1130116E+00
         25   -1    0    0    0    0  0.00000000000E+00  0.00000000000E+00  0.99999998245E-14  0.12500000000E+03  0.12500000000E+03 0.  0.
        -11    1    3    3    0    0 -0.40560460463E+02 -0.21278596992E+01  0.25915246011E+02  0.48179650434E+02  0.51100000000E-03 0.  1.
         23    2    1    0    0    0 -0.52269706644E+01 -0.28022986900E+02  0.98077908890E+01  0.94853660600E+02  0.89935616693E+02 0.  0.
         11    1    3    3    0    0  0.35333489799E+02 -0.25895127201E+02 -0.16107455122E+02  0.46674010165E+02  0.51100000000E-03 0. -1.
         22    1    1    0    0    0  0.52269706644E+01  0.28022986900E+02 -0.98077908890E+01  0.30146339400E+02  0.00000000000E+00 0.  1.
</event>
<event>
 5    1  0.6622940E-004  0.9118800E+02  0.7818608E-02  0.1130116E+00
         25   -1    0    0    0    0  0.00000000000E+00  0.00000000000E+00  0.99999998245E-14  0.12500000000E+03  0.12500000000E+03 0.  0.
        -11    1    3    3    0    0 -0.98569291157E+01  0.29943269023E+02 -0.17904418159E+02  0.36253642593E+02  0.51100000000E-03 0. -1.
         23    2    1    0    0    0  0.18608993300E+02 -0.20387942297E+02  0.17885558680E+01  0.97338442653E+02  0.93325294874E+02 0.  0.
         11    1    3    3    0    0  0.28465922416E+02 -0.50331211321E+02  0.19692974027E+02  0.61084800060E+02  0.51100000000E-03 0.  1.
         22    1    1    0    0    0 -0.18608993300E+02  0.20387942297E+02 -0.17885558680E+01  0.27661557347E+02  0.00000000000E+00 0.  1.
</event>
<event>
 5    1  0.6622940E-004  0.9118800E+02  0.7818608E-02  0.1130116E+00
         25   -1    0    0    0    0  0.00000000000E+00  0.00000000000E+00  0.99999998245E-14  0.12500000000E+03  0.12500000000E+03 0.  0.
        -11    1    3    3    0    0  0.17823299947E+02  0.37914355477E+02 -0.51981338613E+01  0.42215980010E+02  0.51100000000E-03 0.  1.
         23    2    1    0    0    0 -0.12965178718E+02 -0.26885529768E+01 -0.24859803473E+02  0.96833814511E+02  0.92646929942E+02 0.  0.
         11    1    3    3    0    0 -0.30788478666E+02 -0.40602908454E+02 -0.19661669611E+02  0.54617834501E+02  0.51100000000E-03 0. -1.
         22    1    1    0    0    0  0.12965178718E+02  0.26885529768E+01  0.24859803473E+02  0.28166185489E+02  0.00000000000E+00 0.  1.
</event>
<event>
 5    1  0.6622940E-004  0.9118800E+02  0.7818608E-02  0.1130116E+00
         25   -1    0    0    0    0  0.00000000000E+00  0.00000000000E+00  0.99999998245E-14  0.12500000000E+03  0.12500000000E+03 0.  0.
        -11    1    3    3    0    0 -0.13897683772E+02  0.23869403727E+01 -0.41269955771E+02  0.43612525130E+02  0.51100000000E-03 0. -1.
         23    2    1    0    0    0  0.26840568680E+02  0.70267801890E+01 -0.88666189868E+01  0.95872543895E+02  0.91340768410E+02 0.  0.
         11    1    3    3    0    0  0.40738252452E+02  0.46398398164E+01  0.32403336784E+02  0.52260018766E+02  0.51100000000E-03 0.  1.
         22    1    1    0    0    0 -0.26840568680E+02 -0.70267801890E+01  0.88666189868E+01  0.29127456105E+02  0.00000000000E+00 0.  1.
</event>
<event>
 5    1  0.6622940E-004  0.9118800E+02  0.7818608E-02  0.1130116E+00
         25   -1    0    0    0    0  0.00000000000E+00  0.00000000000E+00  0.99999998245E-14  0.12500000000E+03  0.12500000000E+03 0.  0.
        -11    1    3    3    0    0 -0.30592848693E+02 -0.11620761331E+02 -0.27500605450E+02  0.42746318970E+02  0.51100000000E-03 0.  1.
         23    2    1    0    0    0  0.13318288947E+02 -0.26593655090E+02 -0.32925562938E+01  0.95076092527E+02  0.90244241544E+02 0.  0.
         11    1    3    3    0    0  0.43911137640E+02 -0.14972893759E+02  0.24208049157E+02  0.52329773557E+02  0.51100000000E-03 0. -1.
         22    1    1    0    0    0 -0.13318288947E+02  0.26593655090E+02  0.32925562938E+01  0.29923907473E+02  0.00000000000E+00 0. -1.
</event>
<event>
 5    1  0.6622940E-004  0.9118800E+02  0.7818608E-02  0.1130116E+00
         25   -1    0    0    0    0  0.00000000000E+00  0.00000000000E+00  0.99999998245E-14  0.12500000000E+03  0.12500000000E+03 0.  0.
        -11    1    3    3    0    0  0.27696901846E+02 -0.76818137691E+01 -0.37914320141E+02  0.47577560957E+02  0.51100000000E-03 0. -1.
         23    2    1    0    0    0  0.15292459659E+02  0.25557264665E+02 -0.75516626186E+01  0.94274429088E+02  0.89126916652E+02 0.  0.
         11    1    3    3    0    0 -0.12404442187E+02  0.33239078434E+02  0.30362657522E+02  0.46696868131E+02  0.51100000000E-03 0.  1.
         22    1    1    0    0    0 -0.15292459659E+02 -0.25557264665E+02  0.75516626186E+01  0.30725570912E+02  0.00000000000E+00 0. -1.
</event>
<event>
 5    1  0.6622940E-004  0.9118800E+02  0.7818608E-02  0.1130116E+00
         25   -1    0    0    0    0  0.00000000000E+00  0.00000000000E+00  0.99999998245E-14  0.12500000000E+03  0.12500000000E+03 0.  0.
        -11    1    3    3    0    0  0.13838457906E+02  0.28144725708E+02  0.27816457845E+02  0.41921162075E+02  0.51100000000E-03 0.  1.
         23    2    1    0    0    0  0.18550893204E+02 -0.21486588421E+02  0.87817749066E+01  0.95285883975E+02  0.90534363607E+02 0.  0.
         11    1    3    3    0    0  0.47124352981E+01 -0.49631314129E+02 -0.19034682939E+02  0.53364721900E+02  0.51100000000E-03 0. -1.
         22    1    1    0    0    0 -0.18550893204E+02  0.21486588421E+02 -0.87817749066E+01  0.29714116025E+02  0.00000000000E+00 0. -1.
</event>
<event>
 5    1  0.6622940E-004  0.9118800E+02  0.7818608E-02  0.1130116E+00
         25   -1    0    0    0    0  0.00000000000E+00  0.00000000000E+00  0.99999998245E-14  0.12500000000E+03  0.12500000000E+03 0.  0.
        -11    1    3    3    0    0  0.45585058629E+02 -0.17531547363E+02 -0.14880634866E+02  0.51056694149E+02  0.51100000000E-03 0.  1.
         23    2    1    0    0    0  0.25192234058E+02  0.15677607623E+01  0.17845667868E+02  0.94087633667E+02  0.88864550957E+02 0.  0.
         11    1    3    3    0    0 -0.20392824571E+02  0.19099308126E+02  0.32726302734E+02  0.43030939518E+02  0.51100000000E-03 0. -1.
         22    1    1    0    0    0 -0.25192234058E+02 -0.15677607623E+01 -0.17845667868E+02  0.30912366333E+02  0.00000000000E+00 0.  1.
</event>
<event>
 5    1  0.6622940E-004  0.9118800E+02  0.7818608E-02  0.1130116E+00
         25   -1    0    0    0    0  0.00000000000E+00  0.00000000000E+00  0.99999998245E-14  0.12500000000E+03  0.12500000000E+03 0.  0.
        -11    1    3    3    0    0 -0.48445614874E+01 -0.15704468543E+01 -0.62061434305E+02  0.62270038603E+02  0.51100000000E-03 0. -1.
         23    2    1    0    0    0 -0.48487342482E+01 -0.34597216054E+01 -0.28520922987E+02  0.95863717714E+02  0.91328688968E+02 0.  0.
         11    1    3    3    0    0 -0.41727608840E-02 -0.18892747511E+01  0.33540511318E+02  0.33593679112E+02  0.51100000000E-03 0.  1.
         22    1    1    0    0    0  0.48487342482E+01  0.34597216054E+01  0.28520922987E+02  0.29136282286E+02  0.00000000000E+00 0. -1.
</event>
<event>
 5    1  0.6622940E-004  0.9118800E+02  0.7818608E-02  0.1130116E+00
         25   -1    0    0    0    0  0.00000000000E+00  0.00000000000E+00  0.99999998245E-14  0.12500000000E+03  0.12500000000E+03 0.  0.
        -11    1    3    3    0    0  0.20496312403E+02 -0.20757020272E+02  0.16278046547E+02  0.33405501229E+02  0.51100000000E-03 0.  1.
         23    2    1    0    0    0 -0.27718582949E+02  0.11496469160E+02 -0.37155308449E+01  0.94762708235E+02  0.89809114563E+02 0.  0.
         11    1    3    3    0    0 -0.48214895352E+02  0.32253489432E+02 -0.19993577392E+02  0.61357207006E+02  0.51100000000E-03 0. -1.
         22    1    1    0    0    0  0.27718582949E+02 -0.11496469160E+02  0.37155308449E+01  0.30237291765E+02  0.00000000000E+00 0. -1.
</event>
<event>
 5    1  0.6622940E-004  0.9118800E+02  0.7818608E-02  0.1130116E+00
         25   -1    0    0    0    0  0.00000000000E+00  0.00000000000E+00  0.99999998245E-14  0.12500000000E+03  0.12500000000E+03 0.  0.
        -11    1    3    3    0    0 -0.28189000282E+01  0.47528573837E+02  0.26697160924E+01  0.47686884074E+02  0.51100000000E-03 0. -1.
         23    2    1    0    0    0 -0.14593606382E+02  0.80393531015E+01  0.25305450163E+02  0.94701974430E+02  0.89724542949E+02 0.  0.
         11    1    3    3    0    0 -0.11774706353E+02 -0.39489220736E+02  0.22635734070E+02  0.47015090356E+02  0.51100000000E-03 0.  1.
         22    1    1    0    0    0  0.14593606382E+02 -0.80393531015E+01 -0.25305450163E+02  0.30298025570E+02  0.00000000000E+00 0.  1.
</event>
<event>
 5    1  0.6622940E-004  0.9118800E+02  0.7818608E-02  0.1130116E+00
         25   -1    0    0    0    0  0.00000000000E+00  0.00000000000E+00  0.99999998245E-14  0.12500000000E+03  0.12500000000E+03 0.  0.
        -11    1    3    3    0    0  0.58964507454E+02 -0.11422848583E+02  0.84072855826E+01  0.60646327672E+02  0.51100000000E-03 0.  1.
         23    2    1    0    0    0  0.28793852077E+02  0.52934453270E+01  0.49021415665E+01  0.95316040143E+02  0.90575990393E+02 0.  0.
         11    1    3    3    0    0 -0.30170655377E+02  0.16716293910E+02 -0.35051440161E+01  0.34669712470E+02  0.51100000000E-03 0. -1.
         22    1    1    0    0    0 -0.28793852077E+02 -0.52934453270E+01 -0.49021415665E+01  0.29683959857E+02  0.00000000000E+00 0.  1.
</event>
<event>
 5    1  0.6622940E-004  0.9118800E+02  0.7818608E-02  0.1130116E+00
         25   -1    0    0    0    0  0.00000000000E+00  0.00000000000E+00  0.99999998245E-14  0.12500000000E+03  0.12500000000E+03 0.  0.
        -11    1    3    3    0    0 -0.25931475658E+02  0.25768994668E+02  0.48585872966E+02  0.60803532530E+02  0.51100000000E-03 0.  1.
         23    2    1    0    0    0 -0.10179265870E+02  0.20490042765E+02  0.16985020686E+02  0.96505259540E+02  0.92202575263E+02 0.  0.
         11    1    3    3    0    0  0.15752209788E+02 -0.52789519027E+01 -0.31600852280E+02  0.35701727010E+02  0.51100000000E-03 0. -1.
         22    1    1    0    0    0  0.10179265870E+02 -0.20490042765E+02 -0.16985020686E+02  0.28494740460E+02  0.00000000000E+00 0.  1.
</event>
<event>
 5    1  0.6622940E-004  0.9118800E+02  0.7818608E-02  0.1130116E+00
         25   -1    0    0    0    0  0.00000000000E+00  0.00000000000E+00  0.99999998245E-14  0.12500000000E+03  0.12500000000E+03 0.  0.
        -11    1    3    3    0    0  0.41907719787E+00 -0.24082244085E+02 -0.22890067662E+02  0.33227779097E+02  0.51100000000E-03 0. -1.
         23    2    1    0    0    0  0.54819649153E+01  0.20982882434E+02  0.19891767144E+02  0.95571855398E+02  0.90928344588E+02 0.  0.
         11    1    3    3    0    0  0.50628877174E+01  0.45065126520E+02  0.42781834806E+02  0.62344076302E+02  0.51100000000E-03 0.  1.
         22    1    1    0    0    0 -0.54819649153E+01 -0.20982882434E+02 -0.19891767144E+02  0.29428144602E+02  0.00000000000E+00 0.  1.
</event>
<event>
 5    1  0.6622940E-004  0.9118800E+02  0.7818608E-02  0.1130116E+00
         25   -1    0    0    0    0  0.00000000000E+00  0.00000000000E+00  0.99999998245E-14  0.12500000000E+03  0.12500000000E+03 0.  0.
        -11    1    3    3    0    0 -0.49080902315E+02  0.13492294227E+02 -0.35702085026E+02  0.62174077002E+02  0.51100000000E-03 0. -1.
         23    2    1    0    0    0 -0.20633566556E+02  0.54995879361E+01 -0.20476586985E+02  0.95414866050E+02  0.90712273219E+02 0.  0.
         11    1    3    3    0    0  0.28447335760E+02 -0.79927062911E+01  0.15225498041E+02  0.33240789048E+02  0.51100000000E-03 0.  1.
         22    1    1    0    0    0  0.20633566556E+02 -0.54995879361E+01  0.20476586985E+02  0.29585133950E+02  0.00000000000E+00 0. -1.
</event>
<event>
 5    1  0.6622940E-004  0.9118800E+02  0.7818608E-02  0.1130116E+00
         25   -1    0    0    0    0  0.00000000000E+00  0.00000000000E+00  0.99999998245E-14  0.12500000000E+03  0.12500000000E+03 0.  0.
        -11    1    3    3    0    0  0.48554089861E+01  0.25012922384E+02 -0.19265322202E+02  0.31943292292E+02  0.51100000000E-03 0.  1.
         23    2    1    0    0    0 -0.12251496329E+02 -0.14352465883E+02  0.25050374159E+02  0.93637383962E+02  0.88228940777E+02 0.  0.
         11    1    3    3    0    0 -0.17106905315E+02 -0.39365388267E+02  0.44315696361E+02  0.61694091671E+02  0.51100000000E-03 0. -1.
         22    1    1    0    0    0  0.12251496329E+02  0.14352465883E+02 -0.25050374159E+02  0.31362616038E+02  0.00000000000E+00 0. -1.
</event>
<event>
 5    1  0.6622940E-004  0.9118800E+02  0.7818608E-02  0.1130116E+00
         25   -1    0    0    0    0  0.00000000000E+00  0.00000000000E+00  0.99999998245E-14  0.12500000000E+03  0.12500000000E+03 0.  0.
        -11    1    3    3    0    0 -0.36348652457E+02  0.48404729078E+02  0.15645062595E+01  0.60553199855E+02  0.51100000000E-03 0. -1.
         23    2    1    0    0    0 -0.25785352655E+02  0.17318694956E+02  0.49013406745E+01  0.93554098090E+02  0.88110864952E+02 0.  0.
         11    1    3    3    0    0  0.10563299802E+02 -0.31086034122E+02  0.33368344150E+01  0.33000898235E+02  0.51100000000E-03 0.  1.
         22    1    1    0    0    0  0.25785352655E+02 -0.17318694956E+02 -0.49013406745E+01  0.31445901910E+02  0.00000000000E+00 0. -1.
</event>
<event>
 5    1  0.6622940E-004  0.9118800E+02  0.7818608E-02  0.1130116E+00
         25   -1    0    0    0    0  0.00000000000E+00  0.00000000000E+00  0.99999998245E-14  0.12500000000E+03  0.12500000000E+03 0.  0.
        -11    1    3    3    0    0 -0.80613474420E+01  0.39568358956E+02  0.25620181793E+02  0.47822945000E+02  0.51100000000E-03 0.  1.
         23    2    1    0    0    0  0.16064736616E+02 -0.23815205073E+01  0.23720082814E+02  0.96253004832E+02  0.91859954322E+02 0.  0.
         11    1    3    3    0    0  0.24126084058E+02 -0.41949879463E+02 -0.19000989799E+01  0.48430059833E+02  0.51100000000E-03 0. -1.
         22    1    1    0    0    0 -0.16064736616E+02  0.23815205073E+01 -0.23720082814E+02  0.28746995168E+02  0.00000000000E+00 0. -1.
</event>
<event>
 5    1  0.6622940E-004  0.9118800E+02  0.7818608E-02  0.1130116E+00
         25   -1    0    0    0    0  0.00000000000E+00  0.00000000000E+00  0.99999998245E-14  0.12500000000E+03  0.12500000000E+03 0.  0.
        -11    1    3    3    0    0 -0.27732762741E+02 -0.30561747621E+02 -0.14628945324E+02  0.43785072667E+02  0.51100000000E-03 0. -1.
         23    2    1    0    0    0 -0.25093352771E+02  0.17999311778E+02 -0.18775059163E+01  0.94061729101E+02  0.88828105210E+02 0.  0.
         11    1    3    3    0    0  0.26394099704E+01  0.48561059399E+02  0.12751439408E+02  0.50276656434E+02  0.51100000000E-03 0.  1.
         22    1    1    0    0    0  0.25093352771E+02 -0.17999311778E+02  0.18775059163E+01  0.30938270899E+02  0.00000000000E+00 0.  1.
</event>
<event>
 5    1  0.6622940E-004  0.9118800E+02  0.7818608E-02  0.1130116E+00
         25   -1    0    0    0    0  0.00000000000E+00  0.00000000000E+00  0.99999998245E-14  0.12500000000E+03  0.12500000000E+03 0.  0.
        -11    1    3    3    0    0 -0.49558935822E+01 -0.14472136384E+02  0.32028356125E+02  0.35493932003E+02  0.51100000000E-03 0. -1.
         23    2    1    0    0    0  0.19431165086E+02 -0.22709623298E+01 -0.21722687585E+02  0.95766413111E+02  0.91195412592E+02 0.  0.
         11    1    3    3    0    0  0.24387058668E+02  0.12201174054E+02 -0.53751043710E+02  0.60272481108E+02  0.51100000000E-03 0.  1.
         22    1    1    0    0    0 -0.19431165086E+02  0.22709623298E+01  0.21722687585E+02  0.29233586889E+02  0.00000000000E+00 0.  1.
</event>
<event>
 5    1  0.6622940E-004  0.9118800E+02  0.7818608E-02  0.1130116E+00
         25   -1    0    0    0    0  0.00000000000E+00  0.00000000000E+00  0.99999998245E-14  0.12500000000E+03  0.12500000000E+03 0.  0.
        -11    1    3    3    0    0  0.48609029764E+02  0.23865129231E+02 -0.29977044839E+02  0.61895116006E+02  0.51100000000E-03 0.  1.
         23    2    1    0    0    0  0.24408513616E+02  0.53280353459E+01 -0.12013827163E+02  0.97278247878E+02  0.93244635071E+02 0.  0.
         11    1    3    3    0    0 -0.24200516148E+02 -0.18537093885E+02  0.17963217676E+02  0.35383131872E+02  0.51100000000E-03 0. -1.
         22    1    1    0    0    0 -0.24408513616E+02 -0.53280353459E+01  0.12013827163E+02  0.27721752122E+02  0.00000000000E+00 0.  1.
</event>
<event>
 5    1  0.6622940E-004  0.9118800E+02  0.7818608E-02  0.1130116E+00
         25   -1    0    0    0    0  0.00000000000E+00  0.00000000000E+00  0.99999998245E-14  0.12500000000E+03  0.12500000000E+03 0.  0.
        -11    1    3    3    0    0 -0.19147103776E+02  0.23229595043E+02 -0.44530548733E+02  0.53751236634E+02  0.51100000000E-03 0.  1.
         23    2    1    0    0    0  0.94148052105E+01  0.23810966326E+02 -0.13051057258E+02  0.96260988707E+02  0.91870817874E+02 0.  0.
         11    1    3    3    0    0  0.28561908987E+02  0.58137128280E+00  0.31479491475E+02  0.42509752074E+02  0.51100000000E-03 0. -1.
         22    1    1    0    0    0 -0.94148052105E+01 -0.23810966326E+02  0.13051057258E+02  0.28739011293E+02  0.00000000000E+00 0.  1.
</event>
<event>
 5    1  0.6622940E-004  0.9118800E+02  0.7818608E-02  0.1130116E+00
         25   -1    0    0    0    0  0.00000000000E+00  0.00000000000E+00  0.99999998245E-14  0.12500000000E+03  0.12500000000E+03 0.  0.
        -11    1    3    3    0    0 -0.53934153841E+02 -0.79026385128E+01  0.10050775561E+02  0.55428898020E+02  0.51100000000E-03 0. -1.
         23    2    1    0    0    0 -0.18746017020E+02 -0.23178377932E+02 -0.39731013533E+00  0.95187113306E+02  0.90397888949E+02 0.  0.
         11    1    3    3    0    0  0.35188136821E+02 -0.15275739420E+02 -0.10448085696E+02  0.39758215286E+02  0.51100000000E-03 0.  1.
         22    1    1    0    0    0  0.18746017020E+02  0.23178377932E+02  0.39731013533E+00  0.29812886694E+02  0.00000000000E+00 0. -1.
</event>
<event>
 5    1  0.6622940E-004  0.9118800E+02  0.7818608E-02  0.1130116E+00
         25   -1    0    0    0    0  0.00000000000E+00  0.00000000000E+00  0.99999998245E-14  0.12500000000E+03  0.12500000000E+03 0.  0.
        -11    1    3    3    0    0  0.18636508474E+02 -0.45298543896E+02  0.23199714880E+02  0.54198748122E+02  0.51100000000E-03 0.  1.
         23    2    1    0    0    0 -0.24684758570E+01 -0.10428390448E+02  0.27789279402E+02  0.95215964846E+02  0.90437775357E+02 0.  0.
         11    1    3    3    0    0 -0.21104984331E+02  0.34870153447E+02  0.45895645213E+01  0.41017216724E+02  0.51100000000E-03 0. -1.
         22    1    1    0    0    0  0.24684758570E+01  0.10428390448E+02 -0.27789279402E+02  0.29784035154E+02  0.00000000000E+00 0. -1.
</event>
<event>
 5    1  0.6622940E-004  0.9118800E+02  0.7818608E-02  0.1130116E+00
         25   -1    0    0    0    0  0.00000000000E+00  0.00000000000E+00  0.99999998245E-14  0.12500000000E+03  0.12500000000E+03 0.  0.
        -11    1    3    3    0    0 -0.48951798056E+02 -0.12323602931E+02 -0.13834180222E+02  0.52340560417E+02  0.51100000000E-03 0. -1.
         23    2    1    0    0    0 -0.12035003681E+02 -0.22849093895E+02  0.97517308457E+01  0.97395314530E+02  0.93401438064E+02 0.  0.
         11    1    3    3    0    0  0.36916794375E+02 -0.10525490964E+02  0.23585911068E+02  0.45054754112E+02  0.51100000000E-03 0.  1.
         22    1    1    0    0    0  0.12035003681E+02  0.22849093895E+02 -0.97517308457E+01  0.27604685470E+02  0.00000000000E+00 0. -1.
</event>
<event>
 5    1  0.6622940E-004  0.9118800E+02  0.7818608E-02  0.1130116E+00
         25   -1    0    0    0    0  0.00000000000E+00  0.00000000000E+00  0.99999998245E-14  0.12500000000E+03  0.12500000000E+03 0.  0.
        -11    1    3    3    0    0 -0.44795072077E+02  0.31696797258E+02  0.25394139132E+02  0.60466087531E+02  0.51100000000E-03 0. -1.
         23    2    1    0    0    0 -0.19302906936E+02  0.23145933210E+02  0.44800982245E+01  0.94530216272E+02  0.89484937659E+02 0.  0.
         11    1    3    3    0    0  0.25492165140E+02 -0.85508640481E+01 -0.20914040908E+02  0.34064128741E+02  0.51100000000E-03 0.  1.
         22    1    1    0    0    0  0.19302906936E+02 -0.23145933210E+02 -0.44800982245E+01  0.30469783728E+02  0.00000000000E+00 0. -1.
</event>
<event>
 5    1  0.6622940E-004  0.9118800E+02  0.7818608E-02  0.1130116E+00
         25   -1    0    0    0    0  0.00000000000E+00  0.00000000000E+00  0.99999998245E-14  0.12500000000E+03  0.12500000000E+03 0.  0.
        -11    1    3    3    0    0  0.17505647945E+02 -0.55154458295E+02 -0.22408207422E+02  0.62053120307E+02  0.51100000000E-03 0. -1.
         23    2    1    0    0    0  0.43131718113E+01 -0.28136478095E+02 -0.77730512096E+01  0.95492625061E+02  0.90819360630E+02 0.  0.
         11    1    3    3    0    0 -0.13192476133E+02  0.27017980199E+02  0.14635156212E+02  0.33439504754E+02  0.51100000000E-03 0.  1.
         22    1    1    0    0    0 -0.43131718113E+01  0.28136478095E+02  0.77730512096E+01  0.29507374939E+02  0.00000000000E+00 0. -1.
</event>
<event>
 5    1  0.6622940E-004  0.9118800E+02  0.7818608E-02  0.1130116E+00
         25   -1    0    0    0    0  0.00000000000E+00  0.00000000000E+00  0.99999998245E-14  0.12500000000E+03  0.12500000000E+03 0.  0.
        -11    1    3    3    0    0 -0.33761375981E+02 -0.97854703589E+01  0.99482797608E+01  0.36531550867E+02  0.51100000000E-03 0. -1.
         23    2    1    0    0    0  0.10604041776E+02  0.27594203568E+02  0.70075309917E+01  0.94619228727E+02  0.89609191392E+02 0.  0.
         11    1    3    3    0    0  0.44365417757E+02  0.37379673926E+02 -0.29407487691E+01  0.58087677860E+02  0.51100000000E-03 0.  1.
         22    1    1    0    0    0 -0.10604041776E+02 -0.27594203568E+02 -0.70075309917E+01  0.30380771273E+02  0.00000000000E+00 0.  1.
</event>
<event>
 5    1  0.6622940E-004  0.9118800E+02  0.7818608E-02  0.1130116E+00
         25   -1    0    0    0    0  0.00000000000E+00  0.00000000000E+00  0.99999998245E-14  0.12500000000E+03  0.12500000000E+03 0.  0.
        -11    1    3    3    0    0  0.19807015738E+01  0.36729230370E+02 -0.14136176531E+02  0.39405469538E+02  0.51100000000E-03 0.  1.
         23    2    1    0    0    0 -0.18516473378E+02 -0.15221921562E+02  0.83590020866E+01  0.99614185097E+02  0.96325211001E+02 0.  0.
         11    1    3    3    0    0 -0.20497174952E+02 -0.51951151932E+02  0.22495178617E+02  0.60208715560E+02  0.51100000000E-03 0. -1.
         22    1    1    0    0    0  0.18516473378E+02  0.15221921562E+02 -0.83590020866E+01  0.25385814903E+02  0.00000000000E+00 0. -1.
</event>
<event>
 5    1  0.6622940E-004  0.9118800E+02  0.7818608E-02  0.1130116E+00
         25   -1    0    0    0    0  0.00000000000E+00  0.00000000000E+00  0.99999998245E-14  0.12500000000E+03  0.12500000000E+03 0.  0.
        -11    1    3    3    0    0  0.42627372631E+02 -0.14000459069E+02 -0.46527076523E+01  0.45108241380E+02  0.51100000000E-03 0.  1.
         23    2    1    0    0    0  0.34620126279E+02  0.22576592905E+02  0.38029191304E+01  0.83494363218E+02  0.72447158706E+02 0.  0.
         11    1    3    3    0    0 -0.80072463529E+01  0.36577051974E+02  0.84556267828E+01  0.38386121839E+02  0.51100000000E-03 0. -1.
         22    1    1    0    0    0 -0.34620126279E+02 -0.22576592905E+02 -0.38029191304E+01  0.41505636782E+02  0.00000000000E+00 0. -1.
</event>
<event>
 5    1  0.6622940E-004  0.9118800E+02  0.7818608E-02  0.1130116E+00
         25   -1    0    0    0    0  0.00000000000E+00  0.00000000000E+00  0.99999998245E-14  0.12500000000E+03  0.12500000000E+03 0.  0.
        -11    1    3    3    0    0  0.34852432869E+02 -0.37691070386E+02  0.32337030063E+01  0.51437007097E+02  0.51100000000E-03 0. -1.
         23    2    1    0    0    0 -0.76994282802E+01 -0.29048905493E+02  0.49323457430E+00  0.94943995833E+02  0.90061084593E+02 0.  0.
         11    1    3    3    0    0 -0.42551861149E+02  0.86421648932E+01 -0.27404684320E+01  0.43506988735E+02  0.51100000000E-03 0.  1.
         22    1    1    0    0    0  0.76994282802E+01  0.29048905493E+02 -0.49323457430E+00  0.30056004167E+02  0.00000000000E+00 0. -1.
</event>
<event>
 5    1  0.6622940E-004  0.9118800E+02  0.7818608E-02  0.1130116E+00
         25   -1    0    0    0    0  0.00000000000E+00  0.00000000000E+00  0.99999998245E-14  0.12500000000E+03  0.12500000000E+03 0.  0.
        -11    1    3    3    0    0 -0.26965965550E+02 -0.36588671243E+02  0.13843135825E+02  0.47513435690E+02  0.51100000000E-03 0.  1.
         23    2    1    0    0    0  0.26770591150E+01  0.49724728956E+01  0.24664579727E+02  0.99697161714E+02  0.96432828584E+02 0.  0.
         11    1    3    3    0    0  0.29643024665E+02  0.41561144139E+02  0.10821443902E+02  0.52183726024E+02  0.51100000000E-03 0. -1.
         22    1    1    0    0    0 -0.26770591150E+01 -0.49724728956E+01 -0.24664579727E+02  0.25302838286E+02  0.00000000000E+00 0. -1.
</event>
<event>
 5    1  0.6622940E-004  0.9118800E+02  0.7818608E-02  0.1130116E+00
         25   -1    0    0    0    0  0.00000000000E+00  0.00000000000E+00  0.99999998245E-14  0.12500000000E+03  0.12500000000E+03 0.  0.
        -11    1    3    3    0    0 -0.16242389576E+02 -0.40445523087E+02 -0.32120552563E+02  0.54142270493E+02  0.51100000000E-03 0. -1.
         23    2    1    0    0    0 -0.14479662816E+02  0.11571435636E+01 -0.24564174307E+02  0.96462335837E+02  0.92144364772E+02 0.  0.
         11    1    3    3    0    0  0.17627267604E+01  0.41602666651E+02  0.75563782556E+01  0.42320065344E+02  0.51100000000E-03 0.  1.
         22    1    1    0    0    0  0.14479662816E+02 -0.11571435636E+01  0.24564174307E+02  0.28537664163E+02  0.00000000000E+00 0.  1.
</event>
<event>
 5    1  0.6622940E-004  0.9118800E+02  0.7818608E-02  0.1130116E+00
         25   -1    0    0    0    0  0.00000000000E+00  0.00000000000E+00  0.99999998245E-14  0.12500000000E+03  0.12500000000E+03 0.  0.
        -11    1    3    3    0    0  0.19678330095E+02  0.20690066993E+02  0.21721973771E+02  0.35877007850E+02  0.51100000000E-03 0. -1.
         23    2    1    0    0    0 -0.11044266705E+02 -0.20270573077E+02 -0.13717802331E+02  0.98147624673E+02  0.94402892796E+02 0.  0.
         11    1    3    3    0    0 -0.30722596800E+02 -0.40960640070E+02 -0.35439776102E+02  0.62270616823E+02  0.51100000000E-03 0.  1.
         22    1    1    0    0    0  0.11044266705E+02  0.20270573077E+02  0.13717802331E+02  0.26852375327E+02  0.00000000000E+00 0.  1.
</event>
<event>
 5    1  0.6622940E-004  0.9118800E+02  0.7818608E-02  0.1130116E+00
         25   -1    0    0    0    0  0.00000000000E+00  0.00000000000E+00  0.99999998245E-14  0.12500000000E+03  0.12500000000E+03 0.  0.
        -11    1    3    3    0    0 -0.29885158315E+02 -0.33834811262E+00  0.51381097405E+02  0.59441183852E+02  0.51100000000E-03 0.  1.
         23    2    1    0    0    0 -0.11139146688E+02  0.13406822108E+02  0.23499126244E+02  0.95741968587E+02  0.91161900741E+02 0.  0.
         11    1    3    3    0    0  0.18746011627E+02  0.13745170220E+02 -0.27881971161E+02  0.36300784735E+02  0.51100000000E-03 0. -1.
         22    1    1    0    0    0  0.11139146688E+02 -0.13406822108E+02 -0.23499126244E+02  0.29258031413E+02  0.00000000000E+00 0.  1.
</event>
<event>
 5    1  0.6622940E-004  0.9118800E+02  0.7818608E-02  0.1130116E+00
         25   -1    0    0    0    0  0.00000000000E+00  0.00000000000E+00  0.99999998245E-14  0.12500000000E+03  0.12500000000E+03 0.  0.
        -11    1    3    3    0    0 -0.30102384416E+02 -0.13568502751E+02  0.43985252331E+02  0.54999638520E+02  0.51100000000E-03 0.  1.
         23    2    1    0    0    0 -0.14115747568E+01  0.11109906618E+02  0.25566754689E+02  0.97087968299E+02  0.92989204076E+02 0.  0.
         11    1    3    3    0    0  0.28690809660E+02  0.24678409369E+02 -0.18418497642E+02  0.42088329779E+02  0.51100000000E-03 0. -1.
         22    1    1    0    0    0  0.14115747568E+01 -0.11109906618E+02 -0.25566754689E+02  0.27912031701E+02  0.00000000000E+00 0. -1.
</event>
<event>
 5    1  0.6622940E-004  0.9118800E+02  0.7818608E-02  0.1130116E+00
         25   -1    0    0    0    0  0.00000000000E+00  0.00000000000E+00  0.99999998245E-14  0.12500000000E+03  0.12500000000E+03 0.  0.
        -11    1    3    3    0    0 -0.26050511516E+02 -0.27273899588E+02 -0.44242032130E+02  0.58136495906E+02  0.51100000000E-03 0.  1.
         23    2    1    0    0    0 -0.95251117070E+00 -0.24332267717E+02 -0.16950919288E+02  0.95330146706E+02  0.90595456158E+02 0.  0.
         11    1    3    3    0    0  0.25098000345E+02  0.29416318711E+01  0.27291112842E+02  0.37193650800E+02  0.51100000000E-03 0. -1.
         22    1    1    0    0    0  0.95251117070E+00  0.24332267717E+02  0.16950919288E+02  0.29669853294E+02  0.00000000000E+00 0.  1.
</event>
<event>
 5    1  0.6622940E-004  0.9118800E+02  0.7818608E-02  0.1130116E+00
         25   -1    0    0    0    0  0.00000000000E+00  0.00000000000E+00  0.99999998245E-14  0.12500000000E+03  0.12500000000E+03 0.  0.
        -11    1    3    3    0    0 -0.21102956465E+02 -0.22853053210E+02  0.44044727763E+02  0.53921562074E+02  0.51100000000E-03 0. -1.
         23    2    1    0    0    0 -0.14882885073E+02 -0.14398884387E-01  0.44991298622E+02  0.77610998880E+02  0.61463401468E+02 0.  0.
         11    1    3    3    0    0  0.62200713915E+01  0.22838654326E+02  0.94657085952E+00  0.23689436806E+02  0.51100000000E-03 0.  1.
         22    1    1    0    0    0  0.14882885073E+02  0.14398884387E-01 -0.44991298622E+02  0.47389001120E+02  0.00000000000E+00 0. -1.
</event>
<event>
 5    1  0.6622940E-004  0.9118800E+02  0.7818608E-02  0.1130116E+00
         25   -1    0    0    0    0  0.00000000000E+00  0.00000000000E+00  0.99999998245E-14  0.12500000000E+03  0.12500000000E+03 0.  0.
        -11    1    3    3    0    0  0.37686637311E+02 -0.16499660946E+02  0.98845303017E+01  0.42311055088E+02  0.51100000000E-03 0. -1.
         23    2    1    0    0    0 -0.87730577383E+01  0.15502053618E+01  0.28210593790E+02  0.95416097608E+02  0.90713970270E+02 0.  0.
         11    1    3    3    0    0 -0.46459695049E+02  0.18049866308E+02  0.18326063488E+02  0.53105042520E+02  0.51100000000E-03 0.  1.
         22    1    1    0    0    0  0.87730577383E+01 -0.15502053618E+01 -0.28210593790E+02  0.29583902392E+02  0.00000000000E+00 0.  1.
</event>
<event>
 5    1  0.6622940E-004  0.9118800E+02  0.7818608E-02  0.1130116E+00
         25   -1    0    0    0    0  0.00000000000E+00  0.00000000000E+00  0.99999998245E-14  0.12500000000E+03  0.12500000000E+03 0.  0.
        -11    1    3    3    0    0 -0.25515653830E+02  0.32200828346E+02 -0.38165585067E+02  0.56076321387E+02  0.51100000000E-03 0. -1.
         23    2    1    0    0    0 -0.23805562627E+02 -0.13049439938E+01 -0.16099456042E+02  0.96231959127E+02  0.91831311554E+02 0.  0.
         11    1    3    3    0    0  0.17100912033E+01 -0.33505772339E+02  0.22066129024E+02  0.40155637741E+02  0.51100000000E-03 0.  1.
         22    1    1    0    0    0  0.23805562627E+02  0.13049439938E+01  0.16099456042E+02  0.28768040873E+02  0.00000000000E+00 0. -1.
</event>
<event>
 5    1  0.6622940E-004  0.9118800E+02  0.7818608E-02  0.1130116E+00
         25   -1    0    0    0    0  0.00000000000E+00  0.00000000000E+00  0.99999998245E-14  0.12500000000E+03  0.12500000000E+03 0.  0.
        -11    1    3    3    0    0  0.48258192641E+02  0.35985410848E+02 -0.11233141847E+02  0.61237132745E+02  0.51100000000E-03 0.  1.
         23    2    1    0    0    0  0.22174764566E+02  0.71724781109E+01  0.23591364088E-02  0.10169410737E+03  0.98987508515E+02 0.  0.
         11    1    3    3    0    0 -0.26083428075E+02 -0.28812932737E+02  0.11235500983E+02  0.40456974623E+02  0.51100000000E-03 0. -1.
         22    1    1    0    0    0 -0.22174764566E+02 -0.71724781109E+01 -0.23591364088E-02  0.23305892632E+02  0.00000000000E+00 0.  1.
</event>
<event>
 5    1  0.6622940E-004  0.9118800E+02  0.7818608E-02  0.1130116E+00
         25   -1    0    0    0    0  0.00000000000E+00  0.00000000000E+00  0.99999998245E-14  0.12500000000E+03  0.12500000000E+03 0.  0.
        -11    1    3    3    0    0  0.44449463269E+02 -0.12648812124E+02 -0.36839524895E+02  0.59100743039E+02  0.51100000000E-03 0. -1.
         23    2    1    0    0    0  0.22464912904E+02  0.84375951006E+01 -0.13588728472E+02  0.97422493507E+02  0.93437804859E+02 0.  0.
         11    1    3    3    0    0 -0.21984550365E+02  0.21086407225E+02  0.23250796423E+02  0.38321750468E+02  0.51100000000E-03 0.  1.
         22    1    1    0    0    0 -0.22464912904E+02 -0.84375951006E+01  0.13588728472E+02  0.27577506493E+02  0.00000000000E+00 0. -1.
</event>
<event>
 5    1  0.6622940E-004  0.9118800E+02  0.7818608E-02  0.1130116E+00
         25   -1    0    0    0    0  0.00000000000E+00  0.00000000000E+00  0.99999998245E-14  0.12500000000E+03  0.12500000000E+03 0.  0.
        -11    1    3    3    0    0  0.40038551129E+02  0.22161346118E+01 -0.39681840632E+02  0.56414938672E+02  0.51100000000E-03 0.  1.
         23    2    1    0    0    0  0.28961464017E+01  0.11715803061E+02 -0.24574269903E+02  0.97622227143E+02  0.93704625211E+02 0.  0.
         11    1    3    3    0    0 -0.37142404727E+02  0.94996684488E+01  0.15107570730E+02  0.41207288472E+02  0.51100000000E-03 0. -1.
         22    1    1    0    0    0 -0.28961464017E+01 -0.11715803061E+02  0.24574269903E+02  0.27377772857E+02  0.00000000000E+00 0.  1.
</event>
<event>
 5    1  0.6622940E-004  0.9118800E+02  0.7818608E-02  0.1130116E+00
         25   -1    0    0    0    0  0.00000000000E+00  0.00000000000E+00  0.99999998245E-14  0.12500000000E+03  0.12500000000E+03 0.  0.
        -11    1    3    3    0    0  0.76528095269E+01  0.49144847134E+02  0.80816424770E+01  0.50389427848E+02  0.51100000000E-03 0. -1.
         23    2    1    0    0    0  0.16486261988E+02  0.25677495309E+02 -0.20368171124E+02  0.88312222817E+02  0.80330913752E+02 0.  0.
         11    1    3    3    0    0  0.88334524612E+01 -0.23467351825E+02 -0.28449813601E+02  0.37922794969E+02  0.51100000000E-03 0.  1.
         22    1    1    0    0    0 -0.16486261988E+02 -0.25677495309E+02  0.20368171124E+02  0.36687777183E+02  0.00000000000E+00 0. -1.
</event>
<event>
 5    1  0.6622940E-004  0.9118800E+02  0.7818608E-02  0.1130116E+00
         25   -1    0    0    0    0  0.00000000000E+00  0.00000000000E+00  0.99999998245E-14  0.12500000000E+03  0.12500000000E+03 0.  0.
        -11    1    3    3    0    0 -0.13081775441E+02 -0.57507413781E+02  0.15717903941E+02  0.61035137364E+02  0.51100000000E-03 0. -1.
         23    2    1    0    0    0 -0.14064340784E+01 -0.31896008407E+02  0.42120944375E+00  0.93070220381E+02  0.87421708376E+02 0.  0.
         11    1    3    3    0    0  0.11675341362E+02  0.25611405374E+02 -0.15296694497E+02  0.32035083018E+02  0.51100000000E-03 0.  1.
         22    1    1    0    0    0  0.14064340784E+01  0.31896008407E+02 -0.42120944375E+00  0.31929779619E+02  0.00000000000E+00 0. -1.
</event>
<event>
 5    1  0.6622940E-004  0.9118800E+02  0.7818608E-02  0.1130116E+00
         25   -1    0    0    0    0  0.00000000000E+00  0.00000000000E+00  0.99999998245E-14  0.12500000000E+03  0.12500000000E+03 0.  0.
        -11    1    3    3    0    0 -0.16961582788E+02  0.31283414284E+02 -0.60885462241E+01  0.36102876552E+02  0.51100000000E-03 0. -1.
         23    2    1    0    0    0  0.13524977646E+01 -0.19098178448E+02  0.21348845669E+02  0.96323478565E+02  0.91955802651E+02 0.  0.
         11    1    3    3    0    0  0.18314080552E+02 -0.50381592732E+02  0.27437391893E+02  0.60220602013E+02  0.51100000000E-03 0.  1.
         22    1    1    0    0    0 -0.13524977646E+01  0.19098178448E+02 -0.21348845669E+02  0.28676521435E+02  0.00000000000E+00 0.  1.
</event>
<event>
 5    1  0.6622940E-004  0.9118800E+02  0.7818608E-02  0.1130116E+00
         25   -1    0    0    0    0  0.00000000000E+00  0.00000000000E+00  0.99999998245E-14  0.12500000000E+03  0.12500000000E+03 0.  0.
        -11    1    3    3    0    0 -0.42460859438E+02 -0.35946115364E+02  0.19066563843E+02  0.58809707115E+02  0.51100000000E-03 0.  1.
         23    2    1    0    0    0 -0.28433066228E+02 -0.15723093906E+02 -0.36524194386E+01  0.92304509411E+02  0.86319912840E+02 0.  0.
         11    1    3    3    0    0  0.14027793210E+02  0.20223021457E+02 -0.22718983282E+02  0.33494802296E+02  0.51100000000E-03 0. -1.
         22    1    1    0    0    0  0.28433066228E+02  0.15723093906E+02  0.36524194386E+01  0.32695490589E+02  0.00000000000E+00 0.  1.
</event>
<event>
 5    1  0.6622940E-004  0.9118800E+02  0.7818608E-02  0.1130116E+00
         25   -1    0    0    0    0  0.00000000000E+00  0.00000000000E+00  0.99999998245E-14  0.12500000000E+03  0.12500000000E+03 0.  0.
        -11    1    3    3    0    0  0.29803006418E+02  0.18168800459E+02  0.62681314749E+01  0.35462853440E+02  0.51100000000E-03 0. -1.
         23    2    1    0    0    0 -0.22807898688E+02 -0.27222537675E+01 -0.16750865414E+02  0.96571099208E+02  0.92291791628E+02 0.  0.
         11    1    3    3    0    0 -0.52610905106E+02 -0.20891054227E+02 -0.23018996889E+02  0.61108245768E+02  0.51100000000E-03 0.  1.
         22    1    1    0    0    0  0.22807898688E+02  0.27222537675E+01  0.16750865414E+02  0.28428900792E+02  0.00000000000E+00 0.  1.
</event>
<event>
 5    1  0.6622940E-004  0.9118800E+02  0.7818608E-02  0.1130116E+00
         25   -1    0    0    0    0  0.00000000000E+00  0.00000000000E+00  0.99999998245E-14  0.12500000000E+03  0.12500000000E+03 0.  0.
        -11    1    3    3    0    0 -0.33313132375E+02  0.61778024436E+01 -0.41671114970E+01  0.34136415309E+02  0.51100000000E-03 0.  1.
         23    2    1    0    0    0  0.25318757683E+02 -0.10349314367E+02  0.85024521829E+01  0.96356685045E+02  0.92000930763E+02 0.  0.
         11    1    3    3    0    0  0.58631890058E+02 -0.16527116811E+02  0.12669563680E+02  0.62220269736E+02  0.51100000000E-03 0. -1.
         22    1    1    0    0    0 -0.25318757683E+02  0.10349314367E+02 -0.85024521829E+01  0.28643314955E+02  0.00000000000E+00 0. -1.
</event>
<event>
 5    1  0.6622940E-004  0.9118800E+02  0.7818608E-02  0.1130116E+00
         25   -1    0    0    0    0  0.00000000000E+00  0.00000000000E+00  0.99999998245E-14  0.12500000000E+03  0.12500000000E+03 0.  0.
        -11    1    3    3    0    0 -0.10063810747E+02 -0.23607255964E+02 -0.21394998608E+02  0.33411506799E+02  0.51100000000E-03 0. -1.
         23    2    1    0    0    0  0.62170840351E+01  0.27020597402E+02  0.10416825246E+02  0.95381170414E+02  0.90665829305E+02 0.  0.
         11    1    3    3    0    0  0.16280894783E+02  0.50627853365E+02  0.31811823854E+02  0.61969663615E+02  0.51100000000E-03 0.  1.
         22    1    1    0    0    0 -0.62170840351E+01 -0.27020597402E+02 -0.10416825246E+02  0.29618829586E+02  0.00000000000E+00 0.  1.
</event>
<event>
 5    1  0.6622940E-004  0.9118800E+02  0.7818608E-02  0.1130116E+00
         25   -1    0    0    0    0  0.00000000000E+00  0.00000000000E+00  0.99999998245E-14  0.12500000000E+03  0.12500000000E+03 0.  0.
        -11    1    3    3    0    0  0.24286291954E+02 -0.14658060714E+02 -0.19779925162E+02  0.34582194269E+02  0.51100000000E-03 0.  1.
         23    2    1    0    0    0 -0.21529939697E+02 -0.59802515488E+01  0.19338810039E+02  0.95448497743E+02  0.90758605298E+02 0.  0.
         11    1    3    3    0    0 -0.45816231651E+02  0.86778091651E+01  0.39118735201E+02  0.60866303474E+02  0.51100000000E-03 0. -1.
         22    1    1    0    0    0  0.21529939697E+02  0.59802515488E+01 -0.19338810039E+02  0.29551502257E+02  0.00000000000E+00 0. -1.
</event>
<event>
 5    1  0.6622940E-004  0.9118800E+02  0.7818608E-02  0.1130116E+00
         25   -1    0    0    0    0  0.00000000000E+00  0.00000000000E+00  0.99999998245E-14  0.12500000000E+03  0.12500000000E+03 0.  0.
        -11    1    3    3    0    0 -0.16474982792E+02  0.26884343826E+02 -0.47771637754E+02  0.57239168189E+02  0.51100000000E-03 0.  1.
         23    2    1    0    0    0 -0.15131568798E+02  0.22546086643E+02 -0.88263159620E+01  0.96448393204E+02  0.92125448715E+02 0.  0.
         11    1    3    3    0    0  0.13434139942E+01 -0.43382571831E+01  0.38945321792E+02  0.39209225015E+02  0.51100000000E-03 0. -1.
         22    1    1    0    0    0  0.15131568798E+02 -0.22546086643E+02  0.88263159620E+01  0.28551606796E+02  0.00000000000E+00 0.  1.
</event>
<event>
 5    1  0.6622940E-004  0.9118800E+02  0.7818608E-02  0.1130116E+00
         25   -1    0    0    0    0  0.00000000000E+00  0.00000000000E+00  0.99999998245E-14  0.12500000000E+03  0.12500000000E+03 0.  0.
        -11    1    3    3    0    0 -0.23263313401E+02 -0.22295569266E+02 -0.17378083066E+02  0.36609724536E+02  0.51100000000E-03 0. -1.
         23    2    1    0    0    0  0.14322732837E+02  0.23361585745E+02 -0.77165403544E+01  0.96531607712E+02  0.92238288839E+02 0.  0.
         11    1    3    3    0    0  0.37586046238E+02  0.45657155011E+02  0.96615427113E+01  0.59921883176E+02  0.51100000000E-03 0.  1.
         22    1    1    0    0    0 -0.14322732837E+02 -0.23361585745E+02  0.77165403544E+01  0.28468392288E+02  0.00000000000E+00 0.  1.
</event>
<event>
 5    1  0.6622940E-004  0.9118800E+02  0.7818608E-02  0.1130116E+00
         25   -1    0    0    0    0  0.00000000000E+00  0.00000000000E+00  0.99999998245E-14  0.12500000000E+03  0.12500000000E+03 0.  0.
        -11    1    3    3    0    0  0.16267545887E+02  0.38192408167E+02  0.33950559053E+02  0.53627731176E+02  0.51100000000E-03 0. -1.
         23    2    1    0    0    0 -0.15270413478E+02  0.14235956417E+02  0.21228564112E+02  0.95225851529E+02  0.90451439359E+02 0.  0.
         11    1    3    3    0    0 -0.31537959365E+02 -0.23956451750E+02 -0.12721994941E+02  0.41598120353E+02  0.51100000000E-03 0.  1.
         22    1    1    0    0    0  0.15270413478E+02 -0.14235956417E+02 -0.21228564112E+02  0.29774148471E+02  0.00000000000E+00 0. -1.
</event>
<event>
 5    1  0.6622940E-004  0.9118800E+02  0.7818608E-02  0.1130116E+00
         25   -1    0    0    0    0  0.00000000000E+00  0.00000000000E+00  0.99999998245E-14  0.12500000000E+03  0.12500000000E+03 0.  0.
        -11    1    3    3    0    0 -0.70853389175E+01  0.16995910559E+02 -0.19674448509E+02  0.26947113532E+02  0.51100000000E-03 0.  1.
         23    2    1    0    0    0  0.30128984606E+02 -0.16492839595E+02  0.14661136966E+02  0.87654071060E+02  0.79300175063E+02 0.  0.
         11    1    3    3    0    0  0.37214323523E+02 -0.33488750153E+02  0.34335585475E+02  0.60706957528E+02  0.51100000000E-03 0. -1.
         22    1    1    0    0    0 -0.30128984606E+02  0.16492839595E+02 -0.14661136966E+02  0.37345928940E+02  0.00000000000E+00 0. -1.
</event>
<event>
 5    1  0.6622940E-004  0.9118800E+02  0.7818608E-02  0.1130116E+00
         25   -1    0    0    0    0  0.00000000000E+00  0.00000000000E+00  0.99999998245E-14  0.12500000000E+03  0.12500000000E+03 0.  0.
        -11    1    3    3    0    0  0.87195449351E+01 -0.14832249719E+02  0.57487746123E+02  0.60007224983E+02  0.51100000000E-03 0. -1.
         23    2    1    0    0    0  0.89881916311E+01 -0.18716542473E+02  0.26037216540E+02  0.91697849978E+02  0.85436891882E+02 0.  0.
         11    1    3    3    0    0  0.26864669607E+00 -0.38842927540E+01 -0.31450529583E+02  0.31690624995E+02  0.51100000000E-03 0.  1.
         22    1    1    0    0    0 -0.89881916311E+01  0.18716542473E+02 -0.26037216540E+02  0.33302150022E+02  0.00000000000E+00 0. -1.
</event>
<event>
 5    1  0.6622940E-004  0.9118800E+02  0.7818608E-02  0.1130116E+00
         25   -1    0    0    0    0  0.00000000000E+00  0.00000000000E+00  0.99999998245E-14  0.12500000000E+03  0.12500000000E+03 0.  0.
        -11    1    3    3    0    0 -0.49335276644E+02  0.13622140975E+02 -0.27682208220E+02  0.58187944615E+02  0.51100000000E-03 0.  1.
         23    2    1    0    0    0 -0.12538774744E+02  0.14714276144E+02 -0.22454563712E+02  0.95369977624E+02  0.90650396612E+02 0.  0.
         11    1    3    3    0    0  0.36796501900E+02  0.10921351684E+01  0.52276445082E+01  0.37182033009E+02  0.51100000000E-03 0. -1.
         22    1    1    0    0    0  0.12538774744E+02 -0.14714276144E+02  0.22454563712E+02  0.29630022376E+02  0.00000000000E+00 0.  1.
</event>
<event>
 5    1  0.6622940E-004  0.9118800E+02  0.7818608E-02  0.1130116E+00
         25   -1    0    0    0    0  0.00000000000E+00  0.00000000000E+00  0.99999998245E-14  0.12500000000E+03  0.12500000000E+03 0.  0.
        -11    1    3    3    0    0  0.18916634244E+02  0.38975951218E+02 -0.38209962564E+01  0.43492112356E+02  0.51100000000E-03 0. -1.
         23    2    1    0    0    0  0.39417551819E+01 -0.12187108663E+02 -0.21769337488E+02  0.99741989267E+02  0.96490918313E+02 0.  0.
         11    1    3    3    0    0 -0.14974879062E+02 -0.51163059881E+02 -0.17948341232E+02  0.56249876912E+02  0.51100000000E-03 0.  1.
         22    1    1    0    0    0 -0.39417551819E+01  0.12187108663E+02  0.21769337488E+02  0.25258010733E+02  0.00000000000E+00 0.  1.
</event>
<event>
 5    1  0.6622940E-004  0.9118800E+02  0.7818608E-02  0.1130116E+00
         25   -1    0    0    0    0  0.00000000000E+00  0.00000000000E+00  0.99999998245E-14  0.12500000000E+03  0.12500000000E+03 0.  0.
        -11    1    3    3    0    0  0.76739206398E+01  0.33417772123E+02  0.67431816050E+01  0.34944342176E+02  0.51100000000E-03 0.  1.
         23    2    1    0    0    0  0.41593285763E+01 -0.21761647511E+02 -0.18886508964E+02  0.95886952453E+02  0.91360484419E+02 0.  0.
         11    1    3    3    0    0 -0.35145920634E+01 -0.55179419634E+02 -0.25629690569E+02  0.60942610278E+02  0.51100000000E-03 0. -1.
         22    1    1    0    0    0 -0.41593285763E+01  0.21761647511E+02  0.18886508964E+02  0.29113047547E+02  0.00000000000E+00 0. -1.
</event>
<event>
 5    1  0.6622940E-004  0.9118800E+02  0.7818608E-02  0.1130116E+00
         25   -1    0    0    0    0  0.00000000000E+00  0.00000000000E+00  0.99999998245E-14  0.12500000000E+03  0.12500000000E+03 0.  0.
        -11    1    3    3    0    0 -0.11157822542E+02  0.25006089684E+02 -0.18570302798E+02  0.33085611244E+02  0.51100000000E-03 0. -1.
         23    2    1    0    0    0  0.96939771873E+01 -0.22201001547E+02  0.16684436372E+02  0.95585240432E+02  0.90946743251E+02 0.  0.
         11    1    3    3    0    0  0.20851799729E+02 -0.47207091231E+02  0.35254739170E+02  0.62499629188E+02  0.51100000000E-03 0.  1.
         22    1    1    0    0    0 -0.96939771873E+01  0.22201001547E+02 -0.16684436372E+02  0.29414759568E+02  0.00000000000E+00 0.  1.
</event>
<event>
 5    1  0.6622940E-004  0.9118800E+02  0.7818608E-02  0.1130116E+00
         25   -1    0    0    0    0  0.00000000000E+00  0.00000000000E+00  0.99999998245E-14  0.12500000000E+03  0.12500000000E+03 0.  0.
        -11    1    3    3    0    0  0.27650716830E+02 -0.22217771557E+02  0.42715543311E+02  0.55523050662E+02  0.51100000000E-03 0.  1.
         23    2    1    0    0    0  0.26609725860E+02  0.44104652735E+01  0.14331883779E+02  0.94456054497E+02  0.89381282292E+02 0.  0.
         11    1    3    3    0    0 -0.10409909707E+01  0.26628236830E+02 -0.28383659532E+02  0.38933003835E+02  0.51100000000E-03 0. -1.
         22    1    1    0    0    0 -0.26609725860E+02 -0.44104652735E+01 -0.14331883779E+02  0.30543945503E+02  0.00000000000E+00 0. -1.
</event>
<event>
 5    1  0.6622940E-004  0.9118800E+02  0.7818608E-02  0.1130116E+00
         25   -1    0    0    0    0  0.00000000000E+00  0.00000000000E+00  0.99999998245E-14  0.12500000000E+03  0.12500000000E+03 0.  0.
        -11    1    3    3    0    0 -0.33003441191E+02  0.75136966989E+01 -0.29363435919E+02  0.44809531774E+02  0.51100000000E-03 0.  1.
         23    2    1    0    0    0  0.21826794194E+01  0.29441232645E+02 -0.23760895834E+00  0.95477013581E+02  0.90797871094E+02 0.  0.
         11    1    3    3    0    0  0.35186120611E+02  0.21927535946E+02  0.29125826960E+02  0.50667481807E+02  0.51100000000E-03 0. -1.
         22    1    1    0    0    0 -0.21826794194E+01 -0.29441232645E+02  0.23760895834E+00  0.29522986419E+02  0.00000000000E+00 0.  1.
</event>
<event>
 5    1  0.6622940E-004  0.9118800E+02  0.7818608E-02  0.1130116E+00
         25   -1    0    0    0    0  0.00000000000E+00  0.00000000000E+00  0.99999998245E-14  0.12500000000E+03  0.12500000000E+03 0.  0.
        -11    1    3    3    0    0  0.30529972044E+01 -0.35172571411E+02  0.43103824020E+02  0.55716875513E+02  0.51100000000E-03 0. -1.
         23    2    1    0    0    0  0.99183150036E+01  0.63906243380E+00  0.28183942465E+02  0.95114953804E+02  0.90298053417E+02 0.  0.
         11    1    3    3    0    0  0.68653177992E+01  0.35811633845E+02 -0.14919881555E+02  0.39398078291E+02  0.51100000000E-03 0.  1.
         22    1    1    0    0    0 -0.99183150036E+01 -0.63906243380E+00 -0.28183942465E+02  0.29885046196E+02  0.00000000000E+00 0. -1.
</event>
<event>
 5    1  0.6622940E-004  0.9118800E+02  0.7818608E-02  0.1130116E+00
         25   -1    0    0    0    0  0.00000000000E+00  0.00000000000E+00  0.99999998245E-14  0.12500000000E+03  0.12500000000E+03 0.  0.
        -11    1    3    3    0    0 -0.13047952690E+02 -0.55166895801E+01  0.37785862463E+02  0.40354111757E+02  0.51100000000E-03 0. -1.
         23    2    1    0    0    0  0.15669525859E+02  0.21850402940E+02 -0.38213873491E+01  0.97841628353E+02  0.93996846161E+02 0.  0.
         11    1    3    3    0    0  0.28717478549E+02  0.27367092520E+02 -0.41607249812E+02  0.57487516596E+02  0.51100000000E-03 0.  1.
         22    1    1    0    0    0 -0.15669525859E+02 -0.21850402940E+02  0.38213873491E+01  0.27158371647E+02  0.00000000000E+00 0.  1.
</event>
<event>
 5    1  0.6622940E-004  0.9118800E+02  0.7818608E-02  0.1130116E+00
         25   -1    0    0    0    0  0.00000000000E+00  0.00000000000E+00  0.99999998245E-14  0.12500000000E+03  0.12500000000E+03 0.  0.
        -11    1    3    3    0    0  0.47796749601E+02  0.28772968675E+02  0.25225575494E+02  0.61226976555E+02  0.51100000000E-03 0.  1.
         23    2    1    0    0    0  0.25087359741E+02  0.11274391373E+02  0.33426163812E+01  0.97293311206E+02  0.93264826176E+02 0.  0.
         11    1    3    3    0    0 -0.22709389860E+02 -0.17498577301E+02 -0.21882959113E+02  0.36066334651E+02  0.51100000000E-03 0. -1.
         22    1    1    0    0    0 -0.25087359741E+02 -0.11274391373E+02 -0.33426163812E+01  0.27706688794E+02  0.00000000000E+00 0.  1.
</event>
<event>
 5    1  0.6622940E-004  0.9118800E+02  0.7818608E-02  0.1130116E+00
         25   -1    0    0    0    0  0.00000000000E+00  0.00000000000E+00  0.99999998245E-14  0.12500000000E+03  0.12500000000E+03 0.  0.
        -11    1    3    3    0    0  0.75068734892E+01 -0.12266547878E+02 -0.46889013330E+02  0.49044886765E+02  0.51100000000E-03 0.  1.
         23    2    1    0    0    0  0.14429212675E+02 -0.30539930367E+02 -0.11775890453E+02  0.89229046403E+02  0.81745101387E+02 0.  0.
         11    1    3    3    0    0  0.69223391861E+01 -0.18273382490E+02  0.35113122877E+02  0.40184159638E+02  0.51100000000E-03 0. -1.
         22    1    1    0    0    0 -0.14429212675E+02  0.30539930367E+02  0.11775890453E+02  0.35770953597E+02  0.00000000000E+00 0.  1.
</event>
<event>
 5    1  0.6622940E-004  0.9118800E+02  0.7818608E-02  0.1130116E+00
         25   -1    0    0    0    0  0.00000000000E+00  0.00000000000E+00  0.99999998245E-14  0.12500000000E+03  0.12500000000E+03 0.  0.
        -11    1    3    3    0    0 -0.11366197910E+02  0.21088085776E+02 -0.46337969183E+02  0.52164213834E+02  0.51100000000E-03 0. -1.
         23    2    1    0    0    0 -0.34128236475E+00  0.27162554427E+02 -0.25611361183E+01  0.97714834528E+02  0.93828080189E+02 0.  0.
         11    1    3    3    0    0  0.11024915545E+02  0.60744686505E+01  0.43776833065E+02  0.45550620694E+02  0.51100000000E-03 0.  1.
         22    1    1    0    0    0  0.34128236475E+00 -0.27162554427E+02  0.25611361183E+01  0.27285165472E+02  0.00000000000E+00 0. -1.
</event>
<event>
 5    1  0.6622940E-004  0.9118800E+02  0.7818608E-02  0.1130116E+00
         25   -1    0    0    0    0  0.00000000000E+00  0.00000000000E+00  0.99999998245E-14  0.12500000000E+03  0.12500000000E+03 0.  0.
        -11    1    3    3    0    0 -0.29152911209E+00 -0.48119602530E+01  0.36003884372E+02  0.36325192922E+02  0.51100000000E-03 0.  1.
         23    2    1    0    0    0  0.23420726979E+02 -0.32276794814E+01 -0.17972815939E+02  0.95302012192E+02  0.90556628957E+02 0.  0.
         11    1    3    3    0    0  0.23712256091E+02  0.15842807715E+01 -0.53976700311E+02  0.58976819270E+02  0.51100000000E-03 0. -1.
         22    1    1    0    0    0 -0.23420726979E+02  0.32276794814E+01  0.17972815939E+02  0.29697987808E+02  0.00000000000E+00 0. -1.
</event>
<event>
 5    1  0.6622940E-004  0.9118800E+02  0.7818608E-02  0.1130116E+00
         25   -1    0    0    0    0  0.00000000000E+00  0.00000000000E+00  0.99999998245E-14  0.12500000000E+03  0.12500000000E+03 0.  0.
        -11    1    3    3    0    0 -0.12398589016E+02  0.41423652919E+02 -0.18331143323E+02  0.46964612705E+02  0.51100000000E-03 0.  1.
         23    2    1    0    0    0 -0.29808021801E+02  0.99009640092E+00  0.12589645394E+01  0.95148979142E+02  0.90345142567E+02 0.  0.
         11    1    3    3    0    0 -0.17409432784E+02 -0.40433556518E+02  0.19590107862E+02  0.48184366437E+02  0.51100000000E-03 0. -1.
         22    1    1    0    0    0  0.29808021801E+02 -0.99009640092E+00 -0.12589645394E+01  0.29851020858E+02  0.00000000000E+00 0.  1.
</event>
<event>
 5    1  0.6622940E-004  0.9118800E+02  0.7818608E-02  0.1130116E+00
         25   -1    0    0    0    0  0.00000000000E+00  0.00000000000E+00  0.99999998245E-14  0.12500000000E+03  0.12500000000E+03 0.  0.
        -11    1    3    3    0    0  0.31140573554E+02  0.48711346350E+02 -0.12473105844E+02  0.59144813418E+02  0.51100000000E-03 0. -1.
         23    2    1    0    0    0  0.16412346889E+02  0.22845619984E+02  0.85660552893E+01  0.95594817021E+02  0.90959904657E+02 0.  0.
         11    1    3    3    0    0 -0.14728226666E+02 -0.25865726366E+02  0.21039161133E+02  0.36450003603E+02  0.51100000000E-03 0.  1.
         22    1    1    0    0    0 -0.16412346889E+02 -0.22845619984E+02 -0.85660552893E+01  0.29405182979E+02  0.00000000000E+00 0. -1.
</event>
<event>
 5    1  0.6622940E-004  0.9118800E+02  0.7818608E-02  0.1130116E+00
         25   -1    0    0    0    0  0.00000000000E+00  0.00000000000E+00  0.99999998245E-14  0.12500000000E+03  0.12500000000E+03 0.  0.
        -11    1    3    3    0    0  0.85189055659E+01  0.99307717592E+01 -0.28134506915E+02  0.31028091456E+02  0.51100000000E-03 0. -1.
         23    2    1    0    0    0 -0.17764259076E+02  0.68345743728E+00  0.26924762987E+02  0.92735795741E+02  0.86942216070E+02 0.  0.
         11    1    3    3    0    0 -0.26283164642E+02 -0.92473143219E+01  0.55059269902E+02  0.61707704285E+02  0.51100000000E-03 0.  1.
         22    1    1    0    0    0  0.17764259076E+02 -0.68345743728E+00 -0.26924762987E+02  0.32264204259E+02  0.00000000000E+00 0.  1.
</event>
<event>
 5    1  0.6622940E-004  0.9118800E+02  0.7818608E-02  0.1130116E+00
         25   -1    0    0    0    0  0.00000000000E+00  0.00000000000E+00  0.99999998245E-14  0.12500000000E+03  0.12500000000E+03 0.  0.
        -11    1    3    3    0    0  0.26506387422E+02  0.18268008825E+02 -0.30954189631E+02  0.44659495928E+02  0.51100000000E-03 0.  1.
         23    2    1    0    0    0 -0.20475147802E+02 -0.42372893539E+01 -0.15419863950E+02  0.99020036512E+02  0.95551081250E+02 0.  0.
         11    1    3    3    0    0 -0.46981535223E+02 -0.22505298179E+02  0.15534325680E+02  0.54360540585E+02  0.51100000000E-03 0. -1.
         22    1    1    0    0    0  0.20475147802E+02  0.42372893539E+01  0.15419863950E+02  0.25979963488E+02  0.00000000000E+00 0. -1.
</event>
<event>
 5    1  0.6622940E-004  0.9118800E+02  0.7818608E-02  0.1130116E+00
         25   -1    0    0    0    0  0.00000000000E+00  0.00000000000E+00  0.99999998245E-14  0.12500000000E+03  0.12500000000E+03 0.  0.
        -11    1    3    3    0    0 -0.41350261226E+02  0.99070022532E+01 -0.44961990938E+02  0.61883547301E+02  0.51100000000E-03 0.  1.
         23    2    1    0    0    0 -0.19646093834E+02  0.10970855165E+02 -0.21180506839E+02  0.94097855479E+02  0.88878928154E+02 0.  0.
         11    1    3    3    0    0  0.21704167392E+02  0.10638529123E+01  0.23781484099E+02  0.32214308179E+02  0.51100000000E-03 0. -1.
         22    1    1    0    0    0  0.19646093834E+02 -0.10970855165E+02  0.21180506839E+02  0.30902144521E+02  0.00000000000E+00 0.  1.
</event>
<event>
 5    1  0.6622940E-004  0.9118800E+02  0.7818608E-02  0.1130116E+00
         25   -1    0    0    0    0  0.00000000000E+00  0.00000000000E+00  0.99999998245E-14  0.12500000000E+03  0.12500000000E+03 0.  0.
        -11    1    3    3    0    0  0.86161982918E+01  0.35086699136E+02 -0.14018219897E+02  0.38753397511E+02  0.51100000000E-03 0.  1.
         23    2    1    0    0    0 -0.12252063071E+02 -0.19226079999E+02 -0.16287456083E+02  0.96981498483E+02  0.92845972560E+02 0.  0.
         11    1    3    3    0    0 -0.20868261363E+02 -0.54312779135E+02 -0.22692361860E+01  0.58228100972E+02  0.51100000000E-03 0. -1.
         22    1    1    0    0    0  0.12252063071E+02  0.19226079999E+02  0.16287456083E+02  0.28018501517E+02  0.00000000000E+00 0. -1.
</event>
<event>
 5    1  0.6622940E-004  0.9118800E+02  0.7818608E-02  0.1130116E+00
         25   -1    0    0    0    0  0.00000000000E+00  0.00000000000E+00  0.99999998245E-14  0.12500000000E+03  0.12500000000E+03 0.  0.
        -11    1    3    3    0    0  0.30125820125E+02 -0.12709237325E+02  0.58302901175E+01  0.33212678824E+02  0.51100000000E-03 0.  1.
         23    2    1    0    0    0 -0.28605424726E+02  0.71462561072E+01  0.40830763321E+01  0.95234066243E+02  0.90462791029E+02 0.  0.
         11    1    3    3    0    0 -0.58731244850E+02  0.19855493432E+02 -0.17472137853E+01  0.62021387419E+02  0.51100000000E-03 0. -1.
         22    1    1    0    0    0  0.28605424726E+02 -0.71462561072E+01 -0.40830763321E+01  0.29765933757E+02  0.00000000000E+00 0. -1.
</event>
<event>
 5    1  0.6622940E-004  0.9118800E+02  0.7818608E-02  0.1130116E+00
         25   -1    0    0    0    0  0.00000000000E+00  0.00000000000E+00  0.99999998245E-14  0.12500000000E+03  0.12500000000E+03 0.  0.
        -11    1    3    3    0    0 -0.24881663347E+02  0.37068702234E+02  0.32503766166E+02  0.55223913946E+02  0.51100000000E-03 0.  1.
         23    2    1    0    0    0 -0.97016580688E+01  0.28174506790E+01  0.30643164422E+02  0.92734480890E+02  0.86940325641E+02 0.  0.
         11    1    3    3    0    0  0.15180005279E+02 -0.34251251555E+02 -0.18606017432E+01  0.37510566944E+02  0.51100000000E-03 0. -1.
         22    1    1    0    0    0  0.97016580688E+01 -0.28174506790E+01 -0.30643164422E+02  0.32265519110E+02  0.00000000000E+00 0. -1.
</event>
<event>
 5    1  0.6622940E-004  0.9118800E+02  0.7818608E-02  0.1130116E+00
         25   -1    0    0    0    0  0.00000000000E+00  0.00000000000E+00  0.99999998245E-14  0.12500000000E+03  0.12500000000E+03 0.  0.
        -11    1    3    3    0    0  0.46782777226E+01  0.43870423639E+02 -0.33280376632E+02  0.55263765902E+02  0.51100000000E-03 0. -1.
         23    2    1    0    0    0  0.15246124315E+02  0.26137286068E+02  0.36690311470E+00  0.94738859117E+02  0.89775914249E+02 0.  0.
         11    1    3    3    0    0  0.10567846592E+02 -0.17733137570E+02  0.33647279747E+02  0.39475093215E+02  0.51100000000E-03 0.  1.
         22    1    1    0    0    0 -0.15246124315E+02 -0.26137286068E+02 -0.36690311470E+00  0.30261140883E+02  0.00000000000E+00 0. -1.
</event>
<event>
 5    1  0.6622940E-004  0.9118800E+02  0.7818608E-02  0.1130116E+00
         25   -1    0    0    0    0  0.00000000000E+00  0.00000000000E+00  0.99999998245E-14  0.12500000000E+03  0.12500000000E+03 0.  0.
        -11    1    3    3    0    0  0.65621205802E+01 -0.31323587424E+02 -0.97925631600E+01  0.33468236421E+02  0.51100000000E-03 0. -1.
         23    2    1    0    0    0  0.34966401451E+00  0.27576075399E+02  0.96154977368E+01  0.95793493943E+02  0.91232524276E+02 0.  0.
         11    1    3    3    0    0 -0.62124565657E+01  0.58899662823E+02  0.19408060897E+02  0.62325257522E+02  0.51100000000E-03 0.  1.
         22    1    1    0    0    0 -0.34966401451E+00 -0.27576075399E+02 -0.96154977368E+01  0.29206506057E+02  0.00000000000E+00 0.  1.
</event>
<event>
 5    1  0.6622940E-004  0.9118800E+02  0.7818608E-02  0.1130116E+00
         25   -1    0    0    0    0  0.00000000000E+00  0.00000000000E+00  0.99999998245E-14  0.12500000000E+03  0.12500000000E+03 0.  0.
        -11    1    3    3    0    0 -0.37765339777E+01  0.29295124666E+02  0.13464393591E+02  0.32461614764E+02  0.51100000000E-03 0.  1.
         23    2    1    0    0    0 -0.25848535220E+01 -0.30371371225E+02  0.12241490804E+02  0.92152538075E+02  0.86099561664E+02 0.  0.
         11    1    3    3    0    0  0.11916804557E+01 -0.59666495891E+02 -0.12229027874E+01  0.59690923311E+02  0.51100000000E-03 0. -1.
         22    1    1    0    0    0  0.25848535220E+01  0.30371371225E+02 -0.12241490804E+02  0.32847461925E+02  0.00000000000E+00 0. -1.
</event>
<event>
 5    1  0.6622940E-004  0.9118800E+02  0.7818608E-02  0.1130116E+00
         25   -1    0    0    0    0  0.00000000000E+00  0.00000000000E+00  0.99999998245E-14  0.12500000000E+03  0.12500000000E+03 0.  0.
        -11    1    3    3    0    0  0.32828033095E+02 -0.21177093053E+02  0.15482369683E+02  0.42022051334E+02  0.51100000000E-03 0. -1.
         23    2    1    0    0    0  0.67390462054E+00 -0.16363625016E+02 -0.25720694580E+02  0.94507763270E+02  0.89453567942E+02 0.  0.
         11    1    3    3    0    0 -0.32154128474E+02  0.48134680372E+01 -0.41203064264E+02  0.52485711936E+02  0.51100000000E-03 0.  1.
         22    1    1    0    0    0 -0.67390462054E+00  0.16363625016E+02  0.25720694580E+02  0.30492236730E+02  0.00000000000E+00 0. -1.
</event>
<event>
 5    1  0.6622940E-004  0.9118800E+02  0.7818608E-02  0.1130116E+00
         25   -1    0    0    0    0  0.00000000000E+00  0.00000000000E+00  0.99999998245E-14  0.12500000000E+03  0.12500000000E+03 0.  0.
        -11    1    3    3    0    0  0.26040778006E+02 -0.12778043544E+02  0.21688452260E+02  0.36218634398E+02  0.51100000000E-03 0.  1.
         23    2    1    0    0    0 -0.25833324485E+02 -0.19696566729E+02  0.98213123326E+00  0.92499538825E+02  0.86601874726E+02 0.  0.
         11    1    3    3    0    0 -0.51874102491E+02 -0.69185231850E+01 -0.20706321027E+02  0.56280904427E+02  0.51100000000E-03 0. -1.
         22    1    1    0    0    0  0.25833324485E+02  0.19696566729E+02 -0.98213123326E+00  0.32500461175E+02  0.00000000000E+00 0. -1.
</event>
<event>
 4    1  0.6622940E-004  0.9118800E+02  0.7818608E-02  0.1130116E+00
         25   -1    0    0    0    0  0.00000000000E+00  0.00000000000E+00  0.99999998245E-14  0.12500000000E+03  0.12500000000E+03 0.  0.
        -11    1    1    0    0    0  0.21872692649E+02 -0.56163732389E+01  0.67830515284E+01  0.23578976237E+02  0.51100000000E-03 0. -1.
         11    1    1    0    0    0  0.92454995633E+01  0.45981481643E+02 -0.16141172190E+02  0.49601545906E+02  0.51100000000E-03 0.  1.
         22    1    1    0    0    0 -0.31118192213E+02 -0.40365108405E+02  0.93581206616E+01  0.51819477857E+02  0.00000000000E+00 0.  1.
</event>
<event>
 5    1  0.6622940E-004  0.9118800E+02  0.7818608E-02  0.1130116E+00
         25   -1    0    0    0    0  0.00000000000E+00  0.00000000000E+00  0.99999998245E-14  0.12500000000E+03  0.12500000000E+03 0.  0.
        -11    1    3    3    0    0  0.21853229801E+01 -0.31928969802E+02  0.15672119026E+01  0.32042017766E+02  0.51100000000E-03 0.  1.
         23    2    1    0    0    0 -0.60479825342E+01  0.27168890543E+02  0.15254004083E+02  0.93260256040E+02  0.87693010041E+02 0.  0.
         11    1    3    3    0    0 -0.82333055143E+01  0.59097860344E+02  0.13686792181E+02  0.61218238274E+02  0.51100000000E-03 0. -1.
         22    1    1    0    0    0  0.60479825342E+01 -0.27168890543E+02 -0.15254004083E+02  0.31739743960E+02  0.00000000000E+00 0. -1.
</event>
<event>
 5    1  0.6622940E-004  0.9118800E+02  0.7818608E-02  0.1130116E+00
         25   -1    0    0    0    0  0.00000000000E+00  0.00000000000E+00  0.99999998245E-14  0.12500000000E+03  0.12500000000E+03 0.  0.
        -11    1    3    3    0    0 -0.23123047331E+02  0.41686936854E+02 -0.29296353070E+02  0.55953126147E+02  0.51100000000E-03 0. -1.
         23    2    1    0    0    0 -0.21980638555E+02  0.35275568589E+01 -0.19594324706E+02  0.95343134195E+02  0.90613374007E+02 0.  0.
         11    1    3    3    0    0  0.11424087765E+01 -0.38159379995E+02  0.97020283638E+01  0.39390008049E+02  0.51100000000E-03 0.  1.
         22    1    1    0    0    0  0.21980638555E+02 -0.35275568589E+01  0.19594324706E+02  0.29656865805E+02  0.00000000000E+00 0. -1.
</event>
<event>
 5    1  0.6622940E-004  0.9118800E+02  0.7818608E-02  0.1130116E+00
         25   -1    0    0    0    0  0.00000000000E+00  0.00000000000E+00  0.99999998245E-14  0.12500000000E+03  0.12500000000E+03 0.  0.
        -11    1    3    3    0    0 -0.55378063888E+02 -0.16385426441E+02 -0.21078218467E+02  0.61477666299E+02  0.51100000000E-03 0.  1.
         23    2    1    0    0    0 -0.21430660426E+02 -0.14579814246E+02 -0.96300820812E+01  0.97348911945E+02  0.93339316402E+02 0.  0.
         11    1    3    3    0    0  0.33947403462E+02  0.18056121951E+01  0.11448136386E+02  0.35871245646E+02  0.51100000000E-03 0. -1.
         22    1    1    0    0    0  0.21430660426E+02  0.14579814246E+02  0.96300820812E+01  0.27651088055E+02  0.00000000000E+00 0.  1.
</event>
<event>
 5    1  0.6622940E-004  0.9118800E+02  0.7818608E-02  0.1130116E+00
         25   -1    0    0    0    0  0.00000000000E+00  0.00000000000E+00  0.99999998245E-14  0.12500000000E+03  0.12500000000E+03 0.  0.
        -11    1    3    3    0    0  0.23791455101E+02  0.18953595463E+02  0.76847169114E+01  0.31373985897E+02  0.51100000000E-03 0. -1.
         23    2    1    0    0    0 -0.27887353723E+02 -0.85942663946E+01 -0.12411282791E+02  0.93288710953E+02  0.87733561071E+02 0.  0.
         11    1    3    3    0    0 -0.51678808824E+02 -0.27547861857E+02 -0.20095999703E+02  0.61914725056E+02  0.51100000000E-03 0.  1.
         22    1    1    0    0    0  0.27887353723E+02  0.85942663946E+01  0.12411282791E+02  0.31711289047E+02  0.00000000000E+00 0.  1.
</event>
<event>
 5    1  0.6622940E-004  0.9118800E+02  0.7818608E-02  0.1130116E+00
         25   -1    0    0    0    0  0.00000000000E+00  0.00000000000E+00  0.99999998245E-14  0.12500000000E+03  0.12500000000E+03 0.  0.
        -11    1    3    3    0    0  0.25812840990E+02 -0.19976073739E+02  0.18686718476E+02  0.37610367316E+02  0.51100000000E-03 0. -1.
         23    2    1    0    0    0 -0.20795898378E+02  0.15183781267E+02  0.12669437057E+02  0.96302766018E+02  0.91927642766E+02 0.  0.
         11    1    3    3    0    0 -0.46608739367E+02  0.35159855006E+02 -0.60172814187E+01  0.58692398702E+02  0.51100000000E-03 0.  1.
         22    1    1    0    0    0  0.20795898378E+02 -0.15183781267E+02 -0.12669437057E+02  0.28697233982E+02  0.00000000000E+00 0.  1.
</event>
<event>
 5    1  0.6622940E-004  0.9118800E+02  0.7818608E-02  0.1130116E+00
         25   -1    0    0    0    0  0.00000000000E+00  0.00000000000E+00  0.99999998245E-14  0.12500000000E+03  0.12500000000E+03 0.  0.
        -11    1    3    3    0    0  0.35531624005E+02 -0.40295571833E+02 -0.23966198359E+01  0.53777069469E+02  0.51100000000E-03 0.  1.
         23    2    1    0    0    0  0.27949824293E+02  0.73772951116E+00 -0.80948388514E+01  0.95892211715E+02  0.91367679891E+02 0.  0.
         11    1    3    3    0    0 -0.75817997122E+01  0.41033301345E+02 -0.56982190156E+01  0.42115142245E+02  0.51100000000E-03 0. -1.
         22    1    1    0    0    0 -0.27949824293E+02 -0.73772951116E+00  0.80948388514E+01  0.29107788285E+02  0.00000000000E+00 0.  1.
</event>
<event>
 5    1  0.6622940E-004  0.9118800E+02  0.7818608E-02  0.1130116E+00
         25   -1    0    0    0    0  0.00000000000E+00  0.00000000000E+00  0.99999998245E-14  0.12500000000E+03  0.12500000000E+03 0.  0.
        -11    1    3    3    0    0 -0.38502309934E+02  0.25627002078E+01 -0.14854006072E+02  0.41347754465E+02  0.51100000000E-03 0.  1.
         23    2    1    0    0    0 -0.63997433624E+00 -0.27339178978E+02  0.10325235925E+02  0.95769010088E+02  0.91198972154E+02 0.  0.
         11    1    3    3    0    0  0.37862335598E+02 -0.29901879185E+02  0.25179241997E+02  0.54421255623E+02  0.51100000000E-03 0. -1.
         22    1    1    0    0    0  0.63997433624E+00  0.27339178978E+02 -0.10325235925E+02  0.29230989912E+02  0.00000000000E+00 0. -1.
</event>
<event>
 5    1  0.6622940E-004  0.9118800E+02  0.7818608E-02  0.1130116E+00
         25   -1    0    0    0    0  0.00000000000E+00  0.00000000000E+00  0.99999998245E-14  0.12500000000E+03  0.12500000000E+03 0.  0.
        -11    1    3    3    0    0  0.16853369209E+02 -0.26554872405E+02  0.51268380712E+02  0.60146854974E+02  0.51100000000E-03 0. -1.
         23    2    1    0    0    0 -0.41947753584E+01 -0.13130055880E+02  0.25423914083E+02  0.96079939229E+02  0.91624149694E+02 0.  0.
         11    1    3    3    0    0 -0.21048144568E+02  0.13424816525E+02 -0.25844466629E+02  0.35933084255E+02  0.51100000000E-03 0.  1.
         22    1    1    0    0    0  0.41947753584E+01  0.13130055880E+02 -0.25423914083E+02  0.28920060771E+02  0.00000000000E+00 0. -1.
</event>
<event>
 5    1  0.6622940E-004  0.9118800E+02  0.7818608E-02  0.1130116E+00
         25   -1    0    0    0    0  0.00000000000E+00  0.00000000000E+00  0.99999998245E-14  0.12500000000E+03  0.12500000000E+03 0.  0.
        -11    1    3    3    0    0 -0.24576010268E+02  0.28581677473E+02  0.31196547659E+02  0.48929716471E+02  0.51100000000E-03 0.  1.
         23    2    1    0    0    0 -0.28755119974E+02 -0.54314153818E+01 -0.67481425886E+00  0.95728639047E+02  0.91143621618E+02 0.  0.
         11    1    3    3    0    0 -0.41791097058E+01 -0.34013092854E+02 -0.31871361918E+02  0.46798922575E+02  0.51100000000E-03 0. -1.
         22    1    1    0    0    0  0.28755119974E+02  0.54314153818E+01  0.67481425886E+00  0.29271360953E+02  0.00000000000E+00 0.  1.
</event>
<event>
 5    1  0.6622940E-004  0.9118800E+02  0.7818608E-02  0.1130116E+00
         25   -1    0    0    0    0  0.00000000000E+00  0.00000000000E+00  0.99999998245E-14  0.12500000000E+03  0.12500000000E+03 0.  0.
        -11    1    3    3    0    0  0.51683130343E+01  0.28109615336E+02  0.31224101315E+02  0.42329734669E+02  0.51100000000E-03 0. -1.
         23    2    1    0    0    0 -0.32967051422E+02  0.15014557892E+02  0.14950944559E+02  0.85810790115E+02  0.76339357666E+02 0.  0.
         11    1    3    3    0    0 -0.38135364456E+02 -0.13095057444E+02 -0.16273156755E+02  0.43481055446E+02  0.51100000000E-03 0.  1.
         22    1    1    0    0    0  0.32967051422E+02 -0.15014557892E+02 -0.14950944559E+02  0.39189209885E+02  0.00000000000E+00 0.  1.
</event>
<event>
 5    1  0.6622940E-004  0.9118800E+02  0.7818608E-02  0.1130116E+00
         25   -1    0    0    0    0  0.00000000000E+00  0.00000000000E+00  0.99999998245E-14  0.12500000000E+03  0.12500000000E+03 0.  0.
        -11    1    3    3    0    0  0.25462573040E+02  0.21172116972E+02  0.57732599811E+01  0.33614456622E+02  0.51100000000E-03 0. -1.
         23    2    1    0    0    0 -0.25839758118E+02  0.52281980085E+01 -0.18729093771E+02  0.92661074423E+02  0.86834720048E+02 0.  0.
         11    1    3    3    0    0 -0.51302331157E+02 -0.15943918964E+02 -0.24502353752E+02  0.59046617801E+02  0.51100000000E-03 0.  1.
         22    1    1    0    0    0  0.25839758118E+02 -0.52281980085E+01  0.18729093771E+02  0.32338925577E+02  0.00000000000E+00 0.  1.
</event>
<event>
 4    1  0.6622940E-004  0.9118800E+02  0.7818608E-02  0.1130116E+00
         25   -1    0    0    0    0  0.00000000000E+00  0.00000000000E+00  0.99999998245E-14  0.12500000000E+03  0.12500000000E+03 0.  0.
        -11    1    1    0    0    0 -0.97490768176E+01 -0.65299517659E+01  0.36395314119E+01  0.12285396128E+02  0.51100000000E-03 0.  1.
         11    1    1    0    0    0 -0.30075642577E+02  0.39115520002E+02 -0.26952496622E+02  0.56222817929E+02  0.51100000000E-03 0. -1.
         22    1    1    0    0    0  0.39824719394E+02 -0.32585568236E+02  0.23312965210E+02  0.56491785943E+02  0.00000000000E+00 0. -1.
</event>
<event>
 5    1  0.6622940E-004  0.9118800E+02  0.7818608E-02  0.1130116E+00
         25   -1    0    0    0    0  0.00000000000E+00  0.00000000000E+00  0.99999998245E-14  0.12500000000E+03  0.12500000000E+03 0.  0.
        -11    1    3    3    0    0  0.33201460469E+02 -0.31279617983E+02 -0.13986391774E+02  0.47711326051E+02  0.51100000000E-03 0. -1.
         23    2    1    0    0    0  0.55637847044E+00  0.78185184067E+00 -0.29088647571E+02  0.95895528405E+02  0.91372217338E+02 0.  0.
         11    1    3    3    0    0 -0.32645081999E+02  0.32061469824E+02 -0.15102255798E+02  0.48184202353E+02  0.51100000000E-03 0.  1.
         22    1    1    0    0    0 -0.55637847044E+00 -0.78185184067E+00  0.29088647571E+02  0.29104471595E+02  0.00000000000E+00 0. -1.
</event>
<event>
 5    1  0.6622940E-004  0.9118800E+02  0.7818608E-02  0.1130116E+00
         25   -1    0    0    0    0  0.00000000000E+00  0.00000000000E+00  0.99999998245E-14  0.12500000000E+03  0.12500000000E+03 0.  0.
        -11    1    3    3    0    0  0.10392660821E+02 -0.41039170625E+02  0.37250414890E+02  0.56389842474E+02  0.51100000000E-03 0.  1.
         23    2    1    0    0    0  0.22428156104E+02 -0.10445900026E+02  0.16118272949E+02  0.95471408153E+02  0.90790153862E+02 0.  0.
         11    1    3    3    0    0  0.12035495283E+02  0.30593270598E+02 -0.21132141942E+02  0.39081565679E+02  0.51100000000E-03 0. -1.
         22    1    1    0    0    0 -0.22428156104E+02  0.10445900026E+02 -0.16118272949E+02  0.29528591847E+02  0.00000000000E+00 0.  1.
</event>
<event>
 5    1  0.6622940E-004  0.9118800E+02  0.7818608E-02  0.1130116E+00
         25   -1    0    0    0    0  0.00000000000E+00  0.00000000000E+00  0.99999998245E-14  0.12500000000E+03  0.12500000000E+03 0.  0.
        -11    1    3    3    0    0 -0.43037545318E+02 -0.14862290576E+01 -0.98571193196E+00  0.43074479824E+02  0.51100000000E-03 0.  1.
         23    2    1    0    0    0  0.67209001089E+01 -0.87094665741E+01 -0.24171419876E+02  0.98442838158E+02  0.94792982544E+02 0.  0.
         11    1    3    3    0    0  0.49758445427E+02 -0.72232375166E+01 -0.23185707944E+02  0.55368358334E+02  0.51100000000E-03 0. -1.
         22    1    1    0    0    0 -0.67209001089E+01  0.87094665741E+01  0.24171419876E+02  0.26557161842E+02  0.00000000000E+00 0. -1.
</event>
<event>
 5    1  0.6622940E-004  0.9118800E+02  0.7818608E-02  0.1130116E+00
         25   -1    0    0    0    0  0.00000000000E+00  0.00000000000E+00  0.99999998245E-14  0.12500000000E+03  0.12500000000E+03 0.  0.
        -11    1    3    3    0    0 -0.22105023097E+01  0.38717587529E+02  0.61772620614E+01  0.39269536174E+02  0.51100000000E-03 0.  1.
         23    2    1    0    0    0 -0.31735628675E+01 -0.15151136837E+02  0.24364517429E+02  0.96133788640E+02  0.91697585355E+02 0.  0.
         11    1    3    3    0    0 -0.96306055777E+00 -0.53868724366E+02  0.18187255368E+02  0.56864252466E+02  0.51100000000E-03 0. -1.
         22    1    1    0    0    0  0.31735628675E+01  0.15151136837E+02 -0.24364517429E+02  0.28866211360E+02  0.00000000000E+00 0. -1.
</event>
<event>
 5    1  0.6622940E-004  0.9118800E+02  0.7818608E-02  0.1130116E+00
         25   -1    0    0    0    0  0.00000000000E+00  0.00000000000E+00  0.99999998245E-14  0.12500000000E+03  0.12500000000E+03 0.  0.
        -11    1    3    3    0    0 -0.89432140312E+01  0.51794960985E+02 -0.32891795375E+02  0.62004590668E+02  0.51100000000E-03 0. -1.
         23    2    1    0    0    0 -0.63944111945E+01  0.20428867618E+02 -0.18899092668E+02  0.96444740758E+02  0.92120492777E+02 0.  0.
         11    1    3    3    0    0  0.25488028368E+01 -0.31366093366E+02  0.13992702707E+02  0.34440150091E+02  0.51100000000E-03 0.  1.
         22    1    1    0    0    0  0.63944111945E+01 -0.20428867618E+02  0.18899092668E+02  0.28555259242E+02  0.00000000000E+00 0. -1.
</event>
<event>
 5    1  0.6622940E-004  0.9118800E+02  0.7818608E-02  0.1130116E+00
         25   -1    0    0    0    0  0.00000000000E+00  0.00000000000E+00  0.99999998245E-14  0.12500000000E+03  0.12500000000E+03 0.  0.
        -11    1    3    3    0    0 -0.40758958412E+02  0.16892710182E+02 -0.41115878102E+02  0.60308969320E+02  0.51100000000E-03 0.  1.
         23    2    1    0    0    0 -0.27831910087E+02  0.48333506314E+01 -0.12137330263E+02  0.94254410344E+02  0.89098836052E+02 0.  0.
         11    1    3    3    0    0  0.12927048325E+02 -0.12059359551E+02  0.28978547839E+02  0.33945441023E+02  0.51100000000E-03 0. -1.
         22    1    1    0    0    0  0.27831910087E+02 -0.48333506314E+01  0.12137330263E+02  0.30745589656E+02  0.00000000000E+00 0.  1.
</event>
<event>
 5    1  0.6622940E-004  0.9118800E+02  0.7818608E-02  0.1130116E+00
         25   -1    0    0    0    0  0.00000000000E+00  0.00000000000E+00  0.99999998245E-14  0.12500000000E+03  0.12500000000E+03 0.  0.
        -11    1    3    3    0    0 -0.21881754814E+02 -0.22489718986E+02 -0.15153394909E+02  0.34845717546E+02  0.51100000000E-03 0.  1.
         23    2    1    0    0    0  0.25729795075E+01  0.17727296511E+02  0.23289621844E+02  0.95618309259E+02  0.90992182713E+02 0.  0.
         11    1    3    3    0    0  0.24454734322E+02  0.40217015496E+02  0.38443016753E+02  0.60772591713E+02  0.51100000000E-03 0. -1.
         22    1    1    0    0    0 -0.25729795075E+01 -0.17727296511E+02 -0.23289621844E+02  0.29381690741E+02  0.00000000000E+00 0. -1.
</event>
<event>
 5    1  0.6622940E-004  0.9118800E+02  0.7818608E-02  0.1130116E+00
         25   -1    0    0    0    0  0.00000000000E+00  0.00000000000E+00  0.99999998245E-14  0.12500000000E+03  0.12500000000E+03 0.  0.
        -11    1    3    3    0    0 -0.34019285342E+02 -0.51684630128E+01 -0.18728162658E+02  0.39176126172E+02  0.51100000000E-03 0.  1.
         23    2    1    0    0    0  0.18994215218E+02  0.15268971080E+02 -0.15569925234E+02  0.96080382759E+02  0.91624754787E+02 0.  0.
         11    1    3    3    0    0  0.53013500559E+02  0.20437434093E+02  0.31582374238E+01  0.56904256587E+02  0.51100000000E-03 0. -1.
         22    1    1    0    0    0 -0.18994215218E+02 -0.15268971080E+02  0.15569925234E+02  0.28919617241E+02  0.00000000000E+00 0. -1.
</event>
<event>
 5    1  0.6622940E-004  0.9118800E+02  0.7818608E-02  0.1130116E+00
         25   -1    0    0    0    0  0.00000000000E+00  0.00000000000E+00  0.99999998245E-14  0.12500000000E+03  0.12500000000E+03 0.  0.
        -11    1    3    3    0    0  0.12101649150E+02  0.84843084289E+01  0.16824027369E+02  0.22393778128E+02  0.51100000000E-03 0.  1.
         23    2    1    0    0    0 -0.10435551612E+02  0.11177386289E+02 -0.39244101196E+02  0.82881901985E+02  0.71382599394E+02 0.  0.
         11    1    3    3    0    0 -0.22537200763E+02  0.26930778605E+01 -0.56068128566E+02  0.60488123857E+02  0.51100000000E-03 0. -1.
         22    1    1    0    0    0  0.10435551612E+02 -0.11177386289E+02  0.39244101196E+02  0.42118098015E+02  0.00000000000E+00 0. -1.
</event>
<event>
 5    1  0.6622940E-004  0.9118800E+02  0.7818608E-02  0.1130116E+00
         25   -1    0    0    0    0  0.00000000000E+00  0.00000000000E+00  0.99999998245E-14  0.12500000000E+03  0.12500000000E+03 0.  0.
        -11    1    3    3    0    0  0.18551612585E+02  0.53425508980E+02 -0.79564712093E+01  0.57111756878E+02  0.51100000000E-03 0. -1.
         23    2    1    0    0    0  0.47566094064E+01  0.25515623528E+02  0.14285108521E+02  0.95373378482E+02  0.90655086016E+02 0.  0.
         11    1    3    3    0    0 -0.13795003179E+02 -0.27909885452E+02  0.22241579730E+02  0.38261621604E+02  0.51100000000E-03 0.  1.
         22    1    1    0    0    0 -0.47566094064E+01 -0.25515623528E+02 -0.14285108521E+02  0.29626621518E+02  0.00000000000E+00 0. -1.
</event>
<event>
 5    1  0.6622940E-004  0.9118800E+02  0.7818608E-02  0.1130116E+00
         25   -1    0    0    0    0  0.00000000000E+00  0.00000000000E+00  0.99999998245E-14  0.12500000000E+03  0.12500000000E+03 0.  0.
        -11    1    3    3    0    0 -0.34033914397E+02  0.18575734911E+02 -0.63181871703E+01  0.39284662988E+02  0.51100000000E-03 0. -1.
         23    2    1    0    0    0  0.22757011689E+02  0.35713359220E+01 -0.13239831715E+02  0.98430672475E+02  0.94776938750E+02 0.  0.
         11    1    3    3    0    0  0.56790926087E+02 -0.15004398989E+02 -0.69216445442E+01  0.59146009487E+02  0.51100000000E-03 0.  1.
         22    1    1    0    0    0 -0.22757011689E+02 -0.35713359220E+01  0.13239831715E+02  0.26569327525E+02  0.00000000000E+00 0.  1.
</event>
<event>
 5    1  0.6622940E-004  0.9118800E+02  0.7818608E-02  0.1130116E+00
         25   -1    0    0    0    0  0.00000000000E+00  0.00000000000E+00  0.99999998245E-14  0.12500000000E+03  0.12500000000E+03 0.  0.
        -11    1    3    3    0    0  0.59165284324E+02 -0.10998635237E+02 -0.94964448777E+01  0.60923585841E+02  0.51100000000E-03 0.  1.
         23    2    1    0    0    0  0.28404247557E+02 -0.14117084721E+02  0.44819417035E-01  0.93280993567E+02  0.87722564896E+02 0.  0.
         11    1    3    3    0    0 -0.30761036767E+02 -0.31184494841E+01  0.95412642948E+01  0.32357407726E+02  0.51100000000E-03 0. -1.
         22    1    1    0    0    0 -0.28404247557E+02  0.14117084721E+02 -0.44819417035E-01  0.31719006433E+02  0.00000000000E+00 0.  1.
</event>
<event>
 5    1  0.6622940E-004  0.9118800E+02  0.7818608E-02  0.1130116E+00
         25   -1    0    0    0    0  0.00000000000E+00  0.00000000000E+00  0.99999998245E-14  0.12500000000E+03  0.12500000000E+03 0.  0.
        -11    1    3    3    0    0  0.56674304957E+02 -0.19501666539E+02 -0.63588285849E+01  0.60272104172E+02  0.51100000000E-03 0.  1.
         23    2    1    0    0    0  0.29190863164E+02 -0.77997427181E+00  0.49203710444E+01  0.95387082154E+02  0.90673979391E+02 0.  0.
         11    1    3    3    0    0 -0.27483441793E+02  0.18721692268E+02  0.11279199629E+02  0.35114977982E+02  0.51100000000E-03 0. -1.
         22    1    1    0    0    0 -0.29190863164E+02  0.77997427181E+00 -0.49203710444E+01  0.29612917846E+02  0.00000000000E+00 0.  1.
</event>
<event>
 5    1  0.6622940E-004  0.9118800E+02  0.7818608E-02  0.1130116E+00
         25   -1    0    0    0    0  0.00000000000E+00  0.00000000000E+00  0.99999998245E-14  0.12500000000E+03  0.12500000000E+03 0.  0.
        -11    1    3    3    0    0 -0.20271211986E+02  0.24092520788E+02  0.16632252846E+02  0.35609035768E+02  0.51100000000E-03 0.  1.
         23    2    1    0    0    0 -0.10406790784E+02 -0.27812388891E+02 -0.84941541510E+01  0.94113418367E+02  0.88900813223E+02 0.  0.
         11    1    3    3    0    0  0.98644212023E+01 -0.51904909679E+02 -0.25126406997E+02  0.58504382599E+02  0.51100000000E-03 0. -1.
         22    1    1    0    0    0  0.10406790784E+02  0.27812388891E+02  0.84941541510E+01  0.30886581633E+02  0.00000000000E+00 0. -1.
</event>
<event>
 5    1  0.6622940E-004  0.9118800E+02  0.7818608E-02  0.1130116E+00
         25   -1    0    0    0    0  0.00000000000E+00  0.00000000000E+00  0.99999998245E-14  0.12500000000E+03  0.12500000000E+03 0.  0.
        -11    1    3    3    0    0 -0.14481576935E+02  0.26583413927E+02 -0.15833932042E+02  0.34162953191E+02  0.51100000000E-03 0. -1.
         23    2    1    0    0    0 -0.68248895314E+01 -0.17177359558E+02  0.24597183156E+02  0.94232123607E+02  0.89067563690E+02 0.  0.
         11    1    3    3    0    0  0.76566874036E+01 -0.43760773485E+02  0.40431115199E+02  0.60069170416E+02  0.51100000000E-03 0.  1.
         22    1    1    0    0    0  0.68248895314E+01  0.17177359558E+02 -0.24597183156E+02  0.30767876393E+02  0.00000000000E+00 0.  1.
</event>
<event>
 5    1  0.6622940E-004  0.9118800E+02  0.7818608E-02  0.1130116E+00
         25   -1    0    0    0    0  0.00000000000E+00  0.00000000000E+00  0.99999998245E-14  0.12500000000E+03  0.12500000000E+03 0.  0.
        -11    1    3    3    0    0 -0.37271851262E+02 -0.66959246404E+01 -0.18195056256E+02  0.42012931053E+02  0.51100000000E-03 0.  1.
         23    2    1    0    0    0  0.41834557156E+01 -0.13992693248E+02  0.20928279260E+02  0.99479623066E+02  0.96150433002E+02 0.  0.
         11    1    3    3    0    0  0.41455306977E+02 -0.72967686080E+01  0.39123335516E+02  0.57466692013E+02  0.51100000000E-03 0. -1.
         22    1    1    0    0    0 -0.41834557156E+01  0.13992693248E+02 -0.20928279260E+02  0.25520376934E+02  0.00000000000E+00 0. -1.
</event>
<event>
 5    1  0.6622940E-004  0.9118800E+02  0.7818608E-02  0.1130116E+00
         25   -1    0    0    0    0  0.00000000000E+00  0.00000000000E+00  0.99999998245E-14  0.12500000000E+03  0.12500000000E+03 0.  0.
        -11    1    3    3    0    0  0.38239355743E+02  0.43254069149E+02 -0.15660948178E+02  0.59819964257E+02  0.51100000000E-03 0.  1.
         23    2    1    0    0    0  0.25069673762E+02  0.12314554883E+02  0.35873538656E+00  0.97066767184E+02  0.92960700277E+02 0.  0.
         11    1    3    3    0    0 -0.13169681981E+02 -0.30939514266E+02  0.16019683565E+02  0.37246802927E+02  0.51100000000E-03 0. -1.
         22    1    1    0    0    0 -0.25069673762E+02 -0.12314554883E+02 -0.35873538656E+00  0.27933232816E+02  0.00000000000E+00 0.  1.
</event>
<event>
 5    1  0.6622940E-004  0.9118800E+02  0.7818608E-02  0.1130116E+00
         25   -1    0    0    0    0  0.00000000000E+00  0.00000000000E+00  0.99999998245E-14  0.12500000000E+03  0.12500000000E+03 0.  0.
        -11    1    3    3    0    0  0.92780326486E+01 -0.33455497817E+02  0.41481659349E+02  0.54093255464E+02  0.51100000000E-03 0.  1.
         23    2    1    0    0    0 -0.18747452173E+02 -0.13557729133E+02  0.16690009641E+02  0.96472199453E+02  0.92157744456E+02 0.  0.
         11    1    3    3    0    0 -0.28025484822E+02  0.19897768684E+02 -0.24791649709E+02  0.42378943990E+02  0.51100000000E-03 0. -1.
         22    1    1    0    0    0  0.18747452173E+02  0.13557729133E+02 -0.16690009641E+02  0.28527800547E+02  0.00000000000E+00 0.  1.
</event>
<event>
 5    1  0.6622940E-004  0.9118800E+02  0.7818608E-02  0.1130116E+00
         25   -1    0    0    0    0  0.00000000000E+00  0.00000000000E+00  0.99999998245E-14  0.12500000000E+03  0.12500000000E+03 0.  0.
        -11    1    3    3    0    0 -0.26097174344E+01 -0.19829025418E+02  0.26062774167E+02  0.32852230847E+02  0.51100000000E-03 0.  1.
         23    2    1    0    0    0 -0.50174899773E+01  0.11563763570E+02 -0.27367424861E+02  0.94869089341E+02  0.89957058285E+02 0.  0.
         11    1    3    3    0    0 -0.24077725429E+01  0.31392788988E+02 -0.53430199028E+02  0.62016858494E+02  0.51100000000E-03 0. -1.
         22    1    1    0    0    0  0.50174899773E+01 -0.11563763570E+02  0.27367424861E+02  0.30130910659E+02  0.00000000000E+00 0. -1.
</event>
<event>
 5    1  0.6622940E-004  0.9118800E+02  0.7818608E-02  0.1130116E+00
         25   -1    0    0    0    0  0.00000000000E+00  0.00000000000E+00  0.99999998245E-14  0.12500000000E+03  0.12500000000E+03 0.  0.
        -11    1    3    3    0    0 -0.42447069941E+02 -0.29041119741E+02  0.31858356052E+02  0.60498720921E+02  0.51100000000E-03 0.  1.
         23    2    1    0    0    0 -0.10156275239E+02 -0.11137428941E+02  0.21310196076E+02  0.98897955885E+02  0.95391241586E+02 0.  0.
         11    1    3    3    0    0  0.32290794702E+02  0.17903690800E+02 -0.10548159976E+02  0.38399234965E+02  0.51100000000E-03 0. -1.
         22    1    1    0    0    0  0.10156275239E+02  0.11137428941E+02 -0.21310196076E+02  0.26102044115E+02  0.00000000000E+00 0.  1.
</event>
<event>
 5    1  0.6622940E-004  0.9118800E+02  0.7818608E-02  0.1130116E+00
         25   -1    0    0    0    0  0.00000000000E+00  0.00000000000E+00  0.99999998245E-14  0.12500000000E+03  0.12500000000E+03 0.  0.
        -11    1    3    3    0    0 -0.11049761791E+02 -0.44407964266E+02 -0.42361935320E+02  0.62359426634E+02  0.51100000000E-03 0.  1.
         23    2    1    0    0    0 -0.21463883305E+01 -0.20699730238E+02 -0.18500128845E+02  0.97155061823E+02  0.93079350318E+02 0.  0.
         11    1    3    3    0    0  0.89033734603E+01  0.23708234028E+02  0.23861806474E+02  0.34795635188E+02  0.51100000000E-03 0. -1.
         22    1    1    0    0    0  0.21463883305E+01  0.20699730238E+02  0.18500128845E+02  0.27844938177E+02  0.00000000000E+00 0.  1.
</event>
<event>
 5    1  0.6622940E-004  0.9118800E+02  0.7818608E-02  0.1130116E+00
         25   -1    0    0    0    0  0.00000000000E+00  0.00000000000E+00  0.99999998245E-14  0.12500000000E+03  0.12500000000E+03 0.  0.
        -11    1    3    3    0    0 -0.25028915475E+02  0.35910041748E+02 -0.24525960608E+02  0.50174699323E+02  0.51100000000E-03 0.  1.
         23    2    1    0    0    0  0.11630644765E+02  0.30561059799E+02 -0.54350750886E+01  0.91851993802E+02  0.85662117943E+02 0.  0.
         11    1    3    3    0    0  0.36659560240E+02 -0.53489819492E+01  0.19090885519E+02  0.41677294479E+02  0.51100000000E-03 0. -1.
         22    1    1    0    0    0 -0.11630644765E+02 -0.30561059799E+02  0.54350750886E+01  0.33148006198E+02  0.00000000000E+00 0.  1.
</event>
<event>
 5    1  0.6622940E-004  0.9118800E+02  0.7818608E-02  0.1130116E+00
         25   -1    0    0    0    0  0.00000000000E+00  0.00000000000E+00  0.99999998245E-14  0.12500000000E+03  0.12500000000E+03 0.  0.
        -11    1    3    3    0    0  0.21910572490E+02  0.21377651899E+02  0.36108246581E+02  0.47337962134E+02  0.51100000000E-03 0. -1.
         23    2    1    0    0    0  0.12374233850E+02  0.22405357705E+02 -0.12240078459E+02  0.96628513646E+02  0.92369521010E+02 0.  0.
         11    1    3    3    0    0 -0.95363386407E+01  0.10277058061E+01 -0.48348325040E+02  0.49290551512E+02  0.51100000000E-03 0.  1.
         22    1    1    0    0    0 -0.12374233850E+02 -0.22405357705E+02  0.12240078459E+02  0.28371486354E+02  0.00000000000E+00 0.  1.
</event>
<event>
 5    1  0.6622940E-004  0.9118800E+02  0.7818608E-02  0.1130116E+00
         25   -1    0    0    0    0  0.00000000000E+00  0.00000000000E+00  0.99999998245E-14  0.12500000000E+03  0.12500000000E+03 0.  0.
        -11    1    3    3    0    0 -0.33731033685E+02 -0.14348856541E+01  0.11847229547E+02  0.35779859956E+02  0.51100000000E-03 0.  1.
         23    2    1    0    0    0  0.15359233692E+01  0.13303037434E+02 -0.29812823346E+02  0.92317676009E+02  0.86338977307E+02 0.  0.
         11    1    3    3    0    0  0.35266957054E+02  0.14737923088E+02 -0.41660052893E+02  0.56537816053E+02  0.51100000000E-03 0. -1.
         22    1    1    0    0    0 -0.15359233692E+01 -0.13303037434E+02  0.29812823346E+02  0.32682323991E+02  0.00000000000E+00 0. -1.
</event>
<event>
 5    1  0.6622940E-004  0.9118800E+02  0.7818608E-02  0.1130116E+00
         25   -1    0    0    0    0  0.00000000000E+00  0.00000000000E+00  0.99999998245E-14  0.12500000000E+03  0.12500000000E+03 0.  0.
        -11    1    3    3    0    0  0.43287680688E+02 -0.20024628777E+02 -0.10729700069E+02  0.48886966779E+02  0.51100000000E-03 0.  1.
         23    2    1    0    0    0  0.19795355133E+02 -0.20313987361E+01  0.23547590851E+02  0.94170278941E+02  0.88980726763E+02 0.  0.
         11    1    3    3    0    0 -0.23492325556E+02  0.17993230040E+02  0.34277290920E+02  0.45283312162E+02  0.51100000000E-03 0. -1.
         22    1    1    0    0    0 -0.19795355133E+02  0.20313987361E+01 -0.23547590851E+02  0.30829721059E+02  0.00000000000E+00 0.  1.
</event>
<event>
 5    1  0.6622940E-004  0.9118800E+02  0.7818608E-02  0.1130116E+00
         25   -1    0    0    0    0  0.00000000000E+00  0.00000000000E+00  0.99999998245E-14  0.12500000000E+03  0.12500000000E+03 0.  0.
        -11    1    3    3    0    0  0.22473268579E+02 -0.49602378220E+02  0.24636221328E+02  0.59769449783E+02  0.51100000000E-03 0.  1.
         23    2    1    0    0    0  0.10188433936E+02 -0.27933550861E+02 -0.64386659918E+00  0.95259421425E+02  0.90497819622E+02 0.  0.
         11    1    3    3    0    0 -0.12284834643E+02  0.21668827360E+02 -0.25280087927E+02  0.35489971643E+02  0.51100000000E-03 0. -1.
         22    1    1    0    0    0 -0.10188433936E+02  0.27933550861E+02  0.64386659918E+00  0.29740578575E+02  0.00000000000E+00 0.  1.
</event>
<event>
 5    1  0.6622940E-004  0.9118800E+02  0.7818608E-02  0.1130116E+00
         25   -1    0    0    0    0  0.00000000000E+00  0.00000000000E+00  0.99999998245E-14  0.12500000000E+03  0.12500000000E+03 0.  0.
        -11    1    3    3    0    0 -0.56721674496E+01  0.38302357820E+01  0.45178023804E+02  0.45693522789E+02  0.51100000000E-03 0.  1.
         23    2    1    0    0    0 -0.27408356377E+02 -0.10538829106E+02  0.27196505904E+01  0.95509638566E+02  0.90842774294E+02 0.  0.
         11    1    3    3    0    0 -0.21736188927E+02 -0.14369064888E+02 -0.42458373214E+02  0.49816115777E+02  0.51100000000E-03 0. -1.
         22    1    1    0    0    0  0.27408356377E+02  0.10538829106E+02 -0.27196505904E+01  0.29490361434E+02  0.00000000000E+00 0.  1.
</event>
<event>
 5    1  0.6622940E-004  0.9118800E+02  0.7818608E-02  0.1130116E+00
         25   -1    0    0    0    0  0.00000000000E+00  0.00000000000E+00  0.99999998245E-14  0.12500000000E+03  0.12500000000E+03 0.  0.
        -11    1    3    3    0    0  0.16277843361E+02 -0.24377109182E+02  0.44456809082E+02  0.53250535308E+02  0.51100000000E-03 0. -1.
         23    2    1    0    0    0 -0.15536695373E+02 -0.80870735718E+01  0.26459362288E+02  0.93268509100E+02  0.87704773387E+02 0.  0.
         11    1    3    3    0    0 -0.31814538734E+02  0.16290035611E+02 -0.17997446794E+02  0.40017973792E+02  0.51100000000E-03 0.  1.
         22    1    1    0    0    0  0.15536695373E+02  0.80870735718E+01 -0.26459362288E+02  0.31731490900E+02  0.00000000000E+00 0. -1.
</event>
<event>
 5    1  0.6622940E-004  0.9118800E+02  0.7818608E-02  0.1130116E+00
         25   -1    0    0    0    0  0.00000000000E+00  0.00000000000E+00  0.99999998245E-14  0.12500000000E+03  0.12500000000E+03 0.  0.
        -11    1    3    3    0    0  0.23558921160E+02 -0.37058322277E+02  0.38722464302E+02  0.58547171222E+02  0.51100000000E-03 0.  1.
         23    2    1    0    0    0  0.21584825808E+02 -0.55560237635E+01  0.18503887507E+02  0.96031604150E+02  0.91558183891E+02 0.  0.
         11    1    3    3    0    0 -0.19740953516E+01  0.31502298513E+02 -0.20218576795E+02  0.37484432928E+02  0.51100000000E-03 0. -1.
         22    1    1    0    0    0 -0.21584825808E+02  0.55560237635E+01 -0.18503887507E+02  0.28968395850E+02  0.00000000000E+00 0. -1.
</event>
<event>
 5    1  0.6622940E-004  0.9118800E+02  0.7818608E-02  0.1130116E+00
         25   -1    0    0    0    0  0.00000000000E+00  0.00000000000E+00  0.99999998245E-14  0.12500000000E+03  0.12500000000E+03 0.  0.
        -11    1    3    3    0    0 -0.55328998535E+02  0.14590959466E+02  0.18434128733E+02  0.60116647274E+02  0.51100000000E-03 0. -1.
         23    2    1    0    0    0 -0.20330822592E+02  0.17081625015E+02  0.12299738748E+02  0.95735553419E+02  0.91153103923E+02 0.  0.
         11    1    3    3    0    0  0.34998175944E+02  0.24906655480E+01 -0.61343899841E+01  0.35618906145E+02  0.51100000000E-03 0.  1.
         22    1    1    0    0    0  0.20330822592E+02 -0.17081625015E+02 -0.12299738748E+02  0.29264446581E+02  0.00000000000E+00 0. -1.
</event>
<event>
 5    1  0.6622940E-004  0.9118800E+02  0.7818608E-02  0.1130116E+00
         25   -1    0    0    0    0  0.00000000000E+00  0.00000000000E+00  0.99999998245E-14  0.12500000000E+03  0.12500000000E+03 0.  0.
        -11    1    3    3    0    0  0.38220740693E+02  0.38978338239E+02 -0.20182455827E+02  0.58201953528E+02  0.51100000000E-03 0.  1.
         23    2    1    0    0    0  0.24033611611E+02  0.16900634602E+02  0.57111898005E+01  0.95069018961E+02  0.90234443204E+02 0.  0.
         11    1    3    3    0    0 -0.14187129082E+02 -0.22077703637E+02  0.25893645627E+02  0.36867065433E+02  0.51100000000E-03 0. -1.
         22    1    1    0    0    0 -0.24033611611E+02 -0.16900634602E+02 -0.57111898005E+01  0.29930981039E+02  0.00000000000E+00 0.  1.
</event>
<event>
 5    1  0.6622940E-004  0.9118800E+02  0.7818608E-02  0.1130116E+00
         25   -1    0    0    0    0  0.00000000000E+00  0.00000000000E+00  0.99999998245E-14  0.12500000000E+03  0.12500000000E+03 0.  0.
        -11    1    3    3    0    0  0.57960210776E+01  0.35465158282E+02 -0.54014255634E+01  0.36339327328E+02  0.51100000000E-03 0. -1.
         23    2    1    0    0    0  0.14544687220E+02 -0.22115660543E+02 -0.13742785583E+02  0.95175269940E+02  0.90381510747E+02 0.  0.
         11    1    3    3    0    0  0.87486661422E+01 -0.57580818825E+02 -0.83413600201E+01  0.58835942612E+02  0.51100000000E-03 0.  1.
         22    1    1    0    0    0 -0.14544687220E+02  0.22115660543E+02  0.13742785583E+02  0.29824730060E+02  0.00000000000E+00 0.  1.
</event>
<event>
 5    1  0.6622940E-004  0.9118800E+02  0.7818608E-02  0.1130116E+00
         25   -1    0    0    0    0  0.00000000000E+00  0.00000000000E+00  0.99999998245E-14  0.12500000000E+03  0.12500000000E+03 0.  0.
        -11    1    3    3    0    0  0.22379342559E+02 -0.39297016879E+02  0.19492219994E+02  0.49244666204E+02  0.51100000000E-03 0. -1.
         23    2    1    0    0    0  0.27877812823E+02  0.46447643163E+01  0.26874366011E+01  0.96610413901E+02  0.92345024096E+02 0.  0.
         11    1    3    3    0    0  0.54984702641E+01  0.43941781195E+02 -0.16804783393E+02  0.47365747698E+02  0.51100000000E-03 0.  1.
         22    1    1    0    0    0 -0.27877812823E+02 -0.46447643163E+01 -0.26874366011E+01  0.28389586099E+02  0.00000000000E+00 0. -1.
</event>
<event>
 5    1  0.6622940E-004  0.9118800E+02  0.7818608E-02  0.1130116E+00
         25   -1    0    0    0    0  0.00000000000E+00  0.00000000000E+00  0.99999998245E-14  0.12500000000E+03  0.12500000000E+03 0.  0.
        -11    1    3    3    0    0  0.70466694400E+01 -0.57463136673E+02  0.16676269754E+02  0.60247536047E+02  0.51100000000E-03 0.  1.
         23    2    1    0    0    0 -0.42562525362E+00 -0.28503760548E+02 -0.34327195319E+01  0.96287126831E+02  0.91906374685E+02 0.  0.
         11    1    3    3    0    0 -0.74722946936E+01  0.28959376125E+02 -0.20108989286E+02  0.36039590785E+02  0.51100000000E-03 0. -1.
         22    1    1    0    0    0  0.42562525362E+00  0.28503760548E+02  0.34327195319E+01  0.28712873169E+02  0.00000000000E+00 0.  1.
</event>
<event>
 5    1  0.6622940E-004  0.9118800E+02  0.7818608E-02  0.1130116E+00
         25   -1    0    0    0    0  0.00000000000E+00  0.00000000000E+00  0.99999998245E-14  0.12500000000E+03  0.12500000000E+03 0.  0.
        -11    1    3    3    0    0  0.16032538501E+02  0.15408674127E+02 -0.28576588100E+02  0.36208989448E+02  0.51100000000E-03 0.  1.
         23    2    1    0    0    0 -0.70684978156E+01  0.11263873143E+02  0.26098655379E+02  0.95708733176E+02  0.91116317387E+02 0.  0.
         11    1    3    3    0    0 -0.23101036316E+02 -0.41448009836E+01  0.54675243479E+02  0.59499743729E+02  0.51100000000E-03 0. -1.
         22    1    1    0    0    0  0.70684978156E+01 -0.11263873143E+02 -0.26098655379E+02  0.29291266824E+02  0.00000000000E+00 0. -1.
</event>
<event>
 5    1  0.6622940E-004  0.9118800E+02  0.7818608E-02  0.1130116E+00
         25   -1    0    0    0    0  0.00000000000E+00  0.00000000000E+00  0.99999998245E-14  0.12500000000E+03  0.12500000000E+03 0.  0.
        -11    1    3    3    0    0 -0.28032223054E+02  0.67523996191E+01 -0.20402783430E+02  0.35322429162E+02  0.51100000000E-03 0.  1.
         23    2    1    0    0    0  0.28246155456E+02  0.60461674588E+01 -0.16484146401E+02  0.91741489487E+02  0.85500715621E+02 0.  0.
         11    1    3    3    0    0  0.56278378510E+02 -0.70623216039E+00  0.39186370284E+01  0.56419060325E+02  0.51100000000E-03 0. -1.
         22    1    1    0    0    0 -0.28246155456E+02 -0.60461674588E+01  0.16484146401E+02  0.33258510513E+02  0.00000000000E+00 0. -1.
</event>
<event>
 5    1  0.6622940E-004  0.9118800E+02  0.7818608E-02  0.1130116E+00
         25   -1    0    0    0    0  0.00000000000E+00  0.00000000000E+00  0.99999998245E-14  0.12500000000E+03  0.12500000000E+03 0.  0.
        -11    1    3    3    0    0  0.33593611962E+01  0.90409514971E+01 -0.28763155801E+02  0.30337159451E+02  0.51100000000E-03 0.  1.
         23    2    1    0    0    0 -0.95406679465E+01 -0.13459111262E+02  0.27862376297E+02  0.92619696825E+02  0.86775135875E+02 0.  0.
         11    1    3    3    0    0 -0.12900029143E+02 -0.22500062759E+02  0.56625532098E+02  0.62282537374E+02  0.51100000000E-03 0. -1.
         22    1    1    0    0    0  0.95406679465E+01  0.13459111262E+02 -0.27862376297E+02  0.32380303175E+02  0.00000000000E+00 0. -1.
</event>
<event>
 5    1  0.6622940E-004  0.9118800E+02  0.7818608E-02  0.1130116E+00
         25   -1    0    0    0    0  0.00000000000E+00  0.00000000000E+00  0.99999998245E-14  0.12500000000E+03  0.12500000000E+03 0.  0.
        -11    1    3    3    0    0  0.14062795117E+02 -0.32114767308E+02 -0.49838113474E+02  0.60934046646E+02  0.51100000000E-03 0. -1.
         23    2    1    0    0    0  0.10767755919E+02 -0.21216195261E+02 -0.16813123484E+02  0.95866640595E+02  0.91332689377E+02 0.  0.
         11    1    3    3    0    0 -0.32950391974E+01  0.10898572047E+02  0.33024989989E+02  0.34932593949E+02  0.51100000000E-03 0.  1.
         22    1    1    0    0    0 -0.10767755919E+02  0.21216195261E+02  0.16813123484E+02  0.29133359405E+02  0.00000000000E+00 0. -1.
</event>
<event>
 5    1  0.6622940E-004  0.9118800E+02  0.7818608E-02  0.1130116E+00
         25   -1    0    0    0    0  0.00000000000E+00  0.00000000000E+00  0.99999998245E-14  0.12500000000E+03  0.12500000000E+03 0.  0.
        -11    1    3    3    0    0  0.10802653954E+02  0.23587239370E+02  0.28254535648E+02  0.38358492913E+02  0.51100000000E-03 0. -1.
         23    2    1    0    0    0  0.75802989285E+01  0.45745826151E+01 -0.26843739824E+02  0.96733869991E+02  0.92511985698E+02 0.  0.
         11    1    3    3    0    0 -0.32223550255E+01 -0.19012656755E+02 -0.55098275472E+02  0.58375377079E+02  0.51100000000E-03 0.  1.
         22    1    1    0    0    0 -0.75802989285E+01 -0.45745826151E+01  0.26843739824E+02  0.28266130009E+02  0.00000000000E+00 0.  1.
</event>
<event>
 5    1  0.6622940E-004  0.9118800E+02  0.7818608E-02  0.1130116E+00
         25   -1    0    0    0    0  0.00000000000E+00  0.00000000000E+00  0.99999998245E-14  0.12500000000E+03  0.12500000000E+03 0.  0.
        -11    1    3    3    0    0 -0.23459424216E+02 -0.24713172975E+02 -0.27312136187E+02  0.43669649488E+02  0.51100000000E-03 0. -1.
         23    2    1    0    0    0  0.13400393067E+02  0.11364852496E+02 -0.23867549593E+02  0.95362349448E+02  0.90639877328E+02 0.  0.
         11    1    3    3    0    0  0.36859817283E+02  0.36078025472E+02  0.34445865940E+01  0.51692699960E+02  0.51100000000E-03 0.  1.
         22    1    1    0    0    0 -0.13400393067E+02 -0.11364852496E+02  0.23867549593E+02  0.29637650552E+02  0.00000000000E+00 0.  1.
</event>
<event>
 5    1  0.6622940E-004  0.9118800E+02  0.7818608E-02  0.1130116E+00
         25   -1    0    0    0    0  0.00000000000E+00  0.00000000000E+00  0.99999998245E-14  0.12500000000E+03  0.12500000000E+03 0.  0.
        -11    1    3    3    0    0  0.34200081797E+02  0.42833231678E+02 -0.14782511396E+02  0.56770185612E+02  0.51100000000E-03 0.  1.
         23    2    1    0    0    0 -0.26371668277E+01  0.24050100187E+02  0.35398557099E+00  0.10080315571E+03  0.97855960101E+02 0.  0.
         11    1    3    3    0    0 -0.36837248625E+02 -0.18783131492E+02  0.15136496967E+02  0.44032970097E+02  0.51100000000E-03 0. -1.
         22    1    1    0    0    0  0.26371668277E+01 -0.24050100187E+02 -0.35398557099E+00  0.24196844291E+02  0.00000000000E+00 0.  1.
</event>
<event>
 5    1  0.6622940E-004  0.9118800E+02  0.7818608E-02  0.1130116E+00
         25   -1    0    0    0    0  0.00000000000E+00  0.00000000000E+00  0.99999998245E-14  0.12500000000E+03  0.12500000000E+03 0.  0.
        -11    1    3    3    0    0 -0.19119435622E+02  0.56813341744E+02  0.14721841973E+02  0.61725531589E+02  0.51100000000E-03 0.  1.
         23    2    1    0    0    0 -0.27442621426E+01  0.28840580856E+02  0.47178871080E+01  0.95647512242E+02  0.91032291307E+02 0.  0.
         11    1    3    3    0    0  0.16375173480E+02 -0.27972760888E+02 -0.10003954865E+02  0.33921980653E+02  0.51100000000E-03 0. -1.
         22    1    1    0    0    0  0.27442621426E+01 -0.28840580856E+02 -0.47178871080E+01  0.29352487758E+02  0.00000000000E+00 0.  1.
</event>
<event>
 5    1  0.6622940E-004  0.9118800E+02  0.7818608E-02  0.1130116E+00
         25   -1    0    0    0    0  0.00000000000E+00  0.00000000000E+00  0.99999998245E-14  0.12500000000E+03  0.12500000000E+03 0.  0.
        -11    1    3    3    0    0  0.21924345467E+02  0.18692405068E+01 -0.47357972938E+02  0.52220193271E+02  0.51100000000E-03 0.  1.
         23    2    1    0    0    0  0.14065328171E+02  0.23926051728E+02 -0.11696056587E+02  0.94882112499E+02  0.89975152819E+02 0.  0.
         11    1    3    3    0    0 -0.78590172962E+01  0.22056811221E+02  0.35661916351E+02  0.42661919227E+02  0.51100000000E-03 0. -1.
         22    1    1    0    0    0 -0.14065328171E+02 -0.23926051728E+02  0.11696056587E+02  0.30117887501E+02  0.00000000000E+00 0.  1.
</event>
<event>
 5    1  0.6622940E-004  0.9118800E+02  0.7818608E-02  0.1130116E+00
         25   -1    0    0    0    0  0.00000000000E+00  0.00000000000E+00  0.99999998245E-14  0.12500000000E+03  0.12500000000E+03 0.  0.
        -11    1    3    3    0    0 -0.18286565111E+02 -0.36310877224E+02  0.30782550218E+02  0.50994545458E+02  0.51100000000E-03 0.  1.
         23    2    1    0    0    0 -0.55526327115E+01 -0.25176570481E+02 -0.11675377524E+02  0.96697952874E+02  0.92463442606E+02 0.  0.
         11    1    3    3    0    0  0.12733932399E+02  0.11134306743E+02 -0.42457927742E+02  0.45703407416E+02  0.51100000000E-03 0. -1.
         22    1    1    0    0    0  0.55526327115E+01  0.25176570481E+02  0.11675377524E+02  0.28302047126E+02  0.00000000000E+00 0.  1.
</event>
<event>
 5    1  0.6622940E-004  0.9118800E+02  0.7818608E-02  0.1130116E+00
         25   -1    0    0    0    0  0.00000000000E+00  0.00000000000E+00  0.99999998245E-14  0.12500000000E+03  0.12500000000E+03 0.  0.
        -11    1    3    3    0    0 -0.48356558869E+01  0.42124880789E+02  0.10344439635E+02  0.43645120930E+02  0.51100000000E-03 0.  1.
         23    2    1    0    0    0  0.14798385470E+01  0.79608227522E+01 -0.28272618818E+02  0.95590722623E+02  0.90954277831E+02 0.  0.
         11    1    3    3    0    0  0.63154944339E+01 -0.34164058037E+02 -0.38617058453E+02  0.51945601693E+02  0.51100000000E-03 0. -1.
         22    1    1    0    0    0 -0.14798385470E+01 -0.79608227522E+01  0.28272618818E+02  0.29409277377E+02  0.00000000000E+00 0. -1.
</event>
<event>
 5    1  0.6622940E-004  0.9118800E+02  0.7818608E-02  0.1130116E+00
         25   -1    0    0    0    0  0.00000000000E+00  0.00000000000E+00  0.99999998245E-14  0.12500000000E+03  0.12500000000E+03 0.  0.
        -11    1    3    3    0    0  0.46823072918E+02  0.18137372037E+02 -0.14998644742E+02  0.52405379173E+02  0.51100000000E-03 0.  1.
         23    2    1    0    0    0  0.29309322445E+02  0.34624405917E+02 -0.23651521731E+01  0.79574458593E+02  0.65334635901E+02 0.  0.
         11    1    3    3    0    0 -0.17513750473E+02  0.16487033880E+02  0.12633492569E+02  0.27169079420E+02  0.51100000000E-03 0. -1.
         22    1    1    0    0    0 -0.29309322445E+02 -0.34624405917E+02  0.23651521731E+01  0.45425541407E+02  0.00000000000E+00 0.  1.
</event>
<event>
 5    1  0.6622940E-004  0.9118800E+02  0.7818608E-02  0.1130116E+00
         25   -1    0    0    0    0  0.00000000000E+00  0.00000000000E+00  0.99999998245E-14  0.12500000000E+03  0.12500000000E+03 0.  0.
        -11    1    3    3    0    0  0.40380721046E+02  0.46304537532E+02 -0.28203462085E+01  0.61503391624E+02  0.51100000000E-03 0. -1.
         23    2    1    0    0    0  0.22732334556E+02  0.16080362477E+02 -0.55434408363E+01  0.96608683932E+02  0.92342682347E+02 0.  0.
         11    1    3    3    0    0 -0.17648386490E+02 -0.30224175054E+02 -0.27230946277E+01  0.35105292308E+02  0.51100000000E-03 0.  1.
         22    1    1    0    0    0 -0.22732334556E+02 -0.16080362477E+02  0.55434408363E+01  0.28391316068E+02  0.00000000000E+00 0. -1.
</event>
<event>
 5    1  0.6622940E-004  0.9118800E+02  0.7818608E-02  0.1130116E+00
         25   -1    0    0    0    0  0.00000000000E+00  0.00000000000E+00  0.99999998245E-14  0.12500000000E+03  0.12500000000E+03 0.  0.
        -11    1    3    3    0    0 -0.28705667981E+02 -0.16866731313E+02  0.21051883136E+02  0.39391417635E+02  0.51100000000E-03 0. -1.
         23    2    1    0    0    0  0.21034049352E+02  0.48454361025E+00 -0.11205616420E+02  0.10116238573E+03  0.98313765226E+02 0.  0.
         11    1    3    3    0    0  0.49739717333E+02  0.17351274923E+02 -0.32257499556E+02  0.61770968097E+02  0.51100000000E-03 0.  1.
         22    1    1    0    0    0 -0.21034049352E+02 -0.48454361025E+00  0.11205616420E+02  0.23837614268E+02  0.00000000000E+00 0.  1.
</event>
<event>
 5    1  0.6622940E-004  0.9118800E+02  0.7818608E-02  0.1130116E+00
         25   -1    0    0    0    0  0.00000000000E+00  0.00000000000E+00  0.99999998245E-14  0.12500000000E+03  0.12500000000E+03 0.  0.
        -11    1    3    3    0    0 -0.34414784165E+02  0.14083898066E+02  0.54483506119E+01  0.37582151063E+02  0.51100000000E-03 0.  1.
         23    2    1    0    0    0  0.10791586953E+02 -0.18517614800E+02  0.20528612075E+02  0.95321989275E+02  0.90584200161E+02 0.  0.
         11    1    3    3    0    0  0.45206371118E+02 -0.32601512866E+02  0.15080261463E+02  0.57739838213E+02  0.51100000000E-03 0. -1.
         22    1    1    0    0    0 -0.10791586953E+02  0.18517614800E+02 -0.20528612075E+02  0.29678010725E+02  0.00000000000E+00 0. -1.
</event>
<event>
 5    1  0.6622940E-004  0.9118800E+02  0.7818608E-02  0.1130116E+00
         25   -1    0    0    0    0  0.00000000000E+00  0.00000000000E+00  0.99999998245E-14  0.12500000000E+03  0.12500000000E+03 0.  0.
        -11    1    3    3    0    0 -0.16822736282E+02  0.85537644988E+01  0.53040057165E+02  0.56297593265E+02  0.51100000000E-03 0. -1.
         23    2    1    0    0    0 -0.11407068998E+01 -0.14743018922E+02  0.24812461400E+02  0.96115470233E+02  0.91672610731E+02 0.  0.
         11    1    3    3    0    0  0.15682029382E+02 -0.23296783420E+02 -0.28227595765E+02  0.39817876968E+02  0.51100000000E-03 0.  1.
         22    1    1    0    0    0  0.11407068998E+01  0.14743018922E+02 -0.24812461400E+02  0.28884529767E+02  0.00000000000E+00 0. -1.
</event>
<event>
 5    1  0.6622940E-004  0.9118800E+02  0.7818608E-02  0.1130116E+00
         25   -1    0    0    0    0  0.00000000000E+00  0.00000000000E+00  0.99999998245E-14  0.12500000000E+03  0.12500000000E+03 0.  0.
        -11    1    3    3    0    0  0.52741442883E+02 -0.22148385461E+02  0.14339618741E+02  0.58973175613E+02  0.51100000000E-03 0. -1.
         23    2    1    0    0    0  0.28676164941E+02 -0.64881566349E+01 -0.70365235883E+01  0.94768703693E+02  0.89817458899E+02 0.  0.
         11    1    3    3    0    0 -0.24065277943E+02  0.15660228827E+02 -0.21376142330E+02  0.35795528080E+02  0.51100000000E-03 0.  1.
         22    1    1    0    0    0 -0.28676164941E+02  0.64881566349E+01  0.70365235883E+01  0.30231296307E+02  0.00000000000E+00 0. -1.
</event>
<event>
 5    1  0.6622940E-004  0.9118800E+02  0.7818608E-02  0.1130116E+00
         25   -1    0    0    0    0  0.00000000000E+00  0.00000000000E+00  0.99999998245E-14  0.12500000000E+03  0.12500000000E+03 0.  0.
        -11    1    3    3    0    0  0.34009176615E+01  0.27006030530E+02  0.34040106287E+02  0.43584639062E+02  0.51100000000E-03 0. -1.
         23    2    1    0    0    0  0.10839073140E+02 -0.10559429845E+02 -0.13562877046E+02  0.10467910684E+03  0.10268776319E+03 0.  0.
         11    1    3    3    0    0  0.74381554788E+01 -0.37565460375E+02 -0.47602983333E+02  0.61094467774E+02  0.51100000000E-03 0.  1.
         22    1    1    0    0    0 -0.10839073140E+02  0.10559429845E+02  0.13562877046E+02  0.20320893164E+02  0.00000000000E+00 0.  1.
</event>
<event>
 5    1  0.6622940E-004  0.9118800E+02  0.7818608E-02  0.1130116E+00
         25   -1    0    0    0    0  0.00000000000E+00  0.00000000000E+00  0.99999998245E-14  0.12500000000E+03  0.12500000000E+03 0.  0.
        -11    1    3    3    0    0  0.47644287864E+01  0.28414816692E+02 -0.29099965930E+02  0.40950086773E+02  0.51100000000E-03 0.  1.
         23    2    1    0    0    0 -0.10720266233E+02 -0.22585486704E+02 -0.13997356118E+02  0.96347699987E+02  0.91988722117E+02 0.  0.
         11    1    3    3    0    0 -0.15484695020E+02 -0.51000303396E+02  0.15102609813E+02  0.55397613214E+02  0.51100000000E-03 0. -1.
         22    1    1    0    0    0  0.10720266233E+02  0.22585486704E+02  0.13997356118E+02  0.28652300013E+02  0.00000000000E+00 0. -1.
</event>
<event>
 5    1  0.6622940E-004  0.9118800E+02  0.7818608E-02  0.1130116E+00
         25   -1    0    0    0    0  0.00000000000E+00  0.00000000000E+00  0.99999998245E-14  0.12500000000E+03  0.12500000000E+03 0.  0.
        -11    1    3    3    0    0  0.39759966026E+02  0.90607357719E+01 -0.18102975757E+02  0.44616920138E+02  0.51100000000E-03 0.  1.
         23    2    1    0    0    0 -0.44736609735E+01  0.27597683684E+02  0.27343777869E+01  0.96908673774E+02  0.92747875682E+02 0.  0.
         11    1    3    3    0    0 -0.44233626999E+02  0.18536947912E+02  0.20837353543E+02  0.52291753636E+02  0.51100000000E-03 0. -1.
         22    1    1    0    0    0  0.44736609735E+01 -0.27597683684E+02 -0.27343777869E+01  0.28091326226E+02  0.00000000000E+00 0. -1.
</event>
<event>
 5    1  0.6622940E-004  0.9118800E+02  0.7818608E-02  0.1130116E+00
         25   -1    0    0    0    0  0.00000000000E+00  0.00000000000E+00  0.99999998245E-14  0.12500000000E+03  0.12500000000E+03 0.  0.
        -11    1    3    3    0    0 -0.35686685250E+02 -0.90444770672E+01 -0.75273473781E+01  0.37576628752E+02  0.51100000000E-03 0. -1.
         23    2    1    0    0    0  0.21205611706E+02 -0.99640172582E+01 -0.18027835014E+02  0.95437144200E+02  0.90742966945E+02 0.  0.
         11    1    3    3    0    0  0.56892296956E+02 -0.91954019095E+00 -0.10500487636E+02  0.57860515448E+02  0.51100000000E-03 0.  1.
         22    1    1    0    0    0 -0.21205611706E+02  0.99640172582E+01  0.18027835014E+02  0.29562855800E+02  0.00000000000E+00 0.  1.
</event>
<event>
 5    1  0.6622940E-004  0.9118800E+02  0.7818608E-02  0.1130116E+00
         25   -1    0    0    0    0  0.00000000000E+00  0.00000000000E+00  0.99999998245E-14  0.12500000000E+03  0.12500000000E+03 0.  0.
        -11    1    3    3    0    0  0.30797198950E+02 -0.20909236593E+02  0.60217241959E+01  0.37708418166E+02  0.51100000000E-03 0.  1.
         23    2    1    0    0    0  0.46923161376E+01  0.10295124566E+02 -0.30555320331E+02  0.92417258846E+02  0.86483031350E+02 0.  0.
         11    1    3    3    0    0 -0.26104882812E+02  0.31204361159E+02 -0.36577044527E+02  0.54708840680E+02  0.51100000000E-03 0. -1.
         22    1    1    0    0    0 -0.46923161376E+01 -0.10295124566E+02  0.30555320331E+02  0.32582741154E+02  0.00000000000E+00 0. -1.
</event>
<event>
 5    1  0.6622940E-004  0.9118800E+02  0.7818608E-02  0.1130116E+00
         25   -1    0    0    0    0  0.00000000000E+00  0.00000000000E+00  0.99999998245E-14  0.12500000000E+03  0.12500000000E+03 0.  0.
        -11    1    3    3    0    0 -0.29396992030E+02 -0.15968933001E+02 -0.88801848007E+01  0.34612824848E+02  0.51100000000E-03 0. -1.
         23    2    1    0    0    0  0.10957397488E+02  0.22364918652E+02  0.15807941301E+02  0.95501777101E+02  0.90831956245E+02 0.  0.
         11    1    3    3    0    0  0.40354389517E+02  0.38333851653E+02  0.24688126102E+02  0.60888952254E+02  0.51100000000E-03 0.  1.
         22    1    1    0    0    0 -0.10957397488E+02 -0.22364918652E+02 -0.15807941301E+02  0.29498222899E+02  0.00000000000E+00 0.  1.
</event>
<event>
 5    1  0.6622940E-004  0.9118800E+02  0.7818608E-02  0.1130116E+00
         25   -1    0    0    0    0  0.00000000000E+00  0.00000000000E+00  0.99999998245E-14  0.12500000000E+03  0.12500000000E+03 0.  0.
        -11    1    3    3    0    0  0.36127348607E+02 -0.13428697873E+01  0.11954631778E+02  0.38077576576E+02  0.51100000000E-03 0. -1.
         23    2    1    0    0    0 -0.99770722041E+01 -0.64361139371E+01 -0.24960896777E+02  0.97359234810E+02  0.93353139757E+02 0.  0.
         11    1    3    3    0    0 -0.46104420812E+02 -0.50932441498E+01 -0.36915528554E+02  0.59281658235E+02  0.51100000000E-03 0.  1.
         22    1    1    0    0    0  0.99770722041E+01  0.64361139371E+01  0.24960896777E+02  0.27640765190E+02  0.00000000000E+00 0.  1.
</event>
<event>
 5    1  0.6622940E-004  0.9118800E+02  0.7818608E-02  0.1130116E+00
         25   -1    0    0    0    0  0.00000000000E+00  0.00000000000E+00  0.99999998245E-14  0.12500000000E+03  0.12500000000E+03 0.  0.
        -11    1    3    3    0    0 -0.22503088104E+02 -0.11653566606E+02  0.50641418470E+02  0.56628154250E+02  0.51100000000E-03 0.  1.
         23    2    1    0    0    0 -0.72472778892E+01 -0.22706730579E+02  0.15301498267E+02  0.96675902493E+02  0.92433628205E+02 0.  0.
         11    1    3    3    0    0  0.15255810215E+02 -0.11053163973E+02 -0.35339920203E+02  0.40047748243E+02  0.51100000000E-03 0. -1.
         22    1    1    0    0    0  0.72472778892E+01  0.22706730579E+02 -0.15301498267E+02  0.28324097507E+02  0.00000000000E+00 0.  1.
</event>
<event>
 5    1  0.6622940E-004  0.9118800E+02  0.7818608E-02  0.1130116E+00
         25   -1    0    0    0    0  0.00000000000E+00  0.00000000000E+00  0.99999998245E-14  0.12500000000E+03  0.12500000000E+03 0.  0.
        -11    1    3    3    0    0 -0.51015775797E+02 -0.17830702518E+02 -0.22839429119E+02  0.58670118929E+02  0.51100000000E-03 0.  1.
         23    2    1    0    0    0 -0.29253714754E+02  0.36553808240E+00  0.10039298978E+01  0.95726781519E+02  0.91141074054E+02 0.  0.
         11    1    3    3    0    0  0.21762061043E+02  0.18196240600E+02  0.23843359017E+02  0.37056662590E+02  0.51100000000E-03 0. -1.
         22    1    1    0    0    0  0.29253714754E+02 -0.36553808240E+00 -0.10039298978E+01  0.29273218481E+02  0.00000000000E+00 0.  1.
</event>
<event>
 5    1  0.6622940E-004  0.9118800E+02  0.7818608E-02  0.1130116E+00
         25   -1    0    0    0    0  0.00000000000E+00  0.00000000000E+00  0.99999998245E-14  0.12500000000E+03  0.12500000000E+03 0.  0.
        -11    1    3    3    0    0  0.92398008012E+01  0.29114485113E+02 -0.18865141902E+02  0.35901542327E+02  0.51100000000E-03 0. -1.
         23    2    1    0    0    0 -0.13769806156E+01 -0.28478600184E+02 -0.58286886474E+01  0.95898447543E+02  0.91376210721E+02 0.  0.
         11    1    3    3    0    0 -0.10616781417E+02 -0.57593085297E+02  0.13036453254E+02  0.59996905216E+02  0.51100000000E-03 0.  1.
         22    1    1    0    0    0  0.13769806156E+01  0.28478600184E+02  0.58286886474E+01  0.29101552457E+02  0.00000000000E+00 0.  1.
</event>
<event>
 5    1  0.6622940E-004  0.9118800E+02  0.7818608E-02  0.1130116E+00
         25   -1    0    0    0    0  0.00000000000E+00  0.00000000000E+00  0.99999998245E-14  0.12500000000E+03  0.12500000000E+03 0.  0.
        -11    1    3    3    0    0 -0.70239219421E+01 -0.29836409045E+02 -0.35047811118E+02  0.46560668472E+02  0.51100000000E-03 0.  1.
         23    2    1    0    0    0  0.14361771519E+02 -0.23137453928E+02  0.92787603620E+01  0.96230265046E+02  0.91829005557E+02 0.  0.
         11    1    3    3    0    0  0.21385693461E+02  0.66989551167E+01  0.44326571480E+02  0.49669596575E+02  0.51100000000E-03 0. -1.
         22    1    1    0    0    0 -0.14361771519E+02  0.23137453928E+02 -0.92787603620E+01  0.28769734954E+02  0.00000000000E+00 0. -1.
</event>
<event>
 5    1  0.6622940E-004  0.9118800E+02  0.7818608E-02  0.1130116E+00
         25   -1    0    0    0    0  0.00000000000E+00  0.00000000000E+00  0.99999998245E-14  0.12500000000E+03  0.12500000000E+03 0.  0.
        -11    1    3    3    0    0 -0.59789190693E+02 -0.11415426438E+02 -0.10960344360E+01  0.60879065172E+02  0.51100000000E-03 0.  1.
         23    2    1    0    0    0 -0.25777237468E+02 -0.74017458035E+01 -0.10184535875E+02  0.96312431553E+02  0.91940784684E+02 0.  0.
         11    1    3    3    0    0  0.34011953225E+02  0.40136806346E+01 -0.90885014388E+01  0.35433366381E+02  0.51100000000E-03 0. -1.
         22    1    1    0    0    0  0.25777237468E+02  0.74017458035E+01  0.10184535875E+02  0.28687568447E+02  0.00000000000E+00 0.  1.
</event>
<event>
 5    1  0.6622940E-004  0.9118800E+02  0.7818608E-02  0.1130116E+00
         25   -1    0    0    0    0  0.00000000000E+00  0.00000000000E+00  0.99999998245E-14  0.12500000000E+03  0.12500000000E+03 0.  0.
        -11    1    3    3    0    0  0.30985357191E+02 -0.30539426166E+02 -0.11173121658E+01  0.43520079245E+02  0.51100000000E-03 0. -1.
         23    2    1    0    0    0 -0.11303046722E+02 -0.21522079239E+02 -0.22605346922E+02  0.91804210065E+02  0.85592362487E+02 0.  0.
         11    1    3    3    0    0 -0.42288403912E+02  0.90173469268E+01 -0.21488034757E+02  0.48284130820E+02  0.51100000000E-03 0.  1.
         22    1    1    0    0    0  0.11303046722E+02  0.21522079239E+02  0.22605346922E+02  0.33195789935E+02  0.00000000000E+00 0. -1.
</event>
<event>
 5    1  0.6622940E-004  0.9118800E+02  0.7818608E-02  0.1130116E+00
         25   -1    0    0    0    0  0.00000000000E+00  0.00000000000E+00  0.99999998245E-14  0.12500000000E+03  0.12500000000E+03 0.  0.
        -11    1    3    3    0    0  0.21637822596E+02 -0.13173615978E+02 -0.49964727492E+02  0.56019760069E+02  0.51100000000E-03 0.  1.
         23    2    1    0    0    0  0.43211464193E+01 -0.24648519194E+02 -0.17872847819E+02  0.94248406643E+02  0.89090412844E+02 0.  0.
         11    1    3    3    0    0 -0.17316676177E+02 -0.11474903216E+02  0.32091879673E+02  0.38228646573E+02  0.51100000000E-03 0. -1.
         22    1    1    0    0    0 -0.43211464193E+01  0.24648519194E+02  0.17872847819E+02  0.30751593357E+02  0.00000000000E+00 0.  1.
</event>
<event>
 5    1  0.6622940E-004  0.9118800E+02  0.7818608E-02  0.1130116E+00
         25   -1    0    0    0    0  0.00000000000E+00  0.00000000000E+00  0.99999998245E-14  0.12500000000E+03  0.12500000000E+03 0.  0.
        -11    1    3    3    0    0 -0.16008049239E+02 -0.29994758686E+01 -0.56412112684E+02  0.58716104722E+02  0.51100000000E-03 0.  1.
         23    2    1    0    0    0 -0.17459637024E+02  0.89913298394E+01 -0.20473145086E+02  0.96630428149E+02  0.92372111794E+02 0.  0.
         11    1    3    3    0    0 -0.14515877847E+01  0.11990805708E+02  0.35938967599E+02  0.37914323427E+02  0.51100000000E-03 0. -1.
         22    1    1    0    0    0  0.17459637024E+02 -0.89913298394E+01  0.20473145086E+02  0.28369571851E+02  0.00000000000E+00 0.  1.
</event>
<event>
 5    1  0.6622940E-004  0.9118800E+02  0.7818608E-02  0.1130116E+00
         25   -1    0    0    0    0  0.00000000000E+00  0.00000000000E+00  0.99999998245E-14  0.12500000000E+03  0.12500000000E+03 0.  0.
        -11    1    3    3    0    0  0.23782589342E+02  0.96200613297E+01 -0.28387434987E+02  0.38262299999E+02  0.51100000000E-03 0.  1.
         23    2    1    0    0    0 -0.18090098852E+02  0.17820201455E+02  0.11910751779E+02  0.96952232454E+02  0.92806562879E+02 0.  0.
         11    1    3    3    0    0 -0.41872688194E+02  0.82001401257E+01  0.40298186766E+02  0.58689932455E+02  0.51100000000E-03 0. -1.
         22    1    1    0    0    0  0.18090098852E+02 -0.17820201455E+02 -0.11910751779E+02  0.28047767546E+02  0.00000000000E+00 0. -1.
</event>
<event>
 5    1  0.6622940E-004  0.9118800E+02  0.7818608E-02  0.1130116E+00
         25   -1    0    0    0    0  0.00000000000E+00  0.00000000000E+00  0.99999998245E-14  0.12500000000E+03  0.12500000000E+03 0.  0.
        -11    1    3    3    0    0 -0.48936280796E+02 -0.30917716332E+02 -0.56625059824E+01  0.58161230519E+02  0.51100000000E-03 0. -1.
         23    2    1    0    0    0 -0.18010853296E+02 -0.28472605353E+02  0.49481816346E+01  0.90947619856E+02  0.84332111108E+02 0.  0.
         11    1    3    3    0    0  0.30925427500E+02  0.24451109792E+01  0.10610687617E+02  0.32786389336E+02  0.51100000000E-03 0.  1.
         22    1    1    0    0    0  0.18010853296E+02  0.28472605353E+02 -0.49481816346E+01  0.34052380144E+02  0.00000000000E+00 0. -1.
</event>
<event>
 5    1  0.6622940E-004  0.9118800E+02  0.7818608E-02  0.1130116E+00
         25   -1    0    0    0    0  0.00000000000E+00  0.00000000000E+00  0.99999998245E-14  0.12500000000E+03  0.12500000000E+03 0.  0.
        -11    1    3    3    0    0  0.12165882078E+02 -0.54880982877E+01  0.34422489481E+02  0.36919313264E+02  0.51100000000E-03 0.  1.
         23    2    1    0    0    0 -0.18005231926E+02 -0.14545164237E+02 -0.16343853445E+02  0.96665008826E+02  0.92418895289E+02 0.  0.
         11    1    3    3    0    0 -0.30171114004E+02 -0.90570659489E+01 -0.50766342926E+02  0.59745695562E+02  0.51100000000E-03 0. -1.
         22    1    1    0    0    0  0.18005231926E+02  0.14545164237E+02  0.16343853445E+02  0.28334991174E+02  0.00000000000E+00 0. -1.
</event>
<event>
 5    1  0.6622940E-004  0.9118800E+02  0.7818608E-02  0.1130116E+00
         25   -1    0    0    0    0  0.00000000000E+00  0.00000000000E+00  0.99999998245E-14  0.12500000000E+03  0.12500000000E+03 0.  0.
        -11    1    3    3    0    0 -0.18887566492E+02  0.44853907875E+02  0.15322239637E+02  0.51023369620E+02  0.51100000000E-03 0.  1.
         23    2    1    0    0    0 -0.28899119236E+02  0.12131029548E+02 -0.82667964943E+01  0.92586100284E+02  0.86726726394E+02 0.  0.
         11    1    3    3    0    0 -0.10011552745E+02 -0.32722878327E+02 -0.23589036131E+02  0.41562730664E+02  0.51100000000E-03 0. -1.
         22    1    1    0    0    0  0.28899119236E+02 -0.12131029548E+02  0.82667964943E+01  0.32413899716E+02  0.00000000000E+00 0.  1.
</event>
<event>
 5    1  0.6622940E-004  0.9118800E+02  0.7818608E-02  0.1130116E+00
         25   -1    0    0    0    0  0.00000000000E+00  0.00000000000E+00  0.99999998245E-14  0.12500000000E+03  0.12500000000E+03 0.  0.
        -11    1    3    3    0    0 -0.18374058885E+01  0.23510219261E+02 -0.29099016306E+02  0.37454762318E+02  0.51100000000E-03 0.  1.
         23    2    1    0    0    0 -0.16134687371E+02  0.18988464565E+02  0.22646206031E+02  0.91328935706E+02  0.84895429362E+02 0.  0.
         11    1    3    3    0    0 -0.14297281483E+02 -0.45217546965E+01  0.51745222336E+02  0.53874173388E+02  0.51100000000E-03 0. -1.
         22    1    1    0    0    0  0.16134687371E+02 -0.18988464565E+02 -0.22646206031E+02  0.33671064294E+02  0.00000000000E+00 0. -1.
</event>
<event>
 5    1  0.6622940E-004  0.9118800E+02  0.7818608E-02  0.1130116E+00
         25   -1    0    0    0    0  0.00000000000E+00  0.00000000000E+00  0.99999998245E-14  0.12500000000E+03  0.12500000000E+03 0.  0.
        -11    1    3    3    0    0 -0.56978820607E+01 -0.50522115358E+02  0.45630325843E+01  0.51046755694E+02  0.51100000000E-03 0. -1.
         23    2    1    0    0    0  0.22791522673E+02 -0.12843141453E+02  0.53822633066E+01  0.98291039960E+02  0.94592600081E+02 0.  0.
         11    1    3    3    0    0  0.28489404733E+02  0.37678973905E+02  0.81923072225E+00  0.47244284267E+02  0.51100000000E-03 0.  1.
         22    1    1    0    0    0 -0.22791522673E+02  0.12843141453E+02 -0.53822633066E+01  0.26708960040E+02  0.00000000000E+00 0. -1.
</event>
<event>
 5    1  0.6622940E-004  0.9118800E+02  0.7818608E-02  0.1130116E+00
         25   -1    0    0    0    0  0.00000000000E+00  0.00000000000E+00  0.99999998245E-14  0.12500000000E+03  0.12500000000E+03 0.  0.
        -11    1    3    3    0    0  0.44912422040E+02  0.29215214119E+02  0.27997959630E+02  0.60452792600E+02  0.51100000000E-03 0.  1.
         23    2    1    0    0    0  0.14446975384E+02  0.22704580891E+02  0.14811958089E+02  0.94281810053E+02  0.89137267814E+02 0.  0.
         11    1    3    3    0    0 -0.30465446655E+02 -0.65106332277E+01 -0.13186001541E+02  0.33829017453E+02  0.51100000000E-03 0. -1.
         22    1    1    0    0    0 -0.14446975384E+02 -0.22704580891E+02 -0.14811958089E+02  0.30718189947E+02  0.00000000000E+00 0.  1.
</event>
<event>
 5    1  0.6622940E-004  0.9118800E+02  0.7818608E-02  0.1130116E+00
         25   -1    0    0    0    0  0.00000000000E+00  0.00000000000E+00  0.99999998245E-14  0.12500000000E+03  0.12500000000E+03 0.  0.
        -11    1    3    3    0    0  0.50393852440E+01 -0.37747396462E+02 -0.26011784448E+02  0.46118047158E+02  0.51100000000E-03 0.  1.
         23    2    1    0    0    0 -0.25904355544E+02 -0.11471073690E+02 -0.25752677878E+02  0.86713950509E+02  0.77804162017E+02 0.  0.
         11    1    3    3    0    0 -0.30943740788E+02  0.26276322772E+02  0.25910656947E+00  0.40595903351E+02  0.51100000000E-03 0. -1.
         22    1    1    0    0    0  0.25904355544E+02  0.11471073690E+02  0.25752677878E+02  0.38286049491E+02  0.00000000000E+00 0. -1.
</event>
<event>
 5    1  0.6622940E-004  0.9118800E+02  0.7818608E-02  0.1130116E+00
         25   -1    0    0    0    0  0.00000000000E+00  0.00000000000E+00  0.99999998245E-14  0.12500000000E+03  0.12500000000E+03 0.  0.
        -11    1    3    3    0    0 -0.50649347922E+02  0.28086408591E+02 -0.17099235770E+01  0.57940716525E+02  0.51100000000E-03 0. -1.
         23    2    1    0    0    0 -0.24165963830E+02  0.66025797268E+01  0.14878618821E+02  0.95863061848E+02  0.91327791290E+02 0.  0.
         11    1    3    3    0    0  0.26483384093E+02 -0.21483828864E+02  0.16588542398E+02  0.37922345323E+02  0.51100000000E-03 0.  1.
         22    1    1    0    0    0  0.24165963830E+02 -0.66025797268E+01 -0.14878618821E+02  0.29136938152E+02  0.00000000000E+00 0. -1.
</event>
<event>
 5    1  0.6622940E-004  0.9118800E+02  0.7818608E-02  0.1130116E+00
         25   -1    0    0    0    0  0.00000000000E+00  0.00000000000E+00  0.99999998245E-14  0.12500000000E+03  0.12500000000E+03 0.  0.
        -11    1    3    3    0    0 -0.15805099552E+02  0.21300168987E+02  0.25970276517E+02  0.37120797855E+02  0.51100000000E-03 0. -1.
         23    2    1    0    0    0 -0.15022617607E+02 -0.23039978571E+02 -0.11509097309E+02  0.95184249579E+02  0.90393928970E+02 0.  0.
         11    1    3    3    0    0  0.78248194472E+00 -0.44340147558E+02 -0.37479373826E+02  0.58063451724E+02  0.51100000000E-03 0.  1.
         22    1    1    0    0    0  0.15022617607E+02  0.23039978571E+02  0.11509097309E+02  0.29815750421E+02  0.00000000000E+00 0.  1.
</event>
<event>
 5    1  0.6622940E-004  0.9118800E+02  0.7818608E-02  0.1130116E+00
         25   -1    0    0    0    0  0.00000000000E+00  0.00000000000E+00  0.99999998245E-14  0.12500000000E+03  0.12500000000E+03 0.  0.
        -11    1    3    3    0    0  0.35893340464E+02  0.18770678402E+02 -0.18652957945E+02  0.44593756263E+02  0.51100000000E-03 0. -1.
         23    2    1    0    0    0  0.13632497651E+02 -0.25340896182E+02 -0.78921918591E+01  0.95162226895E+02  0.90363470074E+02 0.  0.
         11    1    3    3    0    0 -0.22260842813E+02 -0.44111574584E+02  0.10760766086E+02  0.50568470632E+02  0.51100000000E-03 0.  1.
         22    1    1    0    0    0 -0.13632497651E+02  0.25340896182E+02  0.78921918591E+01  0.29837773105E+02  0.00000000000E+00 0. -1.
</event>
<event>
 5    1  0.6622940E-004  0.9118800E+02  0.7818608E-02  0.1130116E+00
         25   -1    0    0    0    0  0.00000000000E+00  0.00000000000E+00  0.99999998245E-14  0.12500000000E+03  0.12500000000E+03 0.  0.
        -11    1    3    3    0    0 -0.19356853553E+02 -0.17242799425E+02 -0.20975592911E+02  0.33346325280E+02  0.51100000000E-03 0.  1.
         23    2    1    0    0    0  0.42924456252E+01  0.15776976044E+02  0.25274123541E+02  0.94898183057E+02  0.89997476432E+02 0.  0.
         11    1    3    3    0    0  0.23649299178E+02  0.33019775469E+02  0.46249716451E+02  0.61551857776E+02  0.51100000000E-03 0. -1.
         22    1    1    0    0    0 -0.42924456252E+01 -0.15776976044E+02 -0.25274123541E+02  0.30101816943E+02  0.00000000000E+00 0. -1.
</event>
<event>
 5    1  0.6622940E-004  0.9118800E+02  0.7818608E-02  0.1130116E+00
         25   -1    0    0    0    0  0.00000000000E+00  0.00000000000E+00  0.99999998245E-14  0.12500000000E+03  0.12500000000E+03 0.  0.
        -11    1    3    3    0    0 -0.84722866619E+01  0.51354243367E+02 -0.28833465340E+02  0.59501316597E+02  0.51100000000E-03 0.  1.
         23    2    1    0    0    0  0.93486643458E+01  0.26212111769E+02 -0.16127392131E+02  0.92835343848E+02  0.87085222409E+02 0.  0.
         11    1    3    3    0    0  0.17820951008E+02 -0.25142131598E+02  0.12706073209E+02  0.33334027251E+02  0.51100000000E-03 0. -1.
         22    1    1    0    0    0 -0.93486643458E+01 -0.26212111769E+02  0.16127392131E+02  0.32164656152E+02  0.00000000000E+00 0.  1.
</event>
<event>
 5    1  0.6622940E-004  0.9118800E+02  0.7818608E-02  0.1130116E+00
         25   -1    0    0    0    0  0.00000000000E+00  0.00000000000E+00  0.99999998245E-14  0.12500000000E+03  0.12500000000E+03 0.  0.
        -11    1    3    3    0    0 -0.72329255685E+01  0.20973991964E+02  0.29415300147E+02  0.36844042045E+02  0.51100000000E-03 0. -1.
         23    2    1    0    0    0 -0.23277826912E+02 -0.14398678894E+02 -0.13291644670E+02  0.94572265979E+02  0.89543656921E+02 0.  0.
         11    1    3    3    0    0 -0.16044901344E+02 -0.35372670858E+02 -0.42706944817E+02  0.57728223934E+02  0.51100000000E-03 0.  1.
         22    1    1    0    0    0  0.23277826912E+02  0.14398678894E+02  0.13291644670E+02  0.30427734021E+02  0.00000000000E+00 0.  1.
</event>
<event>
 5    1  0.6622940E-004  0.9118800E+02  0.7818608E-02  0.1130116E+00
         25   -1    0    0    0    0  0.00000000000E+00  0.00000000000E+00  0.99999998245E-14  0.12500000000E+03  0.12500000000E+03 0.  0.
        -11    1    3    3    0    0  0.59758304783E+02  0.63752535831E+01  0.96111003567E+01  0.60861088546E+02  0.51100000000E-03 0.  1.
         23    2    1    0    0    0  0.28202947476E+02  0.10427213651E+02 -0.23261999045E+01  0.94841348888E+02  0.89918503224E+02 0.  0.
         11    1    3    3    0    0 -0.31555357306E+02  0.40519600681E+01 -0.11937300261E+02  0.33980260342E+02  0.51100000000E-03 0. -1.
         22    1    1    0    0    0 -0.28202947476E+02 -0.10427213651E+02  0.23261999045E+01  0.30158651112E+02  0.00000000000E+00 0.  1.
</event>
<event>
 5    1  0.6622940E-004  0.9118800E+02  0.7818608E-02  0.1130116E+00
         25   -1    0    0    0    0  0.00000000000E+00  0.00000000000E+00  0.99999998245E-14  0.12500000000E+03  0.12500000000E+03 0.  0.
        -11    1    3    3    0    0  0.27184981220E+02 -0.26348717881E+02 -0.40505235068E+02  0.55443234087E+02  0.51100000000E-03 0. -1.
         23    2    1    0    0    0 -0.72867594852E+01 -0.18344450648E+02 -0.22226990718E+02  0.95273667401E+02  0.90517494720E+02 0.  0.
         11    1    3    3    0    0 -0.34471740706E+02  0.80042672325E+01  0.18278244350E+02  0.39830433314E+02  0.51100000000E-03 0.  1.
         22    1    1    0    0    0  0.72867594852E+01  0.18344450648E+02  0.22226990718E+02  0.29726332599E+02  0.00000000000E+00 0. -1.
</event>
<event>
 5    1  0.6622940E-004  0.9118800E+02  0.7818608E-02  0.1130116E+00
         25   -1    0    0    0    0  0.00000000000E+00  0.00000000000E+00  0.99999998245E-14  0.12500000000E+03  0.12500000000E+03 0.  0.
        -11    1    3    3    0    0  0.95852418667E+01  0.52680732219E+02  0.28282859059E+02  0.60556226151E+02  0.51100000000E-03 0. -1.
         23    2    1    0    0    0  0.13321875015E+01  0.28363338991E+02  0.32471861168E+01  0.96420322957E+02  0.92087353850E+02 0.  0.
         11    1    3    3    0    0 -0.82530543652E+01 -0.24317393229E+02 -0.25035672942E+02  0.35864096806E+02  0.51100000000E-03 0.  1.
         22    1    1    0    0    0 -0.13321875015E+01 -0.28363338991E+02 -0.32471861168E+01  0.28579677043E+02  0.00000000000E+00 0. -1.
</event>
<event>
 5    1  0.6622940E-004  0.9118800E+02  0.7818608E-02  0.1130116E+00
         25   -1    0    0    0    0  0.00000000000E+00  0.00000000000E+00  0.99999998245E-14  0.12500000000E+03  0.12500000000E+03 0.  0.
        -11    1    3    3    0    0 -0.29783265433E+02  0.33258873880E+02  0.35072368510E+02  0.56773819889E+02  0.51100000000E-03 0.  1.
         23    2    1    0    0    0 -0.13655331958E+02  0.26454601672E+02  0.84566811502E+00  0.95216964644E+02  0.90439157233E+02 0.  0.
         11    1    3    3    0    0  0.16127933475E+02 -0.68042722084E+01 -0.34226700395E+02  0.38443144755E+02  0.51100000000E-03 0. -1.
         22    1    1    0    0    0  0.13655331958E+02 -0.26454601672E+02 -0.84566811502E+00  0.29783035356E+02  0.00000000000E+00 0.  1.
</event>
<event>
 5    1  0.6622940E-004  0.9118800E+02  0.7818608E-02  0.1130116E+00
         25   -1    0    0    0    0  0.00000000000E+00  0.00000000000E+00  0.99999998245E-14  0.12500000000E+03  0.12500000000E+03 0.  0.
        -11    1    3    3    0    0 -0.52984080060E+02  0.80925609376E+01  0.18396268526E+02  0.56667671368E+02  0.51100000000E-03 0.  1.
         23    2    1    0    0    0 -0.20148612328E+02 -0.12729759886E+02  0.17274581377E+02  0.95564909933E+02  0.90918796095E+02 0.  0.
         11    1    3    3    0    0  0.32835467732E+02 -0.20822320823E+02 -0.11216871496E+01  0.38897238565E+02  0.51100000000E-03 0. -1.
         22    1    1    0    0    0  0.20148612328E+02  0.12729759886E+02 -0.17274581377E+02  0.29435090067E+02  0.00000000000E+00 0.  1.
</event>
<event>
 5    1  0.6622940E-004  0.9118800E+02  0.7818608E-02  0.1130116E+00
         25   -1    0    0    0    0  0.00000000000E+00  0.00000000000E+00  0.99999998245E-14  0.12500000000E+03  0.12500000000E+03 0.  0.
        -11    1    3    3    0    0 -0.45445685192E+02  0.22865199004E+02  0.17423553634E+02  0.53774602272E+02  0.51100000000E-03 0.  1.
         23    2    1    0    0    0 -0.43659481911E+01  0.14514432762E+02  0.24404471117E+02  0.96271817452E+02  0.91885550350E+02 0.  0.
         11    1    3    3    0    0  0.41079737001E+02 -0.83507662424E+01  0.69809174829E+01  0.42497215180E+02  0.51100000000E-03 0. -1.
         22    1    1    0    0    0  0.43659481911E+01 -0.14514432762E+02 -0.24404471117E+02  0.28728182548E+02  0.00000000000E+00 0.  1.
</event>
<event>
 5    1  0.6622940E-004  0.9118800E+02  0.7818608E-02  0.1130116E+00
         25   -1    0    0    0    0  0.00000000000E+00  0.00000000000E+00  0.99999998245E-14  0.12500000000E+03  0.12500000000E+03 0.  0.
        -11    1    3    3    0    0 -0.20358681518E+02  0.88015963934E+01  0.28519896237E+02  0.36129330105E+02  0.51100000000E-03 0.  1.
         23    2    1    0    0    0  0.23860509651E+02 -0.16124746501E+02 -0.32603384234E+01  0.96017916273E+02  0.91539494581E+02 0.  0.
         11    1    3    3    0    0  0.44219191169E+02 -0.24926342895E+02 -0.31780234661E+02  0.59888586167E+02  0.51100000000E-03 0. -1.
         22    1    1    0    0    0 -0.23860509651E+02  0.16124746501E+02  0.32603384234E+01  0.28982083727E+02  0.00000000000E+00 0. -1.
</event>
<event>
 5    1  0.6622940E-004  0.9118800E+02  0.7818608E-02  0.1130116E+00
         25   -1    0    0    0    0  0.00000000000E+00  0.00000000000E+00  0.99999998245E-14  0.12500000000E+03  0.12500000000E+03 0.  0.
        -11    1    3    3    0    0  0.29793004850E+02 -0.21924900153E+02 -0.43006597899E+00  0.36993368889E+02  0.51100000000E-03 0. -1.
         23    2    1    0    0    0 -0.26327655436E+02 -0.37348818702E+01  0.93889428898E+01  0.96799875320E+02  0.92601127585E+02 0.  0.
         11    1    3    3    0    0 -0.56120660287E+02  0.18190018282E+02  0.98190088688E+01  0.59806506432E+02  0.51100000000E-03 0.  1.
         22    1    1    0    0    0  0.26327655436E+02  0.37348818702E+01 -0.93889428898E+01  0.28200124680E+02  0.00000000000E+00 0.  1.
</event>
<event>
 5    1  0.6622940E-004  0.9118800E+02  0.7818608E-02  0.1130116E+00
         25   -1    0    0    0    0  0.00000000000E+00  0.00000000000E+00  0.99999998245E-14  0.12500000000E+03  0.12500000000E+03 0.  0.
        -11    1    3    3    0    0  0.60453461133E+01 -0.30564660202E+02 -0.19228638368E+02  0.36612637117E+02  0.51100000000E-03 0. -1.
         23    2    1    0    0    0 -0.16619839592E+02  0.54098105477E+01  0.22715500133E+02  0.96338543922E+02  0.91976279444E+02 0.  0.
         11    1    3    3    0    0 -0.22665185705E+02  0.35974470750E+02  0.41944138501E+02  0.59725906805E+02  0.51100000000E-03 0.  1.
         22    1    1    0    0    0  0.16619839592E+02 -0.54098105477E+01 -0.22715500133E+02  0.28661456078E+02  0.00000000000E+00 0.  1.
</event>
<event>
 5    1  0.6622940E-004  0.9118800E+02  0.7818608E-02  0.1130116E+00
         25   -1    0    0    0    0  0.00000000000E+00  0.00000000000E+00  0.99999998245E-14  0.12500000000E+03  0.12500000000E+03 0.  0.
        -11    1    3    3    0    0  0.44291928721E+02 -0.24524947069E+02 -0.29672219031E+01  0.50715405792E+02  0.51100000000E-03 0.  1.
         23    2    1    0    0    0  0.22527760119E+02  0.15471989717E+02  0.57378539345E+01  0.97075003858E+02  0.92971775096E+02 0.  0.
         11    1    3    3    0    0 -0.21764168602E+02  0.39996936786E+02  0.87050758376E+01  0.46359598066E+02  0.51100000000E-03 0. -1.
         22    1    1    0    0    0 -0.22527760119E+02 -0.15471989717E+02 -0.57378539345E+01  0.27924996142E+02  0.00000000000E+00 0. -1.
</event>
<event>
 5    1  0.6622940E-004  0.9118800E+02  0.7818608E-02  0.1130116E+00
         25   -1    0    0    0    0  0.00000000000E+00  0.00000000000E+00  0.99999998245E-14  0.12500000000E+03  0.12500000000E+03 0.  0.
        -11    1    3    3    0    0  0.32446016944E+02  0.19951783239E+02 -0.42902674654E+02  0.57371222427E+02  0.51100000000E-03 0.  1.
         23    2    1    0    0    0  0.89652541204E+00  0.20699661980E+02 -0.17186230726E+02  0.98080744987E+02  0.94314295029E+02 0.  0.
         11    1    3    3    0    0 -0.31549491532E+02  0.74787874018E+00  0.25716443929E+02  0.40709522561E+02  0.51100000000E-03 0. -1.
         22    1    1    0    0    0 -0.89652541204E+00 -0.20699661980E+02  0.17186230726E+02  0.26919255013E+02  0.00000000000E+00 0.  1.
</event>
<event>
 5    1  0.6622940E-004  0.9118800E+02  0.7818608E-02  0.1130116E+00
         25   -1    0    0    0    0  0.00000000000E+00  0.00000000000E+00  0.99999998245E-14  0.12500000000E+03  0.12500000000E+03 0.  0.
        -11    1    3    3    0    0 -0.21998103511E+02  0.36337106896E+01 -0.48797725766E+02  0.53650148663E+02  0.51100000000E-03 0. -1.
         23    2    1    0    0    0 -0.27432434392E+02 -0.61350869795E+01 -0.82592518479E+01  0.95701655508E+02  0.91106607208E+02 0.  0.
         11    1    3    3    0    0 -0.54343308811E+01 -0.97687976691E+01  0.40538473918E+02  0.42051506844E+02  0.51100000000E-03 0.  1.
         22    1    1    0    0    0  0.27432434392E+02  0.61350869795E+01  0.82592518479E+01  0.29298344492E+02  0.00000000000E+00 0. -1.
</event>
<event>
 5    1  0.6622940E-004  0.9118800E+02  0.7818608E-02  0.1130116E+00
         25   -1    0    0    0    0  0.00000000000E+00  0.00000000000E+00  0.99999998245E-14  0.12500000000E+03  0.12500000000E+03 0.  0.
        -11    1    3    3    0    0  0.39684422864E+02  0.20448020118E+02 -0.34554971535E+02  0.56453706723E+02  0.51100000000E-03 0.  1.
         23    2    1    0    0    0  0.16867066246E+02  0.22597174715E+02 -0.13891548001E+01  0.96767749294E+02  0.92557751288E+02 0.  0.
         11    1    3    3    0    0 -0.22817356617E+02  0.21491545969E+01  0.33165816735E+02  0.40314042571E+02  0.51100000000E-03 0. -1.
         22    1    1    0    0    0 -0.16867066246E+02 -0.22597174715E+02  0.13891548001E+01  0.28232250706E+02  0.00000000000E+00 0.  1.
</event>
<event>
 5    1  0.6622940E-004  0.9118800E+02  0.7818608E-02  0.1130116E+00
         25   -1    0    0    0    0  0.00000000000E+00  0.00000000000E+00  0.99999998245E-14  0.12500000000E+03  0.12500000000E+03 0.  0.
        -11    1    3    3    0    0  0.13559710350E+01 -0.55913320485E+02 -0.83260575598E+01  0.56546098892E+02  0.51100000000E-03 0. -1.
         23    2    1    0    0    0 -0.93581710897E+00 -0.23735106554E+02  0.15487747512E+02  0.96643318957E+02  0.92389554275E+02 0.  0.
         11    1    3    3    0    0 -0.22917881440E+01  0.32178213931E+02  0.23813805072E+02  0.40097220065E+02  0.51100000000E-03 0.  1.
         22    1    1    0    0    0  0.93581710897E+00  0.23735106554E+02 -0.15487747512E+02  0.28356681043E+02  0.00000000000E+00 0.  1.
</event>
<event>
 5    1  0.6622940E-004  0.9118800E+02  0.7818608E-02  0.1130116E+00
         25   -1    0    0    0    0  0.00000000000E+00  0.00000000000E+00  0.99999998245E-14  0.12500000000E+03  0.12500000000E+03 0.  0.
        -11    1    3    3    0    0  0.56057401973E+02  0.81863048782E+01  0.16929598616E+01  0.56677279547E+02  0.51100000000E-03 0. -1.
         23    2    1    0    0    0  0.20500201439E+02  0.30850830164E+01  0.19294747523E+02  0.96679278289E+02  0.92438193255E+02 0.  0.
         11    1    3    3    0    0 -0.35557200533E+02 -0.51012218618E+01  0.17601787661E+02  0.40001998742E+02  0.51100000000E-03 0.  1.
         22    1    1    0    0    0 -0.20500201439E+02 -0.30850830164E+01 -0.19294747523E+02  0.28320721711E+02  0.00000000000E+00 0. -1.
</event>
<event>
 5    1  0.6622940E-004  0.9118800E+02  0.7818608E-02  0.1130116E+00
         25   -1    0    0    0    0  0.00000000000E+00  0.00000000000E+00  0.99999998245E-14  0.12500000000E+03  0.12500000000E+03 0.  0.
        -11    1    3    3    0    0  0.38063194381E+02 -0.45210530424E+02 -0.12727855511E+02  0.60454918194E+02  0.51100000000E-03 0. -1.
         23    2    1    0    0    0  0.25483262775E+02 -0.13516765427E+02 -0.25459184006E+01  0.96041731237E+02  0.91572008874E+02 0.  0.
         11    1    3    3    0    0 -0.12579931606E+02  0.31693764998E+02  0.10181937111E+02  0.35586813043E+02  0.51100000000E-03 0.  1.
         22    1    1    0    0    0 -0.25483262775E+02  0.13516765427E+02  0.25459184006E+01  0.28958268763E+02  0.00000000000E+00 0. -1.
</event>
<event>
 5    1  0.6622940E-004  0.9118800E+02  0.7818608E-02  0.1130116E+00
         25   -1    0    0    0    0  0.00000000000E+00  0.00000000000E+00  0.99999998245E-14  0.12500000000E+03  0.12500000000E+03 0.  0.
        -11    1    3    3    0    0 -0.77281098102E+01 -0.44129193682E+02 -0.29715612892E+02  0.53759902028E+02  0.51100000000E-03 0. -1.
         23    2    1    0    0    0  0.19248909445E+02 -0.21034057799E+02 -0.79966021156E+01  0.95387540668E+02  0.90674611479E+02 0.  0.
         11    1    3    3    0    0  0.26977019255E+02  0.23095135883E+02  0.21719010776E+02  0.41627638640E+02  0.51100000000E-03 0.  1.
         22    1    1    0    0    0 -0.19248909445E+02  0.21034057799E+02  0.79966021156E+01  0.29612459332E+02  0.00000000000E+00 0.  1.
</event>
<event>
 5    1  0.6622940E-004  0.9118800E+02  0.7818608E-02  0.1130116E+00
         25   -1    0    0    0    0  0.00000000000E+00  0.00000000000E+00  0.99999998245E-14  0.12500000000E+03  0.12500000000E+03 0.  0.
        -11    1    3    3    0    0  0.29912273884E+02  0.36508074248E+02  0.35968230398E+02  0.59340519145E+02  0.51100000000E-03 0. -1.
         23    2    1    0    0    0  0.39484037235E+01  0.26284614549E+02  0.13372347655E+02  0.95246167713E+02  0.90479511097E+02 0.  0.
         11    1    3    3    0    0 -0.25963870160E+02 -0.10223459699E+02 -0.22595882743E+02  0.35905648569E+02  0.51100000000E-03 0.  1.
         22    1    1    0    0    0 -0.39484037235E+01 -0.26284614549E+02 -0.13372347655E+02  0.29753832287E+02  0.00000000000E+00 0. -1.
</event>
<event>
 5    1  0.6622940E-004  0.9118800E+02  0.7818608E-02  0.1130116E+00
         25   -1    0    0    0    0  0.00000000000E+00  0.00000000000E+00  0.99999998245E-14  0.12500000000E+03  0.12500000000E+03 0.  0.
        -11    1    3    3    0    0  0.55068389466E+02 -0.19742948059E+02  0.12607596900E+02  0.59843654770E+02  0.51100000000E-03 0. -1.
         23    2    1    0    0    0  0.20647949297E+02 -0.18034746358E+02 -0.24973303860E+01  0.97471350461E+02  0.93503142275E+02 0.  0.
         11    1    3    3    0    0 -0.34420440169E+02  0.17082017011E+01 -0.15104927286E+02  0.37627695691E+02  0.51100000000E-03 0.  1.
         22    1    1    0    0    0 -0.20647949297E+02  0.18034746358E+02  0.24973303860E+01  0.27528649539E+02  0.00000000000E+00 0. -1.
</event>
<event>
 5    1  0.6622940E-004  0.9118800E+02  0.7818608E-02  0.1130116E+00
         25   -1    0    0    0    0  0.00000000000E+00  0.00000000000E+00  0.99999998245E-14  0.12500000000E+03  0.12500000000E+03 0.  0.
        -11    1    3    3    0    0  0.11806480677E+02 -0.17607948189E+02 -0.29678859025E+02  0.36472832337E+02  0.51100000000E-03 0.  1.
         23    2    1    0    0    0  0.17543800046E+02  0.73341857012E+01  0.23070445883E+02  0.95103166168E+02  0.90281734265E+02 0.  0.
         11    1    3    3    0    0  0.57373193691E+01  0.24942133891E+02  0.52749304908E+02  0.58630333830E+02  0.51100000000E-03 0. -1.
         22    1    1    0    0    0 -0.17543800046E+02 -0.73341857012E+01 -0.23070445883E+02  0.29896833832E+02  0.00000000000E+00 0. -1.
</event>
<event>
 5    1  0.6622940E-004  0.9118800E+02  0.7818608E-02  0.1130116E+00
         25   -1    0    0    0    0  0.00000000000E+00  0.00000000000E+00  0.99999998245E-14  0.12500000000E+03  0.12500000000E+03 0.  0.
        -11    1    3    3    0    0 -0.23138246228E+02 -0.91420469898E+01 -0.51922098235E+02  0.57574818689E+02  0.51100000000E-03 0.  1.
         23    2    1    0    0    0 -0.13947344101E+02 -0.18555317423E+02 -0.13590017579E+02  0.98101732585E+02  0.94342106963E+02 0.  0.
         11    1    3    3    0    0  0.91909021277E+01 -0.94132704336E+01  0.38332080656E+02  0.40526913895E+02  0.51100000000E-03 0. -1.
         22    1    1    0    0    0  0.13947344101E+02  0.18555317423E+02  0.13590017579E+02  0.26898267415E+02  0.00000000000E+00 0.  1.
</event>
<event>
 5    1  0.6622940E-004  0.9118800E+02  0.7818608E-02  0.1130116E+00
         25   -1    0    0    0    0  0.00000000000E+00  0.00000000000E+00  0.99999998245E-14  0.12500000000E+03  0.12500000000E+03 0.  0.
        -11    1    3    3    0    0 -0.47224523773E+02 -0.33240961601E+02  0.36796896143E+00  0.57751645649E+02  0.51100000000E-03 0.  1.
         23    2    1    0    0    0 -0.90037586199E+01 -0.27073655327E+02  0.12100645426E-01  0.96468427514E+02  0.92152628170E+02 0.  0.
         11    1    3    3    0    0  0.38220765153E+02  0.61673062736E+01 -0.35586831600E+00  0.38716781866E+02  0.51100000000E-03 0. -1.
         22    1    1    0    0    0  0.90037586199E+01  0.27073655327E+02 -0.12100645426E-01  0.28531572486E+02  0.00000000000E+00 0.  1.
</event>
<event>
 5    1  0.6622940E-004  0.9118800E+02  0.7818608E-02  0.1130116E+00
         25   -1    0    0    0    0  0.00000000000E+00  0.00000000000E+00  0.99999998245E-14  0.12500000000E+03  0.12500000000E+03 0.  0.
        -11    1    3    3    0    0  0.32722927373E+02  0.74696554740E+00  0.84641780974E+01  0.33808138732E+02  0.51100000000E-03 0.  1.
         23    2    1    0    0    0 -0.27384814480E+02  0.11010960749E+02 -0.73128360124E+00  0.95475364584E+02  0.90795600918E+02 0.  0.
         11    1    3    3    0    0 -0.60107741853E+02  0.10263995202E+02 -0.91954616986E+01  0.61667225852E+02  0.51100000000E-03 0. -1.
         22    1    1    0    0    0  0.27384814480E+02 -0.11010960749E+02  0.73128360124E+00  0.29524635416E+02  0.00000000000E+00 0. -1.
</event>
<event>
 5    1  0.6622940E-004  0.9118800E+02  0.7818608E-02  0.1130116E+00
         25   -1    0    0    0    0  0.00000000000E+00  0.00000000000E+00  0.99999998245E-14  0.12500000000E+03  0.12500000000E+03 0.  0.
        -11    1    3    3    0    0 -0.54379181908E+02  0.14055247893E+02  0.27168300833E+02  0.62392002602E+02  0.51100000000E-03 0.  1.
         23    2    1    0    0    0 -0.25839331201E+02  0.82655086264E+01  0.10782537286E+02  0.95806631231E+02  0.91250522232E+02 0.  0.
         11    1    3    3    0    0  0.28539850707E+02 -0.57897392667E+01 -0.16385763547E+02  0.33414628629E+02  0.51100000000E-03 0. -1.
         22    1    1    0    0    0  0.25839331201E+02 -0.82655086264E+01 -0.10782537286E+02  0.29193368769E+02  0.00000000000E+00 0.  1.
</event>
<event>
 5    1  0.6622940E-004  0.9118800E+02  0.7818608E-02  0.1130116E+00
         25   -1    0    0    0    0  0.00000000000E+00  0.00000000000E+00  0.99999998245E-14  0.12500000000E+03  0.12500000000E+03 0.  0.
        -11    1    3    3    0    0  0.50677024250E+02  0.14937352006E+02 -0.15478637656E+01  0.52855285018E+02  0.51100000000E-03 0. -1.
         23    2    1    0    0    0  0.16753503561E+02  0.12532006901E+01  0.22712909126E+02  0.96748864899E+02  0.92532244244E+02 0.  0.
         11    1    3    3    0    0 -0.33923520690E+02 -0.13684151316E+02  0.24260772892E+02  0.43893579881E+02  0.51100000000E-03 0.  1.
         22    1    1    0    0    0 -0.16753503561E+02 -0.12532006901E+01 -0.22712909126E+02  0.28251135101E+02  0.00000000000E+00 0.  1.
</event>
<event>
 5    1  0.6622940E-004  0.9118800E+02  0.7818608E-02  0.1130116E+00
         25   -1    0    0    0    0  0.00000000000E+00  0.00000000000E+00  0.99999998245E-14  0.12500000000E+03  0.12500000000E+03 0.  0.
        -11    1    3    3    0    0  0.35270414323E+02 -0.47703788397E+02 -0.17324473067E+02  0.61804457131E+02  0.51100000000E-03 0.  1.
         23    2    1    0    0    0  0.11770976311E+02 -0.22817513937E+02 -0.21809379772E+01  0.99232747216E+02  0.95828945543E+02 0.  0.
         11    1    3    3    0    0 -0.23499438012E+02  0.24886274460E+02  0.15143535090E+02  0.37428290085E+02  0.51100000000E-03 0. -1.
         22    1    1    0    0    0 -0.11770976311E+02  0.22817513937E+02  0.21809379772E+01  0.25767252784E+02  0.00000000000E+00 0.  1.
</event>
<event>
 5    1  0.6622940E-004  0.9118800E+02  0.7818608E-02  0.1130116E+00
         25   -1    0    0    0    0  0.00000000000E+00  0.00000000000E+00  0.99999998245E-14  0.12500000000E+03  0.12500000000E+03 0.  0.
        -11    1    3    3    0    0 -0.14792867045E+02 -0.15013881623E+02 -0.30088747769E+02  0.36736607075E+02  0.51100000000E-03 0.  1.
         23    2    1    0    0    0 -0.24402086828E+02 -0.75165019323E+00  0.22336230941E+02  0.91910212569E+02  0.85747029932E+02 0.  0.
         11    1    3    3    0    0 -0.96092197828E+01  0.14262231430E+02  0.52424978710E+02  0.55173605494E+02  0.51100000000E-03 0. -1.
         22    1    1    0    0    0  0.24402086828E+02  0.75165019323E+00 -0.22336230941E+02  0.33089787431E+02  0.00000000000E+00 0. -1.
</event>
<event>
 5    1  0.6622940E-004  0.9118800E+02  0.7818608E-02  0.1130116E+00
         25   -1    0    0    0    0  0.00000000000E+00  0.00000000000E+00  0.99999998245E-14  0.12500000000E+03  0.12500000000E+03 0.  0.
        -11    1    3    3    0    0 -0.29659217538E+01 -0.20556811259E+02 -0.18770484869E+02  0.27994826012E+02  0.51100000000E-03 0. -1.
         23    2    1    0    0    0 -0.28944960390E+00  0.36059162547E+02  0.32326434423E+01  0.88795069835E+02  0.81078773170E+02 0.  0.
         11    1    3    3    0    0  0.26764721499E+01  0.56615973806E+02  0.22003128311E+02  0.60800243822E+02  0.51100000000E-03 0.  1.
         22    1    1    0    0    0  0.28944960390E+00 -0.36059162547E+02 -0.32326434423E+01  0.36204930165E+02  0.00000000000E+00 0.  1.
</event>
<event>
 5    1  0.6622940E-004  0.9118800E+02  0.7818608E-02  0.1130116E+00
         25   -1    0    0    0    0  0.00000000000E+00  0.00000000000E+00  0.99999998245E-14  0.12500000000E+03  0.12500000000E+03 0.  0.
        -11    1    3    3    0    0 -0.33878378273E+02  0.30418782823E+02  0.37537427499E+02  0.59009366429E+02  0.51100000000E-03 0.  1.
         23    2    1    0    0    0 -0.15988174829E+02  0.22980888912E+01  0.26213238476E+02  0.94209793468E+02  0.89036219411E+02 0.  0.
         11    1    3    3    0    0  0.17890203444E+02 -0.28120693932E+02 -0.11324189023E+02  0.35200427039E+02  0.51100000000E-03 0. -1.
         22    1    1    0    0    0  0.15988174829E+02 -0.22980888912E+01 -0.26213238476E+02  0.30790206532E+02  0.00000000000E+00 0.  1.
</event>
<event>
 5    1  0.6622940E-004  0.9118800E+02  0.7818608E-02  0.1130116E+00
         25   -1    0    0    0    0  0.00000000000E+00  0.00000000000E+00  0.99999998245E-14  0.12500000000E+03  0.12500000000E+03 0.  0.
        -11    1    3    3    0    0 -0.33096435864E+01 -0.29630959222E+01 -0.32422614589E+02  0.32725519326E+02  0.51100000000E-03 0.  1.
         23    2    1    0    0    0 -0.73195128912E+01  0.15124202864E+02  0.26015645879E+02  0.94030166100E+02  0.88783678259E+02 0.  0.
         11    1    3    3    0    0 -0.40098693047E+01  0.18087298787E+02  0.58438260469E+02  0.61304646774E+02  0.51100000000E-03 0. -1.
         22    1    1    0    0    0  0.73195128912E+01 -0.15124202864E+02 -0.26015645879E+02  0.30969833900E+02  0.00000000000E+00 0. -1.
</event>
<event>
 5    1  0.6622940E-004  0.9118800E+02  0.7818608E-02  0.1130116E+00
         25   -1    0    0    0    0  0.00000000000E+00  0.00000000000E+00  0.99999998245E-14  0.12500000000E+03  0.12500000000E+03 0.  0.
        -11    1    3    3    0    0 -0.94380656039E+01 -0.38162862106E+00 -0.60172674405E+02  0.60909551533E+02  0.51100000000E-03 0.  1.
         23    2    1    0    0    0  0.40913215912E+01  0.50287341370E+01 -0.28481546112E+02  0.95789975209E+02  0.91227703042E+02 0.  0.
         11    1    3    3    0    0  0.13529387195E+02  0.54103627581E+01  0.31691128293E+02  0.34880423676E+02  0.51100000000E-03 0. -1.
         22    1    1    0    0    0 -0.40913215912E+01 -0.50287341370E+01  0.28481546112E+02  0.29210024791E+02  0.00000000000E+00 0.  1.
</event>
<event>
 5    1  0.6622940E-004  0.9118800E+02  0.7818608E-02  0.1130116E+00
         25   -1    0    0    0    0  0.00000000000E+00  0.00000000000E+00  0.99999998245E-14  0.12500000000E+03  0.12500000000E+03 0.  0.
        -11    1    3    3    0    0 -0.21705976073E+02  0.36238680657E+02  0.17175263704E+02  0.45600230883E+02  0.51100000000E-03 0.  1.
         23    2    1    0    0    0  0.93225142307E+00  0.17302039816E+02 -0.23467493714E+02  0.95828902390E+02  0.91281025397E+02 0.  0.
         11    1    3    3    0    0  0.22638227496E+02 -0.18936640841E+02 -0.40642757418E+02  0.50228671507E+02  0.51100000000E-03 0. -1.
         22    1    1    0    0    0 -0.93225142307E+00 -0.17302039816E+02  0.23467493714E+02  0.29171097610E+02  0.00000000000E+00 0. -1.
</event>
<event>
 5    1  0.6622940E-004  0.9118800E+02  0.7818608E-02  0.1130116E+00
         25   -1    0    0    0    0  0.00000000000E+00  0.00000000000E+00  0.99999998245E-14  0.12500000000E+03  0.12500000000E+03 0.  0.
        -11    1    3    3    0    0 -0.24552911362E+02 -0.49538713737E+02 -0.99540338036E+01  0.56178398021E+02  0.51100000000E-03 0.  1.
         23    2    1    0    0    0 -0.24497924839E+02 -0.10723537468E+02  0.50364455323E+01  0.97787716729E+02  0.93925125404E+02 0.  0.
         11    1    3    3    0    0  0.54986522800E-01  0.38815176269E+02  0.14990479336E+02  0.41609318707E+02  0.51100000000E-03 0. -1.
         22    1    1    0    0    0  0.24497924839E+02  0.10723537468E+02 -0.50364455323E+01  0.27212283271E+02  0.00000000000E+00 0.  1.
</event>
<event>
 5    1  0.6622940E-004  0.9118800E+02  0.7818608E-02  0.1130116E+00
         25   -1    0    0    0    0  0.00000000000E+00  0.00000000000E+00  0.99999998245E-14  0.12500000000E+03  0.12500000000E+03 0.  0.
        -11    1    3    3    0    0 -0.23179337428E+02 -0.46905246654E+01  0.29739594040E+02  0.37996396661E+02  0.51100000000E-03 0.  1.
         23    2    1    0    0    0  0.22510068777E+02 -0.18121142782E+02 -0.32365237232E+01  0.95921587082E+02  0.91407859457E+02 0.  0.
         11    1    3    3    0    0  0.45689406205E+02 -0.13430618116E+02 -0.32976117763E+02  0.57925190421E+02  0.51100000000E-03 0. -1.
         22    1    1    0    0    0 -0.22510068777E+02  0.18121142782E+02  0.32365237232E+01  0.29078412918E+02  0.00000000000E+00 0. -1.
</event>
<event>
 5    1  0.6622940E-004  0.9118800E+02  0.7818608E-02  0.1130116E+00
         25   -1    0    0    0    0  0.00000000000E+00  0.00000000000E+00  0.99999998245E-14  0.12500000000E+03  0.12500000000E+03 0.  0.
        -11    1    3    3    0    0 -0.29017233330E+02  0.43719860604E+02  0.93042872026E+01  0.53291610990E+02  0.51100000000E-03 0.  1.
         23    2    1    0    0    0 -0.25597058863E+02  0.22306519306E+01  0.14903597115E+02  0.95296423827E+02  0.90548914719E+02 0.  0.
         11    1    3    3    0    0  0.34201744671E+01 -0.41489208673E+02  0.55993099128E+01  0.42004812837E+02  0.51100000000E-03 0. -1.
         22    1    1    0    0    0  0.25597058863E+02 -0.22306519306E+01 -0.14903597115E+02  0.29703576173E+02  0.00000000000E+00 0.  1.
</event>
<event>
 5    1  0.6622940E-004  0.9118800E+02  0.7818608E-02  0.1130116E+00
         25   -1    0    0    0    0  0.00000000000E+00  0.00000000000E+00  0.99999998245E-14  0.12500000000E+03  0.12500000000E+03 0.  0.
        -11    1    3    3    0    0  0.85078687287E+01 -0.33605957012E+02 -0.40610689193E+01  0.34903244233E+02  0.51100000000E-03 0. -1.
         23    2    1    0    0    0 -0.13034164523E+02  0.81876951169E+01  0.28853292844E+02  0.92297701853E+02  0.86310054242E+02 0.  0.
         11    1    3    3    0    0 -0.21542033251E+02  0.41793652129E+02  0.32914361764E+02  0.57394457620E+02  0.51100000000E-03 0.  1.
         22    1    1    0    0    0  0.13034164523E+02 -0.81876951169E+01 -0.28853292844E+02  0.32702298147E+02  0.00000000000E+00 0.  1.
</event>
<event>
 5    1  0.6622940E-004  0.9118800E+02  0.7818608E-02  0.1130116E+00
         25   -1    0    0    0    0  0.00000000000E+00  0.00000000000E+00  0.99999998245E-14  0.12500000000E+03  0.12500000000E+03 0.  0.
        -11    1    3    3    0    0  0.82921324264E+01  0.15706870675E+02  0.46318078600E+02  0.49606750066E+02  0.51100000000E-03 0.  1.
         23    2    1    0    0    0 -0.13407308912E+01  0.28909259747E+02  0.30007919010E+01  0.95904508760E+02  0.91384501914E+02 0.  0.
         11    1    3    3    0    0 -0.96328633176E+01  0.13202389072E+02 -0.43317286699E+02  0.46297758695E+02  0.51100000000E-03 0. -1.
         22    1    1    0    0    0  0.13407308912E+01 -0.28909259747E+02 -0.30007919010E+01  0.29095491240E+02  0.00000000000E+00 0.  1.
</event>
<event>
 5    1  0.6622940E-004  0.9118800E+02  0.7818608E-02  0.1130116E+00
         25   -1    0    0    0    0  0.00000000000E+00  0.00000000000E+00  0.99999998245E-14  0.12500000000E+03  0.12500000000E+03 0.  0.
        -11    1    3    3    0    0  0.22873181758E+02 -0.54272751357E+02 -0.66772557329E+01  0.59273094469E+02  0.51100000000E-03 0. -1.
         23    2    1    0    0    0 -0.19830660361E+00 -0.29290081546E+02  0.51151049297E+01  0.95265970658E+02  0.90506865289E+02 0.  0.
         11    1    3    3    0    0 -0.23071488361E+02  0.24982669811E+02  0.11792360663E+02  0.35992876189E+02  0.51100000000E-03 0.  1.
         22    1    1    0    0    0  0.19830660361E+00  0.29290081546E+02 -0.51151049297E+01  0.29734029342E+02  0.00000000000E+00 0. -1.
</event>
<event>
 5    1  0.6622940E-004  0.9118800E+02  0.7818608E-02  0.1130116E+00
         25   -1    0    0    0    0  0.00000000000E+00  0.00000000000E+00  0.99999998245E-14  0.12500000000E+03  0.12500000000E+03 0.  0.
        -11    1    3    3    0    0 -0.33733619215E+02 -0.11408749046E+02  0.24240793901E+02  0.43078216181E+02  0.51100000000E-03 0.  1.
         23    2    1    0    0    0 -0.20361795835E+02 -0.63186549657E+01 -0.23707799170E+02  0.93116024845E+02  0.87487177411E+02 0.  0.
         11    1    3    3    0    0  0.13371823380E+02  0.50900940799E+01 -0.47948593070E+02  0.50037808665E+02  0.51100000000E-03 0. -1.
         22    1    1    0    0    0  0.20361795835E+02  0.63186549657E+01  0.23707799170E+02  0.31883975155E+02  0.00000000000E+00 0. -1.
</event>
<event>
 5    1  0.6622940E-004  0.9118800E+02  0.7818608E-02  0.1130116E+00
         25   -1    0    0    0    0  0.00000000000E+00  0.00000000000E+00  0.99999998245E-14  0.12500000000E+03  0.12500000000E+03 0.  0.
        -11    1    3    3    0    0 -0.16473240647E+02 -0.28380494915E+02 -0.80119649877E+01  0.33778865171E+02  0.51100000000E-03 0.  1.
         23    2    1    0    0    0  0.41419640972E+01 -0.13017831675E+02  0.36968324164E+02  0.85588367205E+02  0.75974283815E+02 0.  0.
         11    1    3    3    0    0  0.20615204744E+02  0.15362663240E+02  0.44980289152E+02  0.51809502033E+02  0.51100000000E-03 0. -1.
         22    1    1    0    0    0 -0.41419640972E+01  0.13017831675E+02 -0.36968324164E+02  0.39411632795E+02  0.00000000000E+00 0. -1.
</event>
<event>
 5    1  0.6622940E-004  0.9118800E+02  0.7818608E-02  0.1130116E+00
         25   -1    0    0    0    0  0.00000000000E+00  0.00000000000E+00  0.99999998245E-14  0.12500000000E+03  0.12500000000E+03 0.  0.
        -11    1    3    3    0    0 -0.18350704790E+02  0.40886911922E+02  0.41747161649E+02  0.61247966814E+02  0.51100000000E-03 0.  1.
         23    2    1    0    0    0 -0.95312517688E+00  0.23709873648E+02  0.20129252097E+02  0.93883230470E+02  0.88576563591E+02 0.  0.
         11    1    3    3    0    0  0.17397579613E+02 -0.17177038274E+02 -0.21617909553E+02  0.32635263657E+02  0.51100000000E-03 0. -1.
         22    1    1    0    0    0  0.95312517688E+00 -0.23709873648E+02 -0.20129252097E+02  0.31116769530E+02  0.00000000000E+00 0.  1.
</event>
<event>
 5    1  0.6622940E-004  0.9118800E+02  0.7818608E-02  0.1130116E+00
         25   -1    0    0    0    0  0.00000000000E+00  0.00000000000E+00  0.99999998245E-14  0.12500000000E+03  0.12500000000E+03 0.  0.
        -11    1    3    3    0    0 -0.19453457747E+01 -0.21280279204E+02 -0.45437719710E+02  0.50211761828E+02  0.51100000000E-03 0.  1.
         23    2    1    0    0    0 -0.25633184790E+02 -0.11090690337E+02 -0.75044736820E+01  0.96079752770E+02  0.91623895313E+02 0.  0.
         11    1    3    3    0    0 -0.23687839015E+02  0.10189588868E+02  0.37933246028E+02  0.45867990941E+02  0.51100000000E-03 0. -1.
         22    1    1    0    0    0  0.25633184790E+02  0.11090690337E+02  0.75044736820E+01  0.28920247230E+02  0.00000000000E+00 0.  1.
</event>
<event>
 5    1  0.6622940E-004  0.9118800E+02  0.7818608E-02  0.1130116E+00
         25   -1    0    0    0    0  0.00000000000E+00  0.00000000000E+00  0.99999998245E-14  0.12500000000E+03  0.12500000000E+03 0.  0.
        -11    1    3    3    0    0  0.28212756932E+02  0.87248637055E+01  0.25513545376E+02  0.39025938788E+02  0.51100000000E-03 0. -1.
         23    2    1    0    0    0  0.81272359841E+01  0.16776849886E+00 -0.27481222251E+02  0.96341708226E+02  0.91980579779E+02 0.  0.
         11    1    3    3    0    0 -0.20085520948E+02 -0.85570952066E+01 -0.52994767627E+02  0.57315769438E+02  0.51100000000E-03 0.  1.
         22    1    1    0    0    0 -0.81272359841E+01 -0.16776849886E+00  0.27481222251E+02  0.28658291774E+02  0.00000000000E+00 0. -1.
</event>
<event>
 5    1  0.6622940E-004  0.9118800E+02  0.7818608E-02  0.1130116E+00
         25   -1    0    0    0    0  0.00000000000E+00  0.00000000000E+00  0.99999998245E-14  0.12500000000E+03  0.12500000000E+03 0.  0.
        -11    1    3    3    0    0  0.33209444846E+02  0.59198620067E+01 -0.32105326896E+00  0.33734478929E+02  0.51100000000E-03 0. -1.
         23    2    1    0    0    0 -0.28725500044E+02 -0.19814526303E+01  0.10612356736E+01  0.96186691817E+02  0.91769673390E+02 0.  0.
         11    1    3    3    0    0 -0.61934944890E+02 -0.79013146370E+01  0.13822889426E+01  0.62452212887E+02  0.51100000000E-03 0.  1.
         22    1    1    0    0    0  0.28725500044E+02  0.19814526303E+01 -0.10612356736E+01  0.28813308183E+02  0.00000000000E+00 0.  1.
</event>
<event>
 5    1  0.6622940E-004  0.9118800E+02  0.7818608E-02  0.1130116E+00
         25   -1    0    0    0    0  0.00000000000E+00  0.00000000000E+00  0.99999998245E-14  0.12500000000E+03  0.12500000000E+03 0.  0.
        -11    1    3    3    0    0  0.25551016361E+02  0.32424467717E+02 -0.12158344777E+02  0.43035170405E+02  0.51100000000E-03 0.  1.
         23    2    1    0    0    0 -0.11718248828E+01 -0.11776413902E+02 -0.25935437548E+02  0.96492035872E+02  0.92184646053E+02 0.  0.
         11    1    3    3    0    0 -0.26722841244E+02 -0.44200881619E+02 -0.13777092771E+02  0.53456865466E+02  0.51100000000E-03 0. -1.
         22    1    1    0    0    0  0.11718248828E+01  0.11776413902E+02  0.25935437548E+02  0.28507964128E+02  0.00000000000E+00 0. -1.
</event>
<event>
 5    1  0.6622940E-004  0.9118800E+02  0.7818608E-02  0.1130116E+00
         25   -1    0    0    0    0  0.00000000000E+00  0.00000000000E+00  0.99999998245E-14  0.12500000000E+03  0.12500000000E+03 0.  0.
        -11    1    3    3    0    0  0.16490618271E+02 -0.14022290786E+02  0.38846213716E+02  0.44470141108E+02  0.51100000000E-03 0.  1.
         23    2    1    0    0    0 -0.12301526990E+02 -0.26316247926E+02 -0.19391715472E+01  0.95885864988E+02  0.91358996531E+02 0.  0.
         11    1    3    3    0    0 -0.28792145260E+02 -0.12293957140E+02 -0.40785385263E+02  0.51415723881E+02  0.51100000000E-03 0. -1.
         22    1    1    0    0    0  0.12301526990E+02  0.26316247926E+02  0.19391715472E+01  0.29114135012E+02  0.00000000000E+00 0.  1.
</event>
<event>
 5    1  0.6622940E-004  0.9118800E+02  0.7818608E-02  0.1130116E+00
         25   -1    0    0    0    0  0.00000000000E+00  0.00000000000E+00  0.99999998245E-14  0.12500000000E+03  0.12500000000E+03 0.  0.
        -11    1    3    3    0    0 -0.73050104325E+01 -0.23498712252E+02 -0.32415724097E+02  0.40698056759E+02  0.51100000000E-03 0.  1.
         23    2    1    0    0    0 -0.33210372128E+02 -0.76653885300E+01  0.67510821527E+01  0.90254293669E+02  0.83298099722E+02 0.  0.
         11    1    3    3    0    0 -0.25905361695E+02  0.15833323722E+02  0.39166806250E+02  0.49556236911E+02  0.51100000000E-03 0. -1.
         22    1    1    0    0    0  0.33210372128E+02  0.76653885300E+01 -0.67510821527E+01  0.34745706331E+02  0.00000000000E+00 0.  1.
</event>
<event>
 5    1  0.6622940E-004  0.9118800E+02  0.7818608E-02  0.1130116E+00
         25   -1    0    0    0    0  0.00000000000E+00  0.00000000000E+00  0.99999998245E-14  0.12500000000E+03  0.12500000000E+03 0.  0.
        -11    1    3    3    0    0 -0.77947173269E+01  0.50759196911E+02 -0.73383618258E+01  0.51875863789E+02  0.51100000000E-03 0.  1.
         23    2    1    0    0    0 -0.70925067287E+01  0.12786298539E+02  0.21104599008E+02  0.99325164435E+02  0.95949419533E+02 0.  0.
         11    1    3    3    0    0  0.70221059817E+00 -0.37972898373E+02  0.28442960834E+02  0.47449300646E+02  0.51100000000E-03 0. -1.
         22    1    1    0    0    0  0.70925067287E+01 -0.12786298539E+02 -0.21104599008E+02  0.25674835565E+02  0.00000000000E+00 0.  1.
</event>
<event>
 5    1  0.6622940E-004  0.9118800E+02  0.7818608E-02  0.1130116E+00
         25   -1    0    0    0    0  0.00000000000E+00  0.00000000000E+00  0.99999998245E-14  0.12500000000E+03  0.12500000000E+03 0.  0.
        -11    1    3    3    0    0  0.27832490001E+02  0.16329474779E+02  0.53334031202E+02  0.62336330745E+02  0.51100000000E-03 0.  1.
         23    2    1    0    0    0  0.15397094376E+02  0.85459646380E+01  0.22990193864E+02  0.96040493086E+02  0.91570318725E+02 0.  0.
         11    1    3    3    0    0 -0.12435395624E+02 -0.77835101406E+01 -0.30343837338E+02  0.33704162341E+02  0.51100000000E-03 0. -1.
         22    1    1    0    0    0 -0.15397094376E+02 -0.85459646380E+01 -0.22990193864E+02  0.28959506914E+02  0.00000000000E+00 0.  1.
</event>
<event>
 5    1  0.6622940E-004  0.9118800E+02  0.7818608E-02  0.1130116E+00
         25   -1    0    0    0    0  0.00000000000E+00  0.00000000000E+00  0.99999998245E-14  0.12500000000E+03  0.12500000000E+03 0.  0.
        -11    1    3    3    0    0 -0.43740176165E+02 -0.12870182955E+02  0.93785686745E+01  0.46548922338E+02  0.51100000000E-03 0. -1.
         23    2    1    0    0    0 -0.65394575374E+01  0.81248800202E+01 -0.22732788400E+02  0.99988845515E+02  0.96810182206E+02 0.  0.
         11    1    3    3    0    0  0.37200718627E+02  0.20995062975E+02 -0.32111357075E+02  0.53439923177E+02  0.51100000000E-03 0.  1.
         22    1    1    0    0    0  0.65394575374E+01 -0.81248800202E+01  0.22732788400E+02  0.25011154485E+02  0.00000000000E+00 0. -1.
</event>
<event>
 5    1  0.6622940E-004  0.9118800E+02  0.7818608E-02  0.1130116E+00
         25   -1    0    0    0    0  0.00000000000E+00  0.00000000000E+00  0.99999998245E-14  0.12500000000E+03  0.12500000000E+03 0.  0.
        -11    1    3    3    0    0 -0.13021078825E+02  0.27664536653E+02  0.17385083153E+02  0.35172662658E+02  0.51100000000E-03 0. -1.
         23    2    1    0    0    0  0.16720608309E+02 -0.21464651833E+02 -0.59256250892E+01  0.97153580962E+02  0.93077361590E+02 0.  0.
         11    1    3    3    0    0  0.29741687134E+02 -0.49129188485E+02 -0.23310708242E+02  0.61980918304E+02  0.51100000000E-03 0.  1.
         22    1    1    0    0    0 -0.16720608309E+02  0.21464651833E+02  0.59256250892E+01  0.27846419038E+02  0.00000000000E+00 0.  1.
</event>
<event>
 5    1  0.6622940E-004  0.9118800E+02  0.7818608E-02  0.1130116E+00
         25   -1    0    0    0    0  0.00000000000E+00  0.00000000000E+00  0.99999998245E-14  0.12500000000E+03  0.12500000000E+03 0.  0.
        -11    1    3    3    0    0  0.40677255419E+02 -0.50326160608E+01  0.19022722394E+02  0.45186616385E+02  0.51100000000E-03 0.  1.
         23    2    1    0    0    0  0.23000314246E+01  0.26894228536E+02  0.11452044165E+02  0.95678693947E+02  0.91075098060E+02 0.  0.
         11    1    3    3    0    0 -0.38377223994E+02  0.31926844597E+02 -0.75706782284E+01  0.50492077562E+02  0.51100000000E-03 0. -1.
         22    1    1    0    0    0 -0.23000314246E+01 -0.26894228536E+02 -0.11452044165E+02  0.29321306053E+02  0.00000000000E+00 0. -1.
</event>
<event>
 5    1  0.6622940E-004  0.9118800E+02  0.7818608E-02  0.1130116E+00
         25   -1    0    0    0    0  0.00000000000E+00  0.00000000000E+00  0.99999998245E-14  0.12500000000E+03  0.12500000000E+03 0.  0.
        -11    1    3    3    0    0  0.13694182622E+02  0.22677073292E+02 -0.25792341548E+02  0.36973303525E+02  0.51100000000E-03 0.  1.
         23    2    1    0    0    0  0.75255757464E+01 -0.38434750799E+01  0.27181542949E+02  0.96535234620E+02  0.92243203842E+02 0.  0.
         11    1    3    3    0    0 -0.61686068758E+01 -0.26520548372E+02  0.52973884497E+02  0.59561931095E+02  0.51100000000E-03 0. -1.
         22    1    1    0    0    0 -0.75255757464E+01  0.38434750799E+01 -0.27181542949E+02  0.28464765380E+02  0.00000000000E+00 0. -1.
</event>
<event>
 5    1  0.6622940E-004  0.9118800E+02  0.7818608E-02  0.1130116E+00
         25   -1    0    0    0    0  0.00000000000E+00  0.00000000000E+00  0.99999998245E-14  0.12500000000E+03  0.12500000000E+03 0.  0.
        -11    1    3    3    0    0 -0.30062186265E+01 -0.17349458312E+02  0.29148776431E+02  0.34054254093E+02  0.51100000000E-03 0. -1.
         23    2    1    0    0    0  0.77956430210E+01  0.16240463958E+02 -0.22233220401E+02  0.96384605383E+02  0.92038857803E+02 0.  0.
         11    1    3    3    0    0  0.10801861648E+02  0.33589922271E+02 -0.51381996832E+02  0.62330351290E+02  0.51100000000E-03 0.  1.
         22    1    1    0    0    0 -0.77956430210E+01 -0.16240463958E+02  0.22233220401E+02  0.28615394617E+02  0.00000000000E+00 0.  1.
</event>
<event>
 5    1  0.6622940E-004  0.9118800E+02  0.7818608E-02  0.1130116E+00
         25   -1    0    0    0    0  0.00000000000E+00  0.00000000000E+00  0.99999998245E-14  0.12500000000E+03  0.12500000000E+03 0.  0.
        -11    1    3    3    0    0  0.50544160346E+01  0.39822828967E+02 -0.39222520051E+02  0.56123176209E+02  0.51100000000E-03 0. -1.
         23    2    1    0    0    0  0.14955395539E+02  0.22100583757E+02 -0.23539281130E+01  0.98211184504E+02  0.94487015647E+02 0.  0.
         11    1    3    3    0    0  0.99009795042E+01 -0.17722245210E+02  0.36868591938E+02  0.42088008294E+02  0.51100000000E-03 0.  1.
         22    1    1    0    0    0 -0.14955395539E+02 -0.22100583757E+02  0.23539281130E+01  0.26788815496E+02  0.00000000000E+00 0. -1.
</event>
<event>
 5    1  0.6622940E-004  0.9118800E+02  0.7818608E-02  0.1130116E+00
         25   -1    0    0    0    0  0.00000000000E+00  0.00000000000E+00  0.99999998245E-14  0.12500000000E+03  0.12500000000E+03 0.  0.
        -11    1    3    3    0    0 -0.17632589675E+02  0.30474549493E+02 -0.32831509472E+02  0.48140569169E+02  0.51100000000E-03 0.  1.
         23    2    1    0    0    0 -0.17075062037E+02 -0.14700647897E+02 -0.19383374371E+02  0.95278257215E+02  0.90523832794E+02 0.  0.
         11    1    3    3    0    0  0.55752763787E+00 -0.45175197391E+02  0.13448135100E+02  0.47137688046E+02  0.51100000000E-03 0. -1.
         22    1    1    0    0    0  0.17075062037E+02  0.14700647897E+02  0.19383374371E+02  0.29721742785E+02  0.00000000000E+00 0. -1.
</event>
<event>
 5    1  0.6622940E-004  0.9118800E+02  0.7818608E-02  0.1130116E+00
         25   -1    0    0    0    0  0.00000000000E+00  0.00000000000E+00  0.99999998245E-14  0.12500000000E+03  0.12500000000E+03 0.  0.
        -11    1    3    3    0    0 -0.58296868631E+01 -0.35721155840E+02 -0.22956672545E+00  0.36194459861E+02  0.51100000000E-03 0.  1.
         23    2    1    0    0    0 -0.14900693973E+02  0.23380185460E+02  0.69500466187E+01  0.96417367143E+02  0.92083341522E+02 0.  0.
         11    1    3    3    0    0 -0.90710071095E+01  0.59101341300E+02  0.71796133442E+01  0.60222907282E+02  0.51100000000E-03 0. -1.
         22    1    1    0    0    0  0.14900693973E+02 -0.23380185460E+02 -0.69500466187E+01  0.28582632857E+02  0.00000000000E+00 0. -1.
</event>
<event>
 5    1  0.6622940E-004  0.9118800E+02  0.7818608E-02  0.1130116E+00
         25   -1    0    0    0    0  0.00000000000E+00  0.00000000000E+00  0.99999998245E-14  0.12500000000E+03  0.12500000000E+03 0.  0.
        -11    1    3    3    0    0  0.33462267676E+02 -0.22714664523E+02  0.81582224033E+01  0.41258162047E+02  0.51100000000E-03 0.  1.
         23    2    1    0    0    0  0.39621609105E+00  0.22121154331E+02  0.16244586355E+02  0.97552066708E+02  0.93610985878E+02 0.  0.
         11    1    3    3    0    0 -0.33066051585E+02  0.44835818855E+02  0.80863639521E+01  0.56293904661E+02  0.51100000000E-03 0. -1.
         22    1    1    0    0    0 -0.39621609105E+00 -0.22121154331E+02 -0.16244586355E+02  0.27447933292E+02  0.00000000000E+00 0. -1.
</event>
<event>
 5    1  0.6622940E-004  0.9118800E+02  0.7818608E-02  0.1130116E+00
         25   -1    0    0    0    0  0.00000000000E+00  0.00000000000E+00  0.99999998245E-14  0.12500000000E+03  0.12500000000E+03 0.  0.
        -11    1    3    3    0    0  0.28254775456E+02 -0.66236217030E+00 -0.21906455875E+02  0.35758409766E+02  0.51100000000E-03 0.  1.
         23    2    1    0    0    0 -0.72261886395E+01  0.16915239220E+02  0.22948078922E+02  0.95589841103E+02  0.90953066335E+02 0.  0.
         11    1    3    3    0    0 -0.35480964095E+02  0.17577601391E+02  0.44854534797E+02  0.59831431337E+02  0.51100000000E-03 0. -1.
         22    1    1    0    0    0  0.72261886395E+01 -0.16915239220E+02 -0.22948078922E+02  0.29410158897E+02  0.00000000000E+00 0. -1.
</event>
<event>
 5    1  0.6622940E-004  0.9118800E+02  0.7818608E-02  0.1130116E+00
         25   -1    0    0    0    0  0.00000000000E+00  0.00000000000E+00  0.99999998245E-14  0.12500000000E+03  0.12500000000E+03 0.  0.
        -11    1    3    3    0    0  0.41339661280E+02  0.21447364033E+02  0.39375032817E+02  0.60986475782E+02  0.51100000000E-03 0.  1.
         23    2    1    0    0    0  0.20134614409E+02  0.17847789605E+02  0.12715758509E+02  0.95240349370E+02  0.90471472534E+02 0.  0.
         11    1    3    3    0    0 -0.21205046872E+02 -0.35995744278E+01 -0.26659274307E+02  0.34253873588E+02  0.51100000000E-03 0. -1.
         22    1    1    0    0    0 -0.20134614409E+02 -0.17847789605E+02 -0.12715758509E+02  0.29759650630E+02  0.00000000000E+00 0.  1.
</event>
<event>
 5    1  0.6622940E-004  0.9118800E+02  0.7818608E-02  0.1130116E+00
         25   -1    0    0    0    0  0.00000000000E+00  0.00000000000E+00  0.99999998245E-14  0.12500000000E+03  0.12500000000E+03 0.  0.
        -11    1    3    3    0    0 -0.54048954606E+00  0.36688281347E+02  0.32855848500E+02  0.49252704475E+02  0.51100000000E-03 0.  1.
         23    2    1    0    0    0 -0.27059315304E+02  0.91452451734E+01  0.64539105592E+01  0.95716984180E+02  0.91127636012E+02 0.  0.
         11    1    3    3    0    0 -0.26518825758E+02 -0.27543036174E+02 -0.26401937941E+02  0.46464279705E+02  0.51100000000E-03 0. -1.
         22    1    1    0    0    0  0.27059315304E+02 -0.91452451734E+01 -0.64539105592E+01  0.29283015820E+02  0.00000000000E+00 0.  1.
</event>
<event>
 5    1  0.6622940E-004  0.9118800E+02  0.7818608E-02  0.1130116E+00
         25   -1    0    0    0    0  0.00000000000E+00  0.00000000000E+00  0.99999998245E-14  0.12500000000E+03  0.12500000000E+03 0.  0.
        -11    1    3    3    0    0  0.30110707999E+02  0.43930985739E+02 -0.31318222588E+02  0.61785251562E+02  0.51100000000E-03 0.  1.
         23    2    1    0    0    0  0.11513918428E+02  0.18002315268E+02 -0.20253641252E+02  0.95557451595E+02  0.90908541396E+02 0.  0.
         11    1    3    3    0    0 -0.18596789571E+02 -0.25928670470E+02  0.11064581336E+02  0.33772200034E+02  0.51100000000E-03 0. -1.
         22    1    1    0    0    0 -0.11513918428E+02 -0.18002315268E+02  0.20253641252E+02  0.29442548405E+02  0.00000000000E+00 0.  1.
</event>
<event>
 5    1  0.6622940E-004  0.9118800E+02  0.7818608E-02  0.1130116E+00
         25   -1    0    0    0    0  0.00000000000E+00  0.00000000000E+00  0.99999998245E-14  0.12500000000E+03  0.12500000000E+03 0.  0.
        -11    1    3    3    0    0  0.78316360829E+01 -0.34822532820E+02  0.16105709215E+02  0.39157849600E+02  0.51100000000E-03 0.  1.
         23    2    1    0    0    0  0.21248777246E+02  0.16264213511E+02 -0.77890852047E+01  0.97130571877E+02  0.93046455973E+02 0.  0.
         11    1    3    3    0    0  0.13417141163E+02  0.51086746330E+02 -0.23894794419E+02  0.57972722277E+02  0.51100000000E-03 0. -1.
         22    1    1    0    0    0 -0.21248777246E+02 -0.16264213511E+02  0.77890852047E+01  0.27869428123E+02  0.00000000000E+00 0. -1.
</event>
<event>
 5    1  0.6622940E-004  0.9118800E+02  0.7818608E-02  0.1130116E+00
         25   -1    0    0    0    0  0.00000000000E+00  0.00000000000E+00  0.99999998245E-14  0.12500000000E+03  0.12500000000E+03 0.  0.
        -11    1    3    3    0    0 -0.14305933198E+02 -0.33995546014E+02 -0.20456403893E+00  0.36883583342E+02  0.51100000000E-03 0. -1.
         23    2    1    0    0    0  0.13065767723E+01  0.17892538457E+02 -0.23137000372E+02  0.95722519550E+02  0.91135228575E+02 0.  0.
         11    1    3    3    0    0  0.15612509971E+02  0.51888084471E+02 -0.22932436333E+02  0.58838936208E+02  0.51100000000E-03 0.  1.
         22    1    1    0    0    0 -0.13065767723E+01 -0.17892538457E+02  0.23137000372E+02  0.29277480450E+02  0.00000000000E+00 0.  1.
</event>
<event>
 5    1  0.6622940E-004  0.9118800E+02  0.7818608E-02  0.1130116E+00
         25   -1    0    0    0    0  0.00000000000E+00  0.00000000000E+00  0.99999998245E-14  0.12500000000E+03  0.12500000000E+03 0.  0.
        -11    1    3    3    0    0  0.50549071251E+01  0.18259059239E+01  0.28151525395E+02  0.28659979079E+02  0.51100000000E-03 0. -1.
         23    2    1    0    0    0  0.14001861233E+02  0.82308166352E+01 -0.31628905254E+02  0.89444605078E+02  0.82074059663E+02 0.  0.
         11    1    3    3    0    0  0.89469541082E+01  0.64049107113E+01 -0.59780430649E+02  0.60784625999E+02  0.51100000000E-03 0.  1.
         22    1    1    0    0    0 -0.14001861233E+02 -0.82308166352E+01  0.31628905254E+02  0.35555394922E+02  0.00000000000E+00 0.  1.
</event>
<event>
 5    1  0.6622940E-004  0.9118800E+02  0.7818608E-02  0.1130116E+00
         25   -1    0    0    0    0  0.00000000000E+00  0.00000000000E+00  0.99999998245E-14  0.12500000000E+03  0.12500000000E+03 0.  0.
        -11    1    3    3    0    0 -0.26799127546E+02  0.19344619107E+02 -0.98227803052E+01  0.34480350039E+02  0.51100000000E-03 0.  1.
         23    2    1    0    0    0 -0.27863007430E+01 -0.16041691991E+02  0.28677785140E+02  0.92022512007E+02  0.85910581431E+02 0.  0.
         11    1    3    3    0    0  0.24012826803E+02 -0.35386311098E+02  0.38500565445E+02  0.57542161969E+02  0.51100000000E-03 0. -1.
         22    1    1    0    0    0  0.27863007430E+01  0.16041691991E+02 -0.28677785140E+02  0.32977487993E+02  0.00000000000E+00 0. -1.
</event>
<event>
 5    1  0.6622940E-004  0.9118800E+02  0.7818608E-02  0.1130116E+00
         25   -1    0    0    0    0  0.00000000000E+00  0.00000000000E+00  0.99999998245E-14  0.12500000000E+03  0.12500000000E+03 0.  0.
        -11    1    3    3    0    0 -0.40365180599E+02 -0.34579168400E+02  0.46572914295E+01  0.53355009659E+02  0.51100000000E-03 0.  1.
         23    2    1    0    0    0 -0.20490845340E+02  0.32078186773E+01  0.17417837977E+02  0.97915947068E+02  0.94095625653E+02 0.  0.
         11    1    3    3    0    0  0.19874335258E+02  0.37786987077E+02  0.12760546547E+02  0.44560937409E+02  0.51100000000E-03 0. -1.
         22    1    1    0    0    0  0.20490845340E+02 -0.32078186773E+01 -0.17417837977E+02  0.27084052932E+02  0.00000000000E+00 0.  1.
</event>
<event>
 5    1  0.6622940E-004  0.9118800E+02  0.7818608E-02  0.1130116E+00
         25   -1    0    0    0    0  0.00000000000E+00  0.00000000000E+00  0.99999998245E-14  0.12500000000E+03  0.12500000000E+03 0.  0.
        -11    1    3    3    0    0 -0.48032974882E+02 -0.18049172692E+02  0.76371815671E+00  0.51317858262E+02  0.51100000000E-03 0.  1.
         23    2    1    0    0    0 -0.90507779491E+01 -0.15465052504E+02 -0.22072073744E+02  0.96570070880E+02  0.92290398850E+02 0.  0.
         11    1    3    3    0    0  0.38982196933E+02  0.25841201876E+01 -0.22835791900E+02  0.45252212618E+02  0.51100000000E-03 0. -1.
         22    1    1    0    0    0  0.90507779491E+01  0.15465052504E+02  0.22072073744E+02  0.28429929120E+02  0.00000000000E+00 0.  1.
</event>
<event>
 5    1  0.6622940E-004  0.9118800E+02  0.7818608E-02  0.1130116E+00
         25   -1    0    0    0    0  0.00000000000E+00  0.00000000000E+00  0.99999998245E-14  0.12500000000E+03  0.12500000000E+03 0.  0.
        -11    1    3    3    0    0  0.35475320680E+01  0.43975659383E+02 -0.34740668033E+01  0.44255087191E+02  0.51100000000E-03 0.  1.
         23    2    1    0    0    0 -0.28301349634E+02  0.33144801579E+01 -0.56498400659E+01  0.95950510114E+02  0.91447403072E+02 0.  0.
         11    1    3    3    0    0 -0.31848881702E+02 -0.40661179225E+02 -0.21757732626E+01  0.51695422923E+02  0.51100000000E-03 0. -1.
         22    1    1    0    0    0  0.28301349634E+02 -0.33144801579E+01  0.56498400659E+01  0.29049489886E+02  0.00000000000E+00 0. -1.
</event>
<event>
 5    1  0.6622940E-004  0.9118800E+02  0.7818608E-02  0.1130116E+00
         25   -1    0    0    0    0  0.00000000000E+00  0.00000000000E+00  0.99999998245E-14  0.12500000000E+03  0.12500000000E+03 0.  0.
        -11    1    3    3    0    0  0.36455197892E+02 -0.20462778872E+01  0.29792215406E+02  0.47124779104E+02  0.51100000000E-03 0.  1.
         23    2    1    0    0    0  0.43237883413E+01 -0.28790840965E+02  0.58380889803E+01  0.95306718739E+02  0.90563125415E+02 0.  0.
         11    1    3    3    0    0 -0.32131409551E+02 -0.26744563078E+02 -0.23954126426E+02  0.48181939635E+02  0.51100000000E-03 0. -1.
         22    1    1    0    0    0 -0.43237883413E+01  0.28790840965E+02 -0.58380889803E+01  0.29693281261E+02  0.00000000000E+00 0. -1.
</event>
<event>
 5    1  0.6622940E-004  0.9118800E+02  0.7818608E-02  0.1130116E+00
         25   -1    0    0    0    0  0.00000000000E+00  0.00000000000E+00  0.99999998245E-14  0.12500000000E+03  0.12500000000E+03 0.  0.
        -11    1    3    3    0    0 -0.19727590315E+02 -0.29612096824E+02  0.19878503648E+02  0.40757931811E+02  0.51100000000E-03 0. -1.
         23    2    1    0    0    0 -0.18323270244E+02  0.13181226999E+02 -0.16579549374E+02  0.96993421575E+02  0.92862023421E+02 0.  0.
         11    1    3    3    0    0  0.14043200714E+01  0.42793323822E+02 -0.36458053022E+02  0.56235489764E+02  0.51100000000E-03 0.  1.
         22    1    1    0    0    0  0.18323270244E+02 -0.13181226999E+02  0.16579549374E+02  0.28006578425E+02  0.00000000000E+00 0.  1.
</event>
<event>
 5    1  0.6622940E-004  0.9118800E+02  0.7818608E-02  0.1130116E+00
         25   -1    0    0    0    0  0.00000000000E+00  0.00000000000E+00  0.99999998245E-14  0.12500000000E+03  0.12500000000E+03 0.  0.
        -11    1    3    3    0    0  0.35492276783E+02  0.28639744364E+02 -0.22046581035E+02  0.50655586109E+02  0.51100000000E-03 0. -1.
         23    2    1    0    0    0  0.18967456789E+02 -0.12628143695E+02 -0.19204660174E+02  0.95199775125E+02  0.90415395709E+02 0.  0.
         11    1    3    3    0    0 -0.16524819994E+02 -0.41267888059E+02  0.28419208613E+01  0.44544189016E+02  0.51100000000E-03 0.  1.
         22    1    1    0    0    0 -0.18967456789E+02  0.12628143695E+02  0.19204660174E+02  0.29800224875E+02  0.00000000000E+00 0. -1.
</event>
<event>
 5    1  0.6622940E-004  0.9118800E+02  0.7818608E-02  0.1130116E+00
         25   -1    0    0    0    0  0.00000000000E+00  0.00000000000E+00  0.99999998245E-14  0.12500000000E+03  0.12500000000E+03 0.  0.
        -11    1    3    3    0    0 -0.10629654054E+02  0.52093758342E+01 -0.52850183688E+02  0.54159662646E+02  0.51100000000E-03 0.  1.
         23    2    1    0    0    0 -0.24758447878E+02  0.84400545200E+01 -0.14644459298E+02  0.95022083966E+02  0.90169401637E+02 0.  0.
         11    1    3    3    0    0 -0.14128793824E+02  0.32306786857E+01  0.38205724390E+02  0.40862421320E+02  0.51100000000E-03 0. -1.
         22    1    1    0    0    0  0.24758447878E+02 -0.84400545200E+01  0.14644459298E+02  0.29977916034E+02  0.00000000000E+00 0.  1.
</event>
<event>
 5    1  0.6622940E-004  0.9118800E+02  0.7818608E-02  0.1130116E+00
         25   -1    0    0    0    0  0.00000000000E+00  0.00000000000E+00  0.99999998245E-14  0.12500000000E+03  0.12500000000E+03 0.  0.
        -11    1    3    3    0    0 -0.44242780554E+02 -0.18770952092E+02 -0.16478530342E+02  0.50806635748E+02  0.51100000000E-03 0.  1.
         23    2    1    0    0    0 -0.25788728166E+02 -0.70901018041E-01  0.17556525901E+02  0.93802321735E+02  0.88462310810E+02 0.  0.
         11    1    3    3    0    0  0.18454052387E+02  0.18700051074E+02  0.34035056244E+02  0.42995685987E+02  0.51100000000E-03 0. -1.
         22    1    1    0    0    0  0.25788728166E+02  0.70901018041E-01 -0.17556525901E+02  0.31197678265E+02  0.00000000000E+00 0.  1.
</event>
<event>
 5    1  0.6622940E-004  0.9118800E+02  0.7818608E-02  0.1130116E+00
         25   -1    0    0    0    0  0.00000000000E+00  0.00000000000E+00  0.99999998245E-14  0.12500000000E+03  0.12500000000E+03 0.  0.
        -11    1    3    3    0    0  0.47128810433E+01 -0.20857349421E+02 -0.52659829123E+02  0.56835709516E+02  0.51100000000E-03 0.  1.
         23    2    1    0    0    0 -0.11610732186E+02  0.28631282316E+01 -0.27261418694E+02  0.95231030344E+02  0.90458595977E+02 0.  0.
         11    1    3    3    0    0 -0.16323613229E+02  0.23720477652E+02  0.25398410430E+02  0.38395320829E+02  0.51100000000E-03 0. -1.
         22    1    1    0    0    0  0.11610732186E+02 -0.28631282316E+01  0.27261418694E+02  0.29768969656E+02  0.00000000000E+00 0.  1.
</event>
<event>
 5    1  0.6622940E-004  0.9118800E+02  0.7818608E-02  0.1130116E+00
         25   -1    0    0    0    0  0.00000000000E+00  0.00000000000E+00  0.99999998245E-14  0.12500000000E+03  0.12500000000E+03 0.  0.
        -11    1    3    3    0    0  0.18171629107E+02  0.22198910955E+02  0.30086905123E+02  0.41571884876E+02  0.51100000000E-03 0. -1.
         23    2    1    0    0    0  0.21448552238E+02 -0.77119183858E+01 -0.16381025648E+02  0.96931297152E+02  0.92778361097E+02 0.  0.
         11    1    3    3    0    0  0.32769231314E+01 -0.29910829341E+02 -0.46467930771E+02  0.55359412276E+02  0.51100000000E-03 0.  1.
         22    1    1    0    0    0 -0.21448552238E+02  0.77119183858E+01  0.16381025648E+02  0.28068702848E+02  0.00000000000E+00 0.  1.
</event>
<event>
 5    1  0.6622940E-004  0.9118800E+02  0.7818608E-02  0.1130116E+00
         25   -1    0    0    0    0  0.00000000000E+00  0.00000000000E+00  0.99999998245E-14  0.12500000000E+03  0.12500000000E+03 0.  0.
        -11    1    3    3    0    0 -0.28793111989E+02  0.13102436436E+01  0.48882398742E+02  0.56747237320E+02  0.51100000000E-03 0. -1.
         23    2    1    0    0    0  0.57609940562E+01 -0.13369902200E+00  0.26357276075E+02  0.98020138436E+02  0.94233935549E+02 0.  0.
         11    1    3    3    0    0  0.34554106046E+02 -0.14439426656E+01 -0.22525122668E+02  0.41272901115E+02  0.51100000000E-03 0.  1.
         22    1    1    0    0    0 -0.57609940562E+01  0.13369902200E+00 -0.26357276075E+02  0.26979861564E+02  0.00000000000E+00 0. -1.
</event>
<event>
 5    1  0.6622940E-004  0.9118800E+02  0.7818608E-02  0.1130116E+00
         25   -1    0    0    0    0  0.00000000000E+00  0.00000000000E+00  0.99999998245E-14  0.12500000000E+03  0.12500000000E+03 0.  0.
        -11    1    3    3    0    0  0.97276350776E+01  0.36979118940E+02  0.35926176531E+02  0.52466868424E+02  0.51100000000E-03 0.  1.
         23    2    1    0    0    0  0.30508650381E+01  0.28925508376E+02 -0.56770299627E+01  0.95365198137E+02  0.90643805823E+02 0.  0.
         11    1    3    3    0    0 -0.66767700394E+01 -0.80536105640E+01 -0.41603206494E+02  0.42898329713E+02  0.51100000000E-03 0. -1.
         22    1    1    0    0    0 -0.30508650381E+01 -0.28925508376E+02  0.56770299627E+01  0.29634801863E+02  0.00000000000E+00 0.  1.
</event>
<event>
 5    1  0.6622940E-004  0.9118800E+02  0.7818608E-02  0.1130116E+00
         25   -1    0    0    0    0  0.00000000000E+00  0.00000000000E+00  0.99999998245E-14  0.12500000000E+03  0.12500000000E+03 0.  0.
        -11    1    3    3    0    0 -0.94185107389E+01  0.44849898680E+02 -0.40245217414E+02  0.60990977047E+02  0.51100000000E-03 0. -1.
         23    2    1    0    0    0  0.18741211510E+01  0.25413724463E+02 -0.12749511945E+02  0.96505793992E+02  0.92203299822E+02 0.  0.
         11    1    3    3    0    0  0.11292631890E+02 -0.19436174217E+02  0.27495705469E+02  0.35514816945E+02  0.51100000000E-03 0.  1.
         22    1    1    0    0    0 -0.18741211510E+01 -0.25413724463E+02  0.12749511945E+02  0.28494206008E+02  0.00000000000E+00 0. -1.
</event>
<event>
 5    1  0.6622940E-004  0.9118800E+02  0.7818608E-02  0.1130116E+00
         25   -1    0    0    0    0  0.00000000000E+00  0.00000000000E+00  0.99999998245E-14  0.12500000000E+03  0.12500000000E+03 0.  0.
        -11    1    3    3    0    0  0.25112664391E+02 -0.44298692126E+02 -0.17801270368E+01  0.50952810417E+02  0.51100000000E-03 0.  1.
         23    2    1    0    0    0  0.32333922899E+02 -0.35571740812E+01  0.13104502718E+01  0.92444611238E+02  0.86522556652E+02 0.  0.
         11    1    3    3    0    0  0.72212585083E+01  0.40741518045E+02  0.30905773086E+01  0.41491800821E+02  0.51100000000E-03 0. -1.
         22    1    1    0    0    0 -0.32333922899E+02  0.35571740812E+01 -0.13104502718E+01  0.32555388762E+02  0.00000000000E+00 0.  1.
</event>
<event>
 5    1  0.6622940E-004  0.9118800E+02  0.7818608E-02  0.1130116E+00
         25   -1    0    0    0    0  0.00000000000E+00  0.00000000000E+00  0.99999998245E-14  0.12500000000E+03  0.12500000000E+03 0.  0.
        -11    1    3    3    0    0  0.40504133522E+02  0.26672408701E+02 -0.22969337178E+02  0.53661836242E+02  0.51100000000E-03 0.  1.
         23    2    1    0    0    0  0.22142283098E+02  0.14639346136E+02  0.12722197357E+02  0.95564554332E+02  0.90918307194E+02 0.  0.
         11    1    3    3    0    0 -0.18361850423E+02 -0.12033062565E+02  0.35691534534E+02  0.41902718090E+02  0.51100000000E-03 0. -1.
         22    1    1    0    0    0 -0.22142283098E+02 -0.14639346136E+02 -0.12722197357E+02  0.29435445668E+02  0.00000000000E+00 0.  1.
</event>
<event>
 5    1  0.6622940E-004  0.9118800E+02  0.7818608E-02  0.1130116E+00
         25   -1    0    0    0    0  0.00000000000E+00  0.00000000000E+00  0.99999998245E-14  0.12500000000E+03  0.12500000000E+03 0.  0.
        -11    1    3    3    0    0  0.24876933619E+02  0.46877225090E+02 -0.70834514184E+01  0.53539810821E+02  0.51100000000E-03 0.  1.
         23    2    1    0    0    0  0.21360568205E+02  0.12321639537E+02  0.16325763867E+02  0.95425902537E+02  0.90727480039E+02 0.  0.
         11    1    3    3    0    0 -0.35163654147E+01 -0.34555585553E+02  0.23409215286E+02  0.41886091716E+02  0.51100000000E-03 0. -1.
         22    1    1    0    0    0 -0.21360568205E+02 -0.12321639537E+02 -0.16325763867E+02  0.29574097463E+02  0.00000000000E+00 0.  1.
</event>
<event>
 5    1  0.6622940E-004  0.9118800E+02  0.7818608E-02  0.1130116E+00
         25   -1    0    0    0    0  0.00000000000E+00  0.00000000000E+00  0.99999998245E-14  0.12500000000E+03  0.12500000000E+03 0.  0.
        -11    1    3    3    0    0 -0.36723296448E+02 -0.30218124285E+02  0.16034650845E+02  0.50188101830E+02  0.51100000000E-03 0.  1.
         23    2    1    0    0    0  0.11003570058E+01 -0.24634818131E+02 -0.11977979153E+02  0.97585459434E+02  0.93655565016E+02 0.  0.
         11    1    3    3    0    0  0.37823653454E+02  0.55833061538E+01 -0.28012629997E+02  0.47397357604E+02  0.51100000000E-03 0. -1.
         22    1    1    0    0    0 -0.11003570058E+01  0.24634818131E+02  0.11977979153E+02  0.27414540566E+02  0.00000000000E+00 0.  1.
</event>
<event>
 5    1  0.6622940E-004  0.9118800E+02  0.7818608E-02  0.1130116E+00
         25   -1    0    0    0    0  0.00000000000E+00  0.00000000000E+00  0.99999998245E-14  0.12500000000E+03  0.12500000000E+03 0.  0.
        -11    1    3    3    0    0 -0.49398232204E+02  0.17753195483E+02 -0.14184840991E+02  0.54374359849E+02  0.51100000000E-03 0. -1.
         23    2    1    0    0    0 -0.72121852675E+01  0.16127285794E+02 -0.21449027111E+02  0.97212129851E+02  0.93155957741E+02 0.  0.
         11    1    3    3    0    0  0.42186046937E+02 -0.16259096892E+01 -0.72641861198E+01  0.42837770002E+02  0.51100000000E-03 0.  1.
         22    1    1    0    0    0  0.72121852675E+01 -0.16127285794E+02  0.21449027111E+02  0.27787870149E+02  0.00000000000E+00 0. -1.
</event>
<event>
 5    1  0.6622940E-004  0.9118800E+02  0.7818608E-02  0.1130116E+00
         25   -1    0    0    0    0  0.00000000000E+00  0.00000000000E+00  0.99999998245E-14  0.12500000000E+03  0.12500000000E+03 0.  0.
        -11    1    3    3    0    0  0.79729535026E+01  0.33471956094E+02  0.19387714776E+02  0.39494598578E+02  0.51100000000E-03 0. -1.
         23    2    1    0    0    0 -0.69742607292E+01  0.15982480953E+02 -0.27909637774E+02  0.92090610902E+02  0.86009608333E+02 0.  0.
         11    1    3    3    0    0 -0.14947214232E+02 -0.17489475142E+02 -0.47297352549E+02  0.52596012325E+02  0.51100000000E-03 0.  1.
         22    1    1    0    0    0  0.69742607292E+01 -0.15982480953E+02  0.27909637774E+02  0.32909389098E+02  0.00000000000E+00 0. -1.
</event>
<event>
 5    1  0.6622940E-004  0.9118800E+02  0.7818608E-02  0.1130116E+00
         25   -1    0    0    0    0  0.00000000000E+00  0.00000000000E+00  0.99999998245E-14  0.12500000000E+03  0.12500000000E+03 0.  0.
        -11    1    3    3    0    0 -0.40550959607E+02 -0.77910719791E+01 -0.97465741139E+01  0.42427312369E+02  0.51100000000E-03 0. -1.
         23    2    1    0    0    0  0.76290259656E+01 -0.23890834585E+02  0.11399339355E+02  0.97451516338E+02  0.93476623198E+02 0.  0.
         11    1    3    3    0    0  0.48179985573E+02 -0.16099762606E+02  0.21145913469E+02  0.55024203969E+02  0.51100000000E-03 0.  1.
         22    1    1    0    0    0 -0.76290259656E+01  0.23890834585E+02 -0.11399339355E+02  0.27548483662E+02  0.00000000000E+00 0.  1.
</event>
<event>
 5    1  0.6622940E-004  0.9118800E+02  0.7818608E-02  0.1130116E+00
         25   -1    0    0    0    0  0.00000000000E+00  0.00000000000E+00  0.99999998245E-14  0.12500000000E+03  0.12500000000E+03 0.  0.
        -11    1    3    3    0    0 -0.27829990992E+02  0.18120284979E+02  0.25331658498E+02  0.41767763273E+02  0.51100000000E-03 0.  1.
         23    2    1    0    0    0  0.14925388538E+02 -0.14343412668E+02  0.20820232097E+02  0.95640456840E+02  0.91022602743E+02 0.  0.
         11    1    3    3    0    0  0.42755379530E+02 -0.32463697647E+02 -0.45114264007E+01  0.53872693567E+02  0.51100000000E-03 0. -1.
         22    1    1    0    0    0 -0.14925388538E+02  0.14343412668E+02 -0.20820232097E+02  0.29359543160E+02  0.00000000000E+00 0. -1.
</event>
<event>
 5    1  0.6622940E-004  0.9118800E+02  0.7818608E-02  0.1130116E+00
         25   -1    0    0    0    0  0.00000000000E+00  0.00000000000E+00  0.99999998245E-14  0.12500000000E+03  0.12500000000E+03 0.  0.
        -11    1    3    3    0    0 -0.27607988194E+02  0.45613538168E+02  0.27712146293E+02  0.60089590852E+02  0.51100000000E-03 0.  1.
         23    2    1    0    0    0 -0.12616701763E+02  0.13128919598E+02  0.22198629687E+02  0.96288872311E+02  0.91908748646E+02 0.  0.
         11    1    3    3    0    0  0.14991286430E+02 -0.32484618570E+02 -0.55135166061E+01  0.36199281459E+02  0.51100000000E-03 0. -1.
         22    1    1    0    0    0  0.12616701763E+02 -0.13128919598E+02 -0.22198629687E+02  0.28711127689E+02  0.00000000000E+00 0.  1.
</event>
<event>
 5    1  0.6622940E-004  0.9118800E+02  0.7818608E-02  0.1130116E+00
         25   -1    0    0    0    0  0.00000000000E+00  0.00000000000E+00  0.99999998245E-14  0.12500000000E+03  0.12500000000E+03 0.  0.
        -11    1    3    3    0    0  0.83820490521E+01 -0.28653854554E+02 -0.17469404168E+02  0.34590203951E+02  0.51100000000E-03 0.  1.
         23    2    1    0    0    0  0.90701616598E+01  0.20401510990E+02  0.18969775155E+02  0.95702528221E+02  0.91107804579E+02 0.  0.
         11    1    3    3    0    0  0.68811260770E+00  0.49055365544E+02  0.36439179324E+02  0.61112324270E+02  0.51100000000E-03 0. -1.
         22    1    1    0    0    0 -0.90701616598E+01 -0.20401510990E+02 -0.18969775155E+02  0.29297471779E+02  0.00000000000E+00 0. -1.
</event>
<event>
 5    1  0.6622940E-004  0.9118800E+02  0.7818608E-02  0.1130116E+00
         25   -1    0    0    0    0  0.00000000000E+00  0.00000000000E+00  0.99999998245E-14  0.12500000000E+03  0.12500000000E+03 0.  0.
        -11    1    3    3    0    0 -0.14669467367E+01  0.10287410182E+02  0.21056519500E+02  0.23481050971E+02  0.51100000000E-03 0. -1.
         23    2    1    0    0    0  0.44124719722E+02 -0.15265000219E+02  0.56483978318E+01  0.77968994054E+02  0.62187205384E+02 0.  0.
         11    1    3    3    0    0  0.45591666459E+02 -0.25552410401E+02 -0.15408121668E+02  0.54487943083E+02  0.51100000000E-03 0.  1.
         22    1    1    0    0    0 -0.44124719722E+02  0.15265000219E+02 -0.56483978318E+01  0.47031005946E+02  0.00000000000E+00 0.  1.
</event>
<event>
 5    1  0.6622940E-004  0.9118800E+02  0.7818608E-02  0.1130116E+00
         25   -1    0    0    0    0  0.00000000000E+00  0.00000000000E+00  0.99999998245E-14  0.12500000000E+03  0.12500000000E+03 0.  0.
        -11    1    3    3    0    0  0.87408750200E+01 -0.66017544224E+01  0.45638299057E+02  0.46934426583E+02  0.51100000000E-03 0. -1.
         23    2    1    0    0    0  0.23812809239E+02 -0.17726118371E+02  0.10529678540E+01  0.95295220963E+02  0.90547254186E+02 0.  0.
         11    1    3    3    0    0  0.15071934219E+02 -0.11124363949E+02 -0.44585331203E+02  0.48360794380E+02  0.51100000000E-03 0.  1.
         22    1    1    0    0    0 -0.23812809239E+02  0.17726118371E+02 -0.10529678540E+01  0.29704779037E+02  0.00000000000E+00 0.  1.
</event>
<event>
 5    1  0.6622940E-004  0.9118800E+02  0.7818608E-02  0.1130116E+00
         25   -1    0    0    0    0  0.00000000000E+00  0.00000000000E+00  0.99999998245E-14  0.12500000000E+03  0.12500000000E+03 0.  0.
        -11    1    3    3    0    0 -0.29372677122E+02  0.26678069065E+02 -0.37951644182E+02  0.54907201956E+02  0.51100000000E-03 0.  1.
         23    2    1    0    0    0 -0.96318869891E+01 -0.66726088764E+01 -0.27591912429E+02  0.95023165817E+02  0.90170901371E+02 0.  0.
         11    1    3    3    0    0  0.19740790133E+02 -0.33350677941E+02  0.10359731753E+02  0.40115963860E+02  0.51100000000E-03 0. -1.
         22    1    1    0    0    0  0.96318869891E+01  0.66726088764E+01  0.27591912429E+02  0.29976834183E+02  0.00000000000E+00 0.  1.
</event>
<event>
 5    1  0.6622940E-004  0.9118800E+02  0.7818608E-02  0.1130116E+00
         25   -1    0    0    0    0  0.00000000000E+00  0.00000000000E+00  0.99999998245E-14  0.12500000000E+03  0.12500000000E+03 0.  0.
        -11    1    3    3    0    0  0.32355777023E+02  0.16143568066E+02  0.73954514434E+01  0.36908045179E+02  0.51100000000E-03 0. -1.
         23    2    1    0    0    0 -0.26496397851E+02  0.10405581300E+02  0.50747911078E+01  0.96084801124E+02  0.91630782387E+02 0.  0.
         11    1    3    3    0    0 -0.58852174874E+02 -0.57379867660E+01 -0.23206603356E+01  0.59176755945E+02  0.51100000000E-03 0.  1.
         22    1    1    0    0    0  0.26496397851E+02 -0.10405581300E+02 -0.50747911078E+01  0.28915198876E+02  0.00000000000E+00 0.  1.
</event>
<event>
 5    1  0.6622940E-004  0.9118800E+02  0.7818608E-02  0.1130116E+00
         25   -1    0    0    0    0  0.00000000000E+00  0.00000000000E+00  0.99999998245E-14  0.12500000000E+03  0.12500000000E+03 0.  0.
        -11    1    3    3    0    0  0.28211813454E+02 -0.43267938482E+02 -0.15052080115E+02  0.53801357185E+02  0.51100000000E-03 0.  1.
         23    2    1    0    0    0  0.20311441630E+02 -0.14954456172E+02  0.14848399146E+02  0.95731153462E+02  0.91147069977E+02 0.  0.
         11    1    3    3    0    0 -0.79003718238E+01  0.28313482310E+02  0.29900479261E+02  0.41929796277E+02  0.51100000000E-03 0. -1.
         22    1    1    0    0    0 -0.20311441630E+02  0.14954456172E+02 -0.14848399146E+02  0.29268846538E+02  0.00000000000E+00 0.  1.
</event>
<event>
 5    1  0.6622940E-004  0.9118800E+02  0.7818608E-02  0.1130116E+00
         25   -1    0    0    0    0  0.00000000000E+00  0.00000000000E+00  0.99999998245E-14  0.12500000000E+03  0.12500000000E+03 0.  0.
        -11    1    3    3    0    0  0.19477776777E+02  0.94657917282E+01 -0.31607769650E+02  0.38314959268E+02  0.51100000000E-03 0.  1.
         23    2    1    0    0    0 -0.10202365057E+02 -0.16409101301E+02  0.15869896304E+02  0.99995990982E+02  0.96819407897E+02 0.  0.
         11    1    3    3    0    0 -0.29680141833E+02 -0.25874893029E+02  0.47477665955E+02  0.61681031714E+02  0.51100000000E-03 0. -1.
         22    1    1    0    0    0  0.10202365057E+02  0.16409101301E+02 -0.15869896304E+02  0.25004009018E+02  0.00000000000E+00 0. -1.
</event>
<event>
 5    1  0.6622940E-004  0.9118800E+02  0.7818608E-02  0.1130116E+00
         25   -1    0    0    0    0  0.00000000000E+00  0.00000000000E+00  0.99999998245E-14  0.12500000000E+03  0.12500000000E+03 0.  0.
        -11    1    3    3    0    0 -0.31676004347E+02 -0.31398300030E+01 -0.34919762949E+02  0.47250583367E+02  0.51100000000E-03 0.  1.
         23    2    1    0    0    0 -0.63413491148E+01  0.24687086710E+02  0.12959565947E+01  0.99478548977E+02  0.96149036626E+02 0.  0.
         11    1    3    3    0    0  0.25334655232E+02  0.27826916713E+02  0.36215719543E+02  0.52227965610E+02  0.51100000000E-03 0. -1.
         22    1    1    0    0    0  0.63413491148E+01 -0.24687086710E+02 -0.12959565947E+01  0.25521451023E+02  0.00000000000E+00 0. -1.
</event>
<event>
 4    1  0.6622940E-004  0.9118800E+02  0.7818608E-02  0.1130116E+00
         25   -1    0    0    0    0  0.00000000000E+00  0.00000000000E+00  0.99999998245E-14  0.12500000000E+03  0.12500000000E+03 0.  0.
        -11    1    1    0    0    0  0.10671376642E+02  0.52347742704E+01 -0.58593678600E+01  0.13251918090E+02  0.51100000000E-03 0. -1.
         11    1    1    0    0    0 -0.34126419678E+02 -0.22243353944E+02 -0.40266276763E+02  0.57277852259E+02  0.51100000000E-03 0.  1.
         22    1    1    0    0    0  0.23455043036E+02  0.17008579673E+02  0.46125644623E+02  0.54470229651E+02  0.00000000000E+00 0.  1.
</event>
<event>
 5    1  0.6622940E-004  0.9118800E+02  0.7818608E-02  0.1130116E+00
         25   -1    0    0    0    0  0.00000000000E+00  0.00000000000E+00  0.99999998245E-14  0.12500000000E+03  0.12500000000E+03 0.  0.
        -11    1    3    3    0    0 -0.85458553139E+01 -0.32221018915E+02  0.55109266242E+01  0.33787512716E+02  0.51100000000E-03 0. -1.
         23    2    1    0    0    0 -0.52400774680E+01  0.28844471691E+02 -0.29937862508E+01  0.95530953271E+02  0.90872098675E+02 0.  0.
         11    1    3    3    0    0  0.33057778459E+01  0.61065490607E+02 -0.85047128750E+01  0.61743440555E+02  0.51100000000E-03 0.  1.
         22    1    1    0    0    0  0.52400774680E+01 -0.28844471691E+02  0.29937862508E+01  0.29469046729E+02  0.00000000000E+00 0.  1.
</event>
<event>
 5    1  0.6622940E-004  0.9118800E+02  0.7818608E-02  0.1130116E+00
         25   -1    0    0    0    0  0.00000000000E+00  0.00000000000E+00  0.99999998245E-14  0.12500000000E+03  0.12500000000E+03 0.  0.
        -11    1    3    3    0    0  0.29906378186E+02 -0.30714276161E+02  0.15764775048E+02  0.45675883668E+02  0.51100000000E-03 0.  1.
         23    2    1    0    0    0  0.29298814740E+02  0.14060257025E+02  0.10923056687E+02  0.90715535003E+02  0.83987402333E+02 0.  0.
         11    1    3    3    0    0 -0.60756344586E+00  0.44774533186E+02 -0.48417183611E+01  0.45039651334E+02  0.51100000000E-03 0. -1.
         22    1    1    0    0    0 -0.29298814740E+02 -0.14060257025E+02 -0.10923056687E+02  0.34284464997E+02  0.00000000000E+00 0.  1.
</event>
<event>
 5    1  0.6622940E-004  0.9118800E+02  0.7818608E-02  0.1130116E+00
         25   -1    0    0    0    0  0.00000000000E+00  0.00000000000E+00  0.99999998245E-14  0.12500000000E+03  0.12500000000E+03 0.  0.
        -11    1    3    3    0    0  0.13923943206E+02 -0.16060996327E+02  0.56227168262E+02  0.60110949489E+02  0.51100000000E-03 0.  1.
         23    2    1    0    0    0  0.53681772764E+01 -0.19967886155E+02  0.25925471135E+02  0.91838820010E+02  0.85642892305E+02 0.  0.
         11    1    3    3    0    0 -0.85557659292E+01 -0.39068898287E+01 -0.30301697127E+02  0.31727870521E+02  0.51100000000E-03 0. -1.
         22    1    1    0    0    0 -0.53681772764E+01  0.19967886155E+02 -0.25925471135E+02  0.33161179990E+02  0.00000000000E+00 0.  1.
</event>
<event>
 5    1  0.6622940E-004  0.9118800E+02  0.7818608E-02  0.1130116E+00
         25   -1    0    0    0    0  0.00000000000E+00  0.00000000000E+00  0.99999998245E-14  0.12500000000E+03  0.12500000000E+03 0.  0.
        -11    1    3    3    0    0 -0.26231418190E+01 -0.39569681643E+02 -0.90367228025E+01  0.40673123037E+02  0.51100000000E-03 0.  1.
         23    2    1    0    0    0 -0.21354264036E+02  0.42670609367E+01  0.19105023518E+02  0.96030803857E+02  0.91557091283E+02 0.  0.
         11    1    3    3    0    0 -0.18731122217E+02  0.43836742580E+02  0.28141746320E+02  0.55357680820E+02  0.51100000000E-03 0. -1.
         22    1    1    0    0    0  0.21354264036E+02 -0.42670609367E+01 -0.19105023518E+02  0.28969196143E+02  0.00000000000E+00 0. -1.
</event>
<event>
 5    1  0.6622940E-004  0.9118800E+02  0.7818608E-02  0.1130116E+00
         25   -1    0    0    0    0  0.00000000000E+00  0.00000000000E+00  0.99999998245E-14  0.12500000000E+03  0.12500000000E+03 0.  0.
        -11    1    3    3    0    0  0.16911361192E+02  0.26655733230E+02  0.53865851347E+02  0.62434383099E+02  0.51100000000E-03 0.  1.
         23    2    1    0    0    0  0.69837940646E+01  0.12195624606E+02  0.27758384954E+02  0.93886746003E+02  0.88581524601E+02 0.  0.
         11    1    3    3    0    0 -0.99275671272E+01 -0.14460108624E+02 -0.26107466393E+02  0.31452362904E+02  0.51100000000E-03 0. -1.
         22    1    1    0    0    0 -0.69837940646E+01 -0.12195624606E+02 -0.27758384954E+02  0.31113253997E+02  0.00000000000E+00 0.  1.
</event>
<event>
 5    1  0.6622940E-004  0.9118800E+02  0.7818608E-02  0.1130116E+00
         25   -1    0    0    0    0  0.00000000000E+00  0.00000000000E+00  0.99999998245E-14  0.12500000000E+03  0.12500000000E+03 0.  0.
        -11    1    3    3    0    0 -0.24327510167E+02 -0.26431834566E+02  0.14462346098E+02  0.38725044665E+02  0.51100000000E-03 0.  1.
         23    2    1    0    0    0  0.27346493792E+02 -0.12997600761E+02 -0.21610458563E+01  0.94644795052E+02  0.89644847945E+02 0.  0.
         11    1    3    3    0    0  0.51674003958E+02  0.13434233805E+02 -0.16623391954E+02  0.55919750387E+02  0.51100000000E-03 0. -1.
         22    1    1    0    0    0 -0.27346493792E+02  0.12997600761E+02  0.21610458563E+01  0.30355204948E+02  0.00000000000E+00 0. -1.
</event>
<event>
 5    1  0.6622940E-004  0.9118800E+02  0.7818608E-02  0.1130116E+00
         25   -1    0    0    0    0  0.00000000000E+00  0.00000000000E+00  0.99999998245E-14  0.12500000000E+03  0.12500000000E+03 0.  0.
        -11    1    3    3    0    0 -0.10562779721E+02 -0.96458166450E+01 -0.40053145359E+02  0.42530795286E+02  0.51100000000E-03 0. -1.
         23    2    1    0    0    0  0.15789120897E+02  0.23845584449E+02 -0.98977108255E+01  0.94736607659E+02  0.89772779364E+02 0.  0.
         11    1    3    3    0    0  0.26351900618E+02  0.33491401094E+02  0.30155434534E+02  0.52205812374E+02  0.51100000000E-03 0.  1.
         22    1    1    0    0    0 -0.15789120897E+02 -0.23845584449E+02  0.98977108255E+01  0.30263392341E+02  0.00000000000E+00 0.  1.
</event>
<event>
 5    1  0.6622940E-004  0.9118800E+02  0.7818608E-02  0.1130116E+00
         25   -1    0    0    0    0  0.00000000000E+00  0.00000000000E+00  0.99999998245E-14  0.12500000000E+03  0.12500000000E+03 0.  0.
        -11    1    3    3    0    0 -0.67889565853E+01 -0.53385921800E+02 -0.21705545824E+02  0.58028245689E+02  0.51100000000E-03 0.  1.
         23    2    1    0    0    0 -0.71575466108E+01 -0.26131490599E+02  0.63792488339E+01  0.97165128165E+02  0.93092867832E+02 0.  0.
         11    1    3    3    0    0 -0.36859002548E+00  0.27254431201E+02  0.28084794658E+02  0.39136882476E+02  0.51100000000E-03 0. -1.
         22    1    1    0    0    0  0.71575466108E+01  0.26131490599E+02 -0.63792488339E+01  0.27834871835E+02  0.00000000000E+00 0.  1.
</event>
<event>
 5    1  0.6622940E-004  0.9118800E+02  0.7818608E-02  0.1130116E+00
         25   -1    0    0    0    0  0.00000000000E+00  0.00000000000E+00  0.99999998245E-14  0.12500000000E+03  0.12500000000E+03 0.  0.
        -11    1    3    3    0    0 -0.32752415758E+02 -0.19730945508E+02 -0.22875652617E+02  0.44557002048E+02  0.51100000000E-03 0.  1.
         23    2    1    0    0    0 -0.21909406154E+02  0.59371799854E+01  0.19366477358E+02  0.95161557858E+02  0.90362544589E+02 0.  0.
         11    1    3    3    0    0  0.10843009604E+02  0.25668125493E+02  0.42242129975E+02  0.50604555810E+02  0.51100000000E-03 0. -1.
         22    1    1    0    0    0  0.21909406154E+02 -0.59371799854E+01 -0.19366477358E+02  0.29838442142E+02  0.00000000000E+00 0. -1.
</event>
<event>
 5    1  0.6622940E-004  0.9118800E+02  0.7818608E-02  0.1130116E+00
         25   -1    0    0    0    0  0.00000000000E+00  0.00000000000E+00  0.99999998245E-14  0.12500000000E+03  0.12500000000E+03 0.  0.
        -11    1    3    3    0    0 -0.14215610082E+02  0.50543654030E+01  0.43498552045E+02  0.46040788545E+02  0.51100000000E-03 0. -1.
         23    2    1    0    0    0 -0.70057958488E+01  0.28544866744E+02  0.45470030424E+00  0.95604467257E+02  0.90973165352E+02 0.  0.
         11    1    3    3    0    0  0.72098142328E+01  0.23490501341E+02 -0.43043851741E+02  0.49563678712E+02  0.51100000000E-03 0.  1.
         22    1    1    0    0    0  0.70057958488E+01 -0.28544866744E+02 -0.45470030424E+00  0.29395532743E+02  0.00000000000E+00 0.  1.
</event>
<event>
 5    1  0.6622940E-004  0.9118800E+02  0.7818608E-02  0.1130116E+00
         25   -1    0    0    0    0  0.00000000000E+00  0.00000000000E+00  0.99999998245E-14  0.12500000000E+03  0.12500000000E+03 0.  0.
        -11    1    3    3    0    0 -0.23767512284E+02  0.22350271787E+02 -0.27355185665E+02  0.42576231305E+02  0.51100000000E-03 0.  1.
         23    2    1    0    0    0  0.15105394537E+02 -0.13377755609E+02 -0.21201925721E+02  0.95731263376E+02  0.91147220715E+02 0.  0.
         11    1    3    3    0    0  0.38872906821E+02 -0.35728027396E+02  0.61532599441E+01  0.53155032071E+02  0.51100000000E-03 0. -1.
         22    1    1    0    0    0 -0.15105394537E+02  0.13377755609E+02  0.21201925721E+02  0.29268736624E+02  0.00000000000E+00 0. -1.
</event>
<event>
 5    1  0.6622940E-004  0.9118800E+02  0.7818608E-02  0.1130116E+00
         25   -1    0    0    0    0  0.00000000000E+00  0.00000000000E+00  0.99999998245E-14  0.12500000000E+03  0.12500000000E+03 0.  0.
        -11    1    3    3    0    0 -0.19607217845E+02 -0.28994678021E+02 -0.42160404809E+01  0.35254919412E+02  0.51100000000E-03 0. -1.
         23    2    1    0    0    0 -0.43966627080E+01  0.29140600851E+02  0.43000422028E+00  0.95526449746E+02  0.90865903597E+02 0.  0.
         11    1    3    3    0    0  0.15210555137E+02  0.58135278872E+02  0.46460447011E+01  0.60271530334E+02  0.51100000000E-03 0.  1.
         22    1    1    0    0    0  0.43966627080E+01 -0.29140600851E+02 -0.43000422028E+00  0.29473550254E+02  0.00000000000E+00 0.  1.
</event>
<event>
 5    1  0.6622940E-004  0.9118800E+02  0.7818608E-02  0.1130116E+00
         25   -1    0    0    0    0  0.00000000000E+00  0.00000000000E+00  0.99999998245E-14  0.12500000000E+03  0.12500000000E+03 0.  0.
        -11    1    3    3    0    0 -0.69125162163E+00 -0.13404898774E+02 -0.38951279085E+02  0.41199166042E+02  0.51100000000E-03 0. -1.
         23    2    1    0    0    0  0.13020240675E+02  0.25890108020E+02 -0.36145868390E+01  0.95795726365E+02  0.91235582922E+02 0.  0.
         11    1    3    3    0    0  0.13711492297E+02  0.39295006794E+02  0.35336692246E+02  0.54596560323E+02  0.51100000000E-03 0.  1.
         22    1    1    0    0    0 -0.13020240675E+02 -0.25890108020E+02  0.36145868390E+01  0.29204273635E+02  0.00000000000E+00 0.  1.
</event>
<event>
 5    1  0.6622940E-004  0.9118800E+02  0.7818608E-02  0.1130116E+00
         25   -1    0    0    0    0  0.00000000000E+00  0.00000000000E+00  0.99999998245E-14  0.12500000000E+03  0.12500000000E+03 0.  0.
        -11    1    3    3    0    0 -0.47925613394E+02 -0.78994858373E+01  0.19932773816E+02  0.52503159599E+02  0.51100000000E-03 0. -1.
         23    2    1    0    0    0 -0.75336982825E+01 -0.65461733298E+01  0.29349211503E+02  0.94000238534E+02  0.88741532743E+02 0.  0.
         11    1    3    3    0    0  0.40391915111E+02  0.13533125076E+01  0.94164376879E+01  0.41497078935E+02  0.51100000000E-03 0.  1.
         22    1    1    0    0    0  0.75336982825E+01  0.65461733298E+01 -0.29349211503E+02  0.30999761466E+02  0.00000000000E+00 0. -1.
</event>
<event>
 5    1  0.6622940E-004  0.9118800E+02  0.7818608E-02  0.1130116E+00
         25   -1    0    0    0    0  0.00000000000E+00  0.00000000000E+00  0.99999998245E-14  0.12500000000E+03  0.12500000000E+03 0.  0.
        -11    1    3    3    0    0 -0.21915870680E+02  0.16702812984E+02  0.30114658300E+02  0.40818892612E+02  0.51100000000E-03 0.  1.
         23    2    1    0    0    0  0.10860348781E+02  0.18501079970E+02 -0.16572792426E+02  0.97891060801E+02  0.94062560035E+02 0.  0.
         11    1    3    3    0    0  0.32776219460E+02  0.17982669857E+01 -0.46687450726E+02  0.57072168190E+02  0.51100000000E-03 0. -1.
         22    1    1    0    0    0 -0.10860348781E+02 -0.18501079970E+02  0.16572792426E+02  0.27108939199E+02  0.00000000000E+00 0. -1.
</event>
<event>
 5    1  0.6622940E-004  0.9118800E+02  0.7818608E-02  0.1130116E+00
         25   -1    0    0    0    0  0.00000000000E+00  0.00000000000E+00  0.99999998245E-14  0.12500000000E+03  0.12500000000E+03 0.  0.
        -11    1    3    3    0    0  0.12002102963E+02 -0.36250503716E+02 -0.17328500877E+02  0.41933595578E+02  0.51100000000E-03 0. -1.
         23    2    1    0    0    0  0.15848940065E+02  0.42051869647E+01  0.21379518472E+02  0.98056423610E+02  0.94282055039E+02 0.  0.
         11    1    3    3    0    0  0.38468371022E+01  0.40455690680E+02  0.38708019349E+02  0.56122828032E+02  0.51100000000E-03 0.  1.
         22    1    1    0    0    0 -0.15848940065E+02 -0.42051869647E+01 -0.21379518472E+02  0.26943576390E+02  0.00000000000E+00 0.  1.
</event>
<event>
 5    1  0.6622940E-004  0.9118800E+02  0.7818608E-02  0.1130116E+00
         25   -1    0    0    0    0  0.00000000000E+00  0.00000000000E+00  0.99999998245E-14  0.12500000000E+03  0.12500000000E+03 0.  0.
        -11    1    3    3    0    0 -0.10010514964E+02 -0.33330054864E+02  0.22602988836E+01  0.34874230004E+02  0.51100000000E-03 0.  1.
         23    2    1    0    0    0 -0.13385618802E+01  0.28022831278E+02 -0.10528363373E+01  0.96925469102E+02  0.92770508652E+02 0.  0.
         11    1    3    3    0    0  0.86719530836E+01  0.61352886143E+02 -0.33131352209E+01  0.62051239098E+02  0.51100000000E-03 0. -1.
         22    1    1    0    0    0  0.13385618802E+01 -0.28022831278E+02  0.10528363373E+01  0.28074530898E+02  0.00000000000E+00 0. -1.
</event>
<event>
 5    1  0.6622940E-004  0.9118800E+02  0.7818608E-02  0.1130116E+00
         25   -1    0    0    0    0  0.00000000000E+00  0.00000000000E+00  0.99999998245E-14  0.12500000000E+03  0.12500000000E+03 0.  0.
        -11    1    3    3    0    0  0.35769636673E+02  0.43128770237E+02 -0.18011347777E+02  0.58855470254E+02  0.51100000000E-03 0.  1.
         23    2    1    0    0    0  0.26734692828E+02  0.20299466184E+02  0.31713179788E+01  0.91282506237E+02  0.84827039081E+02 0.  0.
         11    1    3    3    0    0 -0.90349438446E+01 -0.22829304053E+02  0.21182665756E+02  0.32427035983E+02  0.51100000000E-03 0. -1.
         22    1    1    0    0    0 -0.26734692828E+02 -0.20299466184E+02 -0.31713179788E+01  0.33717493763E+02  0.00000000000E+00 0.  1.
</event>
<event>
 5    1  0.6622940E-004  0.9118800E+02  0.7818608E-02  0.1130116E+00
         25   -1    0    0    0    0  0.00000000000E+00  0.00000000000E+00  0.99999998245E-14  0.12500000000E+03  0.12500000000E+03 0.  0.
        -11    1    3    3    0    0 -0.25377722377E+02 -0.18375682076E+02  0.11921435225E+02  0.33523351606E+02  0.51100000000E-03 0. -1.
         23    2    1    0    0    0  0.23604184378E+02  0.17145168584E+02  0.10333747074E+02  0.94050029814E+02  0.88811640304E+02 0.  0.
         11    1    3    3    0    0  0.48981906755E+02  0.35520850660E+02 -0.15876881503E+01  0.60526678208E+02  0.51100000000E-03 0.  1.
         22    1    1    0    0    0 -0.23604184378E+02 -0.17145168584E+02 -0.10333747074E+02  0.30949970186E+02  0.00000000000E+00 0.  1.
</event>
<event>
 5    1  0.6622940E-004  0.9118800E+02  0.7818608E-02  0.1130116E+00
         25   -1    0    0    0    0  0.00000000000E+00  0.00000000000E+00  0.99999998245E-14  0.12500000000E+03  0.12500000000E+03 0.  0.
        -11    1    3    3    0    0  0.58435991149E+00 -0.26558848683E+02 -0.22635772494E+02  0.34901176435E+02  0.51100000000E-03 0.  1.
         23    2    1    0    0    0 -0.17201773014E+02  0.21235005556E+02  0.10507764259E+02  0.95721346248E+02  0.91133619275E+02 0.  0.
         11    1    3    3    0    0 -0.17786132925E+02  0.47793854239E+02  0.33143536753E+02  0.60820169814E+02  0.51100000000E-03 0. -1.
         22    1    1    0    0    0  0.17201773014E+02 -0.21235005556E+02 -0.10507764259E+02  0.29278653752E+02  0.00000000000E+00 0. -1.
</event>
<event>
 5    1  0.6622940E-004  0.9118800E+02  0.7818608E-02  0.1130116E+00
         25   -1    0    0    0    0  0.00000000000E+00  0.00000000000E+00  0.99999998245E-14  0.12500000000E+03  0.12500000000E+03 0.  0.
        -11    1    3    3    0    0  0.10352455454E+02 -0.43333827936E+02  0.33467167358E+02  0.55722933059E+02  0.51100000000E-03 0.  1.
         23    2    1    0    0    0  0.48860866889E+01 -0.34910562612E+01  0.28064494308E+02  0.96300223734E+02  0.91924185792E+02 0.  0.
         11    1    3    3    0    0 -0.54663687653E+01  0.39842771675E+02 -0.54026730502E+01  0.40577290675E+02  0.51100000000E-03 0. -1.
         22    1    1    0    0    0 -0.48860866889E+01  0.34910562612E+01 -0.28064494308E+02  0.28699776266E+02  0.00000000000E+00 0.  1.
</event>
<event>
 5    1  0.6622940E-004  0.9118800E+02  0.7818608E-02  0.1130116E+00
         25   -1    0    0    0    0  0.00000000000E+00  0.00000000000E+00  0.99999998245E-14  0.12500000000E+03  0.12500000000E+03 0.  0.
        -11    1    3    3    0    0 -0.88953173421E+00 -0.32517119249E+02 -0.93648961795E+01  0.33850488795E+02  0.51100000000E-03 0.  1.
         23    2    1    0    0    0  0.16290619051E+02  0.22966376428E+02  0.10066667672E+02  0.95097215626E+02  0.90273495039E+02 0.  0.
         11    1    3    3    0    0  0.17180150785E+02  0.55483495677E+02  0.19431563851E+02  0.61246726831E+02  0.51100000000E-03 0. -1.
         22    1    1    0    0    0 -0.16290619051E+02 -0.22966376428E+02 -0.10066667672E+02  0.29902784374E+02  0.00000000000E+00 0. -1.
</event>
<event>
 5    1  0.6622940E-004  0.9118800E+02  0.7818608E-02  0.1130116E+00
         25   -1    0    0    0    0  0.00000000000E+00  0.00000000000E+00  0.99999998245E-14  0.12500000000E+03  0.12500000000E+03 0.  0.
        -11    1    3    3    0    0  0.35467449111E+02 -0.11355197834E+02 -0.35086121233E+01  0.37405759230E+02  0.51100000000E-03 0. -1.
         23    2    1    0    0    0 -0.21226721293E+02 -0.13969895417E+02 -0.15252749682E+02  0.95362556661E+02  0.90640163091E+02 0.  0.
         11    1    3    3    0    0 -0.56694170404E+02 -0.26146975825E+01 -0.11744137559E+02  0.57956797431E+02  0.51100000000E-03 0.  1.
         22    1    1    0    0    0  0.21226721293E+02  0.13969895417E+02  0.15252749682E+02  0.29637443339E+02  0.00000000000E+00 0.  1.
</event>
<event>
 5    1  0.6622940E-004  0.9118800E+02  0.7818608E-02  0.1130116E+00
         25   -1    0    0    0    0  0.00000000000E+00  0.00000000000E+00  0.99999998245E-14  0.12500000000E+03  0.12500000000E+03 0.  0.
        -11    1    3    3    0    0 -0.20253740935E+02  0.10986569255E+02 -0.30689389890E+02  0.38376521181E+02  0.51100000000E-03 0.  1.
         23    2    1    0    0    0  0.15866206467E+02  0.20535672719E+02  0.13093296240E+02  0.95933098409E+02  0.91423599811E+02 0.  0.
         11    1    3    3    0    0  0.36119947402E+02  0.95491034634E+01  0.43782686130E+02  0.57556577229E+02  0.51100000000E-03 0. -1.
         22    1    1    0    0    0 -0.15866206467E+02 -0.20535672719E+02 -0.13093296240E+02  0.29066901591E+02  0.00000000000E+00 0. -1.
</event>
<event>
 5    1  0.6622940E-004  0.9118800E+02  0.7818608E-02  0.1130116E+00
         25   -1    0    0    0    0  0.00000000000E+00  0.00000000000E+00  0.99999998245E-14  0.12500000000E+03  0.12500000000E+03 0.  0.
        -11    1    3    3    0    0  0.26654452240E+02  0.14991529663E+02 -0.51848806986E+00  0.30585529520E+02  0.51100000000E-03 0.  1.
         23    2    1    0    0    0 -0.26879331842E+02 -0.11448494700E+02 -0.15193480229E+02  0.92069643904E+02  0.85979131049E+02 0.  0.
         11    1    3    3    0    0 -0.53533784082E+02 -0.26440024363E+02 -0.14674992159E+02  0.61484114384E+02  0.51100000000E-03 0. -1.
         22    1    1    0    0    0  0.26879331842E+02  0.11448494700E+02  0.15193480229E+02  0.32930356096E+02  0.00000000000E+00 0. -1.
</event>
<event>
 5    1  0.6622940E-004  0.9118800E+02  0.7818608E-02  0.1130116E+00
         25   -1    0    0    0    0  0.00000000000E+00  0.00000000000E+00  0.99999998245E-14  0.12500000000E+03  0.12500000000E+03 0.  0.
        -11    1    3    3    0    0 -0.33562140917E+02 -0.33903851807E+02  0.14303686462E+02  0.49804456798E+02  0.51100000000E-03 0. -1.
         23    2    1    0    0    0 -0.11063967685E+02  0.10885855833E+02  0.19365316363E+02  0.10018208881E+03  0.97059374620E+02 0.  0.
         11    1    3    3    0    0  0.22498173232E+02  0.44789707640E+02  0.50616299019E+01  0.50377632009E+02  0.51100000000E-03 0.  1.
         22    1    1    0    0    0  0.11063967685E+02 -0.10885855833E+02 -0.19365316363E+02  0.24817911194E+02  0.00000000000E+00 0.  1.
</event>
<event>
 5    1  0.6622940E-004  0.9118800E+02  0.7818608E-02  0.1130116E+00
         25   -1    0    0    0    0  0.00000000000E+00  0.00000000000E+00  0.99999998245E-14  0.12500000000E+03  0.12500000000E+03 0.  0.
        -11    1    3    3    0    0 -0.31765675974E+01  0.26901160797E+02 -0.29896112474E+02  0.40342788392E+02  0.51100000000E-03 0. -1.
         23    2    1    0    0    0  0.16366213793E+02 -0.21436943748E+02 -0.12150471358E+02  0.95419103032E+02  0.90718111522E+02 0.  0.
         11    1    3    3    0    0  0.19542781391E+02 -0.48338104545E+02  0.17745641116E+02  0.55076314641E+02  0.51100000000E-03 0.  1.
         22    1    1    0    0    0 -0.16366213793E+02  0.21436943748E+02  0.12150471358E+02  0.29580896968E+02  0.00000000000E+00 0.  1.
</event>
<event>
 5    1  0.6622940E-004  0.9118800E+02  0.7818608E-02  0.1130116E+00
         25   -1    0    0    0    0  0.00000000000E+00  0.00000000000E+00  0.99999998245E-14  0.12500000000E+03  0.12500000000E+03 0.  0.
        -11    1    3    3    0    0 -0.41616501918E+02 -0.31683173201E+02 -0.98722620459E+01  0.53227983750E+02  0.51100000000E-03 0.  1.
         23    2    1    0    0    0 -0.20348639080E+02 -0.24788136896E+02 -0.28320992553E+02  0.82214518088E+02  0.70204198750E+02 0.  0.
         11    1    3    3    0    0  0.21267862838E+02  0.68950363044E+01 -0.18448730508E+02  0.28986534338E+02  0.51100000000E-03 0. -1.
         22    1    1    0    0    0  0.20348639080E+02  0.24788136896E+02  0.28320992553E+02  0.42785481912E+02  0.00000000000E+00 0.  1.
</event>
<event>
 5    1  0.6622940E-004  0.9118800E+02  0.7818608E-02  0.1130116E+00
         25   -1    0    0    0    0  0.00000000000E+00  0.00000000000E+00  0.99999998245E-14  0.12500000000E+03  0.12500000000E+03 0.  0.
        -11    1    3    3    0    0 -0.28031420066E+02  0.10328768590E+01  0.52137555727E+02  0.59204324698E+02  0.51100000000E-03 0. -1.
         23    2    1    0    0    0  0.81591495158E+00 -0.33312042176E+01  0.27198174855E+02  0.97586438498E+02  0.93656871743E+02 0.  0.
         11    1    3    3    0    0  0.28847335017E+02 -0.43640810766E+01 -0.24939380872E+02  0.38382113800E+02  0.51100000000E-03 0.  1.
         22    1    1    0    0    0 -0.81591495158E+00  0.33312042176E+01 -0.27198174855E+02  0.27413561502E+02  0.00000000000E+00 0. -1.
</event>
<event>
 5    1  0.6622940E-004  0.9118800E+02  0.7818608E-02  0.1130116E+00
         25   -1    0    0    0    0  0.00000000000E+00  0.00000000000E+00  0.99999998245E-14  0.12500000000E+03  0.12500000000E+03 0.  0.
        -11    1    3    3    0    0  0.32364477282E+02 -0.88919190866E+01  0.20244275763E+01  0.33624751628E+02  0.51100000000E-03 0.  1.
         23    2    1    0    0    0 -0.29036925826E+02 -0.34279713096E+01 -0.36735058108E+01  0.95531564452E+02  0.90872939388E+02 0.  0.
         11    1    3    3    0    0 -0.61401403108E+02  0.54639477771E+01 -0.56979333871E+01  0.61906812824E+02  0.51100000000E-03 0. -1.
         22    1    1    0    0    0  0.29036925826E+02  0.34279713096E+01  0.36735058108E+01  0.29468435548E+02  0.00000000000E+00 0. -1.
</event>
<event>
 5    1  0.6622940E-004  0.9118800E+02  0.7818608E-02  0.1130116E+00
         25   -1    0    0    0    0  0.00000000000E+00  0.00000000000E+00  0.99999998245E-14  0.12500000000E+03  0.12500000000E+03 0.  0.
        -11    1    3    3    0    0 -0.16887138808E+02 -0.51011442519E+01 -0.29566252499E+02  0.34429063550E+02  0.51100000000E-03 0.  1.
         23    2    1    0    0    0  0.16150732698E+02  0.24308564785E+02  0.10375423219E+02  0.94025786603E+02  0.88777512079E+02 0.  0.
         11    1    3    3    0    0  0.33037871506E+02  0.29409709037E+02  0.39941675718E+02  0.59596723053E+02  0.51100000000E-03 0. -1.
         22    1    1    0    0    0 -0.16150732698E+02 -0.24308564785E+02 -0.10375423219E+02  0.30974213397E+02  0.00000000000E+00 0. -1.
</event>
<event>
 5    1  0.6622940E-004  0.9118800E+02  0.7818608E-02  0.1130116E+00
         25   -1    0    0    0    0  0.00000000000E+00  0.00000000000E+00  0.99999998245E-14  0.12500000000E+03  0.12500000000E+03 0.  0.
        -11    1    3    3    0    0  0.34393978861E+02  0.84049218028E+01  0.15730132891E+02  0.38743071295E+02  0.51100000000E-03 0. -1.
         23    2    1    0    0    0 -0.14673286450E+02  0.24294217138E+02 -0.79946247269E+01  0.95513929626E+02  0.90848678617E+02 0.  0.
         11    1    3    3    0    0 -0.49067265310E+02  0.15889295335E+02 -0.23724757618E+02  0.56770858330E+02  0.51100000000E-03 0.  1.
         22    1    1    0    0    0  0.14673286450E+02 -0.24294217138E+02  0.79946247269E+01  0.29486070374E+02  0.00000000000E+00 0.  1.
</event>
<event>
 5    1  0.6622940E-004  0.9118800E+02  0.7818608E-02  0.1130116E+00
         25   -1    0    0    0    0  0.00000000000E+00  0.00000000000E+00  0.99999998245E-14  0.12500000000E+03  0.12500000000E+03 0.  0.
        -11    1    3    3    0    0 -0.17624682480E+02 -0.63319787421E+01  0.54871347670E+01  0.19514918282E+02  0.51100000000E-03 0.  1.
         23    2    1    0    0    0 -0.17032684598E+02  0.44301654956E+02 -0.16542757421E+02  0.74736575927E+02  0.55309528851E+02 0.  0.
         11    1    3    3    0    0  0.59199788229E+00  0.50633633698E+02 -0.22029892188E+02  0.55221657645E+02  0.51100000000E-03 0. -1.
         22    1    1    0    0    0  0.17032684598E+02 -0.44301654956E+02  0.16542757421E+02  0.50263424073E+02  0.00000000000E+00 0. -1.
</event>
<event>
 5    1  0.6622940E-004  0.9118800E+02  0.7818608E-02  0.1130116E+00
         25   -1    0    0    0    0  0.00000000000E+00  0.00000000000E+00  0.99999998245E-14  0.12500000000E+03  0.12500000000E+03 0.  0.
        -11    1    3    3    0    0  0.13891241178E+02  0.15198536796E+02 -0.47771690999E+02  0.52020155357E+02  0.51100000000E-03 0.  1.
         23    2    1    0    0    0  0.13264020533E+02 -0.17780805232E+02 -0.19602336908E+02  0.95396910843E+02  0.90687527867E+02 0.  0.
         11    1    3    3    0    0 -0.62722064460E+00 -0.32979342028E+02  0.28169354091E+02  0.43376755486E+02  0.51100000000E-03 0. -1.
         22    1    1    0    0    0 -0.13264020533E+02  0.17780805232E+02  0.19602336908E+02  0.29603089157E+02  0.00000000000E+00 0.  1.
</event>
<event>
 5    1  0.6622940E-004  0.9118800E+02  0.7818608E-02  0.1130116E+00
         25   -1    0    0    0    0  0.00000000000E+00  0.00000000000E+00  0.99999998245E-14  0.12500000000E+03  0.12500000000E+03 0.  0.
        -11    1    3    3    0    0  0.12468641015E+02  0.51111928206E+02 -0.67954605918E+01  0.53047851028E+02  0.51100000000E-03 0.  1.
         23    2    1    0    0    0 -0.18818493725E+01  0.12549449523E+02 -0.24161694313E+02  0.97708654989E+02  0.93819847300E+02 0.  0.
         11    1    3    3    0    0 -0.14350490388E+02 -0.38562478683E+02 -0.17366233722E+02  0.44660803961E+02  0.51100000000E-03 0. -1.
         22    1    1    0    0    0  0.18818493725E+01 -0.12549449523E+02  0.24161694313E+02  0.27291345011E+02  0.00000000000E+00 0.  1.
</event>
<event>
 5    1  0.6622940E-004  0.9118800E+02  0.7818608E-02  0.1130116E+00
         25   -1    0    0    0    0  0.00000000000E+00  0.00000000000E+00  0.99999998245E-14  0.12500000000E+03  0.12500000000E+03 0.  0.
        -11    1    3    3    0    0  0.18040733767E+02 -0.29365341398E+02 -0.46639770910E+02  0.57991892373E+02  0.51100000000E-03 0. -1.
         23    2    1    0    0    0  0.17560217172E+02 -0.24922239676E+02 -0.13118038948E+02  0.91810209349E+02  0.85601123458E+02 0.  0.
         11    1    3    3    0    0 -0.48051659435E+00  0.44431017222E+01  0.33521731961E+02  0.33818316976E+02  0.51100000000E-03 0.  1.
         22    1    1    0    0    0 -0.17560217172E+02  0.24922239676E+02  0.13118038948E+02  0.33189790651E+02  0.00000000000E+00 0. -1.
</event>
<event>
 5    1  0.6622940E-004  0.9118800E+02  0.7818608E-02  0.1130116E+00
         25   -1    0    0    0    0  0.00000000000E+00  0.00000000000E+00  0.99999998245E-14  0.12500000000E+03  0.12500000000E+03 0.  0.
        -11    1    3    3    0    0 -0.21592686564E+01 -0.22376798165E+02 -0.27722404333E+02  0.35691949225E+02  0.51100000000E-03 0.  1.
         23    2    1    0    0    0 -0.56690926251E+01  0.23862626905E+02  0.12852690517E+02  0.97309654615E+02  0.93286728176E+02 0.  0.
         11    1    3    3    0    0 -0.35098239687E+01  0.46239425071E+02  0.40575094850E+02  0.61617705390E+02  0.51100000000E-03 0. -1.
         22    1    1    0    0    0  0.56690926251E+01 -0.23862626905E+02 -0.12852690517E+02  0.27690345385E+02  0.00000000000E+00 0. -1.
</event>
<event>
 5    1  0.6622940E-004  0.9118800E+02  0.7818608E-02  0.1130116E+00
         25   -1    0    0    0    0  0.00000000000E+00  0.00000000000E+00  0.99999998245E-14  0.12500000000E+03  0.12500000000E+03 0.  0.
        -11    1    3    3    0    0 -0.31868334197E+02  0.49379367641E+02  0.77637685918E+01  0.59280593588E+02  0.51100000000E-03 0.  1.
         23    2    1    0    0    0 -0.17874883146E+02  0.16208658897E+02  0.15786454432E+02  0.96165225608E+02  0.91740429484E+02 0.  0.
         11    1    3    3    0    0  0.13993451051E+02 -0.33170708744E+02  0.80226858398E+01  0.36884632020E+02  0.51100000000E-03 0. -1.
         22    1    1    0    0    0  0.17874883146E+02 -0.16208658897E+02 -0.15786454432E+02  0.28834774392E+02  0.00000000000E+00 0.  1.
</event>
<event>
 5    1  0.6622940E-004  0.9118800E+02  0.7818608E-02  0.1130116E+00
         25   -1    0    0    0    0  0.00000000000E+00  0.00000000000E+00  0.99999998245E-14  0.12500000000E+03  0.12500000000E+03 0.  0.
        -11    1    3    3    0    0  0.27469631326E+01  0.14891598456E+02  0.42507219051E+02  0.45123931375E+02  0.51100000000E-03 0. -1.
         23    2    1    0    0    0 -0.74410391170E+01  0.39633955577E+02  0.20539475766E+02  0.79744176479E+02  0.65658541865E+02 0.  0.
         11    1    3    3    0    0 -0.10188002250E+02  0.24742357121E+02 -0.21967743285E+02  0.34620245104E+02  0.51100000000E-03 0.  1.
         22    1    1    0    0    0  0.74410391170E+01 -0.39633955577E+02 -0.20539475766E+02  0.45255823521E+02  0.00000000000E+00 0. -1.
</event>
<event>
 5    1  0.6622940E-004  0.9118800E+02  0.7818608E-02  0.1130116E+00
         25   -1    0    0    0    0  0.00000000000E+00  0.00000000000E+00  0.99999998245E-14  0.12500000000E+03  0.12500000000E+03 0.  0.
        -11    1    3    3    0    0 -0.35777961697E+02 -0.18107166811E+02  0.22749777257E+02  0.46102976028E+02  0.51100000000E-03 0. -1.
         23    2    1    0    0    0 -0.21395948370E+02  0.68286192503E+01 -0.18154478655E+02  0.96120911670E+02  0.91680030091E+02 0.  0.
         11    1    3    3    0    0  0.14382013327E+02  0.24935786062E+02 -0.40904255913E+02  0.50017935642E+02  0.51100000000E-03 0.  1.
         22    1    1    0    0    0  0.21395948370E+02 -0.68286192503E+01  0.18154478655E+02  0.28879088330E+02  0.00000000000E+00 0. -1.
</event>
<event>
 5    1  0.6622940E-004  0.9118800E+02  0.7818608E-02  0.1130116E+00
         25   -1    0    0    0    0  0.00000000000E+00  0.00000000000E+00  0.99999998245E-14  0.12500000000E+03  0.12500000000E+03 0.  0.
        -11    1    3    3    0    0 -0.16419166587E+02 -0.24271691163E+02  0.24121962383E+02  0.37954882331E+02  0.51100000000E-03 0.  1.
         23    2    1    0    0    0 -0.10527000193E+02  0.23207451026E+02 -0.10937163143E+02  0.97268699025E+02  0.93231833384E+02 0.  0.
         11    1    3    3    0    0  0.58921663940E+01  0.47479142189E+02 -0.35059125526E+02  0.59313816693E+02  0.51100000000E-03 0. -1.
         22    1    1    0    0    0  0.10527000193E+02 -0.23207451026E+02  0.10937163143E+02  0.27731300975E+02  0.00000000000E+00 0. -1.
</event>
<event>
 5    1  0.6622940E-004  0.9118800E+02  0.7818608E-02  0.1130116E+00
         25   -1    0    0    0    0  0.00000000000E+00  0.00000000000E+00  0.99999998245E-14  0.12500000000E+03  0.12500000000E+03 0.  0.
        -11    1    3    3    0    0  0.29572810283E+02  0.16012477148E+02 -0.11095454453E+02  0.35412704532E+02  0.51100000000E-03 0. -1.
         23    2    1    0    0    0 -0.24123525118E+02  0.66752723223E+01 -0.22782850754E+02  0.91153847882E+02  0.84637237494E+02 0.  0.
         11    1    3    3    0    0 -0.53696335401E+02 -0.93372048258E+01 -0.11687396301E+02  0.55741143351E+02  0.51100000000E-03 0.  1.
         22    1    1    0    0    0  0.24123525118E+02 -0.66752723223E+01  0.22782850754E+02  0.33846152118E+02  0.00000000000E+00 0.  1.
</event>
<event>
 5    1  0.6622940E-004  0.9118800E+02  0.7818608E-02  0.1130116E+00
         25   -1    0    0    0    0  0.00000000000E+00  0.00000000000E+00  0.99999998245E-14  0.12500000000E+03  0.12500000000E+03 0.  0.
        -11    1    3    3    0    0 -0.29549178734E+02 -0.23923610129E+02  0.43292665142E+02  0.57617253847E+02  0.51100000000E-03 0.  1.
         23    2    1    0    0    0 -0.60795596600E+01 -0.23523918965E+02  0.91776365559E+01  0.99027614244E+02  0.95560993930E+02 0.  0.
         11    1    3    3    0    0  0.23469619074E+02  0.39969116486E+00 -0.34115028586E+02  0.41410360397E+02  0.51100000000E-03 0. -1.
         22    1    1    0    0    0  0.60795596600E+01  0.23523918965E+02 -0.91776365559E+01  0.25972385756E+02  0.00000000000E+00 0.  1.
</event>
<event>
 5    1  0.6622940E-004  0.9118800E+02  0.7818608E-02  0.1130116E+00
         25   -1    0    0    0    0  0.00000000000E+00  0.00000000000E+00  0.99999998245E-14  0.12500000000E+03  0.12500000000E+03 0.  0.
        -11    1    3    3    0    0 -0.19096726139E+02  0.55804785784E+02  0.21333990130E+01  0.59020424068E+02  0.51100000000E-03 0. -1.
         23    2    1    0    0    0 -0.57253061206E+01  0.24360305130E+02  0.15334444445E+02  0.95651255859E+02  0.91037431669E+02 0.  0.
         11    1    3    3    0    0  0.13371420019E+02 -0.31444480654E+02  0.13201045432E+02  0.36630831791E+02  0.51100000000E-03 0.  1.
         22    1    1    0    0    0  0.57253061206E+01 -0.24360305130E+02 -0.15334444445E+02  0.29348744141E+02  0.00000000000E+00 0. -1.
</event>
<event>
 5    1  0.6622940E-004  0.9118800E+02  0.7818608E-02  0.1130116E+00
         25   -1    0    0    0    0  0.00000000000E+00  0.00000000000E+00  0.99999998245E-14  0.12500000000E+03  0.12500000000E+03 0.  0.
        -11    1    3    3    0    0 -0.13338925747E+02 -0.24146683682E+02  0.25580495675E+02  0.37621151394E+02  0.51100000000E-03 0.  1.
         23    2    1    0    0    0 -0.10392905887E+02  0.27632319606E+02 -0.64091285459E-01  0.95477776383E+02  0.90798921226E+02 0.  0.
         11    1    3    3    0    0  0.29460198595E+01  0.51779003288E+02 -0.25644586961E+02  0.57856624990E+02  0.51100000000E-03 0. -1.
         22    1    1    0    0    0  0.10392905887E+02 -0.27632319606E+02  0.64091285459E-01  0.29522223617E+02  0.00000000000E+00 0. -1.
</event>
<event>
 5    1  0.6622940E-004  0.9118800E+02  0.7818608E-02  0.1130116E+00
         25   -1    0    0    0    0  0.00000000000E+00  0.00000000000E+00  0.99999998245E-14  0.12500000000E+03  0.12500000000E+03 0.  0.
        -11    1    3    3    0    0 -0.25141611220E+02 -0.17486882934E+02 -0.16237941343E+02  0.34663560533E+02  0.51100000000E-03 0.  1.
         23    2    1    0    0    0  0.17514241755E+02  0.85547059462E+01  0.20516585179E+02  0.96700496020E+02  0.92466880585E+02 0.  0.
         11    1    3    3    0    0  0.42655852975E+02  0.26041588881E+02  0.36754526522E+02  0.62036935487E+02  0.51100000000E-03 0. -1.
         22    1    1    0    0    0 -0.17514241755E+02 -0.85547059462E+01 -0.20516585179E+02  0.28299503980E+02  0.00000000000E+00 0. -1.
</event>
<event>
 5    1  0.6622940E-004  0.9118800E+02  0.7818608E-02  0.1130116E+00
         25   -1    0    0    0    0  0.00000000000E+00  0.00000000000E+00  0.99999998245E-14  0.12500000000E+03  0.12500000000E+03 0.  0.
        -11    1    3    3    0    0 -0.51206450577E+02 -0.22658918494E+02 -0.15660820477E+00  0.55995997128E+02  0.51100000000E-03 0. -1.
         23    2    1    0    0    0 -0.16795708614E+02 -0.29269544401E+02  0.26612381086E+01  0.91149087966E+02  0.84630207322E+02 0.  0.
         11    1    3    3    0    0  0.34410741963E+02 -0.66106259070E+01  0.28178463134E+01  0.35153090837E+02  0.51100000000E-03 0.  1.
         22    1    1    0    0    0  0.16795708614E+02  0.29269544401E+02 -0.26612381086E+01  0.33850912034E+02  0.00000000000E+00 0. -1.
</event>
<event>
 5    1  0.6622940E-004  0.9118800E+02  0.7818608E-02  0.1130116E+00
         25   -1    0    0    0    0  0.00000000000E+00  0.00000000000E+00  0.99999998245E-14  0.12500000000E+03  0.12500000000E+03 0.  0.
        -11    1    3    3    0    0  0.31779819420E+02 -0.11937479398E+02 -0.14914595562E+02  0.37079718146E+02  0.51100000000E-03 0.  1.
         23    2    1    0    0    0 -0.53777674708E+01  0.15484378192E+02  0.22948986370E+02  0.96798185761E+02  0.92598846862E+02 0.  0.
         11    1    3    3    0    0 -0.37157586890E+02  0.27421857590E+02  0.37863581933E+02  0.59718467615E+02  0.51100000000E-03 0. -1.
         22    1    1    0    0    0  0.53777674708E+01 -0.15484378192E+02 -0.22948986370E+02  0.28201814239E+02  0.00000000000E+00 0. -1.
</event>
<event>
 5    1  0.6622940E-004  0.9118800E+02  0.7818608E-02  0.1130116E+00
         25   -1    0    0    0    0  0.00000000000E+00  0.00000000000E+00  0.99999998245E-14  0.12500000000E+03  0.12500000000E+03 0.  0.
        -11    1    3    3    0    0  0.85004991396E+01  0.38320671546E+02  0.31576306152E+02  0.50376536838E+02  0.51100000000E-03 0.  1.
         23    2    1    0    0    0 -0.21191136148E+02  0.19786905528E+02  0.24639063700E+01  0.95902633862E+02  0.91381937304E+02 0.  0.
         11    1    3    3    0    0 -0.29691635287E+02 -0.18533766018E+02 -0.29112399782E+02  0.45526097023E+02  0.51100000000E-03 0. -1.
         22    1    1    0    0    0  0.21191136148E+02 -0.19786905528E+02 -0.24639063700E+01  0.29097366138E+02  0.00000000000E+00 0.  1.
</event>
<event>
 5    1  0.6622940E-004  0.9118800E+02  0.7818608E-02  0.1130116E+00
         25   -1    0    0    0    0  0.00000000000E+00  0.00000000000E+00  0.99999998245E-14  0.12500000000E+03  0.12500000000E+03 0.  0.
        -11    1    3    3    0    0  0.41755678929E+02  0.28354674694E+01 -0.75044799622E+01  0.42519334642E+02  0.51100000000E-03 0.  1.
         23    2    1    0    0    0  0.27684120147E+01 -0.22001848912E+02  0.18993870307E+02  0.95802182104E+02  0.91244427370E+02 0.  0.
         11    1    3    3    0    0 -0.38987266915E+02 -0.24837316381E+02  0.26498350269E+02  0.53282847463E+02  0.51100000000E-03 0. -1.
         22    1    1    0    0    0 -0.27684120147E+01  0.22001848912E+02 -0.18993870307E+02  0.29197817896E+02  0.00000000000E+00 0. -1.
</event>
<event>
 5    1  0.6622940E-004  0.9118800E+02  0.7818608E-02  0.1130116E+00
         25   -1    0    0    0    0  0.00000000000E+00  0.00000000000E+00  0.99999998245E-14  0.12500000000E+03  0.12500000000E+03 0.  0.
        -11    1    3    3    0    0  0.41219755964E+02  0.35516525050E+02  0.14984071584E+02  0.56435930353E+02  0.51100000000E-03 0. -1.
         23    2    1    0    0    0  0.18027566056E+02  0.45220923972E+01  0.22444337242E+02  0.95859122667E+02  0.91322399589E+02 0.  0.
         11    1    3    3    0    0 -0.23192189909E+02 -0.30994432653E+02  0.74602656577E+01  0.39423192313E+02  0.51100000000E-03 0.  1.
         22    1    1    0    0    0 -0.18027566056E+02 -0.45220923972E+01 -0.22444337242E+02  0.29140877333E+02  0.00000000000E+00 0. -1.
</event>
<event>
 5    1  0.6622940E-004  0.9118800E+02  0.7818608E-02  0.1130116E+00
         25   -1    0    0    0    0  0.00000000000E+00  0.00000000000E+00  0.99999998245E-14  0.12500000000E+03  0.12500000000E+03 0.  0.
        -11    1    3    3    0    0  0.92786516881E+01  0.30558918209E+02 -0.38470303003E+02  0.49999050718E+02  0.51100000000E-03 0. -1.
         23    2    1    0    0    0  0.23215087753E+02 -0.70271852785E+01 -0.13210316546E+02  0.97380548601E+02  0.93381674595E+02 0.  0.
         11    1    3    3    0    0  0.13936436065E+02 -0.37586103487E+02  0.25259986457E+02  0.47381497883E+02  0.51100000000E-03 0.  1.
         22    1    1    0    0    0 -0.23215087753E+02  0.70271852785E+01  0.13210316546E+02  0.27619451399E+02  0.00000000000E+00 0. -1.
</event>
<event>
 5    1  0.6622940E-004  0.9118800E+02  0.7818608E-02  0.1130116E+00
         25   -1    0    0    0    0  0.00000000000E+00  0.00000000000E+00  0.99999998245E-14  0.12500000000E+03  0.12500000000E+03 0.  0.
        -11    1    3    3    0    0 -0.38943533653E+02 -0.21732883960E+02  0.59523914012E+01  0.44992755219E+02  0.51100000000E-03 0.  1.
         23    2    1    0    0    0 -0.56010583798E+01  0.10441749022E+02  0.26721219394E+02  0.95769441615E+02  0.91199563615E+02 0.  0.
         11    1    3    3    0    0  0.33342475273E+02  0.32174632982E+02  0.20768827993E+02  0.50776686395E+02  0.51100000000E-03 0. -1.
         22    1    1    0    0    0  0.56010583798E+01 -0.10441749022E+02 -0.26721219394E+02  0.29230558385E+02  0.00000000000E+00 0. -1.
</event>
<event>
 5    1  0.6622940E-004  0.9118800E+02  0.7818608E-02  0.1130116E+00
         25   -1    0    0    0    0  0.00000000000E+00  0.00000000000E+00  0.99999998245E-14  0.12500000000E+03  0.12500000000E+03 0.  0.
        -11    1    3    3    0    0  0.32572022940E+02  0.24101530406E+02 -0.23860260015E+02  0.47022680215E+02  0.51100000000E-03 0. -1.
         23    2    1    0    0    0  0.18865511096E+02  0.18546946567E+01  0.19599489930E+02  0.97733034516E+02  0.93852323514E+02 0.  0.
         11    1    3    3    0    0 -0.13706511844E+02 -0.22246835749E+02  0.43459749945E+02  0.50710354301E+02  0.51100000000E-03 0.  1.
         22    1    1    0    0    0 -0.18865511096E+02 -0.18546946567E+01 -0.19599489930E+02  0.27266965484E+02  0.00000000000E+00 0.  1.
</event>
<event>
 5    1  0.6622940E-004  0.9118800E+02  0.7818608E-02  0.1130116E+00
         25   -1    0    0    0    0  0.00000000000E+00  0.00000000000E+00  0.99999998245E-14  0.12500000000E+03  0.12500000000E+03 0.  0.
        -11    1    3    3    0    0 -0.35398061982E+02 -0.77582698916E+01  0.29932645307E+02  0.47001880804E+02  0.51100000000E-03 0.  1.
         23    2    1    0    0    0  0.15880952520E+02  0.74248827234E+01  0.13256591102E+02  0.10302112960E+03  0.10064930402E+03 0.  0.
         11    1    3    3    0    0  0.51279014502E+02  0.15183152615E+02 -0.16676054204E+02  0.56019248796E+02  0.51100000000E-03 0. -1.
         22    1    1    0    0    0 -0.15880952520E+02 -0.74248827234E+01 -0.13256591102E+02  0.21978870400E+02  0.00000000000E+00 0. -1.
</event>
<event>
 5    1  0.6622940E-004  0.9118800E+02  0.7818608E-02  0.1130116E+00
         25   -1    0    0    0    0  0.00000000000E+00  0.00000000000E+00  0.99999998245E-14  0.12500000000E+03  0.12500000000E+03 0.  0.
        -11    1    3    3    0    0 -0.13134374022E+02 -0.26377718520E+02  0.20257364401E+02  0.35758308517E+02  0.51100000000E-03 0. -1.
         23    2    1    0    0    0 -0.59115171960E+01  0.13183555754E+02 -0.24890606632E+02  0.96219894434E+02  0.91814887728E+02 0.  0.
         11    1    3    3    0    0  0.72228568255E+01  0.39561274274E+02 -0.45147971033E+02  0.60461585917E+02  0.51100000000E-03 0.  1.
         22    1    1    0    0    0  0.59115171960E+01 -0.13183555754E+02  0.24890606632E+02  0.28780105566E+02  0.00000000000E+00 0.  1.
</event>
<event>
 5    1  0.6622940E-004  0.9118800E+02  0.7818608E-02  0.1130116E+00
         25   -1    0    0    0    0  0.00000000000E+00  0.00000000000E+00  0.99999998245E-14  0.12500000000E+03  0.12500000000E+03 0.  0.
        -11    1    3    3    0    0 -0.41574530787E+02 -0.41439113209E+02  0.11110830441E+02  0.59741880345E+02  0.51100000000E-03 0. -1.
         23    2    1    0    0    0 -0.16680867215E+02 -0.86513180824E+00  0.29357617728E+01  0.10804068158E+03  0.10670131393E+03 0.  0.
         11    1    3    3    0    0  0.24893663573E+02  0.40573981401E+02 -0.81750686685E+01  0.48298801236E+02  0.51100000000E-03 0.  1.
         22    1    1    0    0    0  0.16680867215E+02  0.86513180824E+00 -0.29357617728E+01  0.16959318420E+02  0.00000000000E+00 0. -1.
</event>
<event>
 5    1  0.6622940E-004  0.9118800E+02  0.7818608E-02  0.1130116E+00
         25   -1    0    0    0    0  0.00000000000E+00  0.00000000000E+00  0.99999998245E-14  0.12500000000E+03  0.12500000000E+03 0.  0.
        -11    1    3    3    0    0  0.15967728008E+02  0.50100809637E+02 -0.20091416034E+02  0.56291424414E+02  0.51100000000E-03 0.  1.
         23    2    1    0    0    0 -0.11354730655E+02  0.25052557365E+02 -0.23239261373E+01  0.97396355830E+02  0.93402831636E+02 0.  0.
         11    1    3    3    0    0 -0.27322458663E+02 -0.25048252272E+02  0.17767489896E+02  0.41104931417E+02  0.51100000000E-03 0. -1.
         22    1    1    0    0    0  0.11354730655E+02 -0.25052557365E+02  0.23239261373E+01  0.27603644170E+02  0.00000000000E+00 0.  1.
</event>
<event>
 5    1  0.6622940E-004  0.9118800E+02  0.7818608E-02  0.1130116E+00
         25   -1    0    0    0    0  0.00000000000E+00  0.00000000000E+00  0.99999998245E-14  0.12500000000E+03  0.12500000000E+03 0.  0.
        -11    1    3    3    0    0 -0.78179779297E+01  0.10568123315E+02  0.38817709670E+02  0.40983174518E+02  0.51100000000E-03 0.  1.
         23    2    1    0    0    0 -0.99271213362E+00  0.16499776309E+02 -0.19179115016E+02  0.99680707979E+02  0.96411498250E+02 0.  0.
         11    1    3    3    0    0  0.68252657960E+01  0.59316529942E+01 -0.57996824686E+02  0.58697533461E+02  0.51100000000E-03 0. -1.
         22    1    1    0    0    0  0.99271213362E+00 -0.16499776309E+02  0.19179115016E+02  0.25319292021E+02  0.00000000000E+00 0. -1.
</event>
<event>
 5    1  0.6622940E-004  0.9118800E+02  0.7818608E-02  0.1130116E+00
         25   -1    0    0    0    0  0.00000000000E+00  0.00000000000E+00  0.99999998245E-14  0.12500000000E+03  0.12500000000E+03 0.  0.
        -11    1    3    3    0    0 -0.42430235218E+02  0.41906822735E+02  0.22696000869E+01  0.59679625813E+02  0.51100000000E-03 0. -1.
         23    2    1    0    0    0 -0.28031264103E+02  0.91408070686E+01  0.14903223077E+01  0.95478360790E+02  0.90799725757E+02 0.  0.
         11    1    3    3    0    0  0.14398971115E+02 -0.32766015666E+02 -0.77927777918E+00  0.35798734977E+02  0.51100000000E-03 0.  1.
         22    1    1    0    0    0  0.28031264103E+02 -0.91408070686E+01 -0.14903223077E+01  0.29521639210E+02  0.00000000000E+00 0. -1.
</event>
<event>
 5    1  0.6622940E-004  0.9118800E+02  0.7818608E-02  0.1130116E+00
         25   -1    0    0    0    0  0.00000000000E+00  0.00000000000E+00  0.99999998245E-14  0.12500000000E+03  0.12500000000E+03 0.  0.
        -11    1    3    3    0    0 -0.55774508974E+01  0.21671233959E+02  0.34391651838E+02  0.41030915858E+02  0.51100000000E-03 0. -1.
         23    2    1    0    0    0  0.69324888663E+01 -0.26205823656E+02  0.12862321295E+02  0.94995935201E+02  0.90133144848E+02 0.  0.
         11    1    3    3    0    0  0.12509939764E+02 -0.47877057615E+02 -0.21529330542E+02  0.53965019342E+02  0.51100000000E-03 0.  1.
         22    1    1    0    0    0 -0.69324888663E+01  0.26205823656E+02 -0.12862321295E+02  0.30004064799E+02  0.00000000000E+00 0. -1.
</event>
<event>
 5    1  0.6622940E-004  0.9118800E+02  0.7818608E-02  0.1130116E+00
         25   -1    0    0    0    0  0.00000000000E+00  0.00000000000E+00  0.99999998245E-14  0.12500000000E+03  0.12500000000E+03 0.  0.
        -11    1    3    3    0    0 -0.55943639693E+01  0.28942668200E+02 -0.46495519833E+02  0.55052777546E+02  0.51100000000E-03 0. -1.
         23    2    1    0    0    0  0.18937920138E+02  0.11929804751E+02 -0.18956276803E+02  0.95669035291E+02  0.91061840651E+02 0.  0.
         11    1    3    3    0    0  0.24532284107E+02 -0.17012863449E+02  0.27539243030E+02  0.40616257745E+02  0.51100000000E-03 0.  1.
         22    1    1    0    0    0 -0.18937920138E+02 -0.11929804751E+02  0.18956276803E+02  0.29330964709E+02  0.00000000000E+00 0. -1.
</event>
<event>
 5    1  0.6622940E-004  0.9118800E+02  0.7818608E-02  0.1130116E+00
         25   -1    0    0    0    0  0.00000000000E+00  0.00000000000E+00  0.99999998245E-14  0.12500000000E+03  0.12500000000E+03 0.  0.
        -11    1    3    3    0    0 -0.43456156764E+01 -0.10388673127E+01 -0.51186343361E+02  0.51380982550E+02  0.51100000000E-03 0. -1.
         23    2    1    0    0    0 -0.14700843882E+02  0.20030033270E+02 -0.11206743321E+02  0.97743658729E+02  0.93866472621E+02 0.  0.
         11    1    3    3    0    0 -0.10355228205E+02  0.21068900582E+02  0.39979600039E+02  0.46362676179E+02  0.51100000000E-03 0.  1.
         22    1    1    0    0    0  0.14700843882E+02 -0.20030033270E+02  0.11206743321E+02  0.27256341271E+02  0.00000000000E+00 0. -1.
</event>
<event>
 5    1  0.6622940E-004  0.9118800E+02  0.7818608E-02  0.1130116E+00
         25   -1    0    0    0    0  0.00000000000E+00  0.00000000000E+00  0.99999998245E-14  0.12500000000E+03  0.12500000000E+03 0.  0.
        -11    1    3    3    0    0  0.43578832396E+02 -0.13985898522E+02  0.25683256527E+01  0.45840116573E+02  0.51100000000E-03 0.  1.
         23    2    1    0    0    0 -0.78009831603E+00 -0.15757593092E+02 -0.23028743629E+02  0.97085248943E+02  0.92985548532E+02 0.  0.
         11    1    3    3    0    0 -0.44358930712E+02 -0.17716945705E+01 -0.25597069281E+02  0.51245132370E+02  0.51100000000E-03 0. -1.
         22    1    1    0    0    0  0.78009831603E+00  0.15757593092E+02  0.23028743629E+02  0.27914751057E+02  0.00000000000E+00 0.  1.
</event>
<event>
 5    1  0.6622940E-004  0.9118800E+02  0.7818608E-02  0.1130116E+00
         25   -1    0    0    0    0  0.00000000000E+00  0.00000000000E+00  0.99999998245E-14  0.12500000000E+03  0.12500000000E+03 0.  0.
        -11    1    3    3    0    0  0.23001193823E+02  0.61268068799E+01  0.48853761635E+02  0.54344113811E+02  0.51100000000E-03 0. -1.
         23    2    1    0    0    0  0.24355059771E+02 -0.11385157553E+02  0.11233337284E+02  0.95862762391E+02  0.91327381424E+02 0.  0.
         11    1    3    3    0    0  0.13538659480E+01 -0.17511964433E+02 -0.37620424351E+02  0.41518648580E+02  0.51100000000E-03 0.  1.
         22    1    1    0    0    0 -0.24355059771E+02  0.11385157553E+02 -0.11233337284E+02  0.29137237609E+02  0.00000000000E+00 0. -1.
</event>
<event>
 5    1  0.6622940E-004  0.9118800E+02  0.7818608E-02  0.1130116E+00
         25   -1    0    0    0    0  0.00000000000E+00  0.00000000000E+00  0.99999998245E-14  0.12500000000E+03  0.12500000000E+03 0.  0.
        -11    1    3    3    0    0 -0.42730306929E+02  0.11627402179E+02 -0.78986528767E+01  0.44982933755E+02  0.51100000000E-03 0.  1.
         23    2    1    0    0    0 -0.43987722156E+01  0.19038490177E+02  0.23034885568E+02  0.94793721541E+02  0.89852269783E+02 0.  0.
         11    1    3    3    0    0  0.38331534714E+02  0.74110879980E+01  0.30933538445E+02  0.49810787785E+02  0.51100000000E-03 0. -1.
         22    1    1    0    0    0  0.43987722156E+01 -0.19038490177E+02 -0.23034885568E+02  0.30206278459E+02  0.00000000000E+00 0.  1.
</event>
<event>
 5    1  0.6622940E-004  0.9118800E+02  0.7818608E-02  0.1130116E+00
         25   -1    0    0    0    0  0.00000000000E+00  0.00000000000E+00  0.99999998245E-14  0.12500000000E+03  0.12500000000E+03 0.  0.
        -11    1    3    3    0    0 -0.21511432251E+02  0.16607761796E+02 -0.54024453738E+02  0.60474796993E+02  0.51100000000E-03 0. -1.
         23    2    1    0    0    0  0.90212371434E-01  0.89423187824E+01 -0.30067098935E+02  0.93631167668E+02  0.88220133286E+02 0.  0.
         11    1    3    3    0    0  0.21601644622E+02 -0.76654430136E+01  0.23957354802E+02  0.33156370676E+02  0.51100000000E-03 0.  1.
         22    1    1    0    0    0 -0.90212371434E-01 -0.89423187824E+01  0.30067098935E+02  0.31368832332E+02  0.00000000000E+00 0. -1.
</event>
<event>
 5    1  0.6622940E-004  0.9118800E+02  0.7818608E-02  0.1130116E+00
         25   -1    0    0    0    0  0.00000000000E+00  0.00000000000E+00  0.99999998245E-14  0.12500000000E+03  0.12500000000E+03 0.  0.
        -11    1    3    3    0    0  0.37905356616E+02  0.65761049833E+01 -0.87224890208E+01  0.39447978807E+02  0.51100000000E-03 0.  1.
         23    2    1    0    0    0  0.64075060930E+01 -0.13423879334E+02  0.28938900858E+02  0.92462073613E+02  0.86547781042E+02 0.  0.
         11    1    3    3    0    0 -0.31497850523E+02 -0.19999984318E+02  0.37661389878E+02  0.53014094806E+02  0.51100000000E-03 0. -1.
         22    1    1    0    0    0 -0.64075060930E+01  0.13423879334E+02 -0.28938900858E+02  0.32537926387E+02  0.00000000000E+00 0. -1.
</event>
<event>
 5    1  0.6622940E-004  0.9118800E+02  0.7818608E-02  0.1130116E+00
         25   -1    0    0    0    0  0.00000000000E+00  0.00000000000E+00  0.99999998245E-14  0.12500000000E+03  0.12500000000E+03 0.  0.
        -11    1    3    3    0    0  0.23852638758E+02  0.21450557880E+02  0.38814470090E+02  0.50355117890E+02  0.51100000000E-03 0.  1.
         23    2    1    0    0    0  0.22129143711E+02 -0.14959478885E+02  0.11431801030E+02  0.95945377568E+02  0.91440387094E+02 0.  0.
         11    1    3    3    0    0 -0.17234950469E+01 -0.36410036765E+02 -0.27382669060E+02  0.45590259678E+02  0.51100000000E-03 0. -1.
         22    1    1    0    0    0 -0.22129143711E+02  0.14959478885E+02 -0.11431801030E+02  0.29054622432E+02  0.00000000000E+00 0.  1.
</event>
<event>
 5    1  0.6622940E-004  0.9118800E+02  0.7818608E-02  0.1130116E+00
         25   -1    0    0    0    0  0.00000000000E+00  0.00000000000E+00  0.99999998245E-14  0.12500000000E+03  0.12500000000E+03 0.  0.
        -11    1    3    3    0    0  0.32165149895E+02  0.15216186634E+02  0.94849108390E+01  0.36825164457E+02  0.51100000000E-03 0.  1.
         23    2    1    0    0    0 -0.24227755147E+02  0.11689148540E+02 -0.95599700487E+01  0.96451561507E+02  0.92129747512E+02 0.  0.
         11    1    3    3    0    0 -0.56392905042E+02 -0.35270380945E+01 -0.19044880888E+02  0.59626397049E+02  0.51100000000E-03 0. -1.
         22    1    1    0    0    0  0.24227755147E+02 -0.11689148540E+02  0.95599700487E+01  0.28548438493E+02  0.00000000000E+00 0. -1.
</event>
<event>
 5    1  0.6622940E-004  0.9118800E+02  0.7818608E-02  0.1130116E+00
         25   -1    0    0    0    0  0.00000000000E+00  0.00000000000E+00  0.99999998245E-14  0.12500000000E+03  0.12500000000E+03 0.  0.
        -11    1    3    3    0    0  0.55837951192E+01  0.33806273711E+02  0.21416318828E+02  0.40406702693E+02  0.51100000000E-03 0. -1.
         23    2    1    0    0    0 -0.27954653529E+02 -0.16160745675E+01 -0.59985826354E+01  0.96363356612E+02  0.92009994854E+02 0.  0.
         11    1    3    3    0    0 -0.33538448648E+02 -0.35422348278E+02 -0.27414901463E+02  0.55956653918E+02  0.51100000000E-03 0.  1.
         22    1    1    0    0    0  0.27954653529E+02  0.16160745675E+01  0.59985826354E+01  0.28636643388E+02  0.00000000000E+00 0.  1.
</event>
<event>
 5    1  0.6622940E-004  0.9118800E+02  0.7818608E-02  0.1130116E+00
         25   -1    0    0    0    0  0.00000000000E+00  0.00000000000E+00  0.99999998245E-14  0.12500000000E+03  0.12500000000E+03 0.  0.
        -11    1    3    3    0    0 -0.13970057904E+02  0.23513210184E+02  0.25725866978E+02  0.37548019962E+02  0.51100000000E-03 0.  1.
         23    2    1    0    0    0 -0.17954520645E+02 -0.10163598384E+02 -0.21182332876E+02  0.95430509477E+02  0.90733827040E+02 0.  0.
         11    1    3    3    0    0 -0.39844627407E+01 -0.33676808569E+02 -0.46908199854E+02  0.57882489515E+02  0.51100000000E-03 0. -1.
         22    1    1    0    0    0  0.17954520645E+02  0.10163598384E+02  0.21182332876E+02  0.29569490523E+02  0.00000000000E+00 0. -1.
</event>
<event>
 5    1  0.6622940E-004  0.9118800E+02  0.7818608E-02  0.1130116E+00
         25   -1    0    0    0    0  0.00000000000E+00  0.00000000000E+00  0.99999998245E-14  0.12500000000E+03  0.12500000000E+03 0.  0.
        -11    1    3    3    0    0 -0.28057662433E+02 -0.30171271390E+02 -0.12439097709E+02  0.43037997056E+02  0.51100000000E-03 0.  1.
         23    2    1    0    0    0  0.16504508842E+02 -0.18493666213E+02  0.14380483470E+02  0.96343189170E+02  0.91982592334E+02 0.  0.
         11    1    3    3    0    0  0.44562171275E+02  0.11677605177E+02  0.26819581179E+02  0.53305192114E+02  0.51100000000E-03 0. -1.
         22    1    1    0    0    0 -0.16504508842E+02  0.18493666213E+02 -0.14380483470E+02  0.28656810830E+02  0.00000000000E+00 0.  1.
</event>
<event>
 5    1  0.6622940E-004  0.9118800E+02  0.7818608E-02  0.1130116E+00
         25   -1    0    0    0    0  0.00000000000E+00  0.00000000000E+00  0.99999998245E-14  0.12500000000E+03  0.12500000000E+03 0.  0.
        -11    1    3    3    0    0 -0.31525600276E+02  0.50371026446E+01 -0.37790374673E+01  0.32148359216E+02  0.51100000000E-03 0. -1.
         23    2    1    0    0    0  0.27402523182E+02 -0.34195045166E+01  0.13672750501E+02  0.94185467809E+02  0.89002061506E+02 0.  0.
         11    1    3    3    0    0  0.58928123459E+02 -0.84566071612E+01  0.17451787968E+02  0.62037108593E+02  0.51100000000E-03 0.  1.
         22    1    1    0    0    0 -0.27402523182E+02  0.34195045166E+01 -0.13672750501E+02  0.30814532191E+02  0.00000000000E+00 0.  1.
</event>
<event>
 5    1  0.6622940E-004  0.9118800E+02  0.7818608E-02  0.1130116E+00
         25   -1    0    0    0    0  0.00000000000E+00  0.00000000000E+00  0.99999998245E-14  0.12500000000E+03  0.12500000000E+03 0.  0.
        -11    1    3    3    0    0 -0.36376182577E+02  0.12027273173E+02  0.30263278093E+02  0.48823641405E+02  0.51100000000E-03 0.  1.
         23    2    1    0    0    0 -0.22291985349E+02 -0.17682222974E+02 -0.39493594695E+01  0.96273861027E+02  0.91888330362E+02 0.  0.
         11    1    3    3    0    0  0.14084197228E+02 -0.29709496147E+02 -0.34212637563E+02  0.47450219622E+02  0.51100000000E-03 0. -1.
         22    1    1    0    0    0  0.22291985349E+02  0.17682222974E+02  0.39493594695E+01  0.28726138973E+02  0.00000000000E+00 0. -1.
</event>
<event>
 5    1  0.6622940E-004  0.9118800E+02  0.7818608E-02  0.1130116E+00
         25   -1    0    0    0    0  0.00000000000E+00  0.00000000000E+00  0.99999998245E-14  0.12500000000E+03  0.12500000000E+03 0.  0.
        -11    1    3    3    0    0  0.11874128143E+02 -0.23708965611E+02  0.24659190490E+02  0.36210297505E+02  0.51100000000E-03 0.  1.
         23    2    1    0    0    0 -0.79653319119E+01  0.27437904643E+02 -0.17340696525E+00  0.96428769826E+02  0.92098818974E+02 0.  0.
         11    1    3    3    0    0 -0.19839460055E+02  0.51146870254E+02 -0.24832597455E+02  0.60218472321E+02  0.51100000000E-03 0. -1.
         22    1    1    0    0    0  0.79653319119E+01 -0.27437904643E+02  0.17340696525E+00  0.28571230174E+02  0.00000000000E+00 0. -1.
</event>
<event>
 5    1  0.6622940E-004  0.9118800E+02  0.7818608E-02  0.1130116E+00
         25   -1    0    0    0    0  0.00000000000E+00  0.00000000000E+00  0.99999998245E-14  0.12500000000E+03  0.12500000000E+03 0.  0.
        -11    1    3    3    0    0  0.52835172857E+02  0.10216658119E+02  0.37080539834E+00  0.53815175284E+02  0.51100000000E-03 0.  1.
         23    2    1    0    0    0  0.16177182959E+02  0.77593140800E+01 -0.21830695813E+02  0.96742479176E+02  0.92523617493E+02 0.  0.
         11    1    3    3    0    0 -0.36657989898E+02 -0.24573440391E+01 -0.22201501211E+02  0.42927303891E+02  0.51100000000E-03 0. -1.
         22    1    1    0    0    0 -0.16177182959E+02 -0.77593140800E+01  0.21830695813E+02  0.28257520824E+02  0.00000000000E+00 0.  1.
</event>
<event>
 5    1  0.6622940E-004  0.9118800E+02  0.7818608E-02  0.1130116E+00
         25   -1    0    0    0    0  0.00000000000E+00  0.00000000000E+00  0.99999998245E-14  0.12500000000E+03  0.12500000000E+03 0.  0.
        -11    1    3    3    0    0  0.14304348618E+01  0.36623234750E+02 -0.27410632332E+02  0.45767348979E+02  0.51100000000E-03 0. -1.
         23    2    1    0    0    0  0.29552437142E+02  0.54168872354E+01 -0.19431727826E+01  0.94892440670E+02  0.89989500318E+02 0.  0.
         11    1    3    3    0    0  0.28122002280E+02 -0.31206347515E+02  0.25467459550E+02  0.49125091691E+02  0.51100000000E-03 0.  1.
         22    1    1    0    0    0 -0.29552437142E+02 -0.54168872354E+01  0.19431727826E+01  0.30107559330E+02  0.00000000000E+00 0. -1.
</event>
<event>
 5    1  0.6622940E-004  0.9118800E+02  0.7818608E-02  0.1130116E+00
         25   -1    0    0    0    0  0.00000000000E+00  0.00000000000E+00  0.99999998245E-14  0.12500000000E+03  0.12500000000E+03 0.  0.
        -11    1    3    3    0    0 -0.48642528737E+02 -0.14513800112E+01  0.20563639708E+02  0.52830534582E+02  0.51100000000E-03 0.  1.
         23    2    1    0    0    0 -0.64334094819E+01 -0.91200680958E+01  0.26600189173E+02  0.96153259046E+02  0.91724123116E+02 0.  0.
         11    1    3    3    0    0  0.42209119256E+02 -0.76686880846E+01  0.60365494650E+01  0.43322724464E+02  0.51100000000E-03 0. -1.
         22    1    1    0    0    0  0.64334094819E+01  0.91200680958E+01 -0.26600189173E+02  0.28846740954E+02  0.00000000000E+00 0.  1.
</event>
<event>
 5    1  0.6622940E-004  0.9118800E+02  0.7818608E-02  0.1130116E+00
         25   -1    0    0    0    0  0.00000000000E+00  0.00000000000E+00  0.99999998245E-14  0.12500000000E+03  0.12500000000E+03 0.  0.
        -11    1    3    3    0    0 -0.26865501985E+02  0.15132215968E+02 -0.37190720750E+02  0.48310339133E+02  0.51100000000E-03 0.  1.
         23    2    1    0    0    0  0.11301284329E+02 -0.12315080702E+02 -0.21278709017E+02  0.97941476433E+02  0.94129533667E+02 0.  0.
         11    1    3    3    0    0  0.38166786315E+02 -0.27447296670E+02  0.15912011733E+02  0.49631137300E+02  0.51100000000E-03 0. -1.
         22    1    1    0    0    0 -0.11301284329E+02  0.12315080702E+02  0.21278709017E+02  0.27058523567E+02  0.00000000000E+00 0. -1.
</event>
<event>
 5    1  0.6622940E-004  0.9118800E+02  0.7818608E-02  0.1130116E+00
         25   -1    0    0    0    0  0.00000000000E+00  0.00000000000E+00  0.99999998245E-14  0.12500000000E+03  0.12500000000E+03 0.  0.
        -11    1    3    3    0    0 -0.14907988345E+02  0.29173313464E+02 -0.36296187876E+02  0.48895230744E+02  0.51100000000E-03 0. -1.
         23    2    1    0    0    0 -0.41955789905E+01  0.25642972670E+02  0.10457824982E+02  0.96990518859E+02  0.92858116042E+02 0.  0.
         11    1    3    3    0    0  0.10712409355E+02 -0.35303407939E+01  0.46754012858E+02  0.48095288115E+02  0.51100000000E-03 0.  1.
         22    1    1    0    0    0  0.41955789905E+01 -0.25642972670E+02 -0.10457824982E+02  0.28009481141E+02  0.00000000000E+00 0.  1.
</event>
<event>
 5    1  0.6622940E-004  0.9118800E+02  0.7818608E-02  0.1130116E+00
         25   -1    0    0    0    0  0.00000000000E+00  0.00000000000E+00  0.99999998245E-14  0.12500000000E+03  0.12500000000E+03 0.  0.
        -11    1    3    3    0    0 -0.90153361012E+01 -0.25587978093E+02 -0.19310517360E+02  0.33300405236E+02  0.51100000000E-03 0. -1.
         23    2    1    0    0    0 -0.10292919132E-01  0.30500049987E+02  0.30471400495E+01  0.94348112332E+02  0.89230197148E+02 0.  0.
         11    1    3    3    0    0  0.90050431821E+01  0.56088028080E+02  0.22357657410E+02  0.61047707096E+02  0.51100000000E-03 0.  1.
         22    1    1    0    0    0  0.10292919132E-01 -0.30500049987E+02 -0.30471400495E+01  0.30651887668E+02  0.00000000000E+00 0.  1.
</event>
<event>
 5    1  0.6622940E-004  0.9118800E+02  0.7818608E-02  0.1130116E+00
         25   -1    0    0    0    0  0.00000000000E+00  0.00000000000E+00  0.99999998245E-14  0.12500000000E+03  0.12500000000E+03 0.  0.
        -11    1    3    3    0    0 -0.57980975074E+01  0.26430276387E+02  0.30944347738E+02  0.41106326785E+02  0.51100000000E-03 0. -1.
         23    2    1    0    0    0  0.29736333203E+02  0.11341802882E+02 -0.36777296112E+01  0.92962339348E+02  0.87267318264E+02 0.  0.
         11    1    3    3    0    0  0.35534430711E+02 -0.15088473506E+02 -0.34622077349E+02  0.51856012562E+02  0.51100000000E-03 0.  1.
         22    1    1    0    0    0 -0.29736333203E+02 -0.11341802882E+02  0.36777296112E+01  0.32037660652E+02  0.00000000000E+00 0. -1.
</event>
<event>
 5    1  0.6622940E-004  0.9118800E+02  0.7818608E-02  0.1130116E+00
         25   -1    0    0    0    0  0.00000000000E+00  0.00000000000E+00  0.99999998245E-14  0.12500000000E+03  0.12500000000E+03 0.  0.
        -11    1    3    3    0    0 -0.18682948766E+02 -0.13992363298E+02 -0.57605959064E+02  0.62155332235E+02  0.51100000000E-03 0.  1.
         23    2    1    0    0    0 -0.48554962912E+01 -0.91607567565E+01 -0.26738709675E+02  0.96321542865E+02  0.91953171322E+02 0.  0.
         11    1    3    3    0    0  0.13827452475E+02  0.48316065413E+01  0.30867249389E+02  0.34166210630E+02  0.51100000000E-03 0. -1.
         22    1    1    0    0    0  0.48554962912E+01  0.91607567565E+01  0.26738709675E+02  0.28678457135E+02  0.00000000000E+00 0.  1.
</event>
<event>
 5    1  0.6622940E-004  0.9118800E+02  0.7818608E-02  0.1130116E+00
         25   -1    0    0    0    0  0.00000000000E+00  0.00000000000E+00  0.99999998245E-14  0.12500000000E+03  0.12500000000E+03 0.  0.
        -11    1    3    3    0    0  0.41354370145E+02  0.30282930433E+02  0.30013372766E+02  0.59397326125E+02  0.51100000000E-03 0.  1.
         23    2    1    0    0    0  0.70082337416E+01  0.18594374887E+02  0.19473007004E+02  0.97177992175E+02  0.93110139318E+02 0.  0.
         11    1    3    3    0    0 -0.34346136403E+02 -0.11688555546E+02 -0.10540365762E+02  0.37780666051E+02  0.51100000000E-03 0. -1.
         22    1    1    0    0    0 -0.70082337416E+01 -0.18594374887E+02 -0.19473007004E+02  0.27822007825E+02  0.00000000000E+00 0.  1.
</event>
<event>
 5    1  0.6622940E-004  0.9118800E+02  0.7818608E-02  0.1130116E+00
         25   -1    0    0    0    0  0.00000000000E+00  0.00000000000E+00  0.99999998245E-14  0.12500000000E+03  0.12500000000E+03 0.  0.
        -11    1    3    3    0    0  0.45875628511E+02 -0.14846994301E+02  0.36889545152E+02  0.60711161023E+02  0.51100000000E-03 0.  1.
         23    2    1    0    0    0  0.14759226070E+02 -0.35123463773E+01  0.24725466072E+02  0.95991035804E+02  0.91502781111E+02 0.  0.
         11    1    3    3    0    0 -0.31116402441E+02  0.11334647924E+02 -0.12164079080E+02  0.35279874781E+02  0.51100000000E-03 0. -1.
         22    1    1    0    0    0 -0.14759226070E+02  0.35123463773E+01 -0.24725466072E+02  0.29008964196E+02  0.00000000000E+00 0.  1.
</event>
<event>
 5    1  0.6622940E-004  0.9118800E+02  0.7818608E-02  0.1130116E+00
         25   -1    0    0    0    0  0.00000000000E+00  0.00000000000E+00  0.99999998245E-14  0.12500000000E+03  0.12500000000E+03 0.  0.
        -11    1    3    3    0    0  0.20348848913E+02  0.35162406746E+02 -0.10225601469E+02  0.41893119076E+02  0.51100000000E-03 0.  1.
         23    2    1    0    0    0 -0.19432191226E+01  0.22696047085E+01  0.27888028552E+02  0.96952373673E+02  0.92806753085E+02 0.  0.
         11    1    3    3    0    0 -0.22292068035E+02 -0.32892802037E+02  0.38113630021E+02  0.55059254597E+02  0.51100000000E-03 0. -1.
         22    1    1    0    0    0  0.19432191226E+01 -0.22696047085E+01 -0.27888028552E+02  0.28047626327E+02  0.00000000000E+00 0. -1.
</event>
<event>
 4    1  0.6622940E-004  0.9118800E+02  0.7818608E-02  0.1130116E+00
         25   -1    0    0    0    0  0.00000000000E+00  0.00000000000E+00  0.99999998245E-14  0.12500000000E+03  0.12500000000E+03 0.  0.
        -11    1    1    0    0    0  0.10296614924E+02 -0.21453230027E+02 -0.29708643831E+02  0.38063957703E+02  0.51100000000E-03 0.  1.
         11    1    1    0    0    0  0.91506016765E+01  0.17674183737E+02 -0.23124998278E+02  0.30510257741E+02  0.51100000000E-03 0. -1.
         22    1    1    0    0    0 -0.19447216600E+02  0.37790462896E+01  0.52833642108E+02  0.56425784556E+02  0.00000000000E+00 0.  1.
</event>
<event>
 5    1  0.6622940E-004  0.9118800E+02  0.7818608E-02  0.1130116E+00
         25   -1    0    0    0    0  0.00000000000E+00  0.00000000000E+00  0.99999998245E-14  0.12500000000E+03  0.12500000000E+03 0.  0.
        -11    1    3    3    0    0  0.44159219661E+02 -0.11043956490E+02  0.36884816229E+02  0.58587501436E+02  0.51100000000E-03 0. -1.
         23    2    1    0    0    0  0.28254308105E+02  0.69211513185E+00  0.47120650053E+01  0.96347103000E+02  0.91987910891E+02 0.  0.
         11    1    3    3    0    0 -0.15904911556E+02  0.11736071622E+02 -0.32172751224E+02  0.37759601564E+02  0.51100000000E-03 0.  1.
         22    1    1    0    0    0 -0.28254308105E+02 -0.69211513185E+00 -0.47120650053E+01  0.28652897000E+02  0.00000000000E+00 0. -1.
</event>
<event>
 5    1  0.6622940E-004  0.9118800E+02  0.7818608E-02  0.1130116E+00
         25   -1    0    0    0    0  0.00000000000E+00  0.00000000000E+00  0.99999998245E-14  0.12500000000E+03  0.12500000000E+03 0.  0.
        -11    1    3    3    0    0 -0.51692306593E+01 -0.70839016216E+01  0.61816044815E+02  0.62434974210E+02  0.51100000000E-03 0.  1.
         23    2    1    0    0    0 -0.18016896474E+01 -0.53029942763E+01  0.29663891561E+02  0.94812017351E+02  0.89877718806E+02 0.  0.
         11    1    3    3    0    0  0.33675410119E+01  0.17809073453E+01 -0.32152153254E+02  0.32377043141E+02  0.51100000000E-03 0. -1.
         22    1    1    0    0    0  0.18016896474E+01  0.53029942763E+01 -0.29663891561E+02  0.30187982649E+02  0.00000000000E+00 0.  1.
</event>
<event>
 5    1  0.6622940E-004  0.9118800E+02  0.7818608E-02  0.1130116E+00
         25   -1    0    0    0    0  0.00000000000E+00  0.00000000000E+00  0.99999998245E-14  0.12500000000E+03  0.12500000000E+03 0.  0.
        -11    1    3    3    0    0 -0.48448187944E+02  0.27044872168E+01 -0.44717605378E+01  0.48729229511E+02  0.51100000000E-03 0.  1.
         23    2    1    0    0    0 -0.82382093631E+01  0.15603691015E+02 -0.23965200006E+02  0.95239723151E+02  0.90470607314E+02 0.  0.
         11    1    3    3    0    0  0.40209978581E+02  0.12899203798E+02 -0.19493439468E+02  0.46510493640E+02  0.51100000000E-03 0. -1.
         22    1    1    0    0    0  0.82382093631E+01 -0.15603691015E+02  0.23965200006E+02  0.29760276849E+02  0.00000000000E+00 0. -1.
</event>
<event>
 5    1  0.6622940E-004  0.9118800E+02  0.7818608E-02  0.1130116E+00
         25   -1    0    0    0    0  0.00000000000E+00  0.00000000000E+00  0.99999998245E-14  0.12500000000E+03  0.12500000000E+03 0.  0.
        -11    1    3    3    0    0  0.71986597985E+01  0.35091479468E+02  0.10284116402E+02  0.37269232411E+02  0.51100000000E-03 0.  1.
         23    2    1    0    0    0 -0.37892883576E+01 -0.63527464520E+01 -0.28787452720E+02  0.95277390292E+02  0.90522635694E+02 0.  0.
         11    1    3    3    0    0 -0.10987948156E+02 -0.41444225920E+02 -0.39071569122E+02  0.58008157880E+02  0.51100000000E-03 0. -1.
         22    1    1    0    0    0  0.37892883576E+01  0.63527464520E+01  0.28787452720E+02  0.29722609708E+02  0.00000000000E+00 0. -1.
</event>
<event>
 5    1  0.6622940E-004  0.9118800E+02  0.7818608E-02  0.1130116E+00
         25   -1    0    0    0    0  0.00000000000E+00  0.00000000000E+00  0.99999998245E-14  0.12500000000E+03  0.12500000000E+03 0.  0.
        -11    1    3    3    0    0 -0.53881535154E+02 -0.32408398250E+01 -0.14436792612E+02  0.55876147456E+02  0.51100000000E-03 0. -1.
         23    2    1    0    0    0 -0.17390480308E+02  0.12469266559E+02 -0.19652325797E+02  0.95946165088E+02  0.91441463636E+02 0.  0.
         11    1    3    3    0    0  0.36491054846E+02  0.15710106384E+02 -0.52155331854E+01  0.40070017632E+02  0.51100000000E-03 0.  1.
         22    1    1    0    0    0  0.17390480308E+02 -0.12469266559E+02  0.19652325797E+02  0.29053834912E+02  0.00000000000E+00 0. -1.
</event>
<event>
 5    1  0.6622940E-004  0.9118800E+02  0.7818608E-02  0.1130116E+00
         25   -1    0    0    0    0  0.00000000000E+00  0.00000000000E+00  0.99999998245E-14  0.12500000000E+03  0.12500000000E+03 0.  0.
        -11    1    3    3    0    0  0.21970541479E+02  0.29656189502E+02 -0.21853476375E+02  0.42892524973E+02  0.51100000000E-03 0. -1.
         23    2    1    0    0    0 -0.84812030499E+01  0.20488313687E+02  0.19782098314E+02  0.95284125175E+02  0.90531935215E+02 0.  0.
         11    1    3    3    0    0 -0.30451744529E+02 -0.91678758151E+01  0.41635574689E+02  0.52391600202E+02  0.51100000000E-03 0.  1.
         22    1    1    0    0    0  0.84812030499E+01 -0.20488313687E+02 -0.19782098314E+02  0.29715874825E+02  0.00000000000E+00 0. -1.
</event>
<event>
 5    1  0.6622940E-004  0.9118800E+02  0.7818608E-02  0.1130116E+00
         25   -1    0    0    0    0  0.00000000000E+00  0.00000000000E+00  0.99999998245E-14  0.12500000000E+03  0.12500000000E+03 0.  0.
        -11    1    3    3    0    0 -0.23829708627E+02 -0.17221152996E+02 -0.16080642236E+02  0.33511344031E+02  0.51100000000E-03 0. -1.
         23    2    1    0    0    0  0.94545606180E+01  0.83868030784E+01  0.27930111916E+02  0.94343543356E+02  0.89223796371E+02 0.  0.
         11    1    3    3    0    0  0.33284269245E+02  0.25607956075E+02  0.44010754152E+02  0.60832199325E+02  0.51100000000E-03 0.  1.
         22    1    1    0    0    0 -0.94545606180E+01 -0.83868030784E+01 -0.27930111916E+02  0.30656456644E+02  0.00000000000E+00 0.  1.
</event>
<event>
 5    1  0.6622940E-004  0.9118800E+02  0.7818608E-02  0.1130116E+00
         25   -1    0    0    0    0  0.00000000000E+00  0.00000000000E+00  0.99999998245E-14  0.12500000000E+03  0.12500000000E+03 0.  0.
        -11    1    3    3    0    0  0.16991884670E+02 -0.37783645075E+02  0.12836155784E+02  0.43371590648E+02  0.51100000000E-03 0.  1.
         23    2    1    0    0    0 -0.22067732042E+02 -0.14036638257E+02 -0.12908179317E+02  0.95834384898E+02  0.91288532820E+02 0.  0.
         11    1    3    3    0    0 -0.39059616711E+02  0.23747006818E+02 -0.25744335101E+02  0.52462794250E+02  0.51100000000E-03 0. -1.
         22    1    1    0    0    0  0.22067732042E+02  0.14036638257E+02  0.12908179317E+02  0.29165615102E+02  0.00000000000E+00 0. -1.
</event>
<event>
 5    1  0.6622940E-004  0.9118800E+02  0.7818608E-02  0.1130116E+00
         25   -1    0    0    0    0  0.00000000000E+00  0.00000000000E+00  0.99999998245E-14  0.12500000000E+03  0.12500000000E+03 0.  0.
        -11    1    3    3    0    0 -0.26782001876E+02 -0.49425567810E+01 -0.27222024020E+02  0.38506403156E+02  0.51100000000E-03 0. -1.
         23    2    1    0    0    0  0.26878943629E+02  0.45702358408E+01 -0.54282814720E+01  0.97200163562E+02  0.93139899562E+02 0.  0.
         11    1    3    3    0    0  0.53660945505E+02  0.95127926218E+01  0.21793742548E+02  0.58693760405E+02  0.51100000000E-03 0.  1.
         22    1    1    0    0    0 -0.26878943629E+02 -0.45702358408E+01  0.54282814720E+01  0.27799836438E+02  0.00000000000E+00 0.  1.
</event>
<event>
 5    1  0.6622940E-004  0.9118800E+02  0.7818608E-02  0.1130116E+00
         25   -1    0    0    0    0  0.00000000000E+00  0.00000000000E+00  0.99999998245E-14  0.12500000000E+03  0.12500000000E+03 0.  0.
        -11    1    3    3    0    0  0.30066545445E+02 -0.31782540290E+02 -0.40181238265E+02  0.59402516201E+02  0.51100000000E-03 0. -1.
         23    2    1    0    0    0  0.28991790416E+02 -0.12423002411E+02 -0.18735610559E+02  0.88313790010E+02  0.80333352366E+02 0.  0.
         11    1    3    3    0    0 -0.10747550287E+01  0.19359537879E+02  0.21445627706E+02  0.28911273809E+02  0.51100000000E-03 0.  1.
         22    1    1    0    0    0 -0.28991790416E+02  0.12423002411E+02  0.18735610559E+02  0.36686209990E+02  0.00000000000E+00 0. -1.
</event>
<event>
 5    1  0.6622940E-004  0.9118800E+02  0.7818608E-02  0.1130116E+00
         25   -1    0    0    0    0  0.00000000000E+00  0.00000000000E+00  0.99999998245E-14  0.12500000000E+03  0.12500000000E+03 0.  0.
        -11    1    3    3    0    0 -0.78015658398E+01 -0.27008721533E+02 -0.18914433467E+02  0.33883495422E+02  0.51100000000E-03 0. -1.
         23    2    1    0    0    0  0.20989691850E+02  0.17119152555E+02  0.12437324499E+02  0.95195309281E+02  0.90409221434E+02 0.  0.
         11    1    3    3    0    0  0.28791257690E+02  0.44127874087E+02  0.31351757966E+02  0.61311813859E+02  0.51100000000E-03 0.  1.
         22    1    1    0    0    0 -0.20989691850E+02 -0.17119152555E+02 -0.12437324499E+02  0.29804690719E+02  0.00000000000E+00 0.  1.
</event>
<event>
 5    1  0.6622940E-004  0.9118800E+02  0.7818608E-02  0.1130116E+00
         25   -1    0    0    0    0  0.00000000000E+00  0.00000000000E+00  0.99999998245E-14  0.12500000000E+03  0.12500000000E+03 0.  0.
        -11    1    3    3    0    0  0.23468313003E+02  0.47263859765E+02  0.25651430891E+02  0.58673930004E+02  0.51100000000E-03 0.  1.
         23    2    1    0    0    0  0.12916666731E+02  0.10512581166E+02  0.22454843651E+02  0.97043343448E+02  0.92929198113E+02 0.  0.
         11    1    3    3    0    0 -0.10551646272E+02 -0.36751278600E+02 -0.31965872396E+01  0.38369413444E+02  0.51100000000E-03 0. -1.
         22    1    1    0    0    0 -0.12916666731E+02 -0.10512581166E+02 -0.22454843651E+02  0.27956656552E+02  0.00000000000E+00 0.  1.
</event>
<event>
 5    1  0.6622940E-004  0.9118800E+02  0.7818608E-02  0.1130116E+00
         25   -1    0    0    0    0  0.00000000000E+00  0.00000000000E+00  0.99999998245E-14  0.12500000000E+03  0.12500000000E+03 0.  0.
        -11    1    3    3    0    0 -0.40497588990E+02 -0.19920340412E+02  0.19684268311E+02  0.49237639011E+02  0.51100000000E-03 0.  1.
         23    2    1    0    0    0 -0.14618643428E+02  0.16563721803E+02  0.21726323637E+02  0.94014604176E+02  0.88761765665E+02 0.  0.
         11    1    3    3    0    0  0.25878945563E+02  0.36484062215E+02  0.20420553258E+01  0.44776965165E+02  0.51100000000E-03 0. -1.
         22    1    1    0    0    0  0.14618643428E+02 -0.16563721803E+02 -0.21726323637E+02  0.30985395824E+02  0.00000000000E+00 0.  1.
</event>
<event>
 5    1  0.6622940E-004  0.9118800E+02  0.7818608E-02  0.1130116E+00
         25   -1    0    0    0    0  0.00000000000E+00  0.00000000000E+00  0.99999998245E-14  0.12500000000E+03  0.12500000000E+03 0.  0.
        -11    1    3    3    0    0  0.65601880754E+01 -0.22912004679E+02 -0.27275311053E+02  0.36220693247E+02  0.51100000000E-03 0.  1.
         23    2    1    0    0    0  0.11833428448E+02  0.52345937733E+00  0.26968224503E+02  0.95545133315E+02  0.90891602081E+02 0.  0.
         11    1    3    3    0    0  0.52732403730E+01  0.23435464056E+02  0.54243535556E+02  0.59324440068E+02  0.51100000000E-03 0. -1.
         22    1    1    0    0    0 -0.11833428448E+02 -0.52345937733E+00 -0.26968224503E+02  0.29454866685E+02  0.00000000000E+00 0. -1.
</event>
<event>
 5    1  0.6622940E-004  0.9118800E+02  0.7818608E-02  0.1130116E+00
         25   -1    0    0    0    0  0.00000000000E+00  0.00000000000E+00  0.99999998245E-14  0.12500000000E+03  0.12500000000E+03 0.  0.
        -11    1    3    3    0    0  0.22580632871E+02  0.27853168973E+02  0.44047396745E+02  0.56796629856E+02  0.51100000000E-03 0. -1.
         23    2    1    0    0    0  0.27095724759E+02  0.86259169103E+01  0.38169050290E+02  0.77403139360E+02  0.61039207399E+02 0.  0.
         11    1    3    3    0    0  0.45150918878E+01 -0.19227252062E+02 -0.58783464548E+01  0.20606509504E+02  0.51100000000E-03 0.  1.
         22    1    1    0    0    0 -0.27095724759E+02 -0.86259169103E+01 -0.38169050290E+02  0.47596860640E+02  0.00000000000E+00 0. -1.
</event>
<event>
 5    1  0.6622940E-004  0.9118800E+02  0.7818608E-02  0.1130116E+00
         25   -1    0    0    0    0  0.00000000000E+00  0.00000000000E+00  0.99999998245E-14  0.12500000000E+03  0.12500000000E+03 0.  0.
        -11    1    3    3    0    0  0.51215807673E+00 -0.32286265143E+02 -0.43748523341E+02  0.54374612804E+02  0.51100000000E-03 0.  1.
         23    2    1    0    0    0 -0.20973592008E+02 -0.72549666252E+01 -0.21004659102E+02  0.94443138145E+02  0.89363216909E+02 0.  0.
         11    1    3    3    0    0 -0.21485750084E+02  0.25031298518E+02  0.22743864240E+02  0.40068525341E+02  0.51100000000E-03 0. -1.
         22    1    1    0    0    0  0.20973592008E+02  0.72549666252E+01  0.21004659102E+02  0.30556861855E+02  0.00000000000E+00 0.  1.
</event>
<event>
 5    1  0.6622940E-004  0.9118800E+02  0.7818608E-02  0.1130116E+00
         25   -1    0    0    0    0  0.00000000000E+00  0.00000000000E+00  0.99999998245E-14  0.12500000000E+03  0.12500000000E+03 0.  0.
        -11    1    3    3    0    0 -0.34528380447E+01 -0.34527743796E+02 -0.14779549156E+02  0.37716339374E+02  0.51100000000E-03 0. -1.
         23    2    1    0    0    0 -0.73616632832E+01  0.12129320670E+02  0.23065839025E+02  0.97919611595E+02  0.94100493616E+02 0.  0.
         11    1    3    3    0    0 -0.39088252384E+01  0.46657064466E+02  0.37845388181E+02  0.60203272222E+02  0.51100000000E-03 0.  1.
         22    1    1    0    0    0  0.73616632832E+01 -0.12129320670E+02 -0.23065839025E+02  0.27080388405E+02  0.00000000000E+00 0.  1.
</event>
<event>
 5    1  0.6622940E-004  0.9118800E+02  0.7818608E-02  0.1130116E+00
         25   -1    0    0    0    0  0.00000000000E+00  0.00000000000E+00  0.99999998245E-14  0.12500000000E+03  0.12500000000E+03 0.  0.
        -11    1    3    3    0    0 -0.12116280187E+02  0.97602411980E+01 -0.55175325892E+02  0.57326984408E+02  0.51100000000E-03 0. -1.
         23    2    1    0    0    0 -0.23394117118E+02 -0.11265478722E+01 -0.35235156343E+02  0.82690780338E+02  0.71047132839E+02 0.  0.
         11    1    3    3    0    0 -0.11277836931E+02 -0.10886789070E+02  0.19940169549E+02  0.25363795930E+02  0.51100000000E-03 0.  1.
         22    1    1    0    0    0  0.23394117118E+02  0.11265478722E+01  0.35235156343E+02  0.42309219662E+02  0.00000000000E+00 0. -1.
</event>
<event>
 5    1  0.6622940E-004  0.9118800E+02  0.7818608E-02  0.1130116E+00
         25   -1    0    0    0    0  0.00000000000E+00  0.00000000000E+00  0.99999998245E-14  0.12500000000E+03  0.12500000000E+03 0.  0.
        -11    1    3    3    0    0  0.15615357261E+02  0.22944471083E+02 -0.29089046008E+02  0.40205232664E+02  0.51100000000E-03 0. -1.
         23    2    1    0    0    0 -0.17727455893E+02 -0.19033494426E+02 -0.10599808698E+02  0.96912768970E+02  0.92753394776E+02 0.  0.
         11    1    3    3    0    0 -0.33342813154E+02 -0.41977965509E+02  0.18489237310E+02  0.56707536306E+02  0.51100000000E-03 0.  1.
         22    1    1    0    0    0  0.17727455893E+02  0.19033494426E+02  0.10599808698E+02  0.28087231030E+02  0.00000000000E+00 0.  1.
</event>
<event>
 5    1  0.6622940E-004  0.9118800E+02  0.7818608E-02  0.1130116E+00
         25   -1    0    0    0    0  0.00000000000E+00  0.00000000000E+00  0.99999998245E-14  0.12500000000E+03  0.12500000000E+03 0.  0.
        -11    1    3    3    0    0 -0.13462104633E+02  0.45302802403E+01  0.38843517069E+02  0.41359043978E+02  0.51100000000E-03 0.  1.
         23    2    1    0    0    0 -0.23814267354E+02  0.10838998929E+02 -0.13826688907E+02  0.95406410263E+02  0.90700620536E+02 0.  0.
         11    1    3    3    0    0 -0.10352162722E+02  0.63087186888E+01 -0.52670205976E+02  0.54047366285E+02  0.51100000000E-03 0. -1.
         22    1    1    0    0    0  0.23814267354E+02 -0.10838998929E+02  0.13826688907E+02  0.29593589737E+02  0.00000000000E+00 0. -1.
</event>
<event>
 5    1  0.6622940E-004  0.9118800E+02  0.7818608E-02  0.1130116E+00
         25   -1    0    0    0    0  0.00000000000E+00  0.00000000000E+00  0.99999998245E-14  0.12500000000E+03  0.12500000000E+03 0.  0.
        -11    1    3    3    0    0  0.29840718291E+02  0.35696827926E+02  0.39108618588E+02  0.60780062851E+02  0.51100000000E-03 0.  1.
         23    2    1    0    0    0  0.87858836570E+01  0.24509402499E+02  0.13870732382E+02  0.95499156295E+02  0.90828349504E+02 0.  0.
         11    1    3    3    0    0 -0.21054834634E+02 -0.11187425426E+02 -0.25237886206E+02  0.34719093444E+02  0.51100000000E-03 0. -1.
         22    1    1    0    0    0 -0.87858836570E+01 -0.24509402499E+02 -0.13870732382E+02  0.29500843705E+02  0.00000000000E+00 0.  1.
</event>
<event>
 5    1  0.6622940E-004  0.9118800E+02  0.7818608E-02  0.1130116E+00
         25   -1    0    0    0    0  0.00000000000E+00  0.00000000000E+00  0.99999998245E-14  0.12500000000E+03  0.12500000000E+03 0.  0.
        -11    1    3    3    0    0  0.17388622755E+02 -0.16878173920E+02  0.30203183903E+02  0.38722981217E+02  0.51100000000E-03 0. -1.
         23    2    1    0    0    0  0.16676485813E+02  0.29809866419E+01 -0.23525984544E+02  0.96009253042E+02  0.91527663908E+02 0.  0.
         11    1    3    3    0    0 -0.71213694130E+00  0.19859160562E+02 -0.53729168447E+02  0.57286271824E+02  0.51100000000E-03 0.  1.
         22    1    1    0    0    0 -0.16676485813E+02 -0.29809866419E+01  0.23525984544E+02  0.28990746958E+02  0.00000000000E+00 0.  1.
</event>
<event>
 5    1  0.6622940E-004  0.9118800E+02  0.7818608E-02  0.1130116E+00
         25   -1    0    0    0    0  0.00000000000E+00  0.00000000000E+00  0.99999998245E-14  0.12500000000E+03  0.12500000000E+03 0.  0.
        -11    1    3    3    0    0  0.24617242218E+02 -0.27153453623E+02  0.70665252986E+01  0.37326323662E+02  0.51100000000E-03 0.  1.
         23    2    1    0    0    0 -0.14831206397E+02  0.18667703771E+01 -0.25005845211E+02  0.95866826304E+02  0.91332943542E+02 0.  0.
         11    1    3    3    0    0 -0.39448448615E+02  0.29020224000E+02 -0.32072370510E+02  0.58540502642E+02  0.51100000000E-03 0. -1.
         22    1    1    0    0    0  0.14831206397E+02 -0.18667703771E+01  0.25005845211E+02  0.29133173696E+02  0.00000000000E+00 0. -1.
</event>
<event>
 5    1  0.6622940E-004  0.9118800E+02  0.7818608E-02  0.1130116E+00
         25   -1    0    0    0    0  0.00000000000E+00  0.00000000000E+00  0.99999998245E-14  0.12500000000E+03  0.12500000000E+03 0.  0.
        -11    1    3    3    0    0 -0.46218963709E+02  0.25698149779E+02 -0.80577802753E+00  0.52888909866E+02  0.51100000000E-03 0.  1.
         23    2    1    0    0    0 -0.20496401978E+02 -0.11159697321E+01 -0.21379594743E+02  0.95361596638E+02  0.90638839134E+02 0.  0.
         11    1    3    3    0    0  0.25722561731E+02 -0.26814119511E+02 -0.20573816715E+02  0.42472686772E+02  0.51100000000E-03 0. -1.
         22    1    1    0    0    0  0.20496401978E+02  0.11159697321E+01  0.21379594743E+02  0.29638403362E+02  0.00000000000E+00 0.  1.
</event>
<event>
 5    1  0.6622940E-004  0.9118800E+02  0.7818608E-02  0.1130116E+00
         25   -1    0    0    0    0  0.00000000000E+00  0.00000000000E+00  0.99999998245E-14  0.12500000000E+03  0.12500000000E+03 0.  0.
        -11    1    3    3    0    0 -0.47497933857E+01  0.83408080291E+01  0.37836230600E+02  0.39034727642E+02  0.51100000000E-03 0. -1.
         23    2    1    0    0    0  0.73506489939E+01 -0.30076842040E+02  0.38282324073E+00  0.94035584595E+02  0.88791306719E+02 0.  0.
         11    1    3    3    0    0  0.12100442380E+02 -0.38417650069E+02 -0.37453407359E+02  0.55000856954E+02  0.51100000000E-03 0.  1.
         22    1    1    0    0    0 -0.73506489939E+01  0.30076842040E+02 -0.38282324073E+00  0.30964415405E+02  0.00000000000E+00 0.  1.
</event>
<event>
 5    1  0.6622940E-004  0.9118800E+02  0.7818608E-02  0.1130116E+00
         25   -1    0    0    0    0  0.00000000000E+00  0.00000000000E+00  0.99999998245E-14  0.12500000000E+03  0.12500000000E+03 0.  0.
        -11    1    3    3    0    0 -0.32950923911E+02 -0.91452463096E+01  0.79508419363E+01  0.35108614390E+02  0.51100000000E-03 0. -1.
         23    2    1    0    0    0  0.18048641680E+02  0.14692941208E+02 -0.16486001298E+02  0.96479406972E+02  0.92167520001E+02 0.  0.
         11    1    3    3    0    0  0.50999565591E+02  0.23838187518E+02 -0.24436843234E+02  0.61370792582E+02  0.51100000000E-03 0.  1.
         22    1    1    0    0    0 -0.18048641680E+02 -0.14692941208E+02  0.16486001298E+02  0.28520593028E+02  0.00000000000E+00 0.  1.
</event>
<event>
 5    1  0.6622940E-004  0.9118800E+02  0.7818608E-02  0.1130116E+00
         25   -1    0    0    0    0  0.00000000000E+00  0.00000000000E+00  0.99999998245E-14  0.12500000000E+03  0.12500000000E+03 0.  0.
        -11    1    3    3    0    0  0.56025703338E+02 -0.23971115985E+02 -0.20463818988E+01  0.60972793238E+02  0.51100000000E-03 0. -1.
         23    2    1    0    0    0  0.22519181158E+02 -0.20228532613E+02 -0.43083654883E+00  0.94726370025E+02  0.89758523308E+02 0.  0.
         11    1    3    3    0    0 -0.33506522180E+02  0.37425833725E+01  0.16155453499E+01  0.33753576787E+02  0.51100000000E-03 0.  1.
         22    1    1    0    0    0 -0.22519181158E+02  0.20228532613E+02  0.43083654883E+00  0.30273629975E+02  0.00000000000E+00 0. -1.
</event>
<event>
 5    1  0.6622940E-004  0.9118800E+02  0.7818608E-02  0.1130116E+00
         25   -1    0    0    0    0  0.00000000000E+00  0.00000000000E+00  0.99999998245E-14  0.12500000000E+03  0.12500000000E+03 0.  0.
        -11    1    3    3    0    0  0.40517045327E+02  0.34579819515E+02 -0.61586174301E+01  0.53622042563E+02  0.51100000000E-03 0. -1.
         23    2    1    0    0    0  0.29739377322E+02 -0.44192075058E+01  0.18863091303E+01  0.94874958579E+02  0.89965213525E+02 0.  0.
         11    1    3    3    0    0 -0.10777668005E+02 -0.38999027021E+02  0.80449265604E+01  0.41252916016E+02  0.51100000000E-03 0.  1.
         22    1    1    0    0    0 -0.29739377322E+02  0.44192075058E+01 -0.18863091303E+01  0.30125041421E+02  0.00000000000E+00 0. -1.
</event>
<event>
 5    1  0.6622940E-004  0.9118800E+02  0.7818608E-02  0.1130116E+00
         25   -1    0    0    0    0  0.00000000000E+00  0.00000000000E+00  0.99999998245E-14  0.12500000000E+03  0.12500000000E+03 0.  0.
        -11    1    3    3    0    0  0.70672208978E+01  0.26367267313E+02 -0.37744634873E+02  0.46581496957E+02  0.51100000000E-03 0.  1.
         23    2    1    0    0    0  0.15286993721E+02 -0.17845905985E+02 -0.16286905233E+02  0.96409235416E+02  0.92072302317E+02 0.  0.
         11    1    3    3    0    0  0.82197728230E+01 -0.44213173298E+02  0.21457729640E+02  0.49827738459E+02  0.51100000000E-03 0. -1.
         22    1    1    0    0    0 -0.15286993721E+02  0.17845905985E+02  0.16286905233E+02  0.28590764584E+02  0.00000000000E+00 0.  1.
</event>
<event>
 5    1  0.6622940E-004  0.9118800E+02  0.7818608E-02  0.1130116E+00
         25   -1    0    0    0    0  0.00000000000E+00  0.00000000000E+00  0.99999998245E-14  0.12500000000E+03  0.12500000000E+03 0.  0.
        -11    1    3    3    0    0  0.18888831563E+02  0.44262304574E+02  0.79668656839E+01  0.48779201645E+02  0.51100000000E-03 0.  1.
         23    2    1    0    0    0 -0.15997120848E+02  0.18254044070E+02  0.19578911265E+02  0.93815841094E+02  0.88481412023E+02 0.  0.
         11    1    3    3    0    0 -0.34885952411E+02 -0.26008260504E+02  0.11612045581E+02  0.45036639449E+02  0.51100000000E-03 0. -1.
         22    1    1    0    0    0  0.15997120848E+02 -0.18254044070E+02 -0.19578911265E+02  0.31184158906E+02  0.00000000000E+00 0.  1.
</event>
<event>
 5    1  0.6622940E-004  0.9118800E+02  0.7818608E-02  0.1130116E+00
         25   -1    0    0    0    0  0.00000000000E+00  0.00000000000E+00  0.99999998245E-14  0.12500000000E+03  0.12500000000E+03 0.  0.
        -11    1    3    3    0    0  0.51550172943E+02 -0.27187197105E+02  0.83895089844E+01  0.58880793797E+02  0.51100000000E-03 0. -1.
         23    2    1    0    0    0  0.15657721324E+02 -0.24625333285E+02  0.50121518695E-01  0.95818262755E+02  0.91266454345E+02 0.  0.
         11    1    3    3    0    0 -0.35892451619E+02  0.25618638194E+01 -0.83393874657E+01  0.36937468958E+02  0.51100000000E-03 0.  1.
         22    1    1    0    0    0 -0.15657721324E+02  0.24625333285E+02 -0.50121518695E-01  0.29181737245E+02  0.00000000000E+00 0. -1.
</event>
<event>
 5    1  0.6622940E-004  0.9118800E+02  0.7818608E-02  0.1130116E+00
         25   -1    0    0    0    0  0.00000000000E+00  0.00000000000E+00  0.99999998245E-14  0.12500000000E+03  0.12500000000E+03 0.  0.
        -11    1    3    3    0    0  0.58851959844E+01 -0.77585859228E+01 -0.45802387667E+02  0.46826166868E+02  0.51100000000E-03 0. -1.
         23    2    1    0    0    0  0.28051637738E+02  0.11408332921E+02 -0.99635409704E+01  0.93120279353E+02  0.87493255959E+02 0.  0.
         11    1    3    3    0    0  0.22166441754E+02  0.19166918844E+02  0.35838846697E+02  0.46294112485E+02  0.51100000000E-03 0.  1.
         22    1    1    0    0    0 -0.28051637738E+02 -0.11408332921E+02  0.99635409704E+01  0.31879720647E+02  0.00000000000E+00 0. -1.
</event>
<event>
 5    1  0.6622940E-004  0.9118800E+02  0.7818608E-02  0.1130116E+00
         25   -1    0    0    0    0  0.00000000000E+00  0.00000000000E+00  0.99999998245E-14  0.12500000000E+03  0.12500000000E+03 0.  0.
        -11    1    3    3    0    0  0.21574235660E+02 -0.19920330517E+02 -0.46238663243E+02  0.54774822601E+02  0.51100000000E-03 0.  1.
         23    2    1    0    0    0  0.24412980737E+02  0.64991523310E+01 -0.15697548050E+02  0.95257007140E+02  0.90494484832E+02 0.  0.
         11    1    3    3    0    0  0.28387450770E+01  0.26419482848E+02  0.30541115193E+02  0.40482184539E+02  0.51100000000E-03 0. -1.
         22    1    1    0    0    0 -0.24412980737E+02 -0.64991523310E+01  0.15697548050E+02  0.29742992860E+02  0.00000000000E+00 0.  1.
</event>
<event>
 5    1  0.6622940E-004  0.9118800E+02  0.7818608E-02  0.1130116E+00
         25   -1    0    0    0    0  0.00000000000E+00  0.00000000000E+00  0.99999998245E-14  0.12500000000E+03  0.12500000000E+03 0.  0.
        -11    1    3    3    0    0  0.15093960648E+02  0.48041588150E+01  0.45982241606E+02  0.48634084070E+02  0.51100000000E-03 0. -1.
         23    2    1    0    0    0  0.27376026828E+01 -0.25782487611E+02  0.10655366498E+02  0.96968446866E+02  0.92828399300E+02 0.  0.
         11    1    3    3    0    0 -0.12356357965E+02 -0.30586646426E+02 -0.35326875108E+02  0.48334362796E+02  0.51100000000E-03 0.  1.
         22    1    1    0    0    0 -0.27376026828E+01  0.25782487611E+02 -0.10655366498E+02  0.28031553134E+02  0.00000000000E+00 0.  1.
</event>
<event>
 5    1  0.6622940E-004  0.9118800E+02  0.7818608E-02  0.1130116E+00
         25   -1    0    0    0    0  0.00000000000E+00  0.00000000000E+00  0.99999998245E-14  0.12500000000E+03  0.12500000000E+03 0.  0.
        -11    1    3    3    0    0  0.20968070567E+02  0.12135628214E+02 -0.43890800031E+02  0.50133180460E+02  0.51100000000E-03 0.  1.
         23    2    1    0    0    0  0.30779391518E+02 -0.50141597225E+01 -0.54669696852E+01  0.93339290951E+02  0.87805596278E+02 0.  0.
         11    1    3    3    0    0  0.98113209514E+01 -0.17149787936E+02  0.38423830346E+02  0.43206110491E+02  0.51100000000E-03 0. -1.
         22    1    1    0    0    0 -0.30779391518E+02  0.50141597225E+01  0.54669696852E+01  0.31660709049E+02  0.00000000000E+00 0. -1.
</event>
<event>
 4    1  0.6622940E-004  0.9118800E+02  0.7818608E-02  0.1130116E+00
         25   -1    0    0    0    0  0.00000000000E+00  0.00000000000E+00  0.99999998245E-14  0.12500000000E+03  0.12500000000E+03 0.  0.
        -11    1    1    0    0    0 -0.19722723721E+02 -0.21970098258E+02 -0.17673400477E+02  0.34409593621E+02  0.51100000000E-03 0.  1.
         11    1    1    0    0    0  0.23979125000E+02 -0.61077434688E+01 -0.27649600001E+02  0.37105300787E+02  0.51100000000E-03 0. -1.
         22    1    1    0    0    0 -0.42564012781E+01  0.28077841727E+02  0.45323000478E+02  0.53485105592E+02  0.00000000000E+00 0. -1.
</event>
<event>
 5    1  0.6622940E-004  0.9118800E+02  0.7818608E-02  0.1130116E+00
         25   -1    0    0    0    0  0.00000000000E+00  0.00000000000E+00  0.99999998245E-14  0.12500000000E+03  0.12500000000E+03 0.  0.
        -11    1    3    3    0    0 -0.23115044801E+02 -0.11042612626E+02  0.38351639242E+02  0.46120416548E+02  0.51100000000E-03 0. -1.
         23    2    1    0    0    0 -0.35445276296E+02  0.29096898747E+01 -0.74839628812E+00  0.89427623022E+02  0.82048191665E+02 0.  0.
         11    1    3    3    0    0 -0.12330231495E+02  0.13952302501E+02 -0.39100035530E+02  0.43307206474E+02  0.51100000000E-03 0.  1.
         22    1    1    0    0    0  0.35445276296E+02 -0.29096898747E+01  0.74839628812E+00  0.35572376978E+02  0.00000000000E+00 0.  1.
</event>
<event>
 5    1  0.6622940E-004  0.9118800E+02  0.7818608E-02  0.1130116E+00
         25   -1    0    0    0    0  0.00000000000E+00  0.00000000000E+00  0.99999998245E-14  0.12500000000E+03  0.12500000000E+03 0.  0.
        -11    1    3    3    0    0 -0.56586894001E+01  0.32873541259E+02  0.14733808285E+02  0.36466088185E+02  0.51100000000E-03 0.  1.
         23    2    1    0    0    0 -0.37019770059E+01 -0.26755605623E+02  0.95451864199E+01  0.96352528039E+02  0.91995282540E+02 0.  0.
         11    1    3    3    0    0  0.19567123942E+01 -0.59629146882E+02 -0.51886218648E+01  0.59886439854E+02  0.51100000000E-03 0. -1.
         22    1    1    0    0    0  0.37019770059E+01  0.26755605623E+02 -0.95451864199E+01  0.28647471961E+02  0.00000000000E+00 0. -1.
</event>
<event>
 5    1  0.6622940E-004  0.9118800E+02  0.7818608E-02  0.1130116E+00
         25   -1    0    0    0    0  0.00000000000E+00  0.00000000000E+00  0.99999998245E-14  0.12500000000E+03  0.12500000000E+03 0.  0.
        -11    1    3    3    0    0  0.39491651464E+02  0.23713520499E+02  0.42028054739E+02  0.62356066066E+02  0.51100000000E-03 0.  1.
         23    2    1    0    0    0  0.17022036395E+02  0.11908097817E+02  0.22463290606E+02  0.94403399837E+02  0.89307614229E+02 0.  0.
         11    1    3    3    0    0 -0.22469615068E+02 -0.11805422682E+02 -0.19564764133E+02  0.32047333771E+02  0.51100000000E-03 0. -1.
         22    1    1    0    0    0 -0.17022036395E+02 -0.11908097817E+02 -0.22463290606E+02  0.30596600163E+02  0.00000000000E+00 0.  1.
</event>
<event>
 5    1  0.6622940E-004  0.9118800E+02  0.7818608E-02  0.1130116E+00
         25   -1    0    0    0    0  0.00000000000E+00  0.00000000000E+00  0.99999998245E-14  0.12500000000E+03  0.12500000000E+03 0.  0.
        -11    1    3    3    0    0  0.13867126077E+02 -0.16382017232E+01 -0.38902412435E+02  0.41332536627E+02  0.51100000000E-03 0.  1.
         23    2    1    0    0    0 -0.27296092137E+02 -0.37627842504E+01 -0.84567192313E+00  0.97432802967E+02  0.93451595715E+02 0.  0.
         11    1    3    3    0    0 -0.41163218214E+02 -0.21245825272E+01  0.38056740512E+02  0.56100266339E+02  0.51100000000E-03 0. -1.
         22    1    1    0    0    0  0.27296092137E+02  0.37627842504E+01  0.84567192313E+00  0.27567197033E+02  0.00000000000E+00 0. -1.
</event>
<event>
 5    1  0.6622940E-004  0.9118800E+02  0.7818608E-02  0.1130116E+00
         25   -1    0    0    0    0  0.00000000000E+00  0.00000000000E+00  0.99999998245E-14  0.12500000000E+03  0.12500000000E+03 0.  0.
        -11    1    3    3    0    0 -0.31953380320E+02  0.75949106333E+01 -0.68972528320E+01  0.33559995207E+02  0.51100000000E-03 0. -1.
         23    2    1    0    0    0  0.27725691597E+02 -0.75229208917E+01 -0.81543679967E+01  0.95136945389E+02  0.90328491338E+02 0.  0.
         11    1    3    3    0    0  0.59679071917E+02 -0.15117831525E+02 -0.12571151647E+01  0.61576950182E+02  0.51100000000E-03 0.  1.
         22    1    1    0    0    0 -0.27725691597E+02  0.75229208917E+01  0.81543679967E+01  0.29863054611E+02  0.00000000000E+00 0.  1.
</event>
<event>
 5    1  0.6622940E-004  0.9118800E+02  0.7818608E-02  0.1130116E+00
         25   -1    0    0    0    0  0.00000000000E+00  0.00000000000E+00  0.99999998245E-14  0.12500000000E+03  0.12500000000E+03 0.  0.
        -11    1    3    3    0    0 -0.37170080414E+02 -0.11129620836E+02 -0.87499531647E+01  0.39774929523E+02  0.51100000000E-03 0.  1.
         23    2    1    0    0    0  0.10479981676E+02 -0.16149160611E+02 -0.27672270177E+02  0.91289765039E+02  0.84837734881E+02 0.  0.
         11    1    3    3    0    0  0.47650062091E+02 -0.50195397759E+01 -0.18922317012E+02  0.51514835515E+02  0.51100000000E-03 0. -1.
         22    1    1    0    0    0 -0.10479981676E+02  0.16149160611E+02  0.27672270177E+02  0.33710234961E+02  0.00000000000E+00 0. -1.
</event>
<event>
 5    1  0.6622940E-004  0.9118800E+02  0.7818608E-02  0.1130116E+00
         25   -1    0    0    0    0  0.00000000000E+00  0.00000000000E+00  0.99999998245E-14  0.12500000000E+03  0.12500000000E+03 0.  0.
        -11    1    3    3    0    0 -0.46236106212E+01  0.48789840059E+01  0.60342120175E+02  0.60715350017E+02  0.51100000000E-03 0. -1.
         23    2    1    0    0    0 -0.11453603843E+02  0.65534247357E+01  0.25201354179E+02  0.96552844269E+02  0.92267063826E+02 0.  0.
         11    1    3    3    0    0 -0.68299932219E+01  0.16744407298E+01 -0.35140765997E+02  0.35837494252E+02  0.51100000000E-03 0.  1.
         22    1    1    0    0    0  0.11453603843E+02 -0.65534247357E+01 -0.25201354179E+02  0.28447155731E+02  0.00000000000E+00 0. -1.
</event>
<event>
 5    1  0.6622940E-004  0.9118800E+02  0.7818608E-02  0.1130116E+00
         25   -1    0    0    0    0  0.00000000000E+00  0.00000000000E+00  0.99999998245E-14  0.12500000000E+03  0.12500000000E+03 0.  0.
        -11    1    3    3    0    0 -0.58261997321E+00  0.31896680759E+02 -0.28718210096E+00  0.31903293926E+02  0.51100000000E-03 0.  1.
         23    2    1    0    0    0  0.18256956199E+02 -0.25496613562E+02 -0.75505494580E+01  0.92744697337E+02  0.86955013278E+02 0.  0.
         11    1    3    3    0    0  0.18839576172E+02 -0.57393294322E+02 -0.72633673570E+01  0.60841403411E+02  0.51100000000E-03 0. -1.
         22    1    1    0    0    0 -0.18256956199E+02  0.25496613562E+02  0.75505494580E+01  0.32255302663E+02  0.00000000000E+00 0. -1.
</event>
<event>
 5    1  0.6622940E-004  0.9118800E+02  0.7818608E-02  0.1130116E+00
         25   -1    0    0    0    0  0.00000000000E+00  0.00000000000E+00  0.99999998245E-14  0.12500000000E+03  0.12500000000E+03 0.  0.
        -11    1    3    3    0    0 -0.50715929553E+02  0.28998239630E+02  0.15425317978E+02  0.60423040697E+02  0.51100000000E-03 0.  1.
         23    2    1    0    0    0 -0.17290224729E+02  0.19425999000E+02  0.14543294153E+02  0.95203545292E+02  0.90420607845E+02 0.  0.
         11    1    3    3    0    0  0.33425704824E+02 -0.95722406292E+01 -0.88202382553E+00  0.34780504595E+02  0.51100000000E-03 0. -1.
         22    1    1    0    0    0  0.17290224729E+02 -0.19425999000E+02 -0.14543294153E+02  0.29796454708E+02  0.00000000000E+00 0.  1.
</event>
<event>
 5    1  0.6622940E-004  0.9118800E+02  0.7818608E-02  0.1130116E+00
         25   -1    0    0    0    0  0.00000000000E+00  0.00000000000E+00  0.99999998245E-14  0.12500000000E+03  0.12500000000E+03 0.  0.
        -11    1    3    3    0    0 -0.29670589366E+02 -0.46289393210E+01  0.51464644493E+01  0.30467311157E+02  0.51100000000E-03 0. -1.
         23    2    1    0    0    0  0.21097637912E+02 -0.10600220131E+02 -0.25643533532E+02  0.90142205974E+02  0.83129726895E+02 0.  0.
         11    1    3    3    0    0  0.50768227278E+02 -0.59712808105E+01 -0.30789997982E+02  0.59674894817E+02  0.51100000000E-03 0.  1.
         22    1    1    0    0    0 -0.21097637912E+02  0.10600220131E+02  0.25643533532E+02  0.34857794026E+02  0.00000000000E+00 0.  1.
</event>
<event>
 5    1  0.6622940E-004  0.9118800E+02  0.7818608E-02  0.1130116E+00
         25   -1    0    0    0    0  0.00000000000E+00  0.00000000000E+00  0.99999998245E-14  0.12500000000E+03  0.12500000000E+03 0.  0.
        -11    1    3    3    0    0 -0.46068146940E+02  0.21366201633E+02  0.31301322904E+02  0.59653680109E+02  0.51100000000E-03 0.  1.
         23    2    1    0    0    0 -0.13325623914E+02  0.20583686968E+02  0.15211404550E+02  0.96144372295E+02  0.91712011611E+02 0.  0.
         11    1    3    3    0    0  0.32742523026E+02 -0.78251466593E+00 -0.16089918354E+02  0.36490692186E+02  0.51100000000E-03 0. -1.
         22    1    1    0    0    0  0.13325623914E+02 -0.20583686968E+02 -0.15211404550E+02  0.28855627705E+02  0.00000000000E+00 0.  1.
</event>
<event>
 5    1  0.6622940E-004  0.9118800E+02  0.7818608E-02  0.1130116E+00
         25   -1    0    0    0    0  0.00000000000E+00  0.00000000000E+00  0.99999998245E-14  0.12500000000E+03  0.12500000000E+03 0.  0.
        -11    1    3    3    0    0 -0.48679054241E+02  0.15272968192E+01  0.31844329851E+02  0.58189726767E+02  0.51100000000E-03 0.  1.
         23    2    1    0    0    0 -0.25180102010E+02 -0.12816056223E+02  0.56583315287E+01  0.96184977008E+02  0.91767337609E+02 0.  0.
         11    1    3    3    0    0  0.23498952231E+02 -0.14343353042E+02 -0.26185998322E+02  0.37995250240E+02  0.51100000000E-03 0. -1.
         22    1    1    0    0    0  0.25180102010E+02  0.12816056223E+02 -0.56583315287E+01  0.28815022992E+02  0.00000000000E+00 0. -1.
</event>
<event>
 5    1  0.6622940E-004  0.9118800E+02  0.7818608E-02  0.1130116E+00
         25   -1    0    0    0    0  0.00000000000E+00  0.00000000000E+00  0.99999998245E-14  0.12500000000E+03  0.12500000000E+03 0.  0.
        -11    1    3    3    0    0 -0.48224594959E+02 -0.30247753275E+02  0.12590119524E+02  0.58301365739E+02  0.51100000000E-03 0. -1.
         23    2    1    0    0    0 -0.28565954575E+02 -0.13219120518E+02 -0.91732644031E+01  0.92214215155E+02  0.86189058405E+02 0.  0.
         11    1    3    3    0    0  0.19658640383E+02  0.17028632757E+02 -0.21763383928E+02  0.33912849416E+02  0.51100000000E-03 0.  1.
         22    1    1    0    0    0  0.28565954575E+02  0.13219120518E+02  0.91732644031E+01  0.32785784845E+02  0.00000000000E+00 0. -1.
</event>
<event>
 5    1  0.6622940E-004  0.9118800E+02  0.7818608E-02  0.1130116E+00
         25   -1    0    0    0    0  0.00000000000E+00  0.00000000000E+00  0.99999998245E-14  0.12500000000E+03  0.12500000000E+03 0.  0.
        -11    1    3    3    0    0 -0.21620069446E+02  0.54391597993E+02  0.11983337743E+02  0.59745072757E+02  0.51100000000E-03 0. -1.
         23    2    1    0    0    0 -0.66999543288E+01  0.23479787280E+02 -0.78062654628E+01  0.99365500215E+02  0.96001953386E+02 0.  0.
         11    1    3    3    0    0  0.14920115117E+02 -0.30911810713E+02 -0.19789603206E+02  0.39620427458E+02  0.51100000000E-03 0.  1.
         22    1    1    0    0    0  0.66999543288E+01 -0.23479787280E+02  0.78062654628E+01  0.25634499785E+02  0.00000000000E+00 0. -1.
</event>
<event>
 5    1  0.6622940E-004  0.9118800E+02  0.7818608E-02  0.1130116E+00
         25   -1    0    0    0    0  0.00000000000E+00  0.00000000000E+00  0.99999998245E-14  0.12500000000E+03  0.12500000000E+03 0.  0.
        -11    1    3    3    0    0  0.11972678662E+02 -0.12575347784E+02  0.45374733643E+02  0.48583442238E+02  0.51100000000E-03 0.  1.
         23    2    1    0    0    0 -0.23558963948E+02 -0.91607600376E+01  0.14016245773E+02  0.96096722464E+02  0.91647043684E+02 0.  0.
         11    1    3    3    0    0 -0.35531642610E+02  0.34145877465E+01 -0.31358487871E+02  0.47513280226E+02  0.51100000000E-03 0. -1.
         22    1    1    0    0    0  0.23558963948E+02  0.91607600376E+01 -0.14016245773E+02  0.28903277536E+02  0.00000000000E+00 0.  1.
</event>
<event>
 5    1  0.6622940E-004  0.9118800E+02  0.7818608E-02  0.1130116E+00
         25   -1    0    0    0    0  0.00000000000E+00  0.00000000000E+00  0.99999998245E-14  0.12500000000E+03  0.12500000000E+03 0.  0.
        -11    1    3    3    0    0 -0.27212375111E+02 -0.50484127179E+02 -0.19011723330E+01  0.57382705693E+02  0.51100000000E-03 0. -1.
         23    2    1    0    0    0 -0.26040937016E+02 -0.13379206161E+02  0.54320903992E+01  0.95223479648E+02  0.90448161463E+02 0.  0.
         11    1    3    3    0    0  0.11714380950E+01  0.37104921018E+02  0.73332627322E+01  0.37840773955E+02  0.51100000000E-03 0.  1.
         22    1    1    0    0    0  0.26040937016E+02  0.13379206161E+02 -0.54320903992E+01  0.29776520352E+02  0.00000000000E+00 0. -1.
</event>
<event>
 5    1  0.6622940E-004  0.9118800E+02  0.7818608E-02  0.1130116E+00
         25   -1    0    0    0    0  0.00000000000E+00  0.00000000000E+00  0.99999998245E-14  0.12500000000E+03  0.12500000000E+03 0.  0.
        -11    1    3    3    0    0  0.21410238498E+02 -0.23433341763E+02 -0.17110966265E+02  0.36059741895E+02  0.51100000000E-03 0. -1.
         23    2    1    0    0    0 -0.26555230094E+01  0.21857133557E+02  0.16592600299E+02  0.97430080260E+02  0.93447953776E+02 0.  0.
         11    1    3    3    0    0 -0.24065761508E+02  0.45290475320E+02  0.33703566564E+02  0.61370338365E+02  0.51100000000E-03 0.  1.
         22    1    1    0    0    0  0.26555230094E+01 -0.21857133557E+02 -0.16592600299E+02  0.27569919740E+02  0.00000000000E+00 0.  1.
</event>
<event>
 5    1  0.6622940E-004  0.9118800E+02  0.7818608E-02  0.1130116E+00
         25   -1    0    0    0    0  0.00000000000E+00  0.00000000000E+00  0.99999998245E-14  0.12500000000E+03  0.12500000000E+03 0.  0.
        -11    1    3    3    0    0  0.22191563452E+02 -0.26584700507E+02  0.22562187255E+02  0.41331151490E+02  0.51100000000E-03 0. -1.
         23    2    1    0    0    0  0.48324337327E+01 -0.11907981863E+02 -0.26579985235E+02  0.95476313527E+02  0.90796907336E+02 0.  0.
         11    1    3    3    0    0 -0.17359129719E+02  0.14676718644E+02 -0.49142172490E+02  0.54145162038E+02  0.51100000000E-03 0.  1.
         22    1    1    0    0    0 -0.48324337327E+01  0.11907981863E+02  0.26579985235E+02  0.29523686473E+02  0.00000000000E+00 0. -1.
</event>
<event>
 5    1  0.6622940E-004  0.9118800E+02  0.7818608E-02  0.1130116E+00
         25   -1    0    0    0    0  0.00000000000E+00  0.00000000000E+00  0.99999998245E-14  0.12500000000E+03  0.12500000000E+03 0.  0.
        -11    1    3    3    0    0  0.38889336086E+02  0.46054300842E+02 -0.11931810072E+02  0.61447108794E+02  0.51100000000E-03 0. -1.
         23    2    1    0    0    0  0.13821151609E+02  0.27573563049E+02 -0.21919046080E+01  0.94078647234E+02  0.88851909426E+02 0.  0.
         11    1    3    3    0    0 -0.25068184477E+02 -0.18480737793E+02  0.97399054635E+01  0.32631538441E+02  0.51100000000E-03 0.  1.
         22    1    1    0    0    0 -0.13821151609E+02 -0.27573563049E+02  0.21919046080E+01  0.30921352766E+02  0.00000000000E+00 0. -1.
</event>
<event>
 5    1  0.6622940E-004  0.9118800E+02  0.7818608E-02  0.1130116E+00
         25   -1    0    0    0    0  0.00000000000E+00  0.00000000000E+00  0.99999998245E-14  0.12500000000E+03  0.12500000000E+03 0.  0.
        -11    1    3    3    0    0  0.18153443238E+02 -0.42934074182E+02  0.34180940306E+02  0.57803277655E+02  0.51100000000E-03 0. -1.
         23    2    1    0    0    0  0.22536160227E+02 -0.17610782423E+02  0.63165152152E+01  0.95709787646E+02  0.91117763973E+02 0.  0.
         11    1    3    3    0    0  0.43827169887E+01  0.25323291759E+02 -0.27864425091E+02  0.37906509990E+02  0.51100000000E-03 0.  1.
         22    1    1    0    0    0 -0.22536160227E+02  0.17610782423E+02 -0.63165152152E+01  0.29290212354E+02  0.00000000000E+00 0. -1.
</event>
<event>
 5    1  0.6622940E-004  0.9118800E+02  0.7818608E-02  0.1130116E+00
         25   -1    0    0    0    0  0.00000000000E+00  0.00000000000E+00  0.99999998245E-14  0.12500000000E+03  0.12500000000E+03 0.  0.
        -11    1    3    3    0    0  0.38497930111E+02 -0.94711406601E+01  0.45170783878E+02  0.60101521151E+02  0.51100000000E-03 0.  1.
         23    2    1    0    0    0  0.26078153812E+02  0.39424985286E+01  0.17212253147E+02  0.93505952002E+02  0.88042535178E+02 0.  0.
         11    1    3    3    0    0 -0.12419776299E+02  0.13413639189E+02 -0.27958530731E+02  0.33404430851E+02  0.51100000000E-03 0. -1.
         22    1    1    0    0    0 -0.26078153812E+02 -0.39424985286E+01 -0.17212253147E+02  0.31494047998E+02  0.00000000000E+00 0.  1.
</event>
<event>
 5    1  0.6622940E-004  0.9118800E+02  0.7818608E-02  0.1130116E+00
         25   -1    0    0    0    0  0.00000000000E+00  0.00000000000E+00  0.99999998245E-14  0.12500000000E+03  0.12500000000E+03 0.  0.
        -11    1    3    3    0    0 -0.31625723676E+02  0.73687665014E+01  0.33551544163E+02  0.46692517963E+02  0.51100000000E-03 0. -1.
         23    2    1    0    0    0 -0.15603998647E+02  0.23580580605E+02 -0.93042729427E+01  0.95232600879E+02  0.90460766190E+02 0.  0.
         11    1    3    3    0    0  0.16021725029E+02  0.16211814104E+02 -0.42855817105E+02  0.48540082916E+02  0.51100000000E-03 0.  1.
         22    1    1    0    0    0  0.15603998647E+02 -0.23580580605E+02  0.93042729427E+01  0.29767399121E+02  0.00000000000E+00 0.  1.
</event>
<event>
 5    1  0.6622940E-004  0.9118800E+02  0.7818608E-02  0.1130116E+00
         25   -1    0    0    0    0  0.00000000000E+00  0.00000000000E+00  0.99999998245E-14  0.12500000000E+03  0.12500000000E+03 0.  0.
        -11    1    3    3    0    0  0.29012793606E+02 -0.48912830637E+01  0.14981246572E+02  0.33016731999E+02  0.51100000000E-03 0.  1.
         23    2    1    0    0    0 -0.26199516064E+02  0.53613899712E+01 -0.12434718404E+02  0.95507944015E+02  0.90840442556E+02 0.  0.
         11    1    3    3    0    0 -0.55212309670E+02  0.10252673035E+02 -0.27415964976E+02  0.62491212016E+02  0.51100000000E-03 0. -1.
         22    1    1    0    0    0  0.26199516064E+02 -0.53613899712E+01  0.12434718404E+02  0.29492055985E+02  0.00000000000E+00 0. -1.
</event>
<event>
 5    1  0.6622940E-004  0.9118800E+02  0.7818608E-02  0.1130116E+00
         25   -1    0    0    0    0  0.00000000000E+00  0.00000000000E+00  0.99999998245E-14  0.12500000000E+03  0.12500000000E+03 0.  0.
        -11    1    3    3    0    0  0.31902477133E+02  0.62138745124E+01 -0.14104587696E+02  0.35430490795E+02  0.51100000000E-03 0.  1.
         23    2    1    0    0    0 -0.26135430260E+02 -0.10322140597E+02 -0.48976523170E+01  0.96476425546E+02  0.92163476424E+02 0.  0.
         11    1    3    3    0    0 -0.58037907393E+02 -0.16536015109E+02  0.92069353786E+01  0.61045934751E+02  0.51100000000E-03 0. -1.
         22    1    1    0    0    0  0.26135430260E+02  0.10322140597E+02  0.48976523170E+01  0.28523574454E+02  0.00000000000E+00 0. -1.
</event>
<event>
 5    1  0.6622940E-004  0.9118800E+02  0.7818608E-02  0.1130116E+00
         25   -1    0    0    0    0  0.00000000000E+00  0.00000000000E+00  0.99999998245E-14  0.12500000000E+03  0.12500000000E+03 0.  0.
        -11    1    3    3    0    0  0.93308275370E+01  0.19884535602E+02  0.40878043552E+02  0.46405533544E+02  0.51100000000E-03 0.  1.
         23    2    1    0    0    0  0.11470959962E+02 -0.20015277420E+02  0.28700762781E+02  0.88177071860E+02  0.80120334278E+02 0.  0.
         11    1    3    3    0    0  0.21401324247E+01 -0.39899813022E+02 -0.12177280771E+02  0.41771538315E+02  0.51100000000E-03 0. -1.
         22    1    1    0    0    0 -0.11470959962E+02  0.20015277420E+02 -0.28700762781E+02  0.36822928140E+02  0.00000000000E+00 0. -1.
</event>
<event>
 5    1  0.6622940E-004  0.9118800E+02  0.7818608E-02  0.1130116E+00
         25   -1    0    0    0    0  0.00000000000E+00  0.00000000000E+00  0.99999998245E-14  0.12500000000E+03  0.12500000000E+03 0.  0.
        -11    1    3    3    0    0 -0.34187144373E+02 -0.24346615565E+02  0.25854408027E+02  0.49294715179E+02  0.51100000000E-03 0.  1.
         23    2    1    0    0    0 -0.18326588300E+01  0.81451732058E+01  0.28576604628E+02  0.95228792147E+02  0.90455503076E+02 0.  0.
         11    1    3    3    0    0  0.32354485543E+02  0.32491788771E+02  0.27221966009E+01  0.45934076968E+02  0.51100000000E-03 0. -1.
         22    1    1    0    0    0  0.18326588300E+01 -0.81451732058E+01 -0.28576604628E+02  0.29771207853E+02  0.00000000000E+00 0.  1.
</event>
<event>
 5    1  0.6622940E-004  0.9118800E+02  0.7818608E-02  0.1130116E+00
         25   -1    0    0    0    0  0.00000000000E+00  0.00000000000E+00  0.99999998245E-14  0.12500000000E+03  0.12500000000E+03 0.  0.
        -11    1    3    3    0    0  0.20915575001E+02 -0.50897962133E+02 -0.12808650060E+02  0.56498896835E+02  0.51100000000E-03 0.  1.
         23    2    1    0    0    0 -0.95676230318E+01 -0.26705223884E+02 -0.48534310158E+01  0.96220420681E+02  0.91815604176E+02 0.  0.
         11    1    3    3    0    0 -0.30483198033E+02  0.24192738250E+02  0.79552190445E+01  0.39721523846E+02  0.51100000000E-03 0. -1.
         22    1    1    0    0    0  0.95676230318E+01  0.26705223884E+02  0.48534310158E+01  0.28779579319E+02  0.00000000000E+00 0.  1.
</event>
<event>
 5    1  0.6622940E-004  0.9118800E+02  0.7818608E-02  0.1130116E+00
         25   -1    0    0    0    0  0.00000000000E+00  0.00000000000E+00  0.99999998245E-14  0.12500000000E+03  0.12500000000E+03 0.  0.
        -11    1    3    3    0    0 -0.14595362257E+02 -0.29696578783E+02 -0.87185692262E+01  0.34218779061E+02  0.51100000000E-03 0.  1.
         23    2    1    0    0    0 -0.73468426410E+01  0.28332432279E+02  0.72623407816E+01  0.94843003975E+02  0.89920804010E+02 0.  0.
         11    1    3    3    0    0  0.72485196158E+01  0.58029011062E+02  0.15980910008E+02  0.60624224914E+02  0.51100000000E-03 0. -1.
         22    1    1    0    0    0  0.73468426410E+01 -0.28332432279E+02 -0.72623407816E+01  0.30156996025E+02  0.00000000000E+00 0. -1.
</event>
<event>
 5    1  0.6622940E-004  0.9118800E+02  0.7818608E-02  0.1130116E+00
         25   -1    0    0    0    0  0.00000000000E+00  0.00000000000E+00  0.99999998245E-14  0.12500000000E+03  0.12500000000E+03 0.  0.
        -11    1    3    3    0    0 -0.45906651170E+02  0.23669676760E+02 -0.34505570976E+01  0.51764665208E+02  0.51100000000E-03 0.  1.
         23    2    1    0    0    0 -0.14941852959E+02 -0.15652937609E+01  0.21432586662E+02  0.98826255801E+02  0.95297239992E+02 0.  0.
         11    1    3    3    0    0  0.30964798212E+02 -0.25234970521E+02  0.24883143759E+02  0.47061590592E+02  0.51100000000E-03 0. -1.
         22    1    1    0    0    0  0.14941852959E+02  0.15652937609E+01 -0.21432586662E+02  0.26173744199E+02  0.00000000000E+00 0. -1.
</event>
<event>
 5    1  0.6622940E-004  0.9118800E+02  0.7818608E-02  0.1130116E+00
         25   -1    0    0    0    0  0.00000000000E+00  0.00000000000E+00  0.99999998245E-14  0.12500000000E+03  0.12500000000E+03 0.  0.
        -11    1    3    3    0    0  0.21141110712E+02  0.27795222510E+02 -0.52221280183E+01  0.35309935964E+02  0.51100000000E-03 0. -1.
         23    2    1    0    0    0 -0.16429873872E+02 -0.11703050457E+02  0.21068546894E+02  0.95831767046E+02  0.91284948165E+02 0.  0.
         11    1    3    3    0    0 -0.37570984583E+02 -0.39498272967E+02  0.26290674912E+02  0.60521831082E+02  0.51100000000E-03 0.  1.
         22    1    1    0    0    0  0.16429873872E+02  0.11703050457E+02 -0.21068546894E+02  0.29168232954E+02  0.00000000000E+00 0.  1.
</event>
<event>
 5    1  0.6622940E-004  0.9118800E+02  0.7818608E-02  0.1130116E+00
         25   -1    0    0    0    0  0.00000000000E+00  0.00000000000E+00  0.99999998245E-14  0.12500000000E+03  0.12500000000E+03 0.  0.
        -11    1    3    3    0    0 -0.23950404869E+02 -0.28932563644E+02  0.20770521717E+02  0.42920038502E+02  0.51100000000E-03 0.  1.
         23    2    1    0    0    0  0.17343413447E+02  0.34209284995E+01  0.23668207852E+02  0.95458828650E+02  0.90772832734E+02 0.  0.
         11    1    3    3    0    0  0.41293818316E+02  0.32353492144E+02  0.28976861350E+01  0.52538790148E+02  0.51100000000E-03 0. -1.
         22    1    1    0    0    0 -0.17343413447E+02 -0.34209284995E+01 -0.23668207852E+02  0.29541171350E+02  0.00000000000E+00 0.  1.
</event>
<event>
 5    1  0.6622940E-004  0.9118800E+02  0.7818608E-02  0.1130116E+00
         25   -1    0    0    0    0  0.00000000000E+00  0.00000000000E+00  0.99999998245E-14  0.12500000000E+03  0.12500000000E+03 0.  0.
        -11    1    3    3    0    0 -0.35700820006E+02  0.46604404951E+02  0.10976000808E+02  0.59724297433E+02  0.51100000000E-03 0.  1.
         23    2    1    0    0    0 -0.22620125067E+02  0.23558686635E+02 -0.68079331056E+01  0.91637899838E+02  0.85349135670E+02 0.  0.
         11    1    3    3    0    0  0.13080694940E+02 -0.23045718315E+02 -0.17783933913E+02  0.31913602405E+02  0.51100000000E-03 0. -1.
         22    1    1    0    0    0  0.22620125067E+02 -0.23558686635E+02  0.68079331056E+01  0.33362100162E+02  0.00000000000E+00 0.  1.
</event>
<event>
 5    1  0.6622940E-004  0.9118800E+02  0.7818608E-02  0.1130116E+00
         25   -1    0    0    0    0  0.00000000000E+00  0.00000000000E+00  0.99999998245E-14  0.12500000000E+03  0.12500000000E+03 0.  0.
        -11    1    3    3    0    0 -0.26582518108E+02  0.27831411743E+02  0.64009865788E+01  0.39015258272E+02  0.51100000000E-03 0.  1.
         23    2    1    0    0    0 -0.26158672069E+01 -0.97887934200E+01 -0.27920991785E+02  0.95297390348E+02  0.90550248962E+02 0.  0.
         11    1    3    3    0    0  0.23966650901E+02 -0.37620205163E+02 -0.34321978364E+02  0.56282132076E+02  0.51100000000E-03 0. -1.
         22    1    1    0    0    0  0.26158672069E+01  0.97887934200E+01  0.27920991785E+02  0.29702609652E+02  0.00000000000E+00 0. -1.
</event>
<event>
 5    1  0.6622940E-004  0.9118800E+02  0.7818608E-02  0.1130116E+00
         25   -1    0    0    0    0  0.00000000000E+00  0.00000000000E+00  0.99999998245E-14  0.12500000000E+03  0.12500000000E+03 0.  0.
        -11    1    3    3    0    0 -0.34567052692E+00  0.51534537513E+02  0.25208353781E+02  0.57370629641E+02  0.51100000000E-03 0. -1.
         23    2    1    0    0    0  0.15055646885E+02  0.20320326432E+02  0.20399055120E+02  0.92508314614E+02  0.86614540659E+02 0.  0.
         11    1    3    3    0    0  0.15401317412E+02 -0.31214211081E+02 -0.48092986609E+01  0.35137684973E+02  0.51100000000E-03 0.  1.
         22    1    1    0    0    0 -0.15055646885E+02 -0.20320326432E+02 -0.20399055120E+02  0.32491685386E+02  0.00000000000E+00 0. -1.
</event>
<event>
 5    1  0.6622940E-004  0.9118800E+02  0.7818608E-02  0.1130116E+00
         25   -1    0    0    0    0  0.00000000000E+00  0.00000000000E+00  0.99999998245E-14  0.12500000000E+03  0.12500000000E+03 0.  0.
        -11    1    3    3    0    0 -0.38628255585E+02  0.14978709042E+02  0.32194408330E+02  0.52468883942E+02  0.51100000000E-03 0.  1.
         23    2    1    0    0    0  0.47683914106E+01  0.13746188795E+02  0.24420677059E+02  0.96573520600E+02  0.92295071104E+02 0.  0.
         11    1    3    3    0    0  0.43396646996E+02 -0.12325202466E+01 -0.77737312711E+01  0.44104636659E+02  0.51100000000E-03 0. -1.
         22    1    1    0    0    0 -0.47683914106E+01 -0.13746188795E+02 -0.24420677059E+02  0.28426479400E+02  0.00000000000E+00 0.  1.
</event>
<event>
 5    1  0.6622940E-004  0.9118800E+02  0.7818608E-02  0.1130116E+00
         25   -1    0    0    0    0  0.00000000000E+00  0.00000000000E+00  0.99999998245E-14  0.12500000000E+03  0.12500000000E+03 0.  0.
        -11    1    3    3    0    0  0.20420675148E+02  0.31325077367E+02 -0.25737028647E+01  0.37481840834E+02  0.51100000000E-03 0.  1.
         23    2    1    0    0    0  0.43603487074E+02 -0.54852526399E+01 -0.12975187718E+00  0.81052657451E+02  0.68104070090E+02 0.  0.
         11    1    3    3    0    0  0.23182811926E+02 -0.36810330007E+02  0.24439509875E+01  0.43570816618E+02  0.51100000000E-03 0. -1.
         22    1    1    0    0    0 -0.43603487074E+02  0.54852526399E+01  0.12975187718E+00  0.43947342549E+02  0.00000000000E+00 0.  1.
</event>
<event>
 5    1  0.6622940E-004  0.9118800E+02  0.7818608E-02  0.1130116E+00
         25   -1    0    0    0    0  0.00000000000E+00  0.00000000000E+00  0.99999998245E-14  0.12500000000E+03  0.12500000000E+03 0.  0.
        -11    1    3    3    0    0 -0.18980558760E+02  0.33632070964E+02 -0.18607986826E+02  0.42867644934E+02  0.51100000000E-03 0.  1.
         23    2    1    0    0    0 -0.16710902162E+02  0.48641966636E+01  0.24624093463E+02  0.94846051020E+02  0.89925039644E+02 0.  0.
         11    1    3    3    0    0  0.22696565978E+01 -0.28767874301E+02  0.43232080289E+02  0.51978406086E+02  0.51100000000E-03 0. -1.
         22    1    1    0    0    0  0.16710902162E+02 -0.48641966636E+01 -0.24624093463E+02  0.30153948980E+02  0.00000000000E+00 0.  1.
</event>
<event>
 5    1  0.6622940E-004  0.9118800E+02  0.7818608E-02  0.1130116E+00
         25   -1    0    0    0    0  0.00000000000E+00  0.00000000000E+00  0.99999998245E-14  0.12500000000E+03  0.12500000000E+03 0.  0.
        -11    1    3    3    0    0 -0.18842087257E+02  0.10566430501E+02  0.82182562039E+01  0.23113057804E+02  0.51100000000E-03 0. -1.
         23    2    1    0    0    0  0.32946971358E+02  0.16058863752E+02  0.28055477759E+02  0.78842661916E+02  0.63919210564E+02 0.  0.
         11    1    3    3    0    0  0.51789058615E+02  0.54924332512E+01  0.19837221556E+02  0.55729604113E+02  0.51100000000E-03 0.  1.
         22    1    1    0    0    0 -0.32946971358E+02 -0.16058863752E+02 -0.28055477759E+02  0.46157338084E+02  0.00000000000E+00 0.  1.
</event>
<event>
 5    1  0.6622940E-004  0.9118800E+02  0.7818608E-02  0.1130116E+00
         25   -1    0    0    0    0  0.00000000000E+00  0.00000000000E+00  0.99999998245E-14  0.12500000000E+03  0.12500000000E+03 0.  0.
        -11    1    3    3    0    0  0.31990993756E+02 -0.43170866440E+01 -0.18776546922E+02  0.37344606480E+02  0.51100000000E-03 0. -1.
         23    2    1    0    0    0 -0.13295736445E+02  0.25457948482E+02  0.37454668117E+01  0.96036017708E+02  0.91564209313E+02 0.  0.
         11    1    3    3    0    0 -0.45286730202E+02  0.29775035126E+02  0.22522013733E+02  0.58691411228E+02  0.51100000000E-03 0.  1.
         22    1    1    0    0    0  0.13295736445E+02 -0.25457948482E+02 -0.37454668117E+01  0.28963982292E+02  0.00000000000E+00 0.  1.
</event>
<event>
 5    1  0.6622940E-004  0.9118800E+02  0.7818608E-02  0.1130116E+00
         25   -1    0    0    0    0  0.00000000000E+00  0.00000000000E+00  0.99999998245E-14  0.12500000000E+03  0.12500000000E+03 0.  0.
        -11    1    3    3    0    0  0.42050460840E+02  0.43824364611E+02  0.11923923772E+02  0.61895041392E+02  0.51100000000E-03 0.  1.
         23    2    1    0    0    0  0.23730237225E+02  0.15894598699E+02  0.58752454235E+01  0.95840422923E+02  0.91296800222E+02 0.  0.
         11    1    3    3    0    0 -0.18320223616E+02 -0.27929765913E+02 -0.60486783488E+01  0.33945381531E+02  0.51100000000E-03 0. -1.
         22    1    1    0    0    0 -0.23730237225E+02 -0.15894598699E+02 -0.58752454235E+01  0.29159577077E+02  0.00000000000E+00 0.  1.
</event>
<event>
 5    1  0.6622940E-004  0.9118800E+02  0.7818608E-02  0.1130116E+00
         25   -1    0    0    0    0  0.00000000000E+00  0.00000000000E+00  0.99999998245E-14  0.12500000000E+03  0.12500000000E+03 0.  0.
        -11    1    3    3    0    0  0.13201553816E+02 -0.45646767492E+02 -0.23684843167E+02  0.53093127632E+02  0.51100000000E-03 0. -1.
         23    2    1    0    0    0 -0.14318842575E+02 -0.25550369073E+02  0.18151883331E+01  0.95654718928E+02  0.91042186552E+02 0.  0.
         11    1    3    3    0    0 -0.27520396392E+02  0.20096398418E+02  0.25500031500E+02  0.42561591297E+02  0.51100000000E-03 0.  1.
         22    1    1    0    0    0  0.14318842575E+02  0.25550369073E+02 -0.18151883331E+01  0.29345281072E+02  0.00000000000E+00 0. -1.
</event>
<event>
 5    1  0.6622940E-004  0.9118800E+02  0.7818608E-02  0.1130116E+00
         25   -1    0    0    0    0  0.00000000000E+00  0.00000000000E+00  0.99999998245E-14  0.12500000000E+03  0.12500000000E+03 0.  0.
        -11    1    3    3    0    0  0.10530433919E+01  0.29932711057E+02 -0.34497402297E+02  0.45685302419E+02  0.51100000000E-03 0. -1.
         23    2    1    0    0    0 -0.17446045120E+02 -0.14166862911E+02 -0.17773080180E+02  0.96347829504E+02  0.91988898112E+02 0.  0.
         11    1    3    3    0    0 -0.18499088512E+02 -0.44099573969E+02  0.16724322118E+02  0.50662527084E+02  0.51100000000E-03 0.  1.
         22    1    1    0    0    0  0.17446045120E+02  0.14166862911E+02  0.17773080180E+02  0.28652170496E+02  0.00000000000E+00 0.  1.
</event>
<event>
 5    1  0.6622940E-004  0.9118800E+02  0.7818608E-02  0.1130116E+00
         25   -1    0    0    0    0  0.00000000000E+00  0.00000000000E+00  0.99999998245E-14  0.12500000000E+03  0.12500000000E+03 0.  0.
        -11    1    3    3    0    0 -0.45154111895E+01 -0.22651065869E+02  0.18651479237E+02  0.29687327283E+02  0.51100000000E-03 0. -1.
         23    2    1    0    0    0 -0.28202548131E+02  0.27598104992E+01 -0.26191857820E+02  0.86412259834E+02  0.77317947196E+02 0.  0.
         11    1    3    3    0    0 -0.23687136941E+02  0.25410876368E+02 -0.44843337057E+02  0.56724932551E+02  0.51100000000E-03 0.  1.
         22    1    1    0    0    0  0.28202548131E+02 -0.27598104992E+01  0.26191857820E+02  0.38587740166E+02  0.00000000000E+00 0.  1.
</event>
<event>
 5    1  0.6622940E-004  0.9118800E+02  0.7818608E-02  0.1130116E+00
         25   -1    0    0    0    0  0.00000000000E+00  0.00000000000E+00  0.99999998245E-14  0.12500000000E+03  0.12500000000E+03 0.  0.
        -11    1    3    3    0    0  0.39309062563E+02  0.22870734654E+02 -0.10396280064E+01  0.45490149811E+02  0.51100000000E-03 0. -1.
         23    2    1    0    0    0 -0.11177861659E+02  0.25225838357E+02  0.66627230236E+01  0.96615507928E+02  0.92351919212E+02 0.  0.
         11    1    3    3    0    0 -0.50486924223E+02  0.23551037027E+01  0.77023510300E+01  0.51125358117E+02  0.51100000000E-03 0.  1.
         22    1    1    0    0    0  0.11177861659E+02 -0.25225838357E+02 -0.66627230236E+01  0.28384492072E+02  0.00000000000E+00 0.  1.
</event>
<event>
 5    1  0.6622940E-004  0.9118800E+02  0.7818608E-02  0.1130116E+00
         25   -1    0    0    0    0  0.00000000000E+00  0.00000000000E+00  0.99999998245E-14  0.12500000000E+03  0.12500000000E+03 0.  0.
        -11    1    3    3    0    0 -0.43793600742E+02  0.21751002892E+02 -0.22181034837E+02  0.53693425105E+02  0.51100000000E-03 0. -1.
         23    2    1    0    0    0 -0.10859007110E+02  0.26715537051E+02  0.37699443904E+01  0.95916492027E+02  0.91400891717E+02 0.  0.
         11    1    3    3    0    0  0.32934593632E+02  0.49645341590E+01  0.25950979228E+02  0.42223066922E+02  0.51100000000E-03 0.  1.
         22    1    1    0    0    0  0.10859007110E+02 -0.26715537051E+02 -0.37699443904E+01  0.29083507973E+02  0.00000000000E+00 0. -1.
</event>
