<event>
 4    1  0.9957587E-003  0.9118800E+02  0.7818608E-02  0.1130116E+00
         25   -1    0    0    0    0  0.00000000000E+00  0.00000000000E+00  0.99999998245E-14  0.12500000000E+03  0.12500000000E+03 0.  0.
        -13    1    1    0    0    0 -0.40809337479E+02 -0.28311348063E+02  0.77490093509E+01  0.50269202943E+02  0.10566000000E+00 0. -1.
         13    1    1    0    0    0 -0.88545440016E+01 -0.74830853233E+01 -0.69292758050E+01  0.13506500015E+02  0.10566000000E+00 0.  1.
         22    1    1    0    0    0  0.49663881481E+02  0.35794433386E+02 -0.81973354595E+00  0.61224297042E+02  0.00000000000E+00 0. -1.
</event>
<event>
 4    1  0.9957587E-003  0.9118800E+02  0.7818608E-02  0.1130116E+00
         25   -1    0    0    0    0  0.00000000000E+00  0.00000000000E+00  0.99999998245E-14  0.12500000000E+03  0.12500000000E+03 0.  0.
        -13    1    1    0    0    0  0.40135883679E+01  0.64110252736E+00 -0.33061800912E+01  0.52404097997E+01  0.10566000000E+00 0. -1.
         13    1    1    0    0    0  0.43126063903E+02  0.93232380893E+01 -0.36499169166E+02  0.57262384426E+02  0.10566000000E+00 0.  1.
         22    1    1    0    0    0 -0.47139652271E+02 -0.99643406167E+01  0.39805349257E+02  0.62497205775E+02  0.00000000000E+00 0.  1.
</event>
<event>
 4    1  0.9957587E-003  0.9118800E+02  0.7818608E-02  0.1130116E+00
         25   -1    0    0    0    0  0.00000000000E+00  0.00000000000E+00  0.99999998245E-14  0.12500000000E+03  0.12500000000E+03 0.  0.
        -13    1    1    0    0    0  0.39694996512E+00  0.35333503127E+00 -0.34513760012E+02  0.34518012821E+02  0.10566000000E+00 0. -1.
         13    1    1    0    0    0 -0.86696003388E+01  0.37309929649E+01 -0.26833318600E+02  0.28445042269E+02  0.10566000000E+00 0.  1.
         22    1    1    0    0    0  0.82726503737E+01 -0.40843279962E+01  0.61347078613E+02  0.62036944910E+02  0.00000000000E+00 0. -1.
</event>
<event>
 4    1  0.9957587E-003  0.9118800E+02  0.7818608E-02  0.1130116E+00
         25   -1    0    0    0    0  0.00000000000E+00  0.00000000000E+00  0.99999998245E-14  0.12500000000E+03  0.12500000000E+03 0.  0.
        -13    1    1    0    0    0 -0.54536252664E+01  0.42624325801E+02  0.26441742560E+02  0.50455446606E+02  0.10566000000E+00 0.  1.
         13    1    1    0    0    0 -0.76387447045E+00  0.10461146000E+02  0.59375462876E+01  0.12053410297E+02  0.10566000000E+00 0. -1.
         22    1    1    0    0    0  0.62174997369E+01 -0.53085471801E+02 -0.32379288848E+02  0.62491143097E+02  0.00000000000E+00 0.  1.
</event>
<event>
 4    1  0.9957587E-003  0.9118800E+02  0.7818608E-02  0.1130116E+00
         25   -1    0    0    0    0  0.00000000000E+00  0.00000000000E+00  0.99999998245E-14  0.12500000000E+03  0.12500000000E+03 0.  0.
        -13    1    1    0    0    0  0.11122578655E+02 -0.79581279126E+01 -0.10542471463E+02  0.17268422754E+02  0.10566000000E+00 0. -1.
         13    1    1    0    0    0  0.35244599509E+02  0.61423775746E+01 -0.29554591319E+02  0.46404694039E+02  0.10566000000E+00 0.  1.
         22    1    1    0    0    0 -0.46367178164E+02  0.18157503380E+01  0.40097062782E+02  0.61326883207E+02  0.00000000000E+00 0.  1.
</event>
<event>
 4    1  0.9957587E-003  0.9118800E+02  0.7818608E-02  0.1130116E+00
         25   -1    0    0    0    0  0.00000000000E+00  0.00000000000E+00  0.99999998245E-14  0.12500000000E+03  0.12500000000E+03 0.  0.
        -13    1    1    0    0    0  0.24361559013E+02 -0.53453377128E+01 -0.46442848393E+01  0.25370036234E+02  0.10566000000E+00 0. -1.
         13    1    1    0    0    0  0.35791971355E+02 -0.71226597820E+01 -0.68515210732E+01  0.37131549940E+02  0.10566000000E+00 0.  1.
         22    1    1    0    0    0 -0.60153530368E+02  0.12467997495E+02  0.11495805912E+02  0.62498413827E+02  0.00000000000E+00 0.  1.
</event>
<event>
 4    1  0.9957587E-003  0.9118800E+02  0.7818608E-02  0.1130116E+00
         25   -1    0    0    0    0  0.00000000000E+00  0.00000000000E+00  0.99999998245E-14  0.12500000000E+03  0.12500000000E+03 0.  0.
        -13    1    1    0    0    0  0.47522001880E+01 -0.10060134359E+02 -0.25299688368E+02  0.27638290567E+02  0.10566000000E+00 0.  1.
         13    1    1    0    0    0 -0.39004011786E+02 -0.23863002978E+02  0.10250484799E+02  0.46859784988E+02  0.10566000000E+00 0. -1.
         22    1    1    0    0    0  0.34251811598E+02  0.33923137337E+02  0.15049203569E+02  0.50501924444E+02  0.00000000000E+00 0.  1.
</event>
<event>
 4    1  0.9957587E-003  0.9118800E+02  0.7818608E-02  0.1130116E+00
         25   -1    0    0    0    0  0.00000000000E+00  0.00000000000E+00  0.99999998245E-14  0.12500000000E+03  0.12500000000E+03 0.  0.
        -13    1    1    0    0    0  0.13987105944E+02  0.84119615842E+00 -0.34886482677E+02  0.37595539380E+02  0.10566000000E+00 0.  1.
         13    1    1    0    0    0  0.27708295912E+01  0.61197328161E+01 -0.24449464157E+02  0.25355790028E+02  0.10566000000E+00 0. -1.
         22    1    1    0    0    0 -0.16757935535E+02 -0.69609289745E+01  0.59335946834E+02  0.62048670592E+02  0.00000000000E+00 0.  1.
</event>
<event>
 4    1  0.9957587E-003  0.9118800E+02  0.7818608E-02  0.1130116E+00
         25   -1    0    0    0    0  0.00000000000E+00  0.00000000000E+00  0.99999998245E-14  0.12500000000E+03  0.12500000000E+03 0.  0.
        -13    1    1    0    0    0 -0.17084417820E+02  0.17736241547E+02  0.38346846801E+02  0.45573494710E+02  0.10566000000E+00 0. -1.
         13    1    1    0    0    0 -0.36150513575E+01  0.19619864176E+02 -0.29816274243E+02  0.35875186973E+02  0.10566000000E+00 0.  1.
         22    1    1    0    0    0  0.20699469178E+02 -0.37356105722E+02 -0.85305725579E+01  0.43551318317E+02  0.00000000000E+00 0. -1.
</event>
<event>
 4    1  0.9957587E-003  0.9118800E+02  0.7818608E-02  0.1130116E+00
         25   -1    0    0    0    0  0.00000000000E+00  0.00000000000E+00  0.99999998245E-14  0.12500000000E+03  0.12500000000E+03 0.  0.
        -13    1    1    0    0    0  0.10084143857E+02  0.15306474357E+02 -0.69212939625E+01  0.19593202616E+02  0.10566000000E+00 0. -1.
         13    1    1    0    0    0  0.21905342848E+02  0.35754154977E+02 -0.94205027485E+01  0.42976280428E+02  0.10566000000E+00 0.  1.
         22    1    1    0    0    0 -0.31989486705E+02 -0.51060629334E+02  0.16341796711E+02  0.62430516956E+02  0.00000000000E+00 0.  1.
</event>
<event>
 4    1  0.9957587E-003  0.9118800E+02  0.7818608E-02  0.1130116E+00
         25   -1    0    0    0    0  0.00000000000E+00  0.00000000000E+00  0.99999998245E-14  0.12500000000E+03  0.12500000000E+03 0.  0.
        -13    1    1    0    0    0  0.20358322928E+02 -0.26998525700E+01  0.10768224378E+02  0.23188711405E+02  0.10566000000E+00 0. -1.
         13    1    1    0    0    0  0.36596510759E+02 -0.19531440232E+01  0.14391547814E+02  0.39373178483E+02  0.10566000000E+00 0.  1.
         22    1    1    0    0    0 -0.56954833687E+02  0.46529965932E+01 -0.25159772193E+02  0.62438110112E+02  0.00000000000E+00 0.  1.
</event>
<event>
 4    1  0.9957587E-003  0.9118800E+02  0.7818608E-02  0.1130116E+00
         25   -1    0    0    0    0  0.00000000000E+00  0.00000000000E+00  0.99999998245E-14  0.12500000000E+03  0.12500000000E+03 0.  0.
        -13    1    1    0    0    0  0.38704034960E+01  0.38210304314E+01 -0.33502090386E+01  0.63886901175E+01  0.10566000000E+00 0.  1.
         13    1    1    0    0    0 -0.35006490634E+02  0.47191301879E+02  0.76503389300E-01  0.58757896290E+02  0.10566000000E+00 0. -1.
         22    1    1    0    0    0  0.31136087138E+02 -0.51012332311E+02  0.32737056493E+01  0.59853413593E+02  0.00000000000E+00 0. -1.
</event>
<event>
 4    1  0.9957587E-003  0.9118800E+02  0.7818608E-02  0.1130116E+00
         25   -1    0    0    0    0  0.00000000000E+00  0.00000000000E+00  0.99999998245E-14  0.12500000000E+03  0.12500000000E+03 0.  0.
        -13    1    1    0    0    0  0.27525930328E+01 -0.74161740733E+01  0.68927547031E+00  0.79412008537E+01  0.10566000000E+00 0. -1.
         13    1    1    0    0    0  0.19619433366E+02 -0.38996966403E+02 -0.34320728819E+02  0.55530254321E+02  0.10566000000E+00 0.  1.
         22    1    1    0    0    0 -0.22372026399E+02  0.46413140476E+02  0.33631453349E+02  0.61528544826E+02  0.00000000000E+00 0.  1.
</event>
<event>
 4    1  0.9957587E-003  0.9118800E+02  0.7818608E-02  0.1130116E+00
         25   -1    0    0    0    0  0.00000000000E+00  0.00000000000E+00  0.99999998245E-14  0.12500000000E+03  0.12500000000E+03 0.  0.
        -13    1    1    0    0    0 -0.32805732588E+01 -0.43066727054E+01  0.45457344631E+00  0.54339112756E+01  0.10566000000E+00 0. -1.
         13    1    1    0    0    0 -0.38194412661E+02 -0.38860915526E+02  0.17225710195E+02  0.57146479943E+02  0.10566000000E+00 0.  1.
         22    1    1    0    0    0  0.41474985920E+02  0.43167588232E+02 -0.17680283641E+02  0.62419608782E+02  0.00000000000E+00 0.  1.
</event>
<event>
 4    1  0.9957587E-003  0.9118800E+02  0.7818608E-02  0.1130116E+00
         25   -1    0    0    0    0  0.00000000000E+00  0.00000000000E+00  0.99999998245E-14  0.12500000000E+03  0.12500000000E+03 0.  0.
        -13    1    1    0    0    0 -0.85150726286E+01 -0.31493295401E+01 -0.99704938070E+00  0.91340029519E+01  0.10566000000E+00 0. -1.
         13    1    1    0    0    0 -0.25081551764E+01 -0.48446758896E+02  0.28606576282E+02  0.56318084667E+02  0.10566000000E+00 0.  1.
         22    1    1    0    0    0  0.11023227805E+02  0.51596088436E+02 -0.27609526902E+02  0.59547912381E+02  0.00000000000E+00 0.  1.
</event>
<event>
 4    1  0.9957587E-003  0.9118800E+02  0.7818608E-02  0.1130116E+00
         25   -1    0    0    0    0  0.00000000000E+00  0.00000000000E+00  0.99999998245E-14  0.12500000000E+03  0.12500000000E+03 0.  0.
        -13    1    1    0    0    0  0.10273057525E+02 -0.17867498253E+02 -0.47969284588E+02  0.52209641185E+02  0.10566000000E+00 0. -1.
         13    1    1    0    0    0  0.13231901875E+01 -0.34152196059E+01 -0.96278440265E+01  0.10301509689E+02  0.10566000000E+00 0.  1.
         22    1    1    0    0    0 -0.11596247713E+02  0.21282717859E+02  0.57597128615E+02  0.62488849126E+02  0.00000000000E+00 0. -1.
</event>
<event>
 4    1  0.9957587E-003  0.9118800E+02  0.7818608E-02  0.1130116E+00
         25   -1    0    0    0    0  0.00000000000E+00  0.00000000000E+00  0.99999998245E-14  0.12500000000E+03  0.12500000000E+03 0.  0.
        -13    1    1    0    0    0 -0.35612836879E+02  0.61803968937E+01  0.38820908479E+02  0.53042865265E+02  0.10566000000E+00 0. -1.
         13    1    1    0    0    0 -0.80049692119E+01  0.19753494331E+01  0.49586688095E+01  0.96219071844E+01  0.10566000000E+00 0.  1.
         22    1    1    0    0    0  0.43617806091E+02 -0.81557463268E+01 -0.43779577288E+02  0.62335227551E+02  0.00000000000E+00 0. -1.
</event>
<event>
 4    1  0.9957587E-003  0.9118800E+02  0.7818608E-02  0.1130116E+00
         25   -1    0    0    0    0  0.00000000000E+00  0.00000000000E+00  0.99999998245E-14  0.12500000000E+03  0.12500000000E+03 0.  0.
        -13    1    1    0    0    0  0.11612759175E+02  0.50235913087E+02 -0.21212217655E+02  0.55753676841E+02  0.10566000000E+00 0. -1.
         13    1    1    0    0    0  0.12926064588E+01  0.59004402840E+01 -0.30223139377E+01  0.67551145494E+01  0.10566000000E+00 0.  1.
         22    1    1    0    0    0 -0.12905365634E+02 -0.56136353371E+02  0.24234531593E+02  0.62491208610E+02  0.00000000000E+00 0. -1.
</event>
<event>
 4    1  0.9957587E-003  0.9118800E+02  0.7818608E-02  0.1130116E+00
         25   -1    0    0    0    0  0.00000000000E+00  0.00000000000E+00  0.99999998245E-14  0.12500000000E+03  0.12500000000E+03 0.  0.
        -13    1    1    0    0    0  0.18944712341E+02  0.10137119193E+02 -0.60660532745E+01  0.22326474814E+02  0.10566000000E+00 0.  1.
         13    1    1    0    0    0  0.34251143703E+02  0.18192154558E+02 -0.10481411381E+02  0.40174201685E+02  0.10566000000E+00 0.  1.
         22    1    1    0    0    0 -0.53195856045E+02 -0.28329273751E+02  0.16547464656E+02  0.62499323501E+02  0.00000000000E+00 0.  1.
</event>
<event>
 4    1  0.9957587E-003  0.9118800E+02  0.7818608E-02  0.1130116E+00
         25   -1    0    0    0    0  0.00000000000E+00  0.00000000000E+00  0.99999998245E-14  0.12500000000E+03  0.12500000000E+03 0.  0.
        -13    1    1    0    0    0 -0.20695534491E+01  0.53195451264E+01 -0.56196189189E+02  0.56485426928E+02  0.10566000000E+00 0.  1.
         13    1    1    0    0    0 -0.35784127040E+01  0.26048123943E+01 -0.49256527490E+01  0.66229377265E+01  0.10566000000E+00 0. -1.
         22    1    1    0    0    0  0.56479661531E+01 -0.79243575208E+01  0.61121841938E+02  0.61891635345E+02  0.00000000000E+00 0.  1.
</event>
<event>
 4    1  0.9957587E-003  0.9118800E+02  0.7818608E-02  0.1130116E+00
         25   -1    0    0    0    0  0.00000000000E+00  0.00000000000E+00  0.99999998245E-14  0.12500000000E+03  0.12500000000E+03 0.  0.
        -13    1    1    0    0    0  0.28296743132E+02 -0.88423044034E+01 -0.15022588195E+02  0.33235242427E+02  0.10566000000E+00 0.  1.
         13    1    1    0    0    0  0.24715140806E+02 -0.82051405773E+01 -0.13353821288E+02  0.29265990911E+02  0.10566000000E+00 0. -1.
         22    1    1    0    0    0 -0.53011883939E+02  0.17047444981E+02  0.28376409483E+02  0.62498766662E+02  0.00000000000E+00 0.  1.
</event>
<event>
 4    1  0.9957587E-003  0.9118800E+02  0.7818608E-02  0.1130116E+00
         25   -1    0    0    0    0  0.00000000000E+00  0.00000000000E+00  0.99999998245E-14  0.12500000000E+03  0.12500000000E+03 0.  0.
        -13    1    1    0    0    0 -0.17741763626E+02 -0.21678679363E+02  0.66375727690E+01  0.28788953641E+02  0.10566000000E+00 0.  1.
         13    1    1    0    0    0 -0.87038852149E+01 -0.25761639868E+02  0.21846853860E+02  0.34881454874E+02  0.10566000000E+00 0. -1.
         22    1    1    0    0    0  0.26445648841E+02  0.47440319230E+02 -0.28484426629E+02  0.61329591485E+02  0.00000000000E+00 0. -1.
</event>
<event>
 4    1  0.9957587E-003  0.9118800E+02  0.7818608E-02  0.1130116E+00
         25   -1    0    0    0    0  0.00000000000E+00  0.00000000000E+00  0.99999998245E-14  0.12500000000E+03  0.12500000000E+03 0.  0.
        -13    1    1    0    0    0 -0.10024550502E+02 -0.12735295340E+02  0.97852555290E+00  0.16237242267E+02  0.10566000000E+00 0. -1.
         13    1    1    0    0    0  0.12100573911E+01 -0.44903418262E+02  0.16557271875E+02  0.47874164500E+02  0.10566000000E+00 0.  1.
         22    1    1    0    0    0  0.88144931105E+01  0.57638713602E+02 -0.17535797428E+02  0.60888593233E+02  0.00000000000E+00 0.  1.
</event>
<event>
 4    1  0.9957587E-003  0.9118800E+02  0.7818608E-02  0.1130116E+00
         25   -1    0    0    0    0  0.00000000000E+00  0.00000000000E+00  0.99999998245E-14  0.12500000000E+03  0.12500000000E+03 0.  0.
        -13    1    1    0    0    0  0.60841870124E+01 -0.29821808081E+02  0.45531094251E+02  0.54767228126E+02  0.10566000000E+00 0.  1.
         13    1    1    0    0    0  0.86498955281E+00 -0.40946208467E+01  0.65027035967E+01  0.77337212845E+01  0.10566000000E+00 0. -1.
         22    1    1    0    0    0 -0.69491765652E+01  0.33916428928E+02 -0.52033797848E+02  0.62499050590E+02  0.00000000000E+00 0.  1.
</event>
<event>
 4    1  0.9957587E-003  0.9118800E+02  0.7818608E-02  0.1130116E+00
         25   -1    0    0    0    0  0.00000000000E+00  0.00000000000E+00  0.99999998245E-14  0.12500000000E+03  0.12500000000E+03 0.  0.
        -13    1    1    0    0    0  0.37385886227E+02  0.12955323828E+02 -0.43223074578E+02  0.58598551556E+02  0.10566000000E+00 0.  1.
         13    1    1    0    0    0  0.24383490839E+01  0.67118250657E+00 -0.29736769832E+01  0.39051185703E+01  0.10566000000E+00 0. -1.
         22    1    1    0    0    0 -0.39824235310E+02 -0.13626506335E+02  0.46196751561E+02  0.62496329874E+02  0.00000000000E+00 0.  1.
</event>
<event>
 4    1  0.9957587E-003  0.9118800E+02  0.7818608E-02  0.1130116E+00
         25   -1    0    0    0    0  0.00000000000E+00  0.00000000000E+00  0.99999998245E-14  0.12500000000E+03  0.12500000000E+03 0.  0.
        -13    1    1    0    0    0 -0.14171310770E+02  0.23587985376E+02 -0.34479530684E+02  0.44114264170E+02  0.10566000000E+00 0. -1.
         13    1    1    0    0    0 -0.58921096666E+01  0.97627780549E+01 -0.14422409786E+02  0.18386023489E+02  0.10566000000E+00 0. -1.
         22    1    1    0    0    0  0.20063420437E+02 -0.33350763431E+02  0.48901940470E+02  0.62499712341E+02  0.00000000000E+00 0. -1.
</event>
<event>
 4    1  0.9957587E-003  0.9118800E+02  0.7818608E-02  0.1130116E+00
         25   -1    0    0    0    0  0.00000000000E+00  0.00000000000E+00  0.99999998245E-14  0.12500000000E+03  0.12500000000E+03 0.  0.
        -13    1    1    0    0    0 -0.40249352299E+01 -0.26981280621E+00  0.21650041413E-01  0.40354101793E+01  0.10566000000E+00 0. -1.
         13    1    1    0    0    0 -0.57756728145E+02  0.73403814607E+01  0.57903624213E+01  0.58508634465E+02  0.10566000000E+00 0.  1.
         22    1    1    0    0    0  0.61781663375E+02 -0.70705686545E+01 -0.58120124628E+01  0.62455955355E+02  0.00000000000E+00 0.  1.
</event>
<event>
 4    1  0.9957587E-003  0.9118800E+02  0.7818608E-02  0.1130116E+00
         25   -1    0    0    0    0  0.00000000000E+00  0.00000000000E+00  0.99999998245E-14  0.12500000000E+03  0.12500000000E+03 0.  0.
        -13    1    1    0    0    0  0.37901288353E+01 -0.10469187984E+02  0.12018472849E+02  0.16383645116E+02  0.10566000000E+00 0.  1.
         13    1    1    0    0    0  0.13784877082E+02 -0.30683563083E+02  0.31580913034E+02  0.46139669610E+02  0.10566000000E+00 0. -1.
         22    1    1    0    0    0 -0.17575005918E+02  0.41152751067E+02 -0.43599385883E+02  0.62476685274E+02  0.00000000000E+00 0. -1.
</event>
<event>
 4    1  0.9957587E-003  0.9118800E+02  0.7818608E-02  0.1130116E+00
         25   -1    0    0    0    0  0.00000000000E+00  0.00000000000E+00  0.99999998245E-14  0.12500000000E+03  0.12500000000E+03 0.  0.
        -13    1    1    0    0    0 -0.34643375303E+02 -0.14018974623E+02  0.35115512473E+02  0.51281629090E+02  0.10566000000E+00 0.  1.
         13    1    1    0    0    0 -0.31103727758E+00  0.24250220241E+02 -0.17349697327E+01  0.24314423907E+02  0.10566000000E+00 0. -1.
         22    1    1    0    0    0  0.34954412581E+02 -0.10231245618E+02 -0.33380542740E+02  0.49403947002E+02  0.00000000000E+00 0.  1.
</event>
<event>
 4    1  0.9957587E-003  0.9118800E+02  0.7818608E-02  0.1130116E+00
         25   -1    0    0    0    0  0.00000000000E+00  0.00000000000E+00  0.99999998245E-14  0.12500000000E+03  0.12500000000E+03 0.  0.
        -13    1    1    0    0    0 -0.71528271923E+01 -0.21037919593E+02  0.29161324714E+02  0.36662665216E+02  0.10566000000E+00 0. -1.
         13    1    1    0    0    0 -0.35834041372E+01 -0.26209599984E+01  0.26521925950E+02  0.26891149783E+02  0.10566000000E+00 0.  1.
         22    1    1    0    0    0  0.10736231329E+02  0.23658879592E+02 -0.55683250664E+02  0.61446185001E+02  0.00000000000E+00 0. -1.
</event>
<event>
 4    1  0.9957587E-003  0.9118800E+02  0.7818608E-02  0.1130116E+00
         25   -1    0    0    0    0  0.00000000000E+00  0.00000000000E+00  0.99999998245E-14  0.12500000000E+03  0.12500000000E+03 0.  0.
        -13    1    1    0    0    0  0.57096054635E+01  0.12889050769E+02  0.17072516040E+01  0.14200461131E+02  0.10566000000E+00 0.  1.
         13    1    1    0    0    0  0.20041576937E+02  0.43637267212E+02  0.52031621440E+01  0.48300724179E+02  0.10566000000E+00 0.  1.
         22    1    1    0    0    0 -0.25751182400E+02 -0.56526317981E+02 -0.69104137479E+01  0.62498814690E+02  0.00000000000E+00 0.  1.
</event>
<event>
 4    1  0.9957587E-003  0.9118800E+02  0.7818608E-02  0.1130116E+00
         25   -1    0    0    0    0  0.00000000000E+00  0.00000000000E+00  0.99999998245E-14  0.12500000000E+03  0.12500000000E+03 0.  0.
        -13    1    1    0    0    0  0.20805790714E+01 -0.52613153684E+01 -0.46841460774E+02  0.47182028995E+02  0.10566000000E+00 0.  1.
         13    1    1    0    0    0 -0.10529924984E+02 -0.13536899563E+02 -0.82252130339E+01  0.19020837612E+02  0.10566000000E+00 0. -1.
         22    1    1    0    0    0  0.84493459131E+01  0.18798214932E+02  0.55066673807E+02  0.58797133393E+02  0.00000000000E+00 0.  1.
</event>
<event>
 4    1  0.9957587E-003  0.9118800E+02  0.7818608E-02  0.1130116E+00
         25   -1    0    0    0    0  0.00000000000E+00  0.00000000000E+00  0.99999998245E-14  0.12500000000E+03  0.12500000000E+03 0.  0.
        -13    1    1    0    0    0  0.38564282588E+01 -0.56016656205E+02  0.21356004113E+02  0.60073520681E+02  0.10566000000E+00 0. -1.
         13    1    1    0    0    0  0.28273567852E+01 -0.78193142840E+00  0.15498386107E+01  0.33194166512E+01  0.10566000000E+00 0.  1.
         22    1    1    0    0    0 -0.66837850440E+01  0.56798587633E+02 -0.22905842724E+02  0.61607062668E+02  0.00000000000E+00 0. -1.
</event>
<event>
 4    1  0.9957587E-003  0.9118800E+02  0.7818608E-02  0.1130116E+00
         25   -1    0    0    0    0  0.00000000000E+00  0.00000000000E+00  0.99999998245E-14  0.12500000000E+03  0.12500000000E+03 0.  0.
        -13    1    1    0    0    0  0.95064390486E+01  0.22323365992E+01  0.11566950923E+00  0.97662814596E+01  0.10566000000E+00 0.  1.
         13    1    1    0    0    0  0.42140537326E+02  0.35385855568E+01  0.32973945898E+02  0.53624982480E+02  0.10566000000E+00 0. -1.
         22    1    1    0    0    0 -0.51646976375E+02 -0.57709221559E+01 -0.33089615407E+02  0.61608736060E+02  0.00000000000E+00 0. -1.
</event>
<event>
 4    1  0.9957587E-003  0.9118800E+02  0.7818608E-02  0.1130116E+00
         25   -1    0    0    0    0  0.00000000000E+00  0.00000000000E+00  0.99999998245E-14  0.12500000000E+03  0.12500000000E+03 0.  0.
        -13    1    1    0    0    0  0.26172997493E+02 -0.44105930879E+02  0.34004407861E+02  0.61535923285E+02  0.10566000000E+00 0. -1.
         13    1    1    0    0    0  0.27371347307E+00  0.10214969247E-01  0.11434858417E+01  0.11805707588E+01  0.10566000000E+00 0.  1.
         22    1    1    0    0    0 -0.26446710966E+02  0.44095715910E+02 -0.35147893703E+02  0.62283505957E+02  0.00000000000E+00 0. -1.
</event>
<event>
 4    1  0.9957587E-003  0.9118800E+02  0.7818608E-02  0.1130116E+00
         25   -1    0    0    0    0  0.00000000000E+00  0.00000000000E+00  0.99999998245E-14  0.12500000000E+03  0.12500000000E+03 0.  0.
        -13    1    1    0    0    0 -0.24870026823E+02  0.51446829694E+01  0.98722261033E+01  0.27248082672E+02  0.10566000000E+00 0.  1.
         13    1    1    0    0    0 -0.28868000928E+02  0.21341623094E+02  0.43875295500E+01  0.36167498302E+02  0.10566000000E+00 0. -1.
         22    1    1    0    0    0  0.53738027751E+02 -0.26486306064E+02 -0.14259755653E+02  0.61584419026E+02  0.00000000000E+00 0.  1.
</event>
<event>
 4    1  0.9957587E-003  0.9118800E+02  0.7818608E-02  0.1130116E+00
         25   -1    0    0    0    0  0.00000000000E+00  0.00000000000E+00  0.99999998245E-14  0.12500000000E+03  0.12500000000E+03 0.  0.
        -13    1    1    0    0    0 -0.62017118277E+01  0.58053505219E+01  0.29465816720E+01  0.89920426968E+01  0.10566000000E+00 0. -1.
         13    1    1    0    0    0 -0.18314272912E+02  0.11979227084E+02  0.50241556500E+02  0.54800909093E+02  0.10566000000E+00 0.  1.
         22    1    1    0    0    0  0.24515984740E+02 -0.17784577606E+02 -0.53188138172E+02  0.61207048210E+02  0.00000000000E+00 0.  1.
</event>
<event>
 4    1  0.9957587E-003  0.9118800E+02  0.7818608E-02  0.1130116E+00
         25   -1    0    0    0    0  0.00000000000E+00  0.00000000000E+00  0.99999998245E-14  0.12500000000E+03  0.12500000000E+03 0.  0.
        -13    1    1    0    0    0  0.21459410389E+02 -0.36990783891E+01 -0.26301571406E+02  0.34146351161E+02  0.10566000000E+00 0. -1.
         13    1    1    0    0    0  0.89947191326E+00  0.34803320180E+02  0.37276244598E+02  0.51005977303E+02  0.10566000000E+00 0.  1.
         22    1    1    0    0    0 -0.22358882302E+02 -0.31104241791E+02 -0.10974673192E+02  0.39847671536E+02  0.00000000000E+00 0. -1.
</event>
<event>
 4    1  0.9957587E-003  0.9118800E+02  0.7818608E-02  0.1130116E+00
         25   -1    0    0    0    0  0.00000000000E+00  0.00000000000E+00  0.99999998245E-14  0.12500000000E+03  0.12500000000E+03 0.  0.
        -13    1    1    0    0    0  0.40407688812E+02  0.14386756238E+01  0.42009091390E+02  0.58306312061E+02  0.10566000000E+00 0.  1.
         13    1    1    0    0    0  0.28695127242E+01  0.35521112717E+00  0.30417020284E+01  0.41980225684E+01  0.10566000000E+00 0. -1.
         22    1    1    0    0    0 -0.43277201536E+02 -0.17938867509E+01 -0.45050793419E+02  0.62495665371E+02  0.00000000000E+00 0.  1.
</event>
<event>
 4    1  0.9957587E-003  0.9118800E+02  0.7818608E-02  0.1130116E+00
         25   -1    0    0    0    0  0.00000000000E+00  0.00000000000E+00  0.99999998245E-14  0.12500000000E+03  0.12500000000E+03 0.  0.
        -13    1    1    0    0    0 -0.60825070270E+01  0.83051508225E+01  0.29482248608E+02  0.31227977343E+02  0.10566000000E+00 0.  1.
         13    1    1    0    0    0 -0.56776566551E+01  0.86198756695E+01  0.29520620075E+02  0.31273250795E+02  0.10566000000E+00 0. -1.
         22    1    1    0    0    0  0.11760163682E+02 -0.16925026492E+02 -0.59002868682E+02  0.62498771862E+02  0.00000000000E+00 0.  1.
</event>
<event>
 4    1  0.9957587E-003  0.9118800E+02  0.7818608E-02  0.1130116E+00
         25   -1    0    0    0    0  0.00000000000E+00  0.00000000000E+00  0.99999998245E-14  0.12500000000E+03  0.12500000000E+03 0.  0.
        -13    1    1    0    0    0  0.62649439418E+01  0.33950391423E+02  0.16422866381E+02  0.38230881556E+02  0.10566000000E+00 0. -1.
         13    1    1    0    0    0  0.22120227594E+01  0.21929796782E+02  0.10207366591E+02  0.24290132325E+02  0.10566000000E+00 0.  1.
         22    1    1    0    0    0 -0.84769667011E+01 -0.55880188205E+02 -0.26630232972E+02  0.62478986119E+02  0.00000000000E+00 0. -1.
</event>
<event>
 4    1  0.9957587E-003  0.9118800E+02  0.7818608E-02  0.1130116E+00
         25   -1    0    0    0    0  0.00000000000E+00  0.00000000000E+00  0.99999998245E-14  0.12500000000E+03  0.12500000000E+03 0.  0.
        -13    1    1    0    0    0 -0.50733244094E+00  0.80038540158E+01 -0.84372698879E+00  0.80648685407E+01  0.10566000000E+00 0. -1.
         13    1    1    0    0    0 -0.31039107458E+01  0.53503535882E+02 -0.95893543620E+01  0.54444737991E+02  0.10566000000E+00 0.  1.
         22    1    1    0    0    0  0.36112431867E+01 -0.61507389898E+02  0.10433081351E+02  0.62490393468E+02  0.00000000000E+00 0.  1.
</event>
<event>
 4    1  0.9957587E-003  0.9118800E+02  0.7818608E-02  0.1130116E+00
         25   -1    0    0    0    0  0.00000000000E+00  0.00000000000E+00  0.99999998245E-14  0.12500000000E+03  0.12500000000E+03 0.  0.
        -13    1    1    0    0    0  0.14364940060E+02 -0.14305936400E+02  0.28537108310E+02  0.35005557187E+02  0.10566000000E+00 0.  1.
         13    1    1    0    0    0  0.11214436873E+02 -0.11323131046E+02  0.22404681091E+02  0.27494686575E+02  0.10566000000E+00 0.  1.
         22    1    1    0    0    0 -0.25579376932E+02  0.25629067446E+02 -0.50941789401E+02  0.62499756238E+02  0.00000000000E+00 0.  1.
</event>
<event>
 4    1  0.9957587E-003  0.9118800E+02  0.7818608E-02  0.1130116E+00
         25   -1    0    0    0    0  0.00000000000E+00  0.00000000000E+00  0.99999998245E-14  0.12500000000E+03  0.12500000000E+03 0.  0.
        -13    1    1    0    0    0 -0.96596360626E+01 -0.22358094403E+02  0.17301167071E+02  0.29875315902E+02  0.10566000000E+00 0.  1.
         13    1    1    0    0    0 -0.70580934325E+01 -0.26486321104E+02  0.17811463803E+02  0.32689467652E+02  0.10566000000E+00 0. -1.
         22    1    1    0    0    0  0.16717729495E+02  0.48844415508E+02 -0.35112630874E+02  0.62435216446E+02  0.00000000000E+00 0.  1.
</event>
<event>
 4    1  0.9957587E-003  0.9118800E+02  0.7818608E-02  0.1130116E+00
         25   -1    0    0    0    0  0.00000000000E+00  0.00000000000E+00  0.99999998245E-14  0.12500000000E+03  0.12500000000E+03 0.  0.
        -13    1    1    0    0    0  0.57513859039E+02  0.12044624593E+02  0.19877268153E+02  0.62032523053E+02  0.10566000000E+00 0.  1.
         13    1    1    0    0    0 -0.43778913770E+00  0.10134724432E+01  0.72282562922E-01  0.11113840590E+01  0.10566000000E+00 0. -1.
         22    1    1    0    0    0 -0.57076069901E+02 -0.13058097036E+02 -0.19949550716E+02  0.61856092888E+02  0.00000000000E+00 0.  1.
</event>
<event>
 4    1  0.9957587E-003  0.9118800E+02  0.7818608E-02  0.1130116E+00
         25   -1    0    0    0    0  0.00000000000E+00  0.00000000000E+00  0.99999998245E-14  0.12500000000E+03  0.12500000000E+03 0.  0.
        -13    1    1    0    0    0  0.70824508376E+01  0.36763932422E+01 -0.24850369460E+02  0.26100364049E+02  0.10566000000E+00 0.  1.
         13    1    1    0    0    0  0.97008758683E+01  0.51047697593E+01 -0.34709900999E+02  0.36399918383E+02  0.10566000000E+00 0.  1.
         22    1    1    0    0    0 -0.16783326706E+02 -0.87811630016E+01  0.59560270459E+02  0.62499717568E+02  0.00000000000E+00 0.  1.
</event>
<event>
 4    1  0.9957587E-003  0.9118800E+02  0.7818608E-02  0.1130116E+00
         25   -1    0    0    0    0  0.00000000000E+00  0.00000000000E+00  0.99999998245E-14  0.12500000000E+03  0.12500000000E+03 0.  0.
        -13    1    1    0    0    0  0.45983682739E+02 -0.63809397712E+00 -0.30649333012E+02  0.55265712881E+02  0.10566000000E+00 0.  1.
         13    1    1    0    0    0  0.59878969269E+01 -0.14085205174E+00 -0.40568568803E+01  0.72349153893E+01  0.10566000000E+00 0. -1.
         22    1    1    0    0    0 -0.51971579665E+02  0.77894602886E+00  0.34706189892E+02  0.62499371730E+02  0.00000000000E+00 0.  1.
</event>
<event>
 4    1  0.9957587E-003  0.9118800E+02  0.7818608E-02  0.1130116E+00
         25   -1    0    0    0    0  0.00000000000E+00  0.00000000000E+00  0.99999998245E-14  0.12500000000E+03  0.12500000000E+03 0.  0.
        -13    1    1    0    0    0 -0.39580867968E+01 -0.10684674527E+02 -0.44790181909E+01  0.12243426352E+02  0.10566000000E+00 0. -1.
         13    1    1    0    0    0 -0.17748647663E+02 -0.42964772508E+02 -0.19107708020E+02  0.50260340631E+02  0.10566000000E+00 0.  1.
         22    1    1    0    0    0  0.21706734460E+02  0.53649447035E+02  0.23586726211E+02  0.62496233018E+02  0.00000000000E+00 0.  1.
</event>
<event>
 4    1  0.9957587E-003  0.9118800E+02  0.7818608E-02  0.1130116E+00
         25   -1    0    0    0    0  0.00000000000E+00  0.00000000000E+00  0.99999998245E-14  0.12500000000E+03  0.12500000000E+03 0.  0.
        -13    1    1    0    0    0  0.18783321092E+02 -0.34937412417E+02 -0.23181657745E+02  0.45943839168E+02  0.10566000000E+00 0.  1.
         13    1    1    0    0    0  0.67338102938E+01 -0.12593178411E+02 -0.83768249238E+01  0.16556409737E+02  0.10566000000E+00 0. -1.
         22    1    1    0    0    0 -0.25517131386E+02  0.47530590827E+02  0.31558482669E+02  0.62499751095E+02  0.00000000000E+00 0.  1.
</event>
<event>
 4    1  0.9957587E-003  0.9118800E+02  0.7818608E-02  0.1130116E+00
         25   -1    0    0    0    0  0.00000000000E+00  0.00000000000E+00  0.99999998245E-14  0.12500000000E+03  0.12500000000E+03 0.  0.
        -13    1    1    0    0    0  0.27177362100E+02  0.37639883532E+01  0.23588649869E+02  0.36183037265E+02  0.10566000000E+00 0.  1.
         13    1    1    0    0    0  0.20003424608E+02  0.64357818665E+01  0.15981378458E+02  0.26400225487E+02  0.10566000000E+00 0. -1.
         22    1    1    0    0    0 -0.47180786709E+02 -0.10199770220E+02 -0.39570028327E+02  0.62416737248E+02  0.00000000000E+00 0. -1.
</event>
<event>
 4    1  0.9957587E-003  0.9118800E+02  0.7818608E-02  0.1130116E+00
         25   -1    0    0    0    0  0.00000000000E+00  0.00000000000E+00  0.99999998245E-14  0.12500000000E+03  0.12500000000E+03 0.  0.
        -13    1    1    0    0    0  0.13492594574E+01  0.92749973799E-01  0.23333764685E+00  0.13764861547E+01  0.10566000000E+00 0. -1.
         13    1    1    0    0    0  0.60531210198E+02  0.10345909751E+01  0.84485311805E+01  0.61126807782E+02  0.10566000000E+00 0.  1.
         22    1    1    0    0    0 -0.61880469655E+02 -0.11273409489E+01 -0.86818688273E+01  0.62496706063E+02  0.00000000000E+00 0.  1.
</event>
<event>
 4    1  0.9957587E-003  0.9118800E+02  0.7818608E-02  0.1130116E+00
         25   -1    0    0    0    0  0.00000000000E+00  0.00000000000E+00  0.99999998245E-14  0.12500000000E+03  0.12500000000E+03 0.  0.
        -13    1    1    0    0    0 -0.50861141551E+01  0.66329644423E+01  0.23252123421E+01  0.86765517899E+01  0.10566000000E+00 0. -1.
         13    1    1    0    0    0 -0.31010335539E+02  0.41652355055E+02  0.14158953081E+02  0.53824220461E+02  0.10566000000E+00 0. -1.
         22    1    1    0    0    0  0.36096449694E+02 -0.48285319497E+02 -0.16484165423E+02  0.62499227749E+02  0.00000000000E+00 0. -1.
</event>
<event>
 4    1  0.9957587E-003  0.9118800E+02  0.7818608E-02  0.1130116E+00
         25   -1    0    0    0    0  0.00000000000E+00  0.00000000000E+00  0.99999998245E-14  0.12500000000E+03  0.12500000000E+03 0.  0.
        -13    1    1    0    0    0  0.14044161810E+01 -0.76525800996E+01 -0.31420642644E+01  0.83915492531E+01  0.10566000000E+00 0.  1.
         13    1    1    0    0    0  0.10398916994E+02 -0.47935902110E+02 -0.22857688169E+02  0.54115369889E+02  0.10566000000E+00 0. -1.
         22    1    1    0    0    0 -0.11803333175E+02  0.55588482210E+02  0.25999752434E+02  0.62493080858E+02  0.00000000000E+00 0. -1.
</event>
<event>
 4    1  0.9957587E-003  0.9118800E+02  0.7818608E-02  0.1130116E+00
         25   -1    0    0    0    0  0.00000000000E+00  0.00000000000E+00  0.99999998245E-14  0.12500000000E+03  0.12500000000E+03 0.  0.
        -13    1    1    0    0    0 -0.40847996591E+02 -0.24464162138E+02  0.28787449426E+02  0.55639756139E+02  0.10566000000E+00 0. -1.
         13    1    1    0    0    0 -0.45237384394E+01 -0.34260453101E+01  0.38856500785E+01  0.68783309388E+01  0.10566000000E+00 0.  1.
         22    1    1    0    0    0  0.45371735031E+02  0.27890207448E+02 -0.32673099505E+02  0.62481912923E+02  0.00000000000E+00 0. -1.
</event>
<event>
 4    1  0.9957587E-003  0.9118800E+02  0.7818608E-02  0.1130116E+00
         25   -1    0    0    0    0  0.00000000000E+00  0.00000000000E+00  0.99999998245E-14  0.12500000000E+03  0.12500000000E+03 0.  0.
        -13    1    1    0    0    0  0.20541200690E+02  0.27226186177E+02  0.38479158329E+01  0.34322350733E+02  0.10566000000E+00 0. -1.
         13    1    1    0    0    0  0.16970467347E+02  0.22269073045E+02  0.31742114468E+01  0.28177919700E+02  0.10566000000E+00 0. -1.
         22    1    1    0    0    0 -0.37511668037E+02 -0.49495259223E+02 -0.70221272798E+01  0.62499729567E+02  0.00000000000E+00 0. -1.
</event>
<event>
 4    1  0.9957587E-003  0.9118800E+02  0.7818608E-02  0.1130116E+00
         25   -1    0    0    0    0  0.00000000000E+00  0.00000000000E+00  0.99999998245E-14  0.12500000000E+03  0.12500000000E+03 0.  0.
        -13    1    1    0    0    0  0.28409876267E+02 -0.43955987278E+02 -0.66501402278E+01  0.52758747295E+02  0.10566000000E+00 0.  1.
         13    1    1    0    0    0  0.42968830618E+01 -0.86446835785E+01  0.33296525547E+01  0.10212321401E+02  0.10566000000E+00 0. -1.
         22    1    1    0    0    0 -0.32706759329E+02  0.52600670856E+02  0.33204876731E+01  0.62028931304E+02  0.00000000000E+00 0.  1.
</event>
<event>
 4    1  0.9957587E-003  0.9118800E+02  0.7818608E-02  0.1130116E+00
         25   -1    0    0    0    0  0.00000000000E+00  0.00000000000E+00  0.99999998245E-14  0.12500000000E+03  0.12500000000E+03 0.  0.
        -13    1    1    0    0    0  0.11147011880E+02  0.38321074192E+02 -0.16250605768E+02  0.43091228260E+02  0.10566000000E+00 0. -1.
         13    1    1    0    0    0  0.13321119050E+02  0.15870648799E+02  0.24151294295E+01  0.20860817823E+02  0.10566000000E+00 0.  1.
         22    1    1    0    0    0 -0.24468130931E+02 -0.54191722991E+02  0.13835476338E+02  0.61047953917E+02  0.00000000000E+00 0. -1.
</event>
<event>
 4    1  0.9957587E-003  0.9118800E+02  0.7818608E-02  0.1130116E+00
         25   -1    0    0    0    0  0.00000000000E+00  0.00000000000E+00  0.99999998245E-14  0.12500000000E+03  0.12500000000E+03 0.  0.
        -13    1    1    0    0    0  0.26804530203E+01 -0.23475451281E+01 -0.26022786706E+01  0.44134810340E+01  0.10566000000E+00 0. -1.
         13    1    1    0    0    0  0.35898361896E+02 -0.30571531028E+02 -0.33923763492E+02  0.58087380641E+02  0.10566000000E+00 0. -1.
         22    1    1    0    0    0 -0.38578814917E+02  0.32919076156E+02  0.36526042162E+02  0.62499138325E+02  0.00000000000E+00 0. -1.
</event>
<event>
 4    1  0.9957587E-003  0.9118800E+02  0.7818608E-02  0.1130116E+00
         25   -1    0    0    0    0  0.00000000000E+00  0.00000000000E+00  0.99999998245E-14  0.12500000000E+03  0.12500000000E+03 0.  0.
        -13    1    1    0    0    0  0.14884140959E+02  0.26867903518E+02  0.14243534714E+02  0.33857219861E+02  0.10566000000E+00 0. -1.
         13    1    1    0    0    0  0.17323423916E+02  0.16260773847E+02  0.16712324686E+02  0.29048696059E+02  0.10566000000E+00 0.  1.
         22    1    1    0    0    0 -0.32207564876E+02 -0.43128677365E+02 -0.30955859400E+02  0.62094084080E+02  0.00000000000E+00 0.  1.
</event>
<event>
 4    1  0.9957587E-003  0.9118800E+02  0.7818608E-02  0.1130116E+00
         25   -1    0    0    0    0  0.00000000000E+00  0.00000000000E+00  0.99999998245E-14  0.12500000000E+03  0.12500000000E+03 0.  0.
        -13    1    1    0    0    0  0.15706014467E+02  0.30814247798E+01 -0.18626409388E+01  0.16113803537E+02  0.10566000000E+00 0. -1.
         13    1    1    0    0    0  0.45688344206E+02 -0.99439217981E+01 -0.34266871127E+01  0.46883469641E+02  0.10566000000E+00 0.  1.
         22    1    1    0    0    0 -0.61394358673E+02  0.68624970183E+01  0.52893280516E+01  0.62002726822E+02  0.00000000000E+00 0.  1.
</event>
<event>
 4    1  0.9957587E-003  0.9118800E+02  0.7818608E-02  0.1130116E+00
         25   -1    0    0    0    0  0.00000000000E+00  0.00000000000E+00  0.99999998245E-14  0.12500000000E+03  0.12500000000E+03 0.  0.
        -13    1    1    0    0    0 -0.17818481854E+02 -0.40445117773E+02  0.42601556416E+02  0.61385744439E+02  0.10566000000E+00 0.  1.
         13    1    1    0    0    0 -0.71193091376E-01 -0.92220253105E+00  0.66017221208E+00  0.11412788221E+01  0.10566000000E+00 0. -1.
         22    1    1    0    0    0  0.17889674945E+02  0.41367320304E+02 -0.43261728628E+02  0.62472976739E+02  0.00000000000E+00 0.  1.
</event>
<event>
 4    1  0.9957587E-003  0.9118800E+02  0.7818608E-02  0.1130116E+00
         25   -1    0    0    0    0  0.00000000000E+00  0.00000000000E+00  0.99999998245E-14  0.12500000000E+03  0.12500000000E+03 0.  0.
        -13    1    1    0    0    0  0.89176247583E+01  0.87285231773E+01 -0.19646308801E+01  0.12632580367E+02  0.10566000000E+00 0. -1.
         13    1    1    0    0    0  0.37748059760E+02  0.31729765905E+02 -0.75162419042E+01  0.49881851574E+02  0.10566000000E+00 0.  1.
         22    1    1    0    0    0 -0.46665684518E+02 -0.40458289082E+02  0.94808727843E+01  0.62485568060E+02  0.00000000000E+00 0.  1.
</event>
<event>
 4    1  0.9957587E-003  0.9118800E+02  0.7818608E-02  0.1130116E+00
         25   -1    0    0    0    0  0.00000000000E+00  0.00000000000E+00  0.99999998245E-14  0.12500000000E+03  0.12500000000E+03 0.  0.
        -13    1    1    0    0    0 -0.10972927338E+02  0.42632275204E+02 -0.93017559650E+01  0.44993886824E+02  0.10566000000E+00 0.  1.
         13    1    1    0    0    0 -0.41649587912E+01  0.16594293689E+02 -0.37080873615E+01  0.17506528516E+02  0.10566000000E+00 0.  1.
         22    1    1    0    0    0  0.15137886129E+02 -0.59226568893E+02  0.13009843326E+02  0.62499584660E+02  0.00000000000E+00 0.  1.
</event>
<event>
 4    1  0.9957587E-003  0.9118800E+02  0.7818608E-02  0.1130116E+00
         25   -1    0    0    0    0  0.00000000000E+00  0.00000000000E+00  0.99999998245E-14  0.12500000000E+03  0.12500000000E+03 0.  0.
        -13    1    1    0    0    0  0.36613457872E+02  0.18859224677E+02 -0.18380054766E+02  0.45100479266E+02  0.10566000000E+00 0.  1.
         13    1    1    0    0    0  0.13966045344E+02  0.74121025505E+01 -0.72647755744E+01  0.17400511917E+02  0.10566000000E+00 0. -1.
         22    1    1    0    0    0 -0.50579503217E+02 -0.26271327228E+02  0.25644830340E+02  0.62499008817E+02  0.00000000000E+00 0. -1.
</event>
<event>
 4    1  0.9957587E-003  0.9118800E+02  0.7818608E-02  0.1130116E+00
         25   -1    0    0    0    0  0.00000000000E+00  0.00000000000E+00  0.99999998245E-14  0.12500000000E+03  0.12500000000E+03 0.  0.
        -13    1    1    0    0    0 -0.56692694165E+00  0.36090215378E+02 -0.21744850716E+02  0.42138755901E+02  0.10566000000E+00 0. -1.
         13    1    1    0    0    0 -0.20148680814E+00  0.17380182167E+02 -0.10605292288E+02  0.20361599094E+02  0.10566000000E+00 0. -1.
         22    1    1    0    0    0  0.76841374979E+00 -0.53470397546E+02  0.32350143004E+02  0.62499645005E+02  0.00000000000E+00 0. -1.
</event>
<event>
 4    1  0.9957587E-003  0.9118800E+02  0.7818608E-02  0.1130116E+00
         25   -1    0    0    0    0  0.00000000000E+00  0.00000000000E+00  0.99999998245E-14  0.12500000000E+03  0.12500000000E+03 0.  0.
        -13    1    1    0    0    0 -0.11334334105E+00 -0.49910761381E+02 -0.79817039341E+01  0.50545184836E+02  0.10566000000E+00 0. -1.
         13    1    1    0    0    0  0.10002652268E+01 -0.11969981378E+02 -0.30086424896E+00  0.12015933923E+02  0.10566000000E+00 0.  1.
         22    1    1    0    0    0 -0.88692188571E+00  0.61880742759E+02  0.82825681831E+01  0.62438881241E+02  0.00000000000E+00 0. -1.
</event>
<event>
 4    1  0.9957587E-003  0.9118800E+02  0.7818608E-02  0.1130116E+00
         25   -1    0    0    0    0  0.00000000000E+00  0.00000000000E+00  0.99999998245E-14  0.12500000000E+03  0.12500000000E+03 0.  0.
        -13    1    1    0    0    0  0.78541785881E+01  0.57578353595E+02  0.12650817220E+02  0.59472760692E+02  0.10566000000E+00 0. -1.
         13    1    1    0    0    0  0.35917145689E+00  0.29578095324E+01  0.53652776582E+00  0.30293014780E+01  0.10566000000E+00 0. -1.
         22    1    1    0    0    0 -0.82133500450E+01 -0.60536163127E+02 -0.13187344986E+02  0.62497937830E+02  0.00000000000E+00 0. -1.
</event>
<event>
 4    1  0.9957587E-003  0.9118800E+02  0.7818608E-02  0.1130116E+00
         25   -1    0    0    0    0  0.00000000000E+00  0.00000000000E+00  0.99999998245E-14  0.12500000000E+03  0.12500000000E+03 0.  0.
        -13    1    1    0    0    0  0.45518532077E+02 -0.15346901073E+02  0.10740502815E+02  0.49222288648E+02  0.10566000000E+00 0.  1.
         13    1    1    0    0    0  0.12233555040E+02 -0.42068527049E+01  0.29903250945E+01  0.13278203448E+02  0.10566000000E+00 0.  1.
         22    1    1    0    0    0 -0.57752087117E+02  0.19553753778E+02 -0.13730827909E+02  0.62499507904E+02  0.00000000000E+00 0.  1.
</event>
<event>
 4    1  0.9957587E-003  0.9118800E+02  0.7818608E-02  0.1130116E+00
         25   -1    0    0    0    0  0.00000000000E+00  0.00000000000E+00  0.99999998245E-14  0.12500000000E+03  0.12500000000E+03 0.  0.
        -13    1    1    0    0    0  0.33133983017E+02 -0.25279250240E+02 -0.36691687983E+02  0.55526502270E+02  0.10566000000E+00 0.  1.
         13    1    1    0    0    0 -0.78490719669E+00 -0.96822995927E+01  0.63831742979E+00  0.97355851332E+01  0.10566000000E+00 0. -1.
         22    1    1    0    0    0 -0.32349075821E+02  0.34961549833E+02  0.36053370553E+02  0.59737912597E+02  0.00000000000E+00 0.  1.
</event>
<event>
 4    1  0.9957587E-003  0.9118800E+02  0.7818608E-02  0.1130116E+00
         25   -1    0    0    0    0  0.00000000000E+00  0.00000000000E+00  0.99999998245E-14  0.12500000000E+03  0.12500000000E+03 0.  0.
        -13    1    1    0    0    0  0.16873732383E+02 -0.37736887993E+02  0.15205411630E+02  0.44045558991E+02  0.10566000000E+00 0.  1.
         13    1    1    0    0    0  0.74601024639E+01 -0.16448163089E+02  0.40563763459E+01  0.18511092644E+02  0.10566000000E+00 0. -1.
         22    1    1    0    0    0 -0.24333834846E+02  0.54185051082E+02 -0.19261787976E+02  0.62443348366E+02  0.00000000000E+00 0.  1.
</event>
<event>
 4    1  0.9957587E-003  0.9118800E+02  0.7818608E-02  0.1130116E+00
         25   -1    0    0    0    0  0.00000000000E+00  0.00000000000E+00  0.99999998245E-14  0.12500000000E+03  0.12500000000E+03 0.  0.
        -13    1    1    0    0    0  0.20363249720E+02 -0.36612399473E+02 -0.12664533365E+02  0.43766783110E+02  0.10566000000E+00 0. -1.
         13    1    1    0    0    0  0.90700463601E+01 -0.14978503807E+02 -0.67163020744E+01  0.18754764591E+02  0.10566000000E+00 0.  1.
         22    1    1    0    0    0 -0.29433296081E+02  0.51590903280E+02  0.19380835440E+02  0.62478452300E+02  0.00000000000E+00 0. -1.
</event>
<event>
 4    1  0.9957587E-003  0.9118800E+02  0.7818608E-02  0.1130116E+00
         25   -1    0    0    0    0  0.00000000000E+00  0.00000000000E+00  0.99999998245E-14  0.12500000000E+03  0.12500000000E+03 0.  0.
        -13    1    1    0    0    0  0.50631284964E+01  0.17340131801E+01  0.10329080057E+02  0.11633706664E+02  0.10566000000E+00 0.  1.
         13    1    1    0    0    0 -0.12923494404E+02  0.23641967191E+02  0.44738645726E+02  0.52225634565E+02  0.10566000000E+00 0. -1.
         22    1    1    0    0    0  0.78603659071E+01 -0.25375980371E+02 -0.55067725784E+02  0.61140658771E+02  0.00000000000E+00 0. -1.
</event>
<event>
 4    1  0.9957587E-003  0.9118800E+02  0.7818608E-02  0.1130116E+00
         25   -1    0    0    0    0  0.00000000000E+00  0.00000000000E+00  0.99999998245E-14  0.12500000000E+03  0.12500000000E+03 0.  0.
        -13    1    1    0    0    0 -0.33142235986E+02  0.44808948695E+02  0.85042574758E+00  0.55740327208E+02  0.10566000000E+00 0.  1.
         13    1    1    0    0    0 -0.22831333316E+01  0.59818271134E+01  0.32851433788E+01  0.71971025058E+01  0.10566000000E+00 0. -1.
         22    1    1    0    0    0  0.35425369318E+02 -0.50790775808E+02 -0.41355691264E+01  0.62062570286E+02  0.00000000000E+00 0.  1.
</event>
<event>
 4    1  0.9957587E-003  0.9118800E+02  0.7818608E-02  0.1130116E+00
         25   -1    0    0    0    0  0.00000000000E+00  0.00000000000E+00  0.99999998245E-14  0.12500000000E+03  0.12500000000E+03 0.  0.
        -13    1    1    0    0    0  0.36681532050E+01 -0.13480050911E+01 -0.50953116780E+00  0.39424930827E+01  0.10566000000E+00 0. -1.
         13    1    1    0    0    0  0.51481472421E+02 -0.27464828847E+02 -0.51589639755E+01  0.58577170464E+02  0.10566000000E+00 0. -1.
         22    1    1    0    0    0 -0.55149625625E+02  0.28812833938E+02  0.56684951433E+01  0.62480336454E+02  0.00000000000E+00 0. -1.
</event>
<event>
 4    1  0.9957587E-003  0.9118800E+02  0.7818608E-02  0.1130116E+00
         25   -1    0    0    0    0  0.00000000000E+00  0.00000000000E+00  0.99999998245E-14  0.12500000000E+03  0.12500000000E+03 0.  0.
        -13    1    1    0    0    0  0.20318740524E+02  0.80811265064E+01 -0.16184559325E+02  0.27204906666E+02  0.10566000000E+00 0.  1.
         13    1    1    0    0    0  0.26162806938E+02  0.10365106712E+02 -0.21303742144E+02  0.35295729166E+02  0.10566000000E+00 0.  1.
         22    1    1    0    0    0 -0.46481547462E+02 -0.18446233219E+02  0.37488301469E+02  0.62499364168E+02  0.00000000000E+00 0.  1.
</event>
<event>
 4    1  0.9957587E-003  0.9118800E+02  0.7818608E-02  0.1130116E+00
         25   -1    0    0    0    0  0.00000000000E+00  0.00000000000E+00  0.99999998245E-14  0.12500000000E+03  0.12500000000E+03 0.  0.
        -13    1    1    0    0    0 -0.42338502741E+00 -0.15173731871E+02 -0.99278651047E+01  0.18138221063E+02  0.10566000000E+00 0.  1.
         13    1    1    0    0    0  0.18125979530E+02 -0.37182384247E+02 -0.17794941988E+02  0.45030566914E+02  0.10566000000E+00 0. -1.
         22    1    1    0    0    0 -0.17702594503E+02  0.52356116118E+02  0.27722807093E+02  0.61831212023E+02  0.00000000000E+00 0. -1.
</event>
<event>
 4    1  0.9957587E-003  0.9118800E+02  0.7818608E-02  0.1130116E+00
         25   -1    0    0    0    0  0.00000000000E+00  0.00000000000E+00  0.99999998245E-14  0.12500000000E+03  0.12500000000E+03 0.  0.
        -13    1    1    0    0    0 -0.72437611174E+01 -0.83165565462E+01 -0.85832030232E+01  0.13975683385E+02  0.10566000000E+00 0.  1.
         13    1    1    0    0    0 -0.34043519618E+02 -0.27970976692E+02 -0.20769470261E+02  0.48710561729E+02  0.10566000000E+00 0. -1.
         22    1    1    0    0    0  0.41287280735E+02  0.36287533238E+02  0.29352673284E+02  0.62313754885E+02  0.00000000000E+00 0. -1.
</event>
<event>
 4    1  0.9957587E-003  0.9118800E+02  0.7818608E-02  0.1130116E+00
         25   -1    0    0    0    0  0.00000000000E+00  0.00000000000E+00  0.99999998245E-14  0.12500000000E+03  0.12500000000E+03 0.  0.
        -13    1    1    0    0    0  0.35152777009E+02 -0.13996754553E+02  0.10526923705E+02  0.39274090138E+02  0.10566000000E+00 0. -1.
         13    1    1    0    0    0  0.21139586688E+02 -0.77610778205E+01  0.57036956123E+01  0.23230578167E+02  0.10566000000E+00 0.  1.
         22    1    1    0    0    0 -0.56292363697E+02  0.21757832374E+02 -0.16230619317E+02  0.62495331695E+02  0.00000000000E+00 0. -1.
</event>
<event>
 4    1  0.9957587E-003  0.9118800E+02  0.7818608E-02  0.1130116E+00
         25   -1    0    0    0    0  0.00000000000E+00  0.00000000000E+00  0.99999998245E-14  0.12500000000E+03  0.12500000000E+03 0.  0.
        -13    1    1    0    0    0  0.11446526513E+02 -0.16336995957E+02  0.63238398386E+01  0.20926598397E+02  0.10566000000E+00 0. -1.
         13    1    1    0    0    0  0.26083515297E+02 -0.26265985964E+02  0.19341935115E+02  0.41765696534E+02  0.10566000000E+00 0.  1.
         22    1    1    0    0    0 -0.37530041811E+02  0.42602981922E+02 -0.25665774954E+02  0.62307705069E+02  0.00000000000E+00 0.  1.
</event>
<event>
 4    1  0.9957587E-003  0.9118800E+02  0.7818608E-02  0.1130116E+00
         25   -1    0    0    0    0  0.00000000000E+00  0.00000000000E+00  0.99999998245E-14  0.12500000000E+03  0.12500000000E+03 0.  0.
        -13    1    1    0    0    0 -0.64033118188E+01 -0.16359354871E+02 -0.35046295330E+01  0.17914365360E+02  0.10566000000E+00 0.  1.
         13    1    1    0    0    0 -0.16814655432E+02 -0.39606021836E+02  0.14700331892E+02  0.45469556021E+02  0.10566000000E+00 0. -1.
         22    1    1    0    0    0  0.23217967251E+02  0.55965376706E+02 -0.11195702359E+02  0.61616078620E+02  0.00000000000E+00 0. -1.
</event>
<event>
 4    1  0.9957587E-003  0.9118800E+02  0.7818608E-02  0.1130116E+00
         25   -1    0    0    0    0  0.00000000000E+00  0.00000000000E+00  0.99999998245E-14  0.12500000000E+03  0.12500000000E+03 0.  0.
        -13    1    1    0    0    0  0.28061170651E+01 -0.19147884812E+02  0.14355907479E+02  0.24096037628E+02  0.10566000000E+00 0. -1.
         13    1    1    0    0    0 -0.25833782771E+01 -0.31304351364E+02  0.22316400654E+02  0.38531404852E+02  0.10566000000E+00 0.  1.
         22    1    1    0    0    0 -0.22273878804E+00  0.50452236177E+02 -0.36672308133E+02  0.62372557520E+02  0.00000000000E+00 0.  1.
</event>
<event>
 4    1  0.9957587E-003  0.9118800E+02  0.7818608E-02  0.1130116E+00
         25   -1    0    0    0    0  0.00000000000E+00  0.00000000000E+00  0.99999998245E-14  0.12500000000E+03  0.12500000000E+03 0.  0.
        -13    1    1    0    0    0 -0.52097194510E+01 -0.17347418946E+02  0.25238754413E+02  0.31065736902E+02  0.10566000000E+00 0. -1.
         13    1    1    0    0    0 -0.53530266770E+01 -0.17131212488E+02  0.25807820693E+02  0.31435459418E+02  0.10566000000E+00 0.  1.
         22    1    1    0    0    0  0.10562746128E+02  0.34478631434E+02 -0.51046575106E+02  0.62498803680E+02  0.00000000000E+00 0. -1.
</event>
<event>
 4    1  0.9957587E-003  0.9118800E+02  0.7818608E-02  0.1130116E+00
         25   -1    0    0    0    0  0.00000000000E+00  0.00000000000E+00  0.99999998245E-14  0.12500000000E+03  0.12500000000E+03 0.  0.
        -13    1    1    0    0    0  0.22331534286E+02 -0.10015038943E+01 -0.14181834533E+02  0.26473307847E+02  0.10566000000E+00 0. -1.
         13    1    1    0    0    0  0.26415878180E+02 -0.12335416806E+02 -0.21871125152E+02  0.36446102771E+02  0.10566000000E+00 0.  1.
         22    1    1    0    0    0 -0.48747412466E+02  0.13336920700E+02  0.36052959685E+02  0.62080589381E+02  0.00000000000E+00 0.  1.
</event>
<event>
 4    1  0.9957587E-003  0.9118800E+02  0.7818608E-02  0.1130116E+00
         25   -1    0    0    0    0  0.00000000000E+00  0.00000000000E+00  0.99999998245E-14  0.12500000000E+03  0.12500000000E+03 0.  0.
        -13    1    1    0    0    0  0.13745670461E+02 -0.10715674644E+02  0.16407358956E+02  0.23937036814E+02  0.10566000000E+00 0.  1.
         13    1    1    0    0    0  0.22038959743E+02 -0.17251864247E+02  0.26528605298E+02  0.38563203052E+02  0.10566000000E+00 0.  1.
         22    1    1    0    0    0 -0.35784630203E+02  0.27967538891E+02 -0.42935964254E+02  0.62499760134E+02  0.00000000000E+00 0.  1.
</event>
<event>
 4    1  0.9957587E-003  0.9118800E+02  0.7818608E-02  0.1130116E+00
         25   -1    0    0    0    0  0.00000000000E+00  0.00000000000E+00  0.99999998245E-14  0.12500000000E+03  0.12500000000E+03 0.  0.
        -13    1    1    0    0    0  0.10593224048E+02  0.29740206922E+02  0.11581065190E+02  0.33627794136E+02  0.10566000000E+00 0.  1.
         13    1    1    0    0    0  0.31666081915E+02 -0.12967468418E+01  0.13672281417E+02  0.34516151862E+02  0.10566000000E+00 0. -1.
         22    1    1    0    0    0 -0.42259305963E+02 -0.28443460081E+02 -0.25253346606E+02  0.56856054002E+02  0.00000000000E+00 0. -1.
</event>
<event>
 4    1  0.9957587E-003  0.9118800E+02  0.7818608E-02  0.1130116E+00
         25   -1    0    0    0    0  0.00000000000E+00  0.00000000000E+00  0.99999998245E-14  0.12500000000E+03  0.12500000000E+03 0.  0.
        -13    1    1    0    0    0  0.23298117407E+02 -0.33069144538E+02 -0.15919591472E+02  0.43472004231E+02  0.10566000000E+00 0.  1.
         13    1    1    0    0    0  0.98942681822E+01 -0.14159944006E+02 -0.80063969351E+01  0.19039803388E+02  0.10566000000E+00 0. -1.
         22    1    1    0    0    0 -0.33192385589E+02  0.47229088545E+02  0.23925988407E+02  0.62488192381E+02  0.00000000000E+00 0. -1.
</event>
<event>
 4    1  0.9957587E-003  0.9118800E+02  0.7818608E-02  0.1130116E+00
         25   -1    0    0    0    0  0.00000000000E+00  0.00000000000E+00  0.99999998245E-14  0.12500000000E+03  0.12500000000E+03 0.  0.
        -13    1    1    0    0    0 -0.29264563889E+02  0.51618207462E+01 -0.12875997450E+02  0.32386132332E+02  0.10566000000E+00 0. -1.
         13    1    1    0    0    0 -0.27046770687E+02  0.31810878393E+01 -0.12888000501E+02  0.30129036582E+02  0.10566000000E+00 0.  1.
         22    1    1    0    0    0  0.56311334576E+02 -0.83429085855E+01  0.25763997951E+02  0.62484831086E+02  0.00000000000E+00 0. -1.
</event>
<event>
 4    1  0.9957587E-003  0.9118800E+02  0.7818608E-02  0.1130116E+00
         25   -1    0    0    0    0  0.00000000000E+00  0.00000000000E+00  0.99999998245E-14  0.12500000000E+03  0.12500000000E+03 0.  0.
        -13    1    1    0    0    0  0.58037166835E+01 -0.10511502414E+02 -0.69641412007E+00  0.12027924468E+02  0.10566000000E+00 0. -1.
         13    1    1    0    0    0  0.22003726520E+02 -0.45361025338E+02  0.31443658076E+01  0.50514203951E+02  0.10566000000E+00 0.  1.
         22    1    1    0    0    0 -0.27807443203E+02  0.55872527752E+02 -0.24479516875E+01  0.62457871581E+02  0.00000000000E+00 0.  1.
</event>
<event>
 4    1  0.9957587E-003  0.9118800E+02  0.7818608E-02  0.1130116E+00
         25   -1    0    0    0    0  0.00000000000E+00  0.00000000000E+00  0.99999998245E-14  0.12500000000E+03  0.12500000000E+03 0.  0.
        -13    1    1    0    0    0  0.27362598178E+02 -0.38730196759E+01  0.66105634556E+01  0.28415185618E+02  0.10566000000E+00 0. -1.
         13    1    1    0    0    0  0.31432811544E+02 -0.70925245184E+01  0.11306899442E+02  0.34149417047E+02  0.10566000000E+00 0.  1.
         22    1    1    0    0    0 -0.58795409721E+02  0.10965544194E+02 -0.17917462898E+02  0.62435397336E+02  0.00000000000E+00 0.  1.
</event>
<event>
 4    1  0.9957587E-003  0.9118800E+02  0.7818608E-02  0.1130116E+00
         25   -1    0    0    0    0  0.00000000000E+00  0.00000000000E+00  0.99999998245E-14  0.12500000000E+03  0.12500000000E+03 0.  0.
        -13    1    1    0    0    0 -0.85118311874E+01 -0.19984583721E+02  0.10848671050E+00  0.21722287864E+02  0.10566000000E+00 0. -1.
         13    1    1    0    0    0 -0.15493736986E+02 -0.37717170504E+02  0.49894056604E+00  0.40778682449E+02  0.10566000000E+00 0.  1.
         22    1    1    0    0    0  0.24005568173E+02  0.57701754224E+02 -0.60742727655E+00  0.62499029687E+02  0.00000000000E+00 0.  1.
</event>
<event>
 4    1  0.9957587E-003  0.9118800E+02  0.7818608E-02  0.1130116E+00
         25   -1    0    0    0    0  0.00000000000E+00  0.00000000000E+00  0.99999998245E-14  0.12500000000E+03  0.12500000000E+03 0.  0.
        -13    1    1    0    0    0  0.30276550561E+01  0.18750928046E+02  0.10560141763E+02  0.21732274520E+02  0.10566000000E+00 0. -1.
         13    1    1    0    0    0  0.15285672265E+02 -0.22504506187E+02  0.40558809545E+02  0.48837821113E+02  0.10566000000E+00 0.  1.
         22    1    1    0    0    0 -0.18313327321E+02  0.37535781416E+01 -0.51118951309E+02  0.54429904366E+02  0.00000000000E+00 0.  1.
</event>
<event>
 4    1  0.9957587E-003  0.9118800E+02  0.7818608E-02  0.1130116E+00
         25   -1    0    0    0    0  0.00000000000E+00  0.00000000000E+00  0.99999998245E-14  0.12500000000E+03  0.12500000000E+03 0.  0.
        -13    1    1    0    0    0 -0.11581678094E+02  0.50267269667E+01 -0.23253334133E+01  0.12838286139E+02  0.10566000000E+00 0.  1.
         13    1    1    0    0    0 -0.44118893640E+02  0.22000174971E+02 -0.61145905595E+01  0.49677800439E+02  0.10566000000E+00 0. -1.
         22    1    1    0    0    0  0.55700571734E+02 -0.27026901937E+02  0.84399239728E+01  0.62483913422E+02  0.00000000000E+00 0.  1.
</event>
<event>
 4    1  0.9957587E-003  0.9118800E+02  0.7818608E-02  0.1130116E+00
         25   -1    0    0    0    0  0.00000000000E+00  0.00000000000E+00  0.99999998245E-14  0.12500000000E+03  0.12500000000E+03 0.  0.
        -13    1    1    0    0    0 -0.12389170221E+02 -0.21753036075E+01  0.72662804704E+01  0.14526991446E+02  0.10566000000E+00 0. -1.
         13    1    1    0    0    0 -0.46388271551E+02  0.12249816345E+02  0.86474683686E+01  0.48751611371E+02  0.10566000000E+00 0.  1.
         22    1    1    0    0    0  0.58777441772E+02 -0.10074512738E+02 -0.15913748839E+02  0.61721397184E+02  0.00000000000E+00 0.  1.
</event>
<event>
 4    1  0.9957587E-003  0.9118800E+02  0.7818608E-02  0.1130116E+00
         25   -1    0    0    0    0  0.00000000000E+00  0.00000000000E+00  0.99999998245E-14  0.12500000000E+03  0.12500000000E+03 0.  0.
        -13    1    1    0    0    0 -0.12666590693E+01 -0.19031026610E+01 -0.22620047758E+01  0.32177716789E+01  0.10566000000E+00 0.  1.
         13    1    1    0    0    0 -0.21908157848E+02 -0.36638285925E+02 -0.41137238328E+02  0.59284187750E+02  0.10566000000E+00 0.  1.
         22    1    1    0    0    0  0.23174816917E+02  0.38541388586E+02  0.43399243104E+02  0.62498040572E+02  0.00000000000E+00 0.  1.
</event>
<event>
 4    1  0.9957587E-003  0.9118800E+02  0.7818608E-02  0.1130116E+00
         25   -1    0    0    0    0  0.00000000000E+00  0.00000000000E+00  0.99999998245E-14  0.12500000000E+03  0.12500000000E+03 0.  0.
        -13    1    1    0    0    0  0.17128580479E+01 -0.25674922398E+02  0.32259636445E+02  0.41265370838E+02  0.10566000000E+00 0.  1.
         13    1    1    0    0    0 -0.31858258085E+01 -0.16612540400E+02  0.13328680572E+02  0.21535804476E+02  0.10566000000E+00 0. -1.
         22    1    1    0    0    0  0.14729677606E+01  0.42287462798E+02 -0.45588317016E+02  0.62198824686E+02  0.00000000000E+00 0. -1.
</event>
<event>
 4    1  0.9957587E-003  0.9118800E+02  0.7818608E-02  0.1130116E+00
         25   -1    0    0    0    0  0.00000000000E+00  0.00000000000E+00  0.99999998245E-14  0.12500000000E+03  0.12500000000E+03 0.  0.
        -13    1    1    0    0    0  0.12224850897E+02  0.17931524314E+02 -0.80384828538E+01  0.23143355727E+02  0.10566000000E+00 0.  1.
         13    1    1    0    0    0  0.20380913450E+02  0.30613689848E+02 -0.14015181290E+02  0.39357541968E+02  0.10566000000E+00 0. -1.
         22    1    1    0    0    0 -0.32605764347E+02 -0.48545214162E+02  0.22053664144E+02  0.62499102305E+02  0.00000000000E+00 0. -1.
</event>
<event>
 4    1  0.9957587E-003  0.9118800E+02  0.7818608E-02  0.1130116E+00
         25   -1    0    0    0    0  0.00000000000E+00  0.00000000000E+00  0.99999998245E-14  0.12500000000E+03  0.12500000000E+03 0.  0.
        -13    1    1    0    0    0 -0.92728836081E+01  0.39512019727E+02  0.27277229256E+02  0.48900352486E+02  0.10566000000E+00 0.  1.
         13    1    1    0    0    0 -0.12972234053E+02  0.10289534828E+01  0.10234008220E+02  0.16555473109E+02  0.10566000000E+00 0. -1.
         22    1    1    0    0    0  0.22245117661E+02 -0.40540973210E+02 -0.37511237476E+02  0.59544174405E+02  0.00000000000E+00 0.  1.
</event>
<event>
 4    1  0.9957587E-003  0.9118800E+02  0.7818608E-02  0.1130116E+00
         25   -1    0    0    0    0  0.00000000000E+00  0.00000000000E+00  0.99999998245E-14  0.12500000000E+03  0.12500000000E+03 0.  0.
        -13    1    1    0    0    0 -0.17430346085E+02  0.11593063114E+02 -0.91020421879E+00  0.20953656310E+02  0.10566000000E+00 0. -1.
         13    1    1    0    0    0 -0.35267832414E+02  0.21850472955E+02 -0.22756008985E+01  0.41550604027E+02  0.10566000000E+00 0.  1.
         22    1    1    0    0    0  0.52698178498E+02 -0.33443536069E+02  0.31858051173E+01  0.62495739663E+02  0.00000000000E+00 0. -1.
</event>
<event>
 4    1  0.9957587E-003  0.9118800E+02  0.7818608E-02  0.1130116E+00
         25   -1    0    0    0    0  0.00000000000E+00  0.00000000000E+00  0.99999998245E-14  0.12500000000E+03  0.12500000000E+03 0.  0.
        -13    1    1    0    0    0  0.25971157937E+02  0.19184128389E+02  0.40274392959E+02  0.51619470347E+02  0.10566000000E+00 0.  1.
         13    1    1    0    0    0  0.92046282750E+01 -0.18553148692E+02 -0.11190878115E+01  0.20741456787E+02  0.10566000000E+00 0. -1.
         22    1    1    0    0    0 -0.35175786212E+02 -0.63097969650E+00 -0.39155305147E+02  0.52639072866E+02  0.00000000000E+00 0.  1.
</event>
<event>
 4    1  0.9957587E-003  0.9118800E+02  0.7818608E-02  0.1130116E+00
         25   -1    0    0    0    0  0.00000000000E+00  0.00000000000E+00  0.99999998245E-14  0.12500000000E+03  0.12500000000E+03 0.  0.
        -13    1    1    0    0    0 -0.12778788544E+01 -0.29946745869E+00  0.54903483653E+01  0.56460379323E+01  0.10566000000E+00 0.  1.
         13    1    1    0    0    0  0.50399155845E+02 -0.32263537860E+02  0.24235974672E+01  0.59890698558E+02  0.10566000000E+00 0. -1.
         22    1    1    0    0    0 -0.49121276990E+02  0.32563005319E+02 -0.79139458325E+01  0.59463263509E+02  0.00000000000E+00 0. -1.
</event>
<event>
 4    1  0.9957587E-003  0.9118800E+02  0.7818608E-02  0.1130116E+00
         25   -1    0    0    0    0  0.00000000000E+00  0.00000000000E+00  0.99999998245E-14  0.12500000000E+03  0.12500000000E+03 0.  0.
        -13    1    1    0    0    0 -0.32506144286E+00 -0.41703449787E+02 -0.20292534302E+02  0.46379753142E+02  0.10566000000E+00 0. -1.
         13    1    1    0    0    0  0.10741632167E+02 -0.63815191896E+01 -0.13911418751E+02  0.18698801685E+02  0.10566000000E+00 0.  1.
         22    1    1    0    0    0 -0.10416570724E+02  0.48084968977E+02  0.34203953052E+02  0.59921445173E+02  0.00000000000E+00 0. -1.
</event>
<event>
 4    1  0.9957587E-003  0.9118800E+02  0.7818608E-02  0.1130116E+00
         25   -1    0    0    0    0  0.00000000000E+00  0.00000000000E+00  0.99999998245E-14  0.12500000000E+03  0.12500000000E+03 0.  0.
        -13    1    1    0    0    0  0.19154877687E+02  0.40698215268E+02  0.64078399996E+01  0.45434850530E+02  0.10566000000E+00 0.  1.
         13    1    1    0    0    0  0.12636911845E+02  0.11886130741E+02  0.23101875839E+01  0.17501993477E+02  0.10566000000E+00 0. -1.
         22    1    1    0    0    0 -0.31791789532E+02 -0.52584346009E+02 -0.87180275835E+01  0.62063155993E+02  0.00000000000E+00 0. -1.
</event>
<event>
 4    1  0.9957587E-003  0.9118800E+02  0.7818608E-02  0.1130116E+00
         25   -1    0    0    0    0  0.00000000000E+00  0.00000000000E+00  0.99999998245E-14  0.12500000000E+03  0.12500000000E+03 0.  0.
        -13    1    1    0    0    0  0.69819469398E+01  0.12008096607E+02  0.12466927529E+02  0.18664871102E+02  0.10566000000E+00 0.  1.
         13    1    1    0    0    0  0.18074017547E+02  0.28011423724E+02  0.28473464343E+02  0.43841296799E+02  0.10566000000E+00 0. -1.
         22    1    1    0    0    0 -0.25055964486E+02 -0.40019520330E+02 -0.40940391872E+02  0.62493832099E+02  0.00000000000E+00 0.  1.
</event>
<event>
 4    1  0.9957587E-003  0.9118800E+02  0.7818608E-02  0.1130116E+00
         25   -1    0    0    0    0  0.00000000000E+00  0.00000000000E+00  0.99999998245E-14  0.12500000000E+03  0.12500000000E+03 0.  0.
        -13    1    1    0    0    0 -0.20946913557E+02 -0.30947133083E+02 -0.30268140735E+02  0.48090225007E+02  0.10566000000E+00 0. -1.
         13    1    1    0    0    0  0.17931069896E+02 -0.77421779167E+01 -0.91731511797E+01  0.21578286612E+02  0.10566000000E+00 0.  1.
         22    1    1    0    0    0  0.30158436610E+01  0.38689310999E+02  0.39441291915E+02  0.55331488381E+02  0.00000000000E+00 0. -1.
</event>
<event>
 4    1  0.9957587E-003  0.9118800E+02  0.7818608E-02  0.1130116E+00
         25   -1    0    0    0    0  0.00000000000E+00  0.00000000000E+00  0.99999998245E-14  0.12500000000E+03  0.12500000000E+03 0.  0.
        -13    1    1    0    0    0  0.15032657031E+02 -0.14513028600E+02 -0.14828728985E+02  0.25622473415E+02  0.10566000000E+00 0.  1.
         13    1    1    0    0    0  0.22378464415E+02 -0.23980698509E+02 -0.17028732748E+02  0.36957522558E+02  0.10566000000E+00 0. -1.
         22    1    1    0    0    0 -0.37411121446E+02  0.38493727110E+02  0.31857461733E+02  0.62420004027E+02  0.00000000000E+00 0.  1.
</event>
<event>
 4    1  0.9957587E-003  0.9118800E+02  0.7818608E-02  0.1130116E+00
         25   -1    0    0    0    0  0.00000000000E+00  0.00000000000E+00  0.99999998245E-14  0.12500000000E+03  0.12500000000E+03 0.  0.
        -13    1    1    0    0    0 -0.61604505027E+01  0.48746369441E+01 -0.10535992266E+01  0.79268197342E+01  0.10566000000E+00 0. -1.
         13    1    1    0    0    0 -0.41014992663E+02  0.34769809163E+02 -0.93591339056E+01  0.54578144013E+02  0.10566000000E+00 0.  1.
         22    1    1    0    0    0  0.47175443166E+02 -0.39644446107E+02  0.10412733132E+02  0.62495036253E+02  0.00000000000E+00 0.  1.
</event>
<event>
 4    1  0.9957587E-003  0.9118800E+02  0.7818608E-02  0.1130116E+00
         25   -1    0    0    0    0  0.00000000000E+00  0.00000000000E+00  0.99999998245E-14  0.12500000000E+03  0.12500000000E+03 0.  0.
        -13    1    1    0    0    0 -0.20359712947E+02 -0.38830761449E+02  0.16968643171E+02  0.47013742258E+02  0.10566000000E+00 0. -1.
         13    1    1    0    0    0 -0.64418635458E+01 -0.12803318960E+02  0.58697354836E+01  0.15488303361E+02  0.10566000000E+00 0. -1.
         22    1    1    0    0    0  0.26801576493E+02  0.51634080409E+02 -0.22838378654E+02  0.62497954381E+02  0.00000000000E+00 0. -1.
</event>
<event>
 4    1  0.9957587E-003  0.9118800E+02  0.7818608E-02  0.1130116E+00
         25   -1    0    0    0    0  0.00000000000E+00  0.00000000000E+00  0.99999998245E-14  0.12500000000E+03  0.12500000000E+03 0.  0.
        -13    1    1    0    0    0  0.29038078110E+00 -0.44993688218E+02  0.77183394141E+00  0.45001368780E+02  0.10566000000E+00 0.  1.
         13    1    1    0    0    0 -0.33974852628E+00 -0.17483977961E+02  0.73106314548E+00  0.17502872100E+02  0.10566000000E+00 0. -1.
         22    1    1    0    0    0  0.49367745177E-01  0.62477666178E+02 -0.15028970869E+01  0.62495759120E+02  0.00000000000E+00 0.  1.
</event>
<event>
 4    1  0.9957587E-003  0.9118800E+02  0.7818608E-02  0.1130116E+00
         25   -1    0    0    0    0  0.00000000000E+00  0.00000000000E+00  0.99999998245E-14  0.12500000000E+03  0.12500000000E+03 0.  0.
        -13    1    1    0    0    0 -0.11251704764E+01  0.16647017990E+02 -0.17375446307E+02  0.24089551987E+02  0.10566000000E+00 0.  1.
         13    1    1    0    0    0 -0.18194281416E+01  0.26537740614E+02 -0.27709275941E+02  0.38410638278E+02  0.10566000000E+00 0.  1.
         22    1    1    0    0    0  0.29445986180E+01 -0.43184758604E+02  0.45084722248E+02  0.62499809735E+02  0.00000000000E+00 0.  1.
</event>
<event>
 4    1  0.9957587E-003  0.9118800E+02  0.7818608E-02  0.1130116E+00
         25   -1    0    0    0    0  0.00000000000E+00  0.00000000000E+00  0.99999998245E-14  0.12500000000E+03  0.12500000000E+03 0.  0.
        -13    1    1    0    0    0  0.31436849441E+02  0.51240355148E+01 -0.22438878552E+02  0.38962105660E+02  0.10566000000E+00 0.  1.
         13    1    1    0    0    0  0.18844127686E+02  0.59413732846E+01 -0.12895673629E+02  0.23594716085E+02  0.10566000000E+00 0. -1.
         22    1    1    0    0    0 -0.50280977127E+02 -0.11065408799E+02  0.35334552181E+02  0.62443178255E+02  0.00000000000E+00 0.  1.
</event>
<event>
 4    1  0.9957587E-003  0.9118800E+02  0.7818608E-02  0.1130116E+00
         25   -1    0    0    0    0  0.00000000000E+00  0.00000000000E+00  0.99999998245E-14  0.12500000000E+03  0.12500000000E+03 0.  0.
        -13    1    1    0    0    0 -0.10023659684E+02  0.48107630863E+01 -0.14667767115E+02  0.18405753206E+02  0.10566000000E+00 0.  1.
         13    1    1    0    0    0 -0.24494774694E+02  0.11415656603E+02 -0.34843191123E+02  0.44095014851E+02  0.10566000000E+00 0. -1.
         22    1    1    0    0    0  0.34518434379E+02 -0.16226419689E+02  0.49510958237E+02  0.62499231943E+02  0.00000000000E+00 0. -1.
</event>
<event>
 4    1  0.9957587E-003  0.9118800E+02  0.7818608E-02  0.1130116E+00
         25   -1    0    0    0    0  0.00000000000E+00  0.00000000000E+00  0.99999998245E-14  0.12500000000E+03  0.12500000000E+03 0.  0.
        -13    1    1    0    0    0 -0.12333173335E+02 -0.35406970104E+02 -0.55253132093E+01  0.37898561273E+02  0.10566000000E+00 0. -1.
         13    1    1    0    0    0 -0.91530725017E+01 -0.22898765420E+02 -0.54800362963E+00  0.24666650888E+02  0.10566000000E+00 0.  1.
         22    1    1    0    0    0  0.21486245837E+02  0.58305735524E+02  0.60733168389E+01  0.62434787840E+02  0.00000000000E+00 0. -1.
</event>
<event>
 4    1  0.9957587E-003  0.9118800E+02  0.7818608E-02  0.1130116E+00
         25   -1    0    0    0    0  0.00000000000E+00  0.00000000000E+00  0.99999998245E-14  0.12500000000E+03  0.12500000000E+03 0.  0.
        -13    1    1    0    0    0  0.13108754118E+02  0.25961275600E+01  0.58086830701E+01  0.14571591399E+02  0.10566000000E+00 0. -1.
         13    1    1    0    0    0  0.43445214393E+02  0.72600489947E+01  0.18898636050E+02  0.47930831138E+02  0.10566000000E+00 0.  1.
         22    1    1    0    0    0 -0.56553968511E+02 -0.98561765547E+01 -0.24707319121E+02  0.62497577463E+02  0.00000000000E+00 0.  1.
</event>
<event>
 4    1  0.9957587E-003  0.9118800E+02  0.7818608E-02  0.1130116E+00
         25   -1    0    0    0    0  0.00000000000E+00  0.00000000000E+00  0.99999998245E-14  0.12500000000E+03  0.12500000000E+03 0.  0.
        -13    1    1    0    0    0  0.22051851846E+01 -0.32218942431E+01  0.13149596726E+02  0.13717379572E+02  0.10566000000E+00 0. -1.
         13    1    1    0    0    0  0.81423137678E+01 -0.11676067788E+02  0.46659905428E+02  0.48783047989E+02  0.10566000000E+00 0. -1.
         22    1    1    0    0    0 -0.10347498952E+02  0.14897962031E+02 -0.59809502154E+02  0.62499572440E+02  0.00000000000E+00 0. -1.
</event>
<event>
 4    1  0.9957587E-003  0.9118800E+02  0.7818608E-02  0.1130116E+00
         25   -1    0    0    0    0  0.00000000000E+00  0.00000000000E+00  0.99999998245E-14  0.12500000000E+03  0.12500000000E+03 0.  0.
        -13    1    1    0    0    0  0.15352443212E+02 -0.32067962779E+02  0.46713366494E+02  0.58704356931E+02  0.10566000000E+00 0.  1.
         13    1    1    0    0    0  0.77030131136E+01  0.28366725804E+00 -0.63937894341E+01  0.10015417390E+02  0.10566000000E+00 0. -1.
         22    1    1    0    0    0 -0.23055456325E+02  0.31784295521E+02 -0.40319577060E+02  0.56280225679E+02  0.00000000000E+00 0.  1.
</event>
<event>
 4    1  0.9957587E-003  0.9118800E+02  0.7818608E-02  0.1130116E+00
         25   -1    0    0    0    0  0.00000000000E+00  0.00000000000E+00  0.99999998245E-14  0.12500000000E+03  0.12500000000E+03 0.  0.
        -13    1    1    0    0    0  0.34821764349E+02  0.16874537571E+02 -0.27156366220E+01  0.38790348502E+02  0.10566000000E+00 0.  1.
         13    1    1    0    0    0  0.21044207225E+02  0.10781356714E+02 -0.17715940214E+01  0.23711727473E+02  0.10566000000E+00 0.  1.
         22    1    1    0    0    0 -0.55865971574E+02 -0.27655894286E+02  0.44872306435E+01  0.62497924025E+02  0.00000000000E+00 0.  1.
</event>
<event>
 4    1  0.9957587E-003  0.9118800E+02  0.7818608E-02  0.1130116E+00
         25   -1    0    0    0    0  0.00000000000E+00  0.00000000000E+00  0.99999998245E-14  0.12500000000E+03  0.12500000000E+03 0.  0.
        -13    1    1    0    0    0 -0.54897894157E+02  0.10668278805E+02 -0.22822947660E+01  0.55971519445E+02  0.10566000000E+00 0.  1.
         13    1    1    0    0    0 -0.65410225485E+01 -0.34244462257E+00 -0.10705725168E+01  0.66377355965E+01  0.10566000000E+00 0. -1.
         22    1    1    0    0    0  0.61438916705E+02 -0.10325834182E+02  0.33528672828E+01  0.62390744959E+02  0.00000000000E+00 0.  1.
</event>
<event>
 4    1  0.9957587E-003  0.9118800E+02  0.7818608E-02  0.1130116E+00
         25   -1    0    0    0    0  0.00000000000E+00  0.00000000000E+00  0.99999998245E-14  0.12500000000E+03  0.12500000000E+03 0.  0.
        -13    1    1    0    0    0  0.35582164617E+00  0.23656767695E+02 -0.14244571739E+02  0.27616811092E+02  0.10566000000E+00 0. -1.
         13    1    1    0    0    0  0.91611248056E-01  0.29896142384E+02 -0.17974399197E+02  0.34883777212E+02  0.10566000000E+00 0. -1.
         22    1    1    0    0    0 -0.44743289422E+00 -0.53552910079E+02  0.32218970936E+02  0.62499411696E+02  0.00000000000E+00 0. -1.
</event>
<event>
 4    1  0.9957587E-003  0.9118800E+02  0.7818608E-02  0.1130116E+00
         25   -1    0    0    0    0  0.00000000000E+00  0.00000000000E+00  0.99999998245E-14  0.12500000000E+03  0.12500000000E+03 0.  0.
        -13    1    1    0    0    0 -0.36331562604E+00 -0.18953098028E+01 -0.44076044725E+02  0.44118398431E+02  0.10566000000E+00 0.  1.
         13    1    1    0    0    0 -0.16405329689E+00 -0.91826212435E+00 -0.18357990280E+02  0.18381977314E+02  0.10566000000E+00 0.  1.
         22    1    1    0    0    0  0.52736892293E+00  0.28135719272E+01  0.62434035005E+02  0.62499624255E+02  0.00000000000E+00 0.  1.
</event>
<event>
 4    1  0.9957587E-003  0.9118800E+02  0.7818608E-02  0.1130116E+00
         25   -1    0    0    0    0  0.00000000000E+00  0.00000000000E+00  0.99999998245E-14  0.12500000000E+03  0.12500000000E+03 0.  0.
        -13    1    1    0    0    0  0.17716496138E+02  0.12034448937E+02  0.13490508252E+02  0.25312194167E+02  0.10566000000E+00 0.  1.
         13    1    1    0    0    0  0.25577653464E+02  0.17890681138E+02  0.20216941548E+02  0.37189094072E+02  0.10566000000E+00 0. -1.
         22    1    1    0    0    0 -0.43294149602E+02 -0.29925130075E+02 -0.33707449800E+02  0.62498711761E+02  0.00000000000E+00 0. -1.
</event>
<event>
 4    1  0.9957587E-003  0.9118800E+02  0.7818608E-02  0.1130116E+00
         25   -1    0    0    0    0  0.00000000000E+00  0.00000000000E+00  0.99999998245E-14  0.12500000000E+03  0.12500000000E+03 0.  0.
        -13    1    1    0    0    0 -0.10430154276E+02  0.56614749791E+01  0.15256776683E+02  0.19329273549E+02  0.10566000000E+00 0.  1.
         13    1    1    0    0    0 -0.31850868147E+02  0.46604289998E+01  0.29196711736E+02  0.43458676239E+02  0.10566000000E+00 0. -1.
         22    1    1    0    0    0  0.42281022423E+02 -0.10321903979E+02 -0.44453488420E+02  0.62212050212E+02  0.00000000000E+00 0. -1.
</event>
<event>
 4    1  0.9957587E-003  0.9118800E+02  0.7818608E-02  0.1130116E+00
         25   -1    0    0    0    0  0.00000000000E+00  0.00000000000E+00  0.99999998245E-14  0.12500000000E+03  0.12500000000E+03 0.  0.
        -13    1    1    0    0    0 -0.15236467669E+02 -0.54897932941E+02  0.15334191900E+02  0.59000691467E+02  0.10566000000E+00 0.  1.
         13    1    1    0    0    0 -0.99352922000E+00 -0.32463968525E+01  0.84814352440E+00  0.35009576274E+01  0.10566000000E+00 0. -1.
         22    1    1    0    0    0  0.16229996889E+02  0.58144329794E+02 -0.16182335425E+02  0.62498350906E+02  0.00000000000E+00 0.  1.
</event>
<event>
 4    1  0.9957587E-003  0.9118800E+02  0.7818608E-02  0.1130116E+00
         25   -1    0    0    0    0  0.00000000000E+00  0.00000000000E+00  0.99999998245E-14  0.12500000000E+03  0.12500000000E+03 0.  0.
        -13    1    1    0    0    0  0.29905633120E+01  0.17154673148E+01 -0.12900764838E+01  0.36826292782E+01  0.10566000000E+00 0. -1.
         13    1    1    0    0    0  0.51259697545E+02  0.50413480201E+01 -0.28698987116E+02  0.58962825642E+02  0.10566000000E+00 0.  1.
         22    1    1    0    0    0 -0.54250260857E+02 -0.67568153349E+01  0.29989063600E+02  0.62354545079E+02  0.00000000000E+00 0.  1.
</event>
<event>
 4    1  0.9957587E-003  0.9118800E+02  0.7818608E-02  0.1130116E+00
         25   -1    0    0    0    0  0.00000000000E+00  0.00000000000E+00  0.99999998245E-14  0.12500000000E+03  0.12500000000E+03 0.  0.
        -13    1    1    0    0    0 -0.23093850047E+02 -0.16584862418E+02  0.19281900383E+02  0.34353841384E+02  0.10566000000E+00 0.  1.
         13    1    1    0    0    0 -0.20556179848E+02 -0.14173232563E+02  0.13099611653E+02  0.28196596261E+02  0.10566000000E+00 0. -1.
         22    1    1    0    0    0  0.43650029894E+02  0.30758094981E+02 -0.32381512035E+02  0.62449562355E+02  0.00000000000E+00 0. -1.
</event>
<event>
 4    1  0.9957587E-003  0.9118800E+02  0.7818608E-02  0.1130116E+00
         25   -1    0    0    0    0  0.00000000000E+00  0.00000000000E+00  0.99999998245E-14  0.12500000000E+03  0.12500000000E+03 0.  0.
        -13    1    1    0    0    0 -0.19943362103E+01  0.26560229884E+02  0.33921219028E+02  0.43128684802E+02  0.10566000000E+00 0.  1.
         13    1    1    0    0    0  0.38230634705E+01  0.15116314597E+02  0.12114684837E+02  0.19745772561E+02  0.10566000000E+00 0. -1.
         22    1    1    0    0    0 -0.18287272603E+01 -0.41676544481E+02 -0.46035903865E+02  0.62125542637E+02  0.00000000000E+00 0. -1.
</event>
<event>
 4    1  0.9957587E-003  0.9118800E+02  0.7818608E-02  0.1130116E+00
         25   -1    0    0    0    0  0.00000000000E+00  0.00000000000E+00  0.99999998245E-14  0.12500000000E+03  0.12500000000E+03 0.  0.
        -13    1    1    0    0    0 -0.41385664262E+01 -0.10712169038E+01  0.40663259264E+01  0.59009667254E+01  0.10566000000E+00 0. -1.
         13    1    1    0    0    0 -0.33725183754E+02 -0.28935310929E+02 -0.39285196322E+02  0.59312545485E+02  0.10566000000E+00 0.  1.
         22    1    1    0    0    0  0.37863750180E+02  0.30006527833E+02  0.35218870396E+02  0.59786487790E+02  0.00000000000E+00 0.  1.
</event>
<event>
 4    1  0.9957587E-003  0.9118800E+02  0.7818608E-02  0.1130116E+00
         25   -1    0    0    0    0  0.00000000000E+00  0.00000000000E+00  0.99999998245E-14  0.12500000000E+03  0.12500000000E+03 0.  0.
        -13    1    1    0    0    0  0.28306131786E+01 -0.42608003719E+01 -0.13477643172E+02  0.14416130559E+02  0.10566000000E+00 0. -1.
         13    1    1    0    0    0 -0.33095782329E+01 -0.15680321347E+02 -0.45544706740E+02  0.48282059419E+02  0.10566000000E+00 0.  1.
         22    1    1    0    0    0  0.47896505424E+00  0.19941121719E+02  0.59022349912E+02  0.62301810023E+02  0.00000000000E+00 0.  1.
</event>
<event>
 4    1  0.9957587E-003  0.9118800E+02  0.7818608E-02  0.1130116E+00
         25   -1    0    0    0    0  0.00000000000E+00  0.00000000000E+00  0.99999998245E-14  0.12500000000E+03  0.12500000000E+03 0.  0.
        -13    1    1    0    0    0 -0.37455818374E+01 -0.37622639053E+01  0.11362871330E+01  0.54301312579E+01  0.10566000000E+00 0.  1.
         13    1    1    0    0    0 -0.46965079001E+02 -0.32273350164E+02  0.41452977642E+01  0.57135649414E+02  0.10566000000E+00 0. -1.
         22    1    1    0    0    0  0.50710660839E+02  0.36035614069E+02 -0.52815848973E+01  0.62434219328E+02  0.00000000000E+00 0. -1.
</event>
<event>
 4    1  0.9957587E-003  0.9118800E+02  0.7818608E-02  0.1130116E+00
         25   -1    0    0    0    0  0.00000000000E+00  0.00000000000E+00  0.99999998245E-14  0.12500000000E+03  0.12500000000E+03 0.  0.
        -13    1    1    0    0    0 -0.14422848175E+01 -0.19647456174E+01  0.37534213625E+00  0.24682902161E+01  0.10566000000E+00 0.  1.
         13    1    1    0    0    0 -0.38078229271E+02 -0.45632850926E+02  0.84796964287E+01  0.60035198373E+02  0.10566000000E+00 0.  1.
         22    1    1    0    0    0  0.39520514089E+02  0.47597596544E+02 -0.88550385650E+01  0.62496511411E+02  0.00000000000E+00 0.  1.
</event>
<event>
 4    1  0.9957587E-003  0.9118800E+02  0.7818608E-02  0.1130116E+00
         25   -1    0    0    0    0  0.00000000000E+00  0.00000000000E+00  0.99999998245E-14  0.12500000000E+03  0.12500000000E+03 0.  0.
        -13    1    1    0    0    0  0.55877221021E+00 -0.25855781043E+02 -0.78063045985E+00  0.25873812778E+02  0.10566000000E+00 0.  1.
         13    1    1    0    0    0 -0.39906362184E+02 -0.35806898736E+01 -0.21159294853E+02  0.45310771406E+02  0.10566000000E+00 0. -1.
         22    1    1    0    0    0  0.39347589974E+02  0.29436470916E+02  0.21939925313E+02  0.53815415816E+02  0.00000000000E+00 0. -1.
</event>
<event>
 4    1  0.9957587E-003  0.9118800E+02  0.7818608E-02  0.1130116E+00
         25   -1    0    0    0    0  0.00000000000E+00  0.00000000000E+00  0.99999998245E-14  0.12500000000E+03  0.12500000000E+03 0.  0.
        -13    1    1    0    0    0 -0.31055811144E+02  0.15232594414E+02 -0.19398818411E+02  0.39658803035E+02  0.10566000000E+00 0. -1.
         13    1    1    0    0    0  0.19549725803E+02 -0.67692013938E+01 -0.28579469559E+02  0.35281880772E+02  0.10566000000E+00 0.  1.
         22    1    1    0    0    0  0.11506085341E+02 -0.84633930205E+01  0.47978287970E+02  0.50059316194E+02  0.00000000000E+00 0. -1.
</event>
<event>
 4    1  0.9957587E-003  0.9118800E+02  0.7818608E-02  0.1130116E+00
         25   -1    0    0    0    0  0.00000000000E+00  0.00000000000E+00  0.99999998245E-14  0.12500000000E+03  0.12500000000E+03 0.  0.
        -13    1    1    0    0    0 -0.23189853695E+02  0.22373055970E+02  0.10099398599E+02  0.33768801636E+02  0.10566000000E+00 0. -1.
         13    1    1    0    0    0 -0.19247960023E+02  0.19378332776E+02  0.89219445255E+01  0.28733534491E+02  0.10566000000E+00 0.  1.
         22    1    1    0    0    0  0.42437813718E+02 -0.41751388746E+02 -0.19021343124E+02  0.62497663873E+02  0.00000000000E+00 0. -1.
</event>
<event>
 4    1  0.9957587E-003  0.9118800E+02  0.7818608E-02  0.1130116E+00
         25   -1    0    0    0    0  0.00000000000E+00  0.00000000000E+00  0.99999998245E-14  0.12500000000E+03  0.12500000000E+03 0.  0.
        -13    1    1    0    0    0  0.36505247291E+02 -0.11563350384E+02  0.34656467872E+02  0.51647130426E+02  0.10566000000E+00 0.  1.
         13    1    1    0    0    0  0.54853332100E+01 -0.95934580963E+01  0.47258270669E+01  0.12019481028E+02  0.10566000000E+00 0. -1.
         22    1    1    0    0    0 -0.41990580501E+02  0.21156808480E+02 -0.39382294939E+02  0.61333388546E+02  0.00000000000E+00 0.  1.
</event>
<event>
 4    1  0.9957587E-003  0.9118800E+02  0.7818608E-02  0.1130116E+00
         25   -1    0    0    0    0  0.00000000000E+00  0.00000000000E+00  0.99999998245E-14  0.12500000000E+03  0.12500000000E+03 0.  0.
        -13    1    1    0    0    0  0.61996911985E-01  0.12389904502E+02 -0.15751150338E+02  0.20040545855E+02  0.10566000000E+00 0.  1.
         13    1    1    0    0    0  0.16665205095E+00  0.26520497970E+02 -0.33158198374E+02  0.42459885408E+02  0.10566000000E+00 0.  1.
         22    1    1    0    0    0 -0.22864896293E+00 -0.38910402471E+02  0.48909348712E+02  0.62499568736E+02  0.00000000000E+00 0.  1.
</event>
<event>
 4    1  0.9957587E-003  0.9118800E+02  0.7818608E-02  0.1130116E+00
         25   -1    0    0    0    0  0.00000000000E+00  0.00000000000E+00  0.99999998245E-14  0.12500000000E+03  0.12500000000E+03 0.  0.
        -13    1    1    0    0    0 -0.37866706949E+02 -0.10224363691E+01 -0.22710773631E-01  0.37880661968E+02  0.10566000000E+00 0. -1.
         13    1    1    0    0    0 -0.12502772617E+02  0.38801490928E+01  0.26928899128E+02  0.29942472383E+02  0.10566000000E+00 0.  1.
         22    1    1    0    0    0  0.50369479566E+02 -0.28577127237E+01 -0.26906188355E+02  0.57176865650E+02  0.00000000000E+00 0. -1.
</event>
<event>
 4    1  0.9957587E-003  0.9118800E+02  0.7818608E-02  0.1130116E+00
         25   -1    0    0    0    0  0.00000000000E+00  0.00000000000E+00  0.99999998245E-14  0.12500000000E+03  0.12500000000E+03 0.  0.
        -13    1    1    0    0    0  0.28109878334E+02 -0.23809154182E+00 -0.91291230426E+01  0.29556285272E+02  0.10566000000E+00 0. -1.
         13    1    1    0    0    0 -0.14030590924E+02  0.24985349065E+02  0.42700568060E+02  0.51424457471E+02  0.10566000000E+00 0.  1.
         22    1    1    0    0    0 -0.14079287410E+02 -0.24747257523E+02 -0.33571445017E+02  0.44019257256E+02  0.00000000000E+00 0.  1.
</event>
<event>
 4    1  0.9957587E-003  0.9118800E+02  0.7818608E-02  0.1130116E+00
         25   -1    0    0    0    0  0.00000000000E+00  0.00000000000E+00  0.99999998245E-14  0.12500000000E+03  0.12500000000E+03 0.  0.
        -13    1    1    0    0    0  0.38010334800E+02 -0.39829809017E+01 -0.29803498174E+02  0.48465548134E+02  0.10566000000E+00 0. -1.
         13    1    1    0    0    0  0.12210921812E+02 -0.14376630589E+01 -0.68957172193E+01  0.14097360269E+02  0.10566000000E+00 0.  1.
         22    1    1    0    0    0 -0.50221256611E+02  0.54206439607E+01  0.36699215394E+02  0.62437091597E+02  0.00000000000E+00 0. -1.
</event>
<event>
 4    1  0.9957587E-003  0.9118800E+02  0.7818608E-02  0.1130116E+00
         25   -1    0    0    0    0  0.00000000000E+00  0.00000000000E+00  0.99999998245E-14  0.12500000000E+03  0.12500000000E+03 0.  0.
        -13    1    1    0    0    0  0.34026826273E+02  0.16742549622E+01 -0.67884405402E+00  0.34074917889E+02  0.10566000000E+00 0. -1.
         13    1    1    0    0    0 -0.29204478240E+01 -0.20305530301E+01  0.40352711645E+02  0.40509315746E+02  0.10566000000E+00 0.  1.
         22    1    1    0    0    0 -0.31106378449E+02  0.35629806790E+00 -0.39673867591E+02  0.50415766365E+02  0.00000000000E+00 0. -1.
</event>
<event>
 4    1  0.9957587E-003  0.9118800E+02  0.7818608E-02  0.1130116E+00
         25   -1    0    0    0    0  0.00000000000E+00  0.00000000000E+00  0.99999998245E-14  0.12500000000E+03  0.12500000000E+03 0.  0.
        -13    1    1    0    0    0 -0.39364221356E+02  0.19583094506E+02  0.15846012025E+02  0.46734856098E+02  0.10566000000E+00 0. -1.
         13    1    1    0    0    0 -0.13303033203E+02  0.66821621883E+01  0.51889893238E+01  0.15765746356E+02  0.10566000000E+00 0. -1.
         22    1    1    0    0    0  0.52667254559E+02 -0.26265256694E+02 -0.21035001348E+02  0.62499397547E+02  0.00000000000E+00 0. -1.
</event>
<event>
 4    1  0.9957587E-003  0.9118800E+02  0.7818608E-02  0.1130116E+00
         25   -1    0    0    0    0  0.00000000000E+00  0.00000000000E+00  0.99999998245E-14  0.12500000000E+03  0.12500000000E+03 0.  0.
        -13    1    1    0    0    0 -0.98062684250E+01 -0.31120155742E+01 -0.43167048204E+01  0.11157627252E+02  0.10566000000E+00 0. -1.
         13    1    1    0    0    0 -0.45249228710E+02 -0.14177717239E+02 -0.19686670086E+02  0.51342735689E+02  0.10566000000E+00 0. -1.
         22    1    1    0    0    0  0.55055497135E+02  0.17289732813E+02  0.24003374907E+02  0.62499637058E+02  0.00000000000E+00 0. -1.
</event>
<event>
 4    1  0.9957587E-003  0.9118800E+02  0.7818608E-02  0.1130116E+00
         25   -1    0    0    0    0  0.00000000000E+00  0.00000000000E+00  0.99999998245E-14  0.12500000000E+03  0.12500000000E+03 0.  0.
        -13    1    1    0    0    0  0.11385989963E+01 -0.39294151513E+01 -0.10820559313E+01  0.42330509304E+01  0.10566000000E+00 0. -1.
         13    1    1    0    0    0  0.18324966901E+02 -0.52804903483E+02 -0.16471934441E+02  0.58270902104E+02  0.10566000000E+00 0.  1.
         22    1    1    0    0    0 -0.19463565897E+02  0.56734318634E+02  0.17553990372E+02  0.62496046965E+02  0.00000000000E+00 0.  1.
</event>
<event>
 4    1  0.9957587E-003  0.9118800E+02  0.7818608E-02  0.1130116E+00
         25   -1    0    0    0    0  0.00000000000E+00  0.00000000000E+00  0.99999998245E-14  0.12500000000E+03  0.12500000000E+03 0.  0.
        -13    1    1    0    0    0 -0.44112719843E+02  0.55239260186E+00  0.24031389379E+02  0.50236998607E+02  0.10566000000E+00 0.  1.
         13    1    1    0    0    0 -0.10811300243E+02 -0.57881648435E-01  0.57885678904E+01  0.12264022402E+02  0.10566000000E+00 0. -1.
         22    1    1    0    0    0  0.54924020085E+02 -0.49451095343E+00 -0.29819957269E+02  0.62498978991E+02  0.00000000000E+00 0.  1.
</event>
<event>
 4    1  0.9957587E-003  0.9118800E+02  0.7818608E-02  0.1130116E+00
         25   -1    0    0    0    0  0.00000000000E+00  0.00000000000E+00  0.99999998245E-14  0.12500000000E+03  0.12500000000E+03 0.  0.
        -13    1    1    0    0    0  0.19721166006E+00 -0.51671554934E+02  0.25020009231E+02  0.57410804799E+02  0.10566000000E+00 0.  1.
         13    1    1    0    0    0  0.61440264774E+00 -0.46617072625E+01  0.19939257358E+01  0.51084155166E+01  0.10566000000E+00 0. -1.
         22    1    1    0    0    0 -0.81161430781E+00  0.56333262197E+02 -0.27013934967E+02  0.62480779684E+02  0.00000000000E+00 0.  1.
</event>
<event>
 4    1  0.9957587E-003  0.9118800E+02  0.7818608E-02  0.1130116E+00
         25   -1    0    0    0    0  0.00000000000E+00  0.00000000000E+00  0.99999998245E-14  0.12500000000E+03  0.12500000000E+03 0.  0.
        -13    1    1    0    0    0 -0.39613157674E+02 -0.47539529447E+02  0.86467234251E+01  0.62481886263E+02  0.10566000000E+00 0.  1.
         13    1    1    0    0    0  0.72906046748E+00  0.13225904787E+01 -0.90998871190E-01  0.15166474770E+01  0.10566000000E+00 0. -1.
         22    1    1    0    0    0  0.38884097206E+02  0.46216938969E+02 -0.85557245539E+01  0.61001466260E+02  0.00000000000E+00 0.  1.
</event>
<event>
 4    1  0.9957587E-003  0.9118800E+02  0.7818608E-02  0.1130116E+00
         25   -1    0    0    0    0  0.00000000000E+00  0.00000000000E+00  0.99999998245E-14  0.12500000000E+03  0.12500000000E+03 0.  0.
        -13    1    1    0    0    0 -0.39000126342E+02 -0.40371951256E+01  0.48539893211E+02  0.62397445430E+02  0.10566000000E+00 0.  1.
         13    1    1    0    0    0 -0.47038236769E-02 -0.33186928620E-01  0.80843417750E-01  0.13719763840E+00  0.10566000000E+00 0. -1.
         22    1    1    0    0    0  0.39004830166E+02  0.40703820542E+01 -0.48620736629E+02  0.62465356932E+02  0.00000000000E+00 0.  1.
</event>
<event>
 4    1  0.9957587E-003  0.9118800E+02  0.7818608E-02  0.1130116E+00
         25   -1    0    0    0    0  0.00000000000E+00  0.00000000000E+00  0.99999998245E-14  0.12500000000E+03  0.12500000000E+03 0.  0.
        -13    1    1    0    0    0  0.34276778241E+01  0.12985181430E+02  0.18742016506E+01  0.13560520193E+02  0.10566000000E+00 0. -1.
         13    1    1    0    0    0  0.20485745726E+02  0.44569792502E+02  0.76560758857E+00  0.49058429455E+02  0.10566000000E+00 0.  1.
         22    1    1    0    0    0 -0.23913423550E+02 -0.57554973932E+02 -0.26398092391E+01  0.62381050352E+02  0.00000000000E+00 0.  1.
</event>
<event>
 4    1  0.9957587E-003  0.9118800E+02  0.7818608E-02  0.1130116E+00
         25   -1    0    0    0    0  0.00000000000E+00  0.00000000000E+00  0.99999998245E-14  0.12500000000E+03  0.12500000000E+03 0.  0.
        -13    1    1    0    0    0  0.78157365836E+01  0.42907760737E+02  0.11152321585E+02  0.45017186835E+02  0.10566000000E+00 0. -1.
         13    1    1    0    0    0  0.52735811693E+01  0.14819167491E+02  0.81590080693E+01  0.17720015806E+02  0.10566000000E+00 0.  1.
         22    1    1    0    0    0 -0.13089317753E+02 -0.57726928228E+02 -0.19311329655E+02  0.62262797358E+02  0.00000000000E+00 0.  1.
</event>
<event>
 4    1  0.9957587E-003  0.9118800E+02  0.7818608E-02  0.1130116E+00
         25   -1    0    0    0    0  0.00000000000E+00  0.00000000000E+00  0.99999998245E-14  0.12500000000E+03  0.12500000000E+03 0.  0.
        -13    1    1    0    0    0 -0.10582772986E+02  0.47927878250E+01  0.11587805297E+02  0.16408969951E+02  0.10566000000E+00 0.  1.
         13    1    1    0    0    0 -0.31306554229E+02  0.13591020690E+02  0.30987532927E+02  0.46098313874E+02  0.10566000000E+00 0. -1.
         22    1    1    0    0    0  0.41889327215E+02 -0.18383808515E+02 -0.42575338224E+02  0.62492716175E+02  0.00000000000E+00 0. -1.
</event>
<event>
 4    1  0.9957587E-003  0.9118800E+02  0.7818608E-02  0.1130116E+00
         25   -1    0    0    0    0  0.00000000000E+00  0.00000000000E+00  0.99999998245E-14  0.12500000000E+03  0.12500000000E+03 0.  0.
        -13    1    1    0    0    0  0.12036759908E+02  0.34440760306E+02 -0.14081271730E+02  0.39106814459E+02  0.10566000000E+00 0. -1.
         13    1    1    0    0    0  0.69144146292E+01  0.20756936628E+02 -0.82836286510E+01  0.23394213291E+02  0.10566000000E+00 0.  1.
         22    1    1    0    0    0 -0.18951174537E+02 -0.55197696935E+02  0.22364900381E+02  0.62498972250E+02  0.00000000000E+00 0. -1.
</event>
<event>
 4    1  0.9957587E-003  0.9118800E+02  0.7818608E-02  0.1130116E+00
         25   -1    0    0    0    0  0.00000000000E+00  0.00000000000E+00  0.99999998245E-14  0.12500000000E+03  0.12500000000E+03 0.  0.
        -13    1    1    0    0    0  0.64963355984E+01  0.70843342259E+01  0.29635248392E+01  0.10059016410E+02  0.10566000000E+00 0.  1.
         13    1    1    0    0    0  0.40655275483E+02  0.32634053832E+02  0.66133778308E+01  0.52550745233E+02  0.10566000000E+00 0. -1.
         22    1    1    0    0    0 -0.47151611081E+02 -0.39718388058E+02 -0.95769026700E+01  0.62390238357E+02  0.00000000000E+00 0. -1.
</event>
<event>
 4    1  0.9957587E-003  0.9118800E+02  0.7818608E-02  0.1130116E+00
         25   -1    0    0    0    0  0.00000000000E+00  0.00000000000E+00  0.99999998245E-14  0.12500000000E+03  0.12500000000E+03 0.  0.
        -13    1    1    0    0    0 -0.10794555283E+01 -0.36927850140E+02  0.24735266885E+01  0.37026488336E+02  0.10566000000E+00 0. -1.
         13    1    1    0    0    0  0.86321488731E+01 -0.21694616292E+02  0.13202260976E+02  0.26823147264E+02  0.10566000000E+00 0.  1.
         22    1    1    0    0    0 -0.75526933448E+01  0.58622466432E+02 -0.15675787665E+02  0.61150364400E+02  0.00000000000E+00 0. -1.
</event>
<event>
 4    1  0.9957587E-003  0.9118800E+02  0.7818608E-02  0.1130116E+00
         25   -1    0    0    0    0  0.00000000000E+00  0.00000000000E+00  0.99999998245E-14  0.12500000000E+03  0.12500000000E+03 0.  0.
        -13    1    1    0    0    0 -0.52097232926E+02  0.12075470380E+02  0.27057142450E+02  0.59933619823E+02  0.10566000000E+00 0. -1.
         13    1    1    0    0    0 -0.21408003038E+01  0.47326264911E+00  0.13395843310E+01  0.25715080578E+01  0.10566000000E+00 0.  1.
         22    1    1    0    0    0  0.54238033230E+02 -0.12548733029E+02 -0.28396726781E+02  0.62494872119E+02  0.00000000000E+00 0. -1.
</event>
<event>
 4    1  0.9957587E-003  0.9118800E+02  0.7818608E-02  0.1130116E+00
         25   -1    0    0    0    0  0.00000000000E+00  0.00000000000E+00  0.99999998245E-14  0.12500000000E+03  0.12500000000E+03 0.  0.
        -13    1    1    0    0    0  0.23942172800E+01  0.11684911965E+02 -0.13425019054E+02  0.17958611991E+02  0.10566000000E+00 0. -1.
         13    1    1    0    0    0  0.19617916026E+02  0.26468878920E+02 -0.30455250906E+02  0.44866442385E+02  0.10566000000E+00 0.  1.
         22    1    1    0    0    0 -0.22012133306E+02 -0.38153790885E+02  0.43880269960E+02  0.62174945624E+02  0.00000000000E+00 0.  1.
</event>
<event>
 4    1  0.9957587E-003  0.9118800E+02  0.7818608E-02  0.1130116E+00
         25   -1    0    0    0    0  0.00000000000E+00  0.00000000000E+00  0.99999998245E-14  0.12500000000E+03  0.12500000000E+03 0.  0.
        -13    1    1    0    0    0 -0.79419783864E+01  0.44826568602E+01 -0.10169630235E+02  0.13660226073E+02  0.10566000000E+00 0. -1.
         13    1    1    0    0    0 -0.28658684015E+02  0.15229763853E+02 -0.36498646079E+02  0.48840845674E+02  0.10566000000E+00 0.  1.
         22    1    1    0    0    0  0.36600662402E+02 -0.19712420713E+02  0.46668276314E+02  0.62498928253E+02  0.00000000000E+00 0.  1.
</event>
<event>
 4    1  0.9957587E-003  0.9118800E+02  0.7818608E-02  0.1130116E+00
         25   -1    0    0    0    0  0.00000000000E+00  0.00000000000E+00  0.99999998245E-14  0.12500000000E+03  0.12500000000E+03 0.  0.
        -13    1    1    0    0    0  0.46253102597E+00  0.13549254905E+00  0.61815641905E+00  0.79093272460E+00  0.10566000000E+00 0. -1.
         13    1    1    0    0    0  0.12526019435E+02 -0.98754391797E+01  0.59674145855E+02  0.61769250517E+02  0.10566000000E+00 0.  1.
         22    1    1    0    0    0 -0.12988550461E+02  0.97399466306E+01 -0.60292302274E+02  0.62439816759E+02  0.00000000000E+00 0.  1.
</event>
<event>
 4    1  0.9957587E-003  0.9118800E+02  0.7818608E-02  0.1130116E+00
         25   -1    0    0    0    0  0.00000000000E+00  0.00000000000E+00  0.99999998245E-14  0.12500000000E+03  0.12500000000E+03 0.  0.
        -13    1    1    0    0    0  0.14841123423E+01 -0.49292219540E+02 -0.40252241590E+01  0.49478673085E+02  0.10566000000E+00 0.  1.
         13    1    1    0    0    0 -0.90677966107E-01 -0.12678592605E+02 -0.33047765341E+01  0.13102963211E+02  0.10566000000E+00 0. -1.
         22    1    1    0    0    0 -0.13934343762E+01  0.61970812145E+02  0.73300006931E+01  0.62418363704E+02  0.00000000000E+00 0.  1.
</event>
<event>
 4    1  0.9957587E-003  0.9118800E+02  0.7818608E-02  0.1130116E+00
         25   -1    0    0    0    0  0.00000000000E+00  0.00000000000E+00  0.99999998245E-14  0.12500000000E+03  0.12500000000E+03 0.  0.
        -13    1    1    0    0    0  0.55003501785E+01 -0.20371522188E+01  0.48805114435E+01  0.76311465217E+01  0.10566000000E+00 0.  1.
         13    1    1    0    0    0  0.35331539141E+02 -0.35012844366E+01  0.41971648510E+02  0.54974604077E+02  0.10566000000E+00 0. -1.
         22    1    1    0    0    0 -0.40831889319E+02  0.55384366555E+01 -0.46852159954E+02  0.62394249401E+02  0.00000000000E+00 0. -1.
</event>
<event>
 4    1  0.9957587E-003  0.9118800E+02  0.7818608E-02  0.1130116E+00
         25   -1    0    0    0    0  0.00000000000E+00  0.00000000000E+00  0.99999998245E-14  0.12500000000E+03  0.12500000000E+03 0.  0.
        -13    1    1    0    0    0  0.16444082663E+02  0.60886658105E+01  0.45857512511E+02  0.49095848335E+02  0.10566000000E+00 0. -1.
         13    1    1    0    0    0 -0.17658331835E+00  0.14405092175E+01  0.13664388452E+02  0.13741649256E+02  0.10566000000E+00 0.  1.
         22    1    1    0    0    0 -0.16267499344E+02 -0.75291750280E+01 -0.59521900963E+02  0.62162502409E+02  0.00000000000E+00 0. -1.
</event>
<event>
 4    1  0.9957587E-003  0.9118800E+02  0.7818608E-02  0.1130116E+00
         25   -1    0    0    0    0  0.00000000000E+00  0.00000000000E+00  0.99999998245E-14  0.12500000000E+03  0.12500000000E+03 0.  0.
        -13    1    1    0    0    0 -0.10799098399E+01 -0.13833817586E+02  0.40715008751E+01  0.14461293085E+02  0.10566000000E+00 0.  1.
         13    1    1    0    0    0 -0.12275933476E+02 -0.44155862938E+02  0.14716381411E+02  0.48135452843E+02  0.10566000000E+00 0. -1.
         22    1    1    0    0    0  0.13355843316E+02  0.57989680525E+02 -0.18787882286E+02  0.62403254072E+02  0.00000000000E+00 0. -1.
</event>
<event>
 4    1  0.9957587E-003  0.9118800E+02  0.7818608E-02  0.1130116E+00
         25   -1    0    0    0    0  0.00000000000E+00  0.00000000000E+00  0.99999998245E-14  0.12500000000E+03  0.12500000000E+03 0.  0.
        -13    1    1    0    0    0 -0.11006659986E+01  0.41665559967E+02 -0.13691426220E+02  0.43871365023E+02  0.10566000000E+00 0. -1.
         13    1    1    0    0    0  0.15878359053E+02 -0.70766618212E+00 -0.20376508419E+02  0.25842529618E+02  0.10566000000E+00 0.  1.
         22    1    1    0    0    0 -0.14777693055E+02 -0.40957893785E+02  0.34067934638E+02  0.55286105360E+02  0.00000000000E+00 0. -1.
</event>
<event>
 4    1  0.9957587E-003  0.9118800E+02  0.7818608E-02  0.1130116E+00
         25   -1    0    0    0    0  0.00000000000E+00  0.00000000000E+00  0.99999998245E-14  0.12500000000E+03  0.12500000000E+03 0.  0.
        -13    1    1    0    0    0  0.43629548902E+02 -0.31168215043E+02 -0.92865402085E+01  0.54417333263E+02  0.10566000000E+00 0.  1.
         13    1    1    0    0    0 -0.15390615370E+02 -0.10122339623E+02  0.91283313517E+01  0.20558949346E+02  0.10566000000E+00 0. -1.
         22    1    1    0    0    0 -0.28238933532E+02  0.41290554666E+02  0.15820885680E+00  0.50023717392E+02  0.00000000000E+00 0.  1.
</event>
<event>
 4    1  0.9957587E-003  0.9118800E+02  0.7818608E-02  0.1130116E+00
         25   -1    0    0    0    0  0.00000000000E+00  0.00000000000E+00  0.99999998245E-14  0.12500000000E+03  0.12500000000E+03 0.  0.
        -13    1    1    0    0    0 -0.12022535224E+02  0.11030515804E+02 -0.56272996876E+02  0.58590741364E+02  0.10566000000E+00 0.  1.
         13    1    1    0    0    0 -0.77492682030E+00  0.83270903931E+00 -0.37400550784E+01  0.39106383042E+01  0.10566000000E+00 0. -1.
         22    1    1    0    0    0  0.12797462044E+02 -0.11863224843E+02  0.60013051955E+02  0.62498620332E+02  0.00000000000E+00 0.  1.
</event>
<event>
 4    1  0.9957587E-003  0.9118800E+02  0.7818608E-02  0.1130116E+00
         25   -1    0    0    0    0  0.00000000000E+00  0.00000000000E+00  0.99999998245E-14  0.12500000000E+03  0.12500000000E+03 0.  0.
        -13    1    1    0    0    0  0.33032875699E+02  0.13018654512E+02  0.24058522673E+02  0.42889158531E+02  0.10566000000E+00 0. -1.
         13    1    1    0    0    0 -0.19621193925E+02 -0.28997908558E+02 -0.41940442898E+02  0.54634072394E+02  0.10566000000E+00 0.  1.
         22    1    1    0    0    0 -0.13411681774E+02  0.15979254046E+02  0.17881920225E+02  0.27476769075E+02  0.00000000000E+00 0.  1.
</event>
<event>
 4    1  0.9957587E-003  0.9118800E+02  0.7818608E-02  0.1130116E+00
         25   -1    0    0    0    0  0.00000000000E+00  0.00000000000E+00  0.99999998245E-14  0.12500000000E+03  0.12500000000E+03 0.  0.
        -13    1    1    0    0    0  0.42811700999E+02  0.35008545858E+02  0.13945654771E+02  0.57034484977E+02  0.10566000000E+00 0.  1.
         13    1    1    0    0    0 -0.16488345584E+02 -0.99619956386E+01  0.12553634930E+02  0.22993734173E+02  0.10566000000E+00 0. -1.
         22    1    1    0    0    0 -0.26323355415E+02 -0.25046550219E+02 -0.26499289701E+02  0.44971780850E+02  0.00000000000E+00 0.  1.
</event>
<event>
 4    1  0.9957587E-003  0.9118800E+02  0.7818608E-02  0.1130116E+00
         25   -1    0    0    0    0  0.00000000000E+00  0.00000000000E+00  0.99999998245E-14  0.12500000000E+03  0.12500000000E+03 0.  0.
        -13    1    1    0    0    0 -0.30249314617E+01  0.10622375975E+02 -0.19530713446E+02  0.22437580383E+02  0.10566000000E+00 0. -1.
         13    1    1    0    0    0  0.11819247774E+02  0.15645975786E+02 -0.35724489363E+02  0.40752196021E+02  0.10566000000E+00 0.  1.
         22    1    1    0    0    0 -0.87943163124E+01 -0.26268351761E+02  0.55255202808E+02  0.61810223596E+02  0.00000000000E+00 0.  1.
</event>
<event>
 4    1  0.9957587E-003  0.9118800E+02  0.7818608E-02  0.1130116E+00
         25   -1    0    0    0    0  0.00000000000E+00  0.00000000000E+00  0.99999998245E-14  0.12500000000E+03  0.12500000000E+03 0.  0.
        -13    1    1    0    0    0  0.16380475334E+02  0.11799435647E+02 -0.13497793237E+02  0.24284732654E+02  0.10566000000E+00 0. -1.
         13    1    1    0    0    0  0.27595405822E+02  0.17352455943E+02 -0.19975890633E+02  0.38231682154E+02  0.10566000000E+00 0.  1.
         22    1    1    0    0    0 -0.43975881156E+02 -0.29151891590E+02  0.33473683869E+02  0.62483585192E+02  0.00000000000E+00 0.  1.
</event>
<event>
 4    1  0.9957587E-003  0.9118800E+02  0.7818608E-02  0.1130116E+00
         25   -1    0    0    0    0  0.00000000000E+00  0.00000000000E+00  0.99999998245E-14  0.12500000000E+03  0.12500000000E+03 0.  0.
        -13    1    1    0    0    0  0.13260267379E+02  0.13176735106E+02 -0.29791714265E+02  0.35171272964E+02  0.10566000000E+00 0.  1.
         13    1    1    0    0    0  0.10187040205E+02  0.10465640358E+02 -0.23099170415E+02  0.27329256377E+02  0.10566000000E+00 0. -1.
         22    1    1    0    0    0 -0.23447307584E+02 -0.23642375464E+02  0.52890884680E+02  0.62499470659E+02  0.00000000000E+00 0.  1.
</event>
<event>
 4    1  0.9957587E-003  0.9118800E+02  0.7818608E-02  0.1130116E+00
         25   -1    0    0    0    0  0.00000000000E+00  0.00000000000E+00  0.99999998245E-14  0.12500000000E+03  0.12500000000E+03 0.  0.
        -13    1    1    0    0    0  0.12869536734E+02  0.37613736287E+02 -0.30449745346E+02  0.50076104970E+02  0.10566000000E+00 0.  1.
         13    1    1    0    0    0  0.22268997304E+01  0.84124858414E+01 -0.89507307607E+01  0.12484219865E+02  0.10566000000E+00 0. -1.
         22    1    1    0    0    0 -0.15096436465E+02 -0.46026222129E+02  0.39400476107E+02  0.62439675166E+02  0.00000000000E+00 0.  1.
</event>
<event>
 4    1  0.9957587E-003  0.9118800E+02  0.7818608E-02  0.1130116E+00
         25   -1    0    0    0    0  0.00000000000E+00  0.00000000000E+00  0.99999998245E-14  0.12500000000E+03  0.12500000000E+03 0.  0.
        -13    1    1    0    0    0 -0.34463616778E+01  0.25428947864E+02 -0.28565742374E+02  0.38399499993E+02  0.10566000000E+00 0. -1.
         13    1    1    0    0    0  0.19027551927E+01  0.14052699125E+02 -0.19669124398E+02  0.24248390640E+02  0.10566000000E+00 0.  1.
         22    1    1    0    0    0  0.15436064852E+01 -0.39481646989E+02  0.48234866772E+02  0.62352109367E+02  0.00000000000E+00 0. -1.
</event>
<event>
 4    1  0.9957587E-003  0.9118800E+02  0.7818608E-02  0.1130116E+00
         25   -1    0    0    0    0  0.00000000000E+00  0.00000000000E+00  0.99999998245E-14  0.12500000000E+03  0.12500000000E+03 0.  0.
        -13    1    1    0    0    0 -0.15636399390E+01 -0.39848055927E+01 -0.87900208561E+01  0.97774882335E+01  0.10566000000E+00 0.  1.
         13    1    1    0    0    0 -0.23940811813E+02 -0.30778445665E+02 -0.35987095442E+02  0.53061826111E+02  0.10566000000E+00 0. -1.
         22    1    1    0    0    0  0.25504451752E+02  0.34763251258E+02  0.44777116298E+02  0.62160685656E+02  0.00000000000E+00 0. -1.
</event>
<event>
 4    1  0.9957587E-003  0.9118800E+02  0.7818608E-02  0.1130116E+00
         25   -1    0    0    0    0  0.00000000000E+00  0.00000000000E+00  0.99999998245E-14  0.12500000000E+03  0.12500000000E+03 0.  0.
        -13    1    1    0    0    0 -0.12701040774E+02 -0.35054738619E+01 -0.20540797735E+02  0.24403694789E+02  0.10566000000E+00 0.  1.
         13    1    1    0    0    0 -0.19307679084E+02 -0.63768995729E+01 -0.32219518487E+02  0.38099341928E+02  0.10566000000E+00 0. -1.
         22    1    1    0    0    0  0.32008719858E+02  0.98823734348E+01  0.52760316222E+02  0.62496963283E+02  0.00000000000E+00 0. -1.
</event>
<event>
 4    1  0.9957587E-003  0.9118800E+02  0.7818608E-02  0.1130116E+00
         25   -1    0    0    0    0  0.00000000000E+00  0.00000000000E+00  0.99999998245E-14  0.12500000000E+03  0.12500000000E+03 0.  0.
        -13    1    1    0    0    0 -0.29574478180E+01  0.13773250497E+01  0.14268070964E+02  0.14636684561E+02  0.10566000000E+00 0. -1.
         13    1    1    0    0    0  0.49742876989E+02  0.17069217194E+01 -0.33167012462E+02  0.59810778899E+02  0.10566000000E+00 0.  1.
         22    1    1    0    0    0 -0.46785429171E+02 -0.30842467691E+01  0.18898941498E+02  0.50552536539E+02  0.00000000000E+00 0.  1.
</event>
<event>
 4    1  0.9957587E-003  0.9118800E+02  0.7818608E-02  0.1130116E+00
         25   -1    0    0    0    0  0.00000000000E+00  0.00000000000E+00  0.99999998245E-14  0.12500000000E+03  0.12500000000E+03 0.  0.
        -13    1    1    0    0    0  0.10409388323E+02 -0.63831978756E+01  0.66834276235E+01  0.13920486673E+02  0.10566000000E+00 0.  1.
         13    1    1    0    0    0  0.35368668760E+02 -0.22504351431E+02  0.24553428330E+02  0.48582615924E+02  0.10566000000E+00 0. -1.
         22    1    1    0    0    0 -0.45778057083E+02  0.28887549307E+02 -0.31236855953E+02  0.62496897404E+02  0.00000000000E+00 0. -1.
</event>
<event>
 4    1  0.9957587E-003  0.9118800E+02  0.7818608E-02  0.1130116E+00
         25   -1    0    0    0    0  0.00000000000E+00  0.00000000000E+00  0.99999998245E-14  0.12500000000E+03  0.12500000000E+03 0.  0.
        -13    1    1    0    0    0 -0.36554026841E+02  0.63631528059E+01  0.40267970672E+02  0.54755887519E+02  0.10566000000E+00 0. -1.
         13    1    1    0    0    0 -0.50760539269E+01  0.10692355924E+01  0.57510588470E+01  0.77456717022E+01  0.10566000000E+00 0.  1.
         22    1    1    0    0    0  0.41630080767E+02 -0.74323883983E+01 -0.46019029519E+02  0.62498440779E+02  0.00000000000E+00 0.  1.
</event>
<event>
 4    1  0.9957587E-003  0.9118800E+02  0.7818608E-02  0.1130116E+00
         25   -1    0    0    0    0  0.00000000000E+00  0.00000000000E+00  0.99999998245E-14  0.12500000000E+03  0.12500000000E+03 0.  0.
        -13    1    1    0    0    0 -0.11683427078E+01 -0.26395918453E+00 -0.30918785014E-01  0.12028379529E+01  0.10566000000E+00 0. -1.
         13    1    1    0    0    0 -0.56622457478E+02 -0.10722116189E+02 -0.20984134618E+02  0.61330347595E+02  0.10566000000E+00 0.  1.
         22    1    1    0    0    0  0.57790800186E+02  0.10986075374E+02  0.21015053403E+02  0.62466814452E+02  0.00000000000E+00 0.  1.
</event>
<event>
 4    1  0.9957587E-003  0.9118800E+02  0.7818608E-02  0.1130116E+00
         25   -1    0    0    0    0  0.00000000000E+00  0.00000000000E+00  0.99999998245E-14  0.12500000000E+03  0.12500000000E+03 0.  0.
        -13    1    1    0    0    0 -0.21651679794E+01  0.72437753435E+01  0.46621997887E+01  0.88829896157E+01  0.10566000000E+00 0. -1.
         13    1    1    0    0    0 -0.11588382651E+02  0.43607070212E+02  0.28968087270E+02  0.53619291575E+02  0.10566000000E+00 0.  1.
         22    1    1    0    0    0  0.13753550630E+02 -0.50850845556E+02 -0.33630287059E+02  0.62497718809E+02  0.00000000000E+00 0.  1.
</event>
<event>
 4    1  0.9957587E-003  0.9118800E+02  0.7818608E-02  0.1130116E+00
         25   -1    0    0    0    0  0.00000000000E+00  0.00000000000E+00  0.99999998245E-14  0.12500000000E+03  0.12500000000E+03 0.  0.
        -13    1    1    0    0    0 -0.38274950244E+02 -0.16373764936E+02  0.36076239250E+01  0.41786338781E+02  0.10566000000E+00 0. -1.
         13    1    1    0    0    0 -0.18376940340E+02 -0.96234424108E+01  0.45297179356E+00  0.20749431982E+02  0.10566000000E+00 0.  1.
         22    1    1    0    0    0  0.56651890584E+02  0.25997207347E+02 -0.40605957186E+01  0.62464229237E+02  0.00000000000E+00 0. -1.
</event>
<event>
 4    1  0.9957587E-003  0.9118800E+02  0.7818608E-02  0.1130116E+00
         25   -1    0    0    0    0  0.00000000000E+00  0.00000000000E+00  0.99999998245E-14  0.12500000000E+03  0.12500000000E+03 0.  0.
        -13    1    1    0    0    0 -0.12639921745E+02 -0.22607509430E+02 -0.13133016018E+02  0.29040564356E+02  0.10566000000E+00 0.  1.
         13    1    1    0    0    0 -0.39727697052E+02  0.11168578796E+02  0.86925085814E+01  0.42173426880E+02  0.10566000000E+00 0. -1.
         22    1    1    0    0    0  0.52367618796E+02  0.11438930634E+02  0.44405074369E+01  0.53786008764E+02  0.00000000000E+00 0. -1.
</event>
<event>
 4    1  0.9957587E-003  0.9118800E+02  0.7818608E-02  0.1130116E+00
         25   -1    0    0    0    0  0.00000000000E+00  0.00000000000E+00  0.99999998245E-14  0.12500000000E+03  0.12500000000E+03 0.  0.
        -13    1    1    0    0    0 -0.47327028375E+02  0.26895613560E+02 -0.29920733864E+02  0.62116689565E+02  0.10566000000E+00 0. -1.
         13    1    1    0    0    0  0.34064141326E+01 -0.21366232051E+01 -0.41231705987E+00  0.40435115131E+01  0.10566000000E+00 0.  1.
         22    1    1    0    0    0  0.43920614242E+02 -0.24758990355E+02  0.30333050924E+02  0.58839798922E+02  0.00000000000E+00 0. -1.
</event>
<event>
 4    1  0.9957587E-003  0.9118800E+02  0.7818608E-02  0.1130116E+00
         25   -1    0    0    0    0  0.00000000000E+00  0.00000000000E+00  0.99999998245E-14  0.12500000000E+03  0.12500000000E+03 0.  0.
        -13    1    1    0    0    0 -0.31007879573E+01 -0.91231785415E+00 -0.20595852275E+01  0.38340924830E+01  0.10566000000E+00 0.  1.
         13    1    1    0    0    0 -0.46213671119E+02 -0.17348502647E+02 -0.31709535107E+02  0.58670092237E+02  0.10566000000E+00 0. -1.
         22    1    1    0    0    0  0.49314459076E+02  0.18260820501E+02  0.33769120334E+02  0.62495815280E+02  0.00000000000E+00 0. -1.
</event>
<event>
 4    1  0.9957587E-003  0.9118800E+02  0.7818608E-02  0.1130116E+00
         25   -1    0    0    0    0  0.00000000000E+00  0.00000000000E+00  0.99999998245E-14  0.12500000000E+03  0.12500000000E+03 0.  0.
        -13    1    1    0    0    0 -0.16427247672E+02  0.24698373994E+02  0.50656729178E+02  0.58702466039E+02  0.10566000000E+00 0.  1.
         13    1    1    0    0    0 -0.12123885475E+01  0.72667256303E+00  0.35819289275E+01  0.38521835212E+01  0.10566000000E+00 0. -1.
         22    1    1    0    0    0  0.17639636220E+02 -0.25425046557E+02 -0.54238658106E+02  0.62445350439E+02  0.00000000000E+00 0.  1.
</event>
<event>
 4    1  0.9957587E-003  0.9118800E+02  0.7818608E-02  0.1130116E+00
         25   -1    0    0    0    0  0.00000000000E+00  0.00000000000E+00  0.99999998245E-14  0.12500000000E+03  0.12500000000E+03 0.  0.
        -13    1    1    0    0    0  0.51931701060E+02  0.24750421228E+02 -0.97648933679E+01  0.58351085958E+02  0.10566000000E+00 0. -1.
         13    1    1    0    0    0  0.44418716735E+01 -0.85113779609E+00 -0.54507814535E+00  0.45566362300E+01  0.10566000000E+00 0.  1.
         22    1    1    0    0    0 -0.56373572734E+02 -0.23899283432E+02  0.10309971513E+02  0.62092277812E+02  0.00000000000E+00 0. -1.
</event>
<event>
 4    1  0.9957587E-003  0.9118800E+02  0.7818608E-02  0.1130116E+00
         25   -1    0    0    0    0  0.00000000000E+00  0.00000000000E+00  0.99999998245E-14  0.12500000000E+03  0.12500000000E+03 0.  0.
        -13    1    1    0    0    0 -0.67295956732E+01 -0.13750883294E+02  0.35933112095E+01  0.15725689135E+02  0.10566000000E+00 0. -1.
         13    1    1    0    0    0 -0.22809409233E+02 -0.39538895148E+02  0.10270853965E+02  0.46787765327E+02  0.10566000000E+00 0.  1.
         22    1    1    0    0    0  0.29539004906E+02  0.53289778442E+02 -0.13864165174E+02  0.62486545538E+02  0.00000000000E+00 0.  1.
</event>
<event>
 4    1  0.9957587E-003  0.9118800E+02  0.7818608E-02  0.1130116E+00
         25   -1    0    0    0    0  0.00000000000E+00  0.00000000000E+00  0.99999998245E-14  0.12500000000E+03  0.12500000000E+03 0.  0.
        -13    1    1    0    0    0 -0.60615572374E+01  0.20229097195E+02 -0.70538069572E+01  0.22264909748E+02  0.10566000000E+00 0.  1.
         13    1    1    0    0    0 -0.27297416833E+02  0.20936134432E+02 -0.23415107932E+02  0.41614290024E+02  0.10566000000E+00 0. -1.
         22    1    1    0    0    0  0.33358974070E+02 -0.41165231627E+02  0.30468914889E+02  0.61120800228E+02  0.00000000000E+00 0. -1.
</event>
<event>
 4    1  0.9957587E-003  0.9118800E+02  0.7818608E-02  0.1130116E+00
         25   -1    0    0    0    0  0.00000000000E+00  0.00000000000E+00  0.99999998245E-14  0.12500000000E+03  0.12500000000E+03 0.  0.
        -13    1    1    0    0    0  0.25775943197E+02 -0.30138569491E+02  0.10358586234E+02  0.40988340921E+02  0.10566000000E+00 0. -1.
         13    1    1    0    0    0  0.13914633450E+02 -0.15439409818E+02  0.55549033681E+01  0.21514193340E+02  0.10566000000E+00 0. -1.
         22    1    1    0    0    0 -0.39690576648E+02  0.45577979309E+02 -0.15913489602E+02  0.62497465739E+02  0.00000000000E+00 0. -1.
</event>
<event>
 4    1  0.9957587E-003  0.9118800E+02  0.7818608E-02  0.1130116E+00
         25   -1    0    0    0    0  0.00000000000E+00  0.00000000000E+00  0.99999998245E-14  0.12500000000E+03  0.12500000000E+03 0.  0.
        -13    1    1    0    0    0  0.29173928048E+02 -0.20404783236E+02  0.45239794040E+02  0.57568423511E+02  0.10566000000E+00 0.  1.
         13    1    1    0    0    0  0.32071366483E+01 -0.10193925147E+01  0.36723475351E+01  0.49821869730E+01  0.10566000000E+00 0. -1.
         22    1    1    0    0    0 -0.32381064697E+02  0.21424175750E+02 -0.48912141575E+02  0.62449389516E+02  0.00000000000E+00 0.  1.
</event>
<event>
 4    1  0.9957587E-003  0.9118800E+02  0.7818608E-02  0.1130116E+00
         25   -1    0    0    0    0  0.00000000000E+00  0.00000000000E+00  0.99999998245E-14  0.12500000000E+03  0.12500000000E+03 0.  0.
        -13    1    1    0    0    0 -0.19103853180E+02  0.24443149227E+02  0.18915244131E+02  0.36334864456E+02  0.10566000000E+00 0. -1.
         13    1    1    0    0    0 -0.11451455817E+02  0.17456071151E+02  0.15867675667E+02  0.26222977623E+02  0.10566000000E+00 0.  1.
         22    1    1    0    0    0  0.30555308997E+02 -0.41899220377E+02 -0.34782919797E+02  0.62442157921E+02  0.00000000000E+00 0.  1.
</event>
<event>
 4    1  0.9957587E-003  0.9118800E+02  0.7818608E-02  0.1130116E+00
         25   -1    0    0    0    0  0.00000000000E+00  0.00000000000E+00  0.99999998245E-14  0.12500000000E+03  0.12500000000E+03 0.  0.
        -13    1    1    0    0    0 -0.22765908420E+02  0.16844166493E+01 -0.34142014189E+01  0.23082282837E+02  0.10566000000E+00 0. -1.
         13    1    1    0    0    0 -0.36612382935E+02  0.89992262395E+01 -0.12148189028E+02  0.39611138810E+02  0.10566000000E+00 0.  1.
         22    1    1    0    0    0  0.59378291355E+02 -0.10683642889E+02  0.15562390447E+02  0.62306578353E+02  0.00000000000E+00 0.  1.
</event>
<event>
 4    1  0.9957587E-003  0.9118800E+02  0.7818608E-02  0.1130116E+00
         25   -1    0    0    0    0  0.00000000000E+00  0.00000000000E+00  0.99999998245E-14  0.12500000000E+03  0.12500000000E+03 0.  0.
        -13    1    1    0    0    0 -0.24258347572E+02  0.27773693454E+02  0.18047310499E+02  0.41055597125E+02  0.10566000000E+00 0.  1.
         13    1    1    0    0    0 -0.18916400930E+02  0.78117262885E+01  0.83201871078E+01  0.22092758300E+02  0.10566000000E+00 0. -1.
         22    1    1    0    0    0  0.43174748502E+02 -0.35585419743E+02 -0.26367497607E+02  0.61851644575E+02  0.00000000000E+00 0. -1.
</event>
<event>
 4    1  0.9957587E-003  0.9118800E+02  0.7818608E-02  0.1130116E+00
         25   -1    0    0    0    0  0.00000000000E+00  0.00000000000E+00  0.99999998245E-14  0.12500000000E+03  0.12500000000E+03 0.  0.
        -13    1    1    0    0    0  0.95164781980E+01 -0.25914505540E+01 -0.10838814906E+02  0.14655034830E+02  0.10566000000E+00 0. -1.
         13    1    1    0    0    0  0.29451678907E+02 -0.33880989808E+01 -0.37605515866E+02  0.47885974906E+02  0.10566000000E+00 0.  1.
         22    1    1    0    0    0 -0.38968157105E+02  0.59795495348E+01  0.48444330772E+02  0.62458990264E+02  0.00000000000E+00 0. -1.
</event>
<event>
 4    1  0.9957587E-003  0.9118800E+02  0.7818608E-02  0.1130116E+00
         25   -1    0    0    0    0  0.00000000000E+00  0.00000000000E+00  0.99999998245E-14  0.12500000000E+03  0.12500000000E+03 0.  0.
        -13    1    1    0    0    0 -0.17338198153E+01 -0.72811697822E+01  0.78084597821E+00  0.75261177925E+01  0.10566000000E+00 0. -1.
         13    1    1    0    0    0 -0.13652660353E+02 -0.53269439285E+02 -0.90986523022E+00  0.54998793762E+02  0.10566000000E+00 0.  1.
         22    1    1    0    0    0  0.15386480168E+02  0.60550609067E+02  0.12901925201E+00  0.62475088446E+02  0.00000000000E+00 0.  1.
</event>
<event>
 4    1  0.9957587E-003  0.9118800E+02  0.7818608E-02  0.1130116E+00
         25   -1    0    0    0    0  0.00000000000E+00  0.00000000000E+00  0.99999998245E-14  0.12500000000E+03  0.12500000000E+03 0.  0.
        -13    1    1    0    0    0  0.11470347456E+02  0.22361750307E+02  0.28838096286E+02  0.38252630092E+02  0.10566000000E+00 0. -1.
         13    1    1    0    0    0  0.17140440451E+01  0.16865591671E+02  0.17673854993E+02  0.24490047851E+02  0.10566000000E+00 0.  1.
         22    1    1    0    0    0 -0.13184391501E+02 -0.39227341978E+02 -0.46511951279E+02  0.62257322057E+02  0.00000000000E+00 0.  1.
</event>
<event>
 4    1  0.9957587E-003  0.9118800E+02  0.7818608E-02  0.1130116E+00
         25   -1    0    0    0    0  0.00000000000E+00  0.00000000000E+00  0.99999998245E-14  0.12500000000E+03  0.12500000000E+03 0.  0.
        -13    1    1    0    0    0 -0.27022704660E+02 -0.39609484535E+02 -0.38446205277E+02  0.61459415036E+02  0.10566000000E+00 0. -1.
         13    1    1    0    0    0  0.15423465504E+01 -0.14731517258E+01  0.84672683578E+00  0.22971981322E+01  0.10566000000E+00 0.  1.
         22    1    1    0    0    0  0.25480358110E+02  0.41082636261E+02  0.37599478442E+02  0.61243386832E+02  0.00000000000E+00 0. -1.
</event>
<event>
 4    1  0.9957587E-003  0.9118800E+02  0.7818608E-02  0.1130116E+00
         25   -1    0    0    0    0  0.00000000000E+00  0.00000000000E+00  0.99999998245E-14  0.12500000000E+03  0.12500000000E+03 0.  0.
        -13    1    1    0    0    0 -0.47513256197E+02  0.21059218688E+02  0.13662054576E+02  0.53736980800E+02  0.10566000000E+00 0.  1.
         13    1    1    0    0    0 -0.78355192043E+01  0.34320268685E+01  0.19125161527E+01  0.87660168662E+01  0.10566000000E+00 0. -1.
         22    1    1    0    0    0  0.55348775402E+02 -0.24491245556E+02 -0.15574570728E+02  0.62497002334E+02  0.00000000000E+00 0.  1.
</event>
<event>
 4    1  0.9957587E-003  0.9118800E+02  0.7818608E-02  0.1130116E+00
         25   -1    0    0    0    0  0.00000000000E+00  0.00000000000E+00  0.99999998245E-14  0.12500000000E+03  0.12500000000E+03 0.  0.
        -13    1    1    0    0    0  0.95949525916E+01  0.13176299341E+01  0.28727171523E+01  0.10102620044E+02  0.10566000000E+00 0. -1.
         13    1    1    0    0    0  0.31823810252E+02 -0.37738954637E+01  0.42620629304E+02  0.53324725899E+02  0.10566000000E+00 0.  1.
         22    1    1    0    0    0 -0.41418762843E+02  0.24562655296E+01 -0.45493346456E+02  0.61572654057E+02  0.00000000000E+00 0.  1.
</event>
<event>
 4    1  0.9957587E-003  0.9118800E+02  0.7818608E-02  0.1130116E+00
         25   -1    0    0    0    0  0.00000000000E+00  0.00000000000E+00  0.99999998245E-14  0.12500000000E+03  0.12500000000E+03 0.  0.
        -13    1    1    0    0    0  0.37674989099E+02 -0.22252458784E+02 -0.23431540243E+02  0.49634916820E+02  0.10566000000E+00 0. -1.
         13    1    1    0    0    0  0.10811480159E+02 -0.37812733563E+01 -0.60271215272E+01  0.12943086547E+02  0.10566000000E+00 0.  1.
         22    1    1    0    0    0 -0.48486469258E+02  0.26033732140E+02  0.29458661771E+02  0.62421996633E+02  0.00000000000E+00 0. -1.
</event>
<event>
 4    1  0.9957587E-003  0.9118800E+02  0.7818608E-02  0.1130116E+00
         25   -1    0    0    0    0  0.00000000000E+00  0.00000000000E+00  0.99999998245E-14  0.12500000000E+03  0.12500000000E+03 0.  0.
        -13    1    1    0    0    0  0.34354424342E+02 -0.59600439431E+01 -0.70135246840E+01  0.35566125572E+02  0.10566000000E+00 0.  1.
         13    1    1    0    0    0  0.25980333951E+02 -0.46811158166E+01 -0.53432474482E+01  0.26934217175E+02  0.10566000000E+00 0. -1.
         22    1    1    0    0    0 -0.60334758293E+02  0.10641159760E+02  0.12356772132E+02  0.62499657253E+02  0.00000000000E+00 0.  1.
</event>
<event>
 4    1  0.9957587E-003  0.9118800E+02  0.7818608E-02  0.1130116E+00
         25   -1    0    0    0    0  0.00000000000E+00  0.00000000000E+00  0.99999998245E-14  0.12500000000E+03  0.12500000000E+03 0.  0.
        -13    1    1    0    0    0 -0.41117730295E+02 -0.16912040379E+02 -0.10625025138E+02  0.45712002555E+02  0.10566000000E+00 0.  1.
         13    1    1    0    0    0 -0.14390161192E+02 -0.68988824742E+01 -0.53151195918E+01  0.16820611726E+02  0.10566000000E+00 0. -1.
         22    1    1    0    0    0  0.55507891487E+02  0.23810922854E+02  0.15940144730E+02  0.62467385718E+02  0.00000000000E+00 0.  1.
</event>
<event>
 4    1  0.9957587E-003  0.9118800E+02  0.7818608E-02  0.1130116E+00
         25   -1    0    0    0    0  0.00000000000E+00  0.00000000000E+00  0.99999998245E-14  0.12500000000E+03  0.12500000000E+03 0.  0.
        -13    1    1    0    0    0  0.13701533867E+02 -0.52901017217E+02  0.18339325142E+02  0.57641926266E+02  0.10566000000E+00 0. -1.
         13    1    1    0    0    0 -0.41749289653E+01 -0.47295901635E+01 -0.74638352777E+00  0.63535271610E+01  0.10566000000E+00 0.  1.
         22    1    1    0    0    0 -0.95266049016E+01  0.57630607381E+02 -0.17592941614E+02  0.61004546573E+02  0.00000000000E+00 0. -1.
</event>
<event>
 4    1  0.9957587E-003  0.9118800E+02  0.7818608E-02  0.1130116E+00
         25   -1    0    0    0    0  0.00000000000E+00  0.00000000000E+00  0.99999998245E-14  0.12500000000E+03  0.12500000000E+03 0.  0.
        -13    1    1    0    0    0 -0.34379050236E+01 -0.17358477872E+01  0.95852990100E+00  0.39701765827E+01  0.10566000000E+00 0. -1.
         13    1    1    0    0    0 -0.49416986616E+02 -0.28689206519E+02  0.12693671815E+02  0.58534174677E+02  0.10566000000E+00 0.  1.
         22    1    1    0    0    0  0.52854891640E+02  0.30425054306E+02 -0.13652201716E+02  0.62495648740E+02  0.00000000000E+00 0.  1.
</event>
<event>
 4    1  0.9957587E-003  0.9118800E+02  0.7818608E-02  0.1130116E+00
         25   -1    0    0    0    0  0.00000000000E+00  0.00000000000E+00  0.99999998245E-14  0.12500000000E+03  0.12500000000E+03 0.  0.
        -13    1    1    0    0    0  0.50620939437E+01  0.23834798832E+02 -0.16326571410E+02  0.29330709649E+02  0.10566000000E+00 0. -1.
         13    1    1    0    0    0  0.63710861815E+01  0.27169291786E+02 -0.17933659885E+02  0.33172103886E+02  0.10566000000E+00 0.  1.
         22    1    1    0    0    0 -0.11433180125E+02 -0.51004090619E+02  0.34260231295E+02  0.62497186465E+02  0.00000000000E+00 0. -1.
</event>
<event>
 4    1  0.9957587E-003  0.9118800E+02  0.7818608E-02  0.1130116E+00
         25   -1    0    0    0    0  0.00000000000E+00  0.00000000000E+00  0.99999998245E-14  0.12500000000E+03  0.12500000000E+03 0.  0.
        -13    1    1    0    0    0 -0.15798018497E+02 -0.64383430109E+01 -0.29696780046E+02  0.34248205183E+02  0.10566000000E+00 0.  1.
         13    1    1    0    0    0 -0.12328292949E+02  0.32758502455E+01 -0.25616859035E+02  0.28617348457E+02  0.10566000000E+00 0. -1.
         22    1    1    0    0    0  0.28126311446E+02  0.31624927655E+01  0.55313639081E+02  0.62134446359E+02  0.00000000000E+00 0.  1.
</event>
<event>
 4    1  0.9957587E-003  0.9118800E+02  0.7818608E-02  0.1130116E+00
         25   -1    0    0    0    0  0.00000000000E+00  0.00000000000E+00  0.99999998245E-14  0.12500000000E+03  0.12500000000E+03 0.  0.
        -13    1    1    0    0    0  0.44407984612E+02  0.77460512232E+01 -0.25328400866E+02  0.51706957571E+02  0.10566000000E+00 0.  1.
         13    1    1    0    0    0  0.96128645393E+01  0.18185330028E+01 -0.45868857680E+01  0.10805781416E+02  0.10566000000E+00 0. -1.
         22    1    1    0    0    0 -0.54020849151E+02 -0.95645842259E+01  0.29915286634E+02  0.62487261012E+02  0.00000000000E+00 0.  1.
</event>
<event>
 4    1  0.9957587E-003  0.9118800E+02  0.7818608E-02  0.1130116E+00
         25   -1    0    0    0    0  0.00000000000E+00  0.00000000000E+00  0.99999998245E-14  0.12500000000E+03  0.12500000000E+03 0.  0.
        -13    1    1    0    0    0 -0.85817885390E+01  0.48289242299E+02  0.17155021223E+02  0.51959637542E+02  0.10566000000E+00 0. -1.
         13    1    1    0    0    0 -0.17306933621E+01  0.97892126149E+01  0.35030114181E+01  0.10540694292E+02  0.10566000000E+00 0. -1.
         22    1    1    0    0    0  0.10312481901E+02 -0.58078454914E+02 -0.20658032641E+02  0.62499668165E+02  0.00000000000E+00 0. -1.
</event>
<event>
 4    1  0.9957587E-003  0.9118800E+02  0.7818608E-02  0.1130116E+00
         25   -1    0    0    0    0  0.00000000000E+00  0.00000000000E+00  0.99999998245E-14  0.12500000000E+03  0.12500000000E+03 0.  0.
        -13    1    1    0    0    0 -0.82296556571E+01  0.20186900545E+02 -0.44359590350E+02  0.49426942106E+02  0.10566000000E+00 0.  1.
         13    1    1    0    0    0  0.11443428513E+01  0.41160676182E+01 -0.12565845395E+02  0.13272647351E+02  0.10566000000E+00 0. -1.
         22    1    1    0    0    0  0.70853128059E+01 -0.24302968163E+02  0.56925435745E+02  0.62300410543E+02  0.00000000000E+00 0.  1.
</event>
<event>
 4    1  0.9957587E-003  0.9118800E+02  0.7818608E-02  0.1130116E+00
         25   -1    0    0    0    0  0.00000000000E+00  0.00000000000E+00  0.99999998245E-14  0.12500000000E+03  0.12500000000E+03 0.  0.
        -13    1    1    0    0    0 -0.48483061111E+02  0.11290883649E+02  0.19306822740E+02  0.53393406303E+02  0.10566000000E+00 0.  1.
         13    1    1    0    0    0 -0.82767823382E+01  0.20672920272E+01  0.31874646350E+01  0.91076845046E+01  0.10566000000E+00 0. -1.
         22    1    1    0    0    0  0.56759843449E+02 -0.13358175676E+02 -0.22494287375E+02  0.62498909193E+02  0.00000000000E+00 0.  1.
</event>
<event>
 4    1  0.9957587E-003  0.9118800E+02  0.7818608E-02  0.1130116E+00
         25   -1    0    0    0    0  0.00000000000E+00  0.00000000000E+00  0.99999998245E-14  0.12500000000E+03  0.12500000000E+03 0.  0.
        -13    1    1    0    0    0  0.11305791124E+02  0.27317349314E+02 -0.97514489982E+01  0.31131341250E+02  0.10566000000E+00 0.  1.
         13    1    1    0    0    0  0.83194286786E+01  0.21045930103E+02 -0.22986684260E+02  0.32257446966E+02  0.10566000000E+00 0. -1.
         22    1    1    0    0    0 -0.19625219802E+02 -0.48363279416E+02  0.32738133259E+02  0.61611211784E+02  0.00000000000E+00 0.  1.
</event>
<event>
 4    1  0.9957587E-003  0.9118800E+02  0.7818608E-02  0.1130116E+00
         25   -1    0    0    0    0  0.00000000000E+00  0.00000000000E+00  0.99999998245E-14  0.12500000000E+03  0.12500000000E+03 0.  0.
        -13    1    1    0    0    0 -0.18914993989E+02 -0.35522804946E+01 -0.27873118262E+02  0.33872076700E+02  0.10566000000E+00 0.  1.
         13    1    1    0    0    0 -0.16184949417E+02 -0.27663468690E+01 -0.23451666687E+02  0.28628606272E+02  0.10566000000E+00 0. -1.
         22    1    1    0    0    0  0.35099943406E+02  0.63186273636E+01  0.51324784949E+02  0.62499317028E+02  0.00000000000E+00 0. -1.
</event>
<event>
 4    1  0.9957587E-003  0.9118800E+02  0.7818608E-02  0.1130116E+00
         25   -1    0    0    0    0  0.00000000000E+00  0.00000000000E+00  0.99999998245E-14  0.12500000000E+03  0.12500000000E+03 0.  0.
        -13    1    1    0    0    0  0.11831733269E+02  0.24389643417E+02 -0.15516693861E+02  0.31234973516E+02  0.10566000000E+00 0. -1.
         13    1    1    0    0    0  0.13295676727E+02  0.22708128412E+02 -0.16935599583E+02  0.31293127247E+02  0.10566000000E+00 0.  1.
         22    1    1    0    0    0 -0.25127409996E+02 -0.47097771829E+02  0.32452293444E+02  0.62471899236E+02  0.00000000000E+00 0. -1.
</event>
<event>
 4    1  0.9957587E-003  0.9118800E+02  0.7818608E-02  0.1130116E+00
         25   -1    0    0    0    0  0.00000000000E+00  0.00000000000E+00  0.99999998245E-14  0.12500000000E+03  0.12500000000E+03 0.  0.
        -13    1    1    0    0    0 -0.16917718288E+02 -0.42121868665E+02 -0.19993380070E+02  0.49600478048E+02  0.10566000000E+00 0.  1.
         13    1    1    0    0    0 -0.47440101453E+01 -0.10937646254E+02 -0.49326691145E+01  0.12902717793E+02  0.10566000000E+00 0. -1.
         22    1    1    0    0    0  0.21661728433E+02  0.53059514919E+02  0.24926049184E+02  0.62496804159E+02  0.00000000000E+00 0.  1.
</event>
<event>
 4    1  0.9957587E-003  0.9118800E+02  0.7818608E-02  0.1130116E+00
         25   -1    0    0    0    0  0.00000000000E+00  0.00000000000E+00  0.99999998245E-14  0.12500000000E+03  0.12500000000E+03 0.  0.
        -13    1    1    0    0    0 -0.41987301595E+01  0.14911542596E+01  0.18832621859E+01  0.48384622014E+01  0.10566000000E+00 0.  1.
         13    1    1    0    0    0 -0.28617864110E+02 -0.52096636293E+02  0.39190526395E+01  0.59568547044E+02  0.10566000000E+00 0. -1.
         22    1    1    0    0    0  0.32816594269E+02  0.50605482034E+02 -0.58023148254E+01  0.60592990755E+02  0.00000000000E+00 0. -1.
</event>
<event>
 4    1  0.9957587E-003  0.9118800E+02  0.7818608E-02  0.1130116E+00
         25   -1    0    0    0    0  0.00000000000E+00  0.00000000000E+00  0.99999998245E-14  0.12500000000E+03  0.12500000000E+03 0.  0.
        -13    1    1    0    0    0  0.32072080377E+02  0.35678177196E+01 -0.40514150388E+01  0.32523419114E+02  0.10566000000E+00 0. -1.
         13    1    1    0    0    0  0.19976866217E+01  0.28772240051E+02  0.27608628386E+02  0.39925932359E+02  0.10566000000E+00 0.  1.
         22    1    1    0    0    0 -0.34069766999E+02 -0.32340057770E+02 -0.23557213347E+02  0.52550648527E+02  0.00000000000E+00 0.  1.
</event>
<event>
 4    1  0.9957587E-003  0.9118800E+02  0.7818608E-02  0.1130116E+00
         25   -1    0    0    0    0  0.00000000000E+00  0.00000000000E+00  0.99999998245E-14  0.12500000000E+03  0.12500000000E+03 0.  0.
        -13    1    1    0    0    0  0.33281755406E+02  0.21597893220E+02  0.36881119864E+02  0.54169847710E+02  0.10566000000E+00 0.  1.
         13    1    1    0    0    0  0.52940907708E+01  0.33646554412E+01  0.54834290829E+01  0.83323143166E+01  0.10566000000E+00 0. -1.
         22    1    1    0    0    0 -0.38575846177E+02 -0.24962548661E+02 -0.42364548947E+02  0.62497837974E+02  0.00000000000E+00 0.  1.
</event>
<event>
 4    1  0.9957587E-003  0.9118800E+02  0.7818608E-02  0.1130116E+00
         25   -1    0    0    0    0  0.00000000000E+00  0.00000000000E+00  0.99999998245E-14  0.12500000000E+03  0.12500000000E+03 0.  0.
        -13    1    1    0    0    0  0.54178881244E+01  0.57608031177E+01  0.15694259513E+02  0.17574450489E+02  0.10566000000E+00 0. -1.
         13    1    1    0    0    0 -0.16241869146E+02  0.36451885534E+02 -0.40850167119E+02  0.57107666648E+02  0.10566000000E+00 0.  1.
         22    1    1    0    0    0  0.10823981021E+02 -0.42212688652E+02  0.25155907606E+02  0.50317882863E+02  0.00000000000E+00 0.  1.
</event>
<event>
 4    1  0.9957587E-003  0.9118800E+02  0.7818608E-02  0.1130116E+00
         25   -1    0    0    0    0  0.00000000000E+00  0.00000000000E+00  0.99999998245E-14  0.12500000000E+03  0.12500000000E+03 0.  0.
        -13    1    1    0    0    0 -0.78084503422E+01 -0.16599588684E+02  0.14928387434E+02  0.23651345768E+02  0.10566000000E+00 0.  1.
         13    1    1    0    0    0 -0.32405316242E+02 -0.22160146052E+02  0.94950732113E+01  0.40389901871E+02  0.10566000000E+00 0. -1.
         22    1    1    0    0    0  0.40213766584E+02  0.38759734735E+02 -0.24423460645E+02  0.60958752362E+02  0.00000000000E+00 0. -1.
</event>
<event>
 4    1  0.9957587E-003  0.9118800E+02  0.7818608E-02  0.1130116E+00
         25   -1    0    0    0    0  0.00000000000E+00  0.00000000000E+00  0.99999998245E-14  0.12500000000E+03  0.12500000000E+03 0.  0.
        -13    1    1    0    0    0 -0.86943673363E+01 -0.20844181443E+01  0.49286364397E+01  0.10209771965E+02  0.10566000000E+00 0. -1.
         13    1    1    0    0    0  0.11600975129E+02 -0.29457840779E+02 -0.50312710209E+02  0.59445159432E+02  0.10566000000E+00 0.  1.
         22    1    1    0    0    0 -0.29066077930E+01  0.31542258923E+02  0.45384073769E+02  0.55345068603E+02  0.00000000000E+00 0.  1.
</event>
<event>
 4    1  0.9957587E-003  0.9118800E+02  0.7818608E-02  0.1130116E+00
         25   -1    0    0    0    0  0.00000000000E+00  0.00000000000E+00  0.99999998245E-14  0.12500000000E+03  0.12500000000E+03 0.  0.
        -13    1    1    0    0    0  0.15303500076E+02 -0.32429735415E+02  0.12188206504E+02  0.37874112471E+02  0.10566000000E+00 0.  1.
         13    1    1    0    0    0  0.10197115262E+02 -0.20978597243E+02  0.78975845490E+01  0.24626524475E+02  0.10566000000E+00 0. -1.
         22    1    1    0    0    0 -0.25500615338E+02  0.53408332658E+02 -0.20085791053E+02  0.62499363054E+02  0.00000000000E+00 0. -1.
</event>
<event>
 4    1  0.9957587E-003  0.9118800E+02  0.7818608E-02  0.1130116E+00
         25   -1    0    0    0    0  0.00000000000E+00  0.00000000000E+00  0.99999998245E-14  0.12500000000E+03  0.12500000000E+03 0.  0.
        -13    1    1    0    0    0  0.57164816497E+00 -0.57091174105E+01 -0.67938354261E+01  0.88931528191E+01  0.10566000000E+00 0. -1.
         13    1    1    0    0    0  0.99410864401E+01 -0.49682102534E+02 -0.18992529219E+02  0.54109738882E+02  0.10566000000E+00 0.  1.
         22    1    1    0    0    0 -0.10512734605E+02  0.55391219944E+02  0.25786364645E+02  0.61997108298E+02  0.00000000000E+00 0.  1.
</event>
<event>
 4    1  0.9957587E-003  0.9118800E+02  0.7818608E-02  0.1130116E+00
         25   -1    0    0    0    0  0.00000000000E+00  0.00000000000E+00  0.99999998245E-14  0.12500000000E+03  0.12500000000E+03 0.  0.
        -13    1    1    0    0    0 -0.19385604813E+01 -0.43458781523E+01 -0.34797998949E+01  0.58961720632E+01  0.10566000000E+00 0.  1.
         13    1    1    0    0    0 -0.31768761354E+02 -0.17946782839E+02 -0.43734165799E+02  0.56956383614E+02  0.10566000000E+00 0. -1.
         22    1    1    0    0    0  0.33707321835E+02  0.22292660991E+02  0.47213965693E+02  0.62147444323E+02  0.00000000000E+00 0. -1.
</event>
<event>
 4    1  0.9957587E-003  0.9118800E+02  0.7818608E-02  0.1130116E+00
         25   -1    0    0    0    0  0.00000000000E+00  0.00000000000E+00  0.99999998245E-14  0.12500000000E+03  0.12500000000E+03 0.  0.
        -13    1    1    0    0    0 -0.21987710241E+02 -0.12641078503E+02  0.36235633434E+02  0.44229950958E+02  0.10566000000E+00 0.  1.
         13    1    1    0    0    0 -0.17072923388E+02  0.10128500965E+02  0.82664344560E+01  0.21503868198E+02  0.10566000000E+00 0. -1.
         22    1    1    0    0    0  0.39060633629E+02  0.25125775379E+01 -0.44502067890E+02  0.59266180844E+02  0.00000000000E+00 0.  1.
</event>
<event>
 4    1  0.9957587E-003  0.9118800E+02  0.7818608E-02  0.1130116E+00
         25   -1    0    0    0    0  0.00000000000E+00  0.00000000000E+00  0.99999998245E-14  0.12500000000E+03  0.12500000000E+03 0.  0.
        -13    1    1    0    0    0  0.13637534395E+02 -0.52143621244E+02 -0.15955385437E+02  0.56209652813E+02  0.10566000000E+00 0. -1.
         13    1    1    0    0    0  0.20049880151E+01 -0.52558914016E+01 -0.29671086617E+01  0.63607601128E+01  0.10566000000E+00 0.  1.
         22    1    1    0    0    0 -0.15642522410E+02  0.57399512646E+02  0.18922494099E+02  0.62429587074E+02  0.00000000000E+00 0. -1.
</event>
<event>
 4    1  0.9957587E-003  0.9118800E+02  0.7818608E-02  0.1130116E+00
         25   -1    0    0    0    0  0.00000000000E+00  0.00000000000E+00  0.99999998245E-14  0.12500000000E+03  0.12500000000E+03 0.  0.
        -13    1    1    0    0    0  0.51644904028E+02  0.32052546082E+01 -0.19034264342E+02  0.55134237568E+02  0.10566000000E+00 0. -1.
         13    1    1    0    0    0  0.69795263813E+01  0.29928404018E+00 -0.23397889860E+01  0.73681161757E+01  0.10566000000E+00 0.  1.
         22    1    1    0    0    0 -0.58624430409E+02 -0.35045386484E+01  0.21374053328E+02  0.62497646256E+02  0.00000000000E+00 0. -1.
</event>
<event>
 4    1  0.9957587E-003  0.9118800E+02  0.7818608E-02  0.1130116E+00
         25   -1    0    0    0    0  0.00000000000E+00  0.00000000000E+00  0.99999998245E-14  0.12500000000E+03  0.12500000000E+03 0.  0.
        -13    1    1    0    0    0 -0.37330526700E+00  0.15579650005E+02  0.10861808440E+02  0.18996181135E+02  0.10566000000E+00 0.  1.
         13    1    1    0    0    0 -0.76180215753E+00  0.35363418344E+02  0.25327561732E+02  0.43504577309E+02  0.10566000000E+00 0. -1.
         22    1    1    0    0    0  0.11351074245E+01 -0.50943068349E+02 -0.36189370171E+02  0.62499241556E+02  0.00000000000E+00 0.  1.
</event>
<event>
 4    1  0.9957587E-003  0.9118800E+02  0.7818608E-02  0.1130116E+00
         25   -1    0    0    0    0  0.00000000000E+00  0.00000000000E+00  0.99999998245E-14  0.12500000000E+03  0.12500000000E+03 0.  0.
        -13    1    1    0    0    0 -0.50534793542E+00  0.10436293526E+01 -0.10012811440E-01  0.11643895626E+01  0.10566000000E+00 0.  1.
         13    1    1    0    0    0  0.47565200679E+02  0.12349058527E+02 -0.37801672338E+02  0.61999396430E+02  0.10566000000E+00 0. -1.
         22    1    1    0    0    0 -0.47059852744E+02 -0.13392687879E+02  0.37811685150E+02  0.61836214007E+02  0.00000000000E+00 0. -1.
</event>
<event>
 4    1  0.9957587E-003  0.9118800E+02  0.7818608E-02  0.1130116E+00
         25   -1    0    0    0    0  0.00000000000E+00  0.00000000000E+00  0.99999998245E-14  0.12500000000E+03  0.12500000000E+03 0.  0.
        -13    1    1    0    0    0 -0.15525888474E+02  0.11407888983E+02 -0.22857871172E+02  0.29894591192E+02  0.10566000000E+00 0. -1.
         13    1    1    0    0    0 -0.16687151509E+02  0.12500627668E+02 -0.25068034356E+02  0.32605892536E+02  0.10566000000E+00 0. -1.
         22    1    1    0    0    0  0.32213039984E+02 -0.23908516651E+02  0.47925905529E+02  0.62499516271E+02  0.00000000000E+00 0. -1.
</event>
<event>
 4    1  0.9957587E-003  0.9118800E+02  0.7818608E-02  0.1130116E+00
         25   -1    0    0    0    0  0.00000000000E+00  0.00000000000E+00  0.99999998245E-14  0.12500000000E+03  0.12500000000E+03 0.  0.
        -13    1    1    0    0    0  0.17743523719E+01 -0.12083888581E+01  0.30412798638E+00  0.21707574346E+01  0.10566000000E+00 0.  1.
         13    1    1    0    0    0  0.19346032227E+02 -0.52943201107E+02  0.22088273945E+02  0.60540519624E+02  0.10566000000E+00 0. -1.
         22    1    1    0    0    0 -0.21120384599E+02  0.54151589965E+02 -0.22392401932E+02  0.62288722941E+02  0.00000000000E+00 0. -1.
</event>
<event>
 4    1  0.9957587E-003  0.9118800E+02  0.7818608E-02  0.1130116E+00
         25   -1    0    0    0    0  0.00000000000E+00  0.00000000000E+00  0.99999998245E-14  0.12500000000E+03  0.12500000000E+03 0.  0.
        -13    1    1    0    0    0 -0.31728028201E+02  0.35765878640E+01  0.21668040488E+02  0.38587237487E+02  0.10566000000E+00 0. -1.
         13    1    1    0    0    0 -0.19826820268E+02  0.32179995153E+01  0.12989883020E+02  0.23920839194E+02  0.10566000000E+00 0.  1.
         22    1    1    0    0    0  0.51554848468E+02 -0.67945873793E+01 -0.34657923509E+02  0.62491923319E+02  0.00000000000E+00 0.  1.
</event>
<event>
 4    1  0.9957587E-003  0.9118800E+02  0.7818608E-02  0.1130116E+00
         25   -1    0    0    0    0  0.00000000000E+00  0.00000000000E+00  0.99999998245E-14  0.12500000000E+03  0.12500000000E+03 0.  0.
        -13    1    1    0    0    0 -0.24509256841E+02  0.96356466889E+01 -0.84973634187E+01  0.27672472009E+02  0.10566000000E+00 0. -1.
         13    1    1    0    0    0 -0.30439609104E+02  0.12534414143E+02 -0.11377765656E+02  0.34830246276E+02  0.10566000000E+00 0.  1.
         22    1    1    0    0    0  0.54948865945E+02 -0.22170060832E+02  0.19875129075E+02  0.62497281714E+02  0.00000000000E+00 0. -1.
</event>
<event>
 4    1  0.9957587E-003  0.9118800E+02  0.7818608E-02  0.1130116E+00
         25   -1    0    0    0    0  0.00000000000E+00  0.00000000000E+00  0.99999998245E-14  0.12500000000E+03  0.12500000000E+03 0.  0.
        -13    1    1    0    0    0 -0.50242810123E+02 -0.11720000182E+02 -0.63843118815E+01  0.51985276527E+02  0.10566000000E+00 0. -1.
         13    1    1    0    0    0 -0.99588137840E+01 -0.22526793756E+01 -0.26671117647E+01  0.10553539006E+02  0.10566000000E+00 0.  1.
         22    1    1    0    0    0  0.60201623907E+02  0.13972679558E+02  0.90514236462E+01  0.62461184467E+02  0.00000000000E+00 0. -1.
</event>
<event>
 4    1  0.9957587E-003  0.9118800E+02  0.7818608E-02  0.1130116E+00
         25   -1    0    0    0    0  0.00000000000E+00  0.00000000000E+00  0.99999998245E-14  0.12500000000E+03  0.12500000000E+03 0.  0.
        -13    1    1    0    0    0  0.25306254222E+02 -0.51363775120E+00 -0.15334535188E+02  0.29594416027E+02  0.10566000000E+00 0. -1.
         13    1    1    0    0    0  0.30057728207E+02  0.37017679446E+01 -0.13203063653E+02  0.33037889835E+02  0.10566000000E+00 0.  1.
         22    1    1    0    0    0 -0.55363982429E+02 -0.31881301934E+01  0.28537598841E+02  0.62367694138E+02  0.00000000000E+00 0.  1.
</event>
<event>
 4    1  0.9957587E-003  0.9118800E+02  0.7818608E-02  0.1130116E+00
         25   -1    0    0    0    0  0.00000000000E+00  0.00000000000E+00  0.99999998245E-14  0.12500000000E+03  0.12500000000E+03 0.  0.
        -13    1    1    0    0    0  0.39852154020E+00  0.96946425798E+00 -0.16170737979E+00  0.10658300417E+01  0.10566000000E+00 0. -1.
         13    1    1    0    0    0  0.43244204385E+02  0.42050318527E+02 -0.11890185286E+02  0.61479087268E+02  0.10566000000E+00 0.  1.
         22    1    1    0    0    0 -0.43642725925E+02 -0.43019782785E+02  0.12051892666E+02  0.62455082690E+02  0.00000000000E+00 0.  1.
</event>
<event>
 4    1  0.9957587E-003  0.9118800E+02  0.7818608E-02  0.1130116E+00
         25   -1    0    0    0    0  0.00000000000E+00  0.00000000000E+00  0.99999998245E-14  0.12500000000E+03  0.12500000000E+03 0.  0.
        -13    1    1    0    0    0 -0.13600899252E+01 -0.10934820706E+00 -0.71910574906E+01  0.73201279704E+01  0.10566000000E+00 0.  1.
         13    1    1    0    0    0 -0.10269923206E+02 -0.78921025214E-01 -0.54216323919E+02  0.55180598896E+02  0.10566000000E+00 0.  1.
         22    1    1    0    0    0  0.11630013131E+02  0.18826923228E+00  0.61407381409E+02  0.62499273134E+02  0.00000000000E+00 0.  1.
</event>
<event>
 4    1  0.9957587E-003  0.9118800E+02  0.7818608E-02  0.1130116E+00
         25   -1    0    0    0    0  0.00000000000E+00  0.00000000000E+00  0.99999998245E-14  0.12500000000E+03  0.12500000000E+03 0.  0.
        -13    1    1    0    0    0 -0.14721407635E+02  0.61982445334E+01  0.16636300965E+02  0.23063298807E+02  0.10566000000E+00 0. -1.
         13    1    1    0    0    0 -0.27453536756E+02  0.13616017037E+02  0.24921887887E+02  0.39499421011E+02  0.10566000000E+00 0.  1.
         22    1    1    0    0    0  0.42174944391E+02 -0.19814261570E+02 -0.41558188851E+02  0.62437280182E+02  0.00000000000E+00 0.  1.
</event>
<event>
 4    1  0.9957587E-003  0.9118800E+02  0.7818608E-02  0.1130116E+00
         25   -1    0    0    0    0  0.00000000000E+00  0.00000000000E+00  0.99999998245E-14  0.12500000000E+03  0.12500000000E+03 0.  0.
        -13    1    1    0    0    0  0.39034682206E+02  0.54498632243E+01  0.44780261601E+02  0.59654760222E+02  0.10566000000E+00 0. -1.
         13    1    1    0    0    0 -0.18885035642E+01  0.20049624253E+01  0.31912760790E+01  0.42168385180E+01  0.10566000000E+00 0.  1.
         22    1    1    0    0    0 -0.37146178642E+02 -0.74548256496E+01 -0.47971537680E+02  0.61128401260E+02  0.00000000000E+00 0. -1.
</event>
<event>
 4    1  0.9957587E-003  0.9118800E+02  0.7818608E-02  0.1130116E+00
         25   -1    0    0    0    0  0.00000000000E+00  0.00000000000E+00  0.99999998245E-14  0.12500000000E+03  0.12500000000E+03 0.  0.
        -13    1    1    0    0    0 -0.64237634087E+00 -0.73977068657E+01 -0.39288053942E+02  0.39983759963E+02  0.10566000000E+00 0. -1.
         13    1    1    0    0    0 -0.36706935273E+00 -0.43154040907E+01 -0.22095895405E+02  0.22516598547E+02  0.10566000000E+00 0. -1.
         22    1    1    0    0    0  0.10094456936E+01  0.11713110956E+02  0.61383949347E+02  0.62499641489E+02  0.00000000000E+00 0. -1.
</event>
<event>
 4    1  0.9957587E-003  0.9118800E+02  0.7818608E-02  0.1130116E+00
         25   -1    0    0    0    0  0.00000000000E+00  0.00000000000E+00  0.99999998245E-14  0.12500000000E+03  0.12500000000E+03 0.  0.
        -13    1    1    0    0    0 -0.18375997139E+02  0.15100945837E+02  0.33948132586E+02  0.41451208741E+02  0.10566000000E+00 0.  1.
         13    1    1    0    0    0 -0.91269227559E+01  0.78794385358E+01  0.17253733313E+02  0.21049673344E+02  0.10566000000E+00 0. -1.
         22    1    1    0    0    0  0.27502919895E+02 -0.22980384372E+02 -0.51201865898E+02  0.62499117915E+02  0.00000000000E+00 0.  1.
</event>
<event>
 4    1  0.9957587E-003  0.9118800E+02  0.7818608E-02  0.1130116E+00
         25   -1    0    0    0    0  0.00000000000E+00  0.00000000000E+00  0.99999998245E-14  0.12500000000E+03  0.12500000000E+03 0.  0.
        -13    1    1    0    0    0  0.11410580559E+02  0.22535378413E+01 -0.72209699527E+00  0.11653856426E+02  0.10566000000E+00 0. -1.
         13    1    1    0    0    0  0.49178815381E+02  0.10371502713E+02 -0.78313179092E+01  0.50867127450E+02  0.10566000000E+00 0.  1.
         22    1    1    0    0    0 -0.60589395940E+02 -0.12625040554E+02  0.85534149044E+01  0.62479016124E+02  0.00000000000E+00 0.  1.
</event>
<event>
 4    1  0.9957587E-003  0.9118800E+02  0.7818608E-02  0.1130116E+00
         25   -1    0    0    0    0  0.00000000000E+00  0.00000000000E+00  0.99999998245E-14  0.12500000000E+03  0.12500000000E+03 0.  0.
        -13    1    1    0    0    0  0.31683078964E+02 -0.11179127702E+02 -0.15945360139E+02  0.37189461718E+02  0.10566000000E+00 0. -1.
         13    1    1    0    0    0  0.21788126905E+02 -0.12591559591E+02 -0.50021221763E+01  0.25657401218E+02  0.10566000000E+00 0.  1.
         22    1    1    0    0    0 -0.53471205870E+02  0.23770687293E+02  0.20947482315E+02  0.62153137064E+02  0.00000000000E+00 0. -1.
</event>
<event>
 4    1  0.9957587E-003  0.9118800E+02  0.7818608E-02  0.1130116E+00
         25   -1    0    0    0    0  0.00000000000E+00  0.00000000000E+00  0.99999998245E-14  0.12500000000E+03  0.12500000000E+03 0.  0.
        -13    1    1    0    0    0 -0.14899343697E+02  0.17801731118E+02  0.12888713937E+02  0.26552253848E+02  0.10566000000E+00 0.  1.
         13    1    1    0    0    0 -0.27597913572E+02  0.77822899099E+01  0.23380700771E+02  0.36998340535E+02  0.10566000000E+00 0. -1.
         22    1    1    0    0    0  0.42497257270E+02 -0.25584021028E+02 -0.36269414708E+02  0.61449405617E+02  0.00000000000E+00 0. -1.
</event>
<event>
 4    1  0.9957587E-003  0.9118800E+02  0.7818608E-02  0.1130116E+00
         25   -1    0    0    0    0  0.00000000000E+00  0.00000000000E+00  0.99999998245E-14  0.12500000000E+03  0.12500000000E+03 0.  0.
        -13    1    1    0    0    0  0.55612464663E+02 -0.64507123528E+01 -0.23357114231E+02  0.60662376024E+02  0.10566000000E+00 0.  1.
         13    1    1    0    0    0  0.18227879720E+01 -0.80883544855E+00  0.28494625622E+00  0.20172082635E+01  0.10566000000E+00 0. -1.
         22    1    1    0    0    0 -0.57435252635E+02  0.72595478013E+01  0.23072167974E+02  0.62320415712E+02  0.00000000000E+00 0.  1.
</event>
<event>
 4    1  0.9957587E-003  0.9118800E+02  0.7818608E-02  0.1130116E+00
         25   -1    0    0    0    0  0.00000000000E+00  0.00000000000E+00  0.99999998245E-14  0.12500000000E+03  0.12500000000E+03 0.  0.
        -13    1    1    0    0    0  0.61922548881E-01 -0.13847406355E+02 -0.17099284941E+01  0.13953118528E+02  0.10566000000E+00 0.  1.
         13    1    1    0    0    0  0.40438816333E+02  0.21273151032E+02  0.35434648546E+02  0.57822749008E+02  0.10566000000E+00 0. -1.
         22    1    1    0    0    0 -0.40500738881E+02 -0.74257446773E+01 -0.33724720052E+02  0.53224132464E+02  0.00000000000E+00 0. -1.
</event>
<event>
 4    1  0.9957587E-003  0.9118800E+02  0.7818608E-02  0.1130116E+00
         25   -1    0    0    0    0  0.00000000000E+00  0.00000000000E+00  0.99999998245E-14  0.12500000000E+03  0.12500000000E+03 0.  0.
        -13    1    1    0    0    0 -0.47444240259E+02  0.26939649309E+01  0.52476249320E+01  0.47809644553E+02  0.10566000000E+00 0. -1.
         13    1    1    0    0    0 -0.14306696736E+02 -0.50822518573E+01 -0.19179611641E+01  0.15303613773E+02  0.10566000000E+00 0.  1.
         22    1    1    0    0    0  0.61750936995E+02  0.23882869263E+01 -0.33296637679E+01  0.61886741674E+02  0.00000000000E+00 0. -1.
</event>
<event>
 4    1  0.9957587E-003  0.9118800E+02  0.7818608E-02  0.1130116E+00
         25   -1    0    0    0    0  0.00000000000E+00  0.00000000000E+00  0.99999998245E-14  0.12500000000E+03  0.12500000000E+03 0.  0.
        -13    1    1    0    0    0  0.30080142475E+02 -0.23161202775E+02  0.65222310068E+01  0.38520214779E+02  0.10566000000E+00 0. -1.
         13    1    1    0    0    0 -0.33069576958E+02 -0.83892721222E+00  0.28671845884E+02  0.43776553421E+02  0.10566000000E+00 0.  1.
         22    1    1    0    0    0  0.29894344826E+01  0.24000129987E+02 -0.35194076891E+02  0.42703231799E+02  0.00000000000E+00 0.  1.
</event>
<event>
 4    1  0.9957587E-003  0.9118800E+02  0.7818608E-02  0.1130116E+00
         25   -1    0    0    0    0  0.00000000000E+00  0.00000000000E+00  0.99999998245E-14  0.12500000000E+03  0.12500000000E+03 0.  0.
        -13    1    1    0    0    0  0.44969889629E+01  0.74043909521E+01 -0.60929752735E+00  0.86850631901E+01  0.10566000000E+00 0.  1.
         13    1    1    0    0    0  0.23468504814E+02  0.47751051037E+02 -0.82536707371E+01  0.53842992469E+02  0.10566000000E+00 0. -1.
         22    1    1    0    0    0 -0.27965493777E+02 -0.55155441990E+02  0.88629682645E+01  0.62471944341E+02  0.00000000000E+00 0. -1.
</event>
<event>
 4    1  0.9957587E-003  0.9118800E+02  0.7818608E-02  0.1130116E+00
         25   -1    0    0    0    0  0.00000000000E+00  0.00000000000E+00  0.99999998245E-14  0.12500000000E+03  0.12500000000E+03 0.  0.
        -13    1    1    0    0    0  0.26925488133E+02  0.75215728254E+01  0.16141296763E+02  0.32281706804E+02  0.10566000000E+00 0. -1.
         13    1    1    0    0    0 -0.51502796331E+02  0.19227683512E+02 -0.99880356090E+01  0.55874984228E+02  0.10566000000E+00 0.  1.
         22    1    1    0    0    0  0.24577308198E+02 -0.26749256338E+02 -0.61532611536E+01  0.36843308968E+02  0.00000000000E+00 0.  1.
</event>
<event>
 4    1  0.9957587E-003  0.9118800E+02  0.7818608E-02  0.1130116E+00
         25   -1    0    0    0    0  0.00000000000E+00  0.00000000000E+00  0.99999998245E-14  0.12500000000E+03  0.12500000000E+03 0.  0.
        -13    1    1    0    0    0  0.65487037670E+00 -0.61596937858E+01  0.34497647553E+01  0.70910312119E+01  0.10566000000E+00 0. -1.
         13    1    1    0    0    0 -0.45017207488E+02 -0.33888723903E+02 -0.11781497849E+02  0.57565696672E+02  0.10566000000E+00 0.  1.
         22    1    1    0    0    0  0.44362337111E+02  0.40048417689E+02  0.83317330939E+01  0.60343272116E+02  0.00000000000E+00 0.  1.
</event>
<event>
 4    1  0.9957587E-003  0.9118800E+02  0.7818608E-02  0.1130116E+00
         25   -1    0    0    0    0  0.00000000000E+00  0.00000000000E+00  0.99999998245E-14  0.12500000000E+03  0.12500000000E+03 0.  0.
        -13    1    1    0    0    0 -0.48159399709E+02  0.12276728557E+02  0.24737485347E+02  0.55515765236E+02  0.10566000000E+00 0.  1.
         13    1    1    0    0    0 -0.33796513875E+01 -0.60976754007E+01  0.59650367354E+01  0.91758659582E+01  0.10566000000E+00 0. -1.
         22    1    1    0    0    0  0.51539051096E+02 -0.61790531559E+01 -0.30702522082E+02  0.60308368806E+02  0.00000000000E+00 0.  1.
</event>
<event>
 4    1  0.9957587E-003  0.9118800E+02  0.7818608E-02  0.1130116E+00
         25   -1    0    0    0    0  0.00000000000E+00  0.00000000000E+00  0.99999998245E-14  0.12500000000E+03  0.12500000000E+03 0.  0.
        -13    1    1    0    0    0  0.20789524177E+02 -0.21064595626E+02 -0.74678159849E+01  0.30523776699E+02  0.10566000000E+00 0.  1.
         13    1    1    0    0    0 -0.19098873650E+02 -0.16892314576E+02 -0.31181263117E+02  0.40279021835E+02  0.10566000000E+00 0. -1.
         22    1    1    0    0    0 -0.16906505271E+01  0.37956910202E+02  0.38649079102E+02  0.54197201465E+02  0.00000000000E+00 0. -1.
</event>
<event>
 4    1  0.9957587E-003  0.9118800E+02  0.7818608E-02  0.1130116E+00
         25   -1    0    0    0    0  0.00000000000E+00  0.00000000000E+00  0.99999998245E-14  0.12500000000E+03  0.12500000000E+03 0.  0.
        -13    1    1    0    0    0  0.23186629545E+02 -0.14266547861E+02  0.16149834125E+01  0.27272211369E+02  0.10566000000E+00 0.  1.
         13    1    1    0    0    0  0.28717754007E+02 -0.20322522639E+02  0.20973831831E+01  0.35243786713E+02  0.10566000000E+00 0. -1.
         22    1    1    0    0    0 -0.51904383552E+02  0.34589070500E+02 -0.37123665956E+01  0.62484001918E+02  0.00000000000E+00 0.  1.
</event>
<event>
 4    1  0.9957587E-003  0.9118800E+02  0.7818608E-02  0.1130116E+00
         25   -1    0    0    0    0  0.00000000000E+00  0.00000000000E+00  0.99999998245E-14  0.12500000000E+03  0.12500000000E+03 0.  0.
        -13    1    1    0    0    0  0.97479445249E+01  0.18376457033E+02 -0.81040440159E+01  0.22324947682E+02  0.10566000000E+00 0.  1.
         13    1    1    0    0    0  0.17791429039E+02  0.33052565172E+02 -0.14319772502E+02  0.40175540572E+02  0.10566000000E+00 0.  1.
         22    1    1    0    0    0 -0.27539373564E+02 -0.51429022205E+02  0.22423816518E+02  0.62499511746E+02  0.00000000000E+00 0.  1.
</event>
<event>
 4    1  0.9957587E-003  0.9118800E+02  0.7818608E-02  0.1130116E+00
         25   -1    0    0    0    0  0.00000000000E+00  0.00000000000E+00  0.99999998245E-14  0.12500000000E+03  0.12500000000E+03 0.  0.
        -13    1    1    0    0    0  0.17895355025E+02  0.39470994857E+02  0.12857114921E+02  0.45205306487E+02  0.10566000000E+00 0.  1.
         13    1    1    0    0    0  0.12427480277E+02  0.10230849486E+02  0.79671730538E+01  0.17961056699E+02  0.10566000000E+00 0. -1.
         22    1    1    0    0    0 -0.30322835302E+02 -0.49701844344E+02 -0.20824287975E+02  0.61833636813E+02  0.00000000000E+00 0.  1.
</event>
<event>
 4    1  0.9957587E-003  0.9118800E+02  0.7818608E-02  0.1130116E+00
         25   -1    0    0    0    0  0.00000000000E+00  0.00000000000E+00  0.99999998245E-14  0.12500000000E+03  0.12500000000E+03 0.  0.
        -13    1    1    0    0    0  0.15625998220E+01  0.38207598911E+02 -0.15302021856E+02  0.41187684685E+02  0.10566000000E+00 0. -1.
         13    1    1    0    0    0  0.68735216360E+00  0.19824305851E+02 -0.77940614269E+01  0.21312768779E+02  0.10566000000E+00 0. -1.
         22    1    1    0    0    0 -0.22499519856E+01 -0.58031904762E+02  0.23096083282E+02  0.62499546536E+02  0.00000000000E+00 0. -1.
</event>
<event>
 4    1  0.9957587E-003  0.9118800E+02  0.7818608E-02  0.1130116E+00
         25   -1    0    0    0    0  0.00000000000E+00  0.00000000000E+00  0.99999998245E-14  0.12500000000E+03  0.12500000000E+03 0.  0.
        -13    1    1    0    0    0 -0.74294151076E+01 -0.24231385339E+02  0.22505602584E+01  0.25444693549E+02  0.10566000000E+00 0.  1.
         13    1    1    0    0    0 -0.11445370466E+02 -0.35076889277E+02  0.34362160692E+01  0.37056759320E+02  0.10566000000E+00 0. -1.
         22    1    1    0    0    0  0.18874785573E+02  0.59308274616E+02 -0.56867763276E+01  0.62498547130E+02  0.00000000000E+00 0. -1.
</event>
<event>
 4    1  0.9957587E-003  0.9118800E+02  0.7818608E-02  0.1130116E+00
         25   -1    0    0    0    0  0.00000000000E+00  0.00000000000E+00  0.99999998245E-14  0.12500000000E+03  0.12500000000E+03 0.  0.
        -13    1    1    0    0    0 -0.35087437502E+02  0.36623834669E+01  0.61850282999E+01  0.35816296043E+02  0.10566000000E+00 0. -1.
         13    1    1    0    0    0  0.85658049070E+01  0.35356593504E+02  0.12459562056E+02  0.38454044892E+02  0.10566000000E+00 0.  1.
         22    1    1    0    0    0  0.26521632595E+02 -0.39018976971E+02 -0.18644590356E+02  0.50729659065E+02  0.00000000000E+00 0. -1.
</event>
<event>
 4    1  0.9957587E-003  0.9118800E+02  0.7818608E-02  0.1130116E+00
         25   -1    0    0    0    0  0.00000000000E+00  0.00000000000E+00  0.99999998245E-14  0.12500000000E+03  0.12500000000E+03 0.  0.
        -13    1    1    0    0    0  0.11237930199E+02 -0.17314590757E+02  0.25525560148E+02  0.32827602915E+02  0.10566000000E+00 0. -1.
         13    1    1    0    0    0  0.10238824677E+02 -0.15765191758E+02  0.22958318743E+02  0.29672720897E+02  0.10566000000E+00 0. -1.
         22    1    1    0    0    0 -0.21476754876E+02  0.33079782515E+02 -0.48483878891E+02  0.62499676187E+02  0.00000000000E+00 0. -1.
</event>
<event>
 4    1  0.9957587E-003  0.9118800E+02  0.7818608E-02  0.1130116E+00
         25   -1    0    0    0    0  0.00000000000E+00  0.00000000000E+00  0.99999998245E-14  0.12500000000E+03  0.12500000000E+03 0.  0.
        -13    1    1    0    0    0  0.27574113433E+02  0.18136658925E+02 -0.22017655128E+01  0.33077621800E+02  0.10566000000E+00 0. -1.
         13    1    1    0    0    0  0.31226302185E+02 -0.68688065424E+01  0.22495738060E+01  0.32052054502E+02  0.10566000000E+00 0.  1.
         22    1    1    0    0    0 -0.58800415617E+02 -0.11267852382E+02 -0.47808293229E-01  0.59870323698E+02  0.00000000000E+00 0. -1.
</event>
<event>
 4    1  0.9957587E-003  0.9118800E+02  0.7818608E-02  0.1130116E+00
         25   -1    0    0    0    0  0.00000000000E+00  0.00000000000E+00  0.99999998245E-14  0.12500000000E+03  0.12500000000E+03 0.  0.
        -13    1    1    0    0    0 -0.23271183641E+02  0.98211768279E+01 -0.59534004606E+01  0.25951062472E+02  0.10566000000E+00 0.  1.
         13    1    1    0    0    0 -0.29191455813E+02 -0.30264884551E+02 -0.24491965164E+01  0.42120233345E+02  0.10566000000E+00 0. -1.
         22    1    1    0    0    0  0.52462639455E+02  0.20443707723E+02  0.84025969770E+01  0.56928704183E+02  0.00000000000E+00 0. -1.
</event>
<event>
 4    1  0.9957587E-003  0.9118800E+02  0.7818608E-02  0.1130116E+00
         25   -1    0    0    0    0  0.00000000000E+00  0.00000000000E+00  0.99999998245E-14  0.12500000000E+03  0.12500000000E+03 0.  0.
        -13    1    1    0    0    0 -0.56620096530E+01 -0.42999014541E+00  0.46097012643E+00  0.56979735283E+01  0.10566000000E+00 0. -1.
         13    1    1    0    0    0 -0.55624801580E+02 -0.79091466275E+01  0.84349311146E+01  0.56814015684E+02  0.10566000000E+00 0.  1.
         22    1    1    0    0    0  0.61286811233E+02  0.83391367729E+01 -0.88959012411E+01  0.62488010787E+02  0.00000000000E+00 0.  1.
</event>
<event>
 4    1  0.9957587E-003  0.9118800E+02  0.7818608E-02  0.1130116E+00
         25   -1    0    0    0    0  0.00000000000E+00  0.00000000000E+00  0.99999998245E-14  0.12500000000E+03  0.12500000000E+03 0.  0.
        -13    1    1    0    0    0 -0.16106973159E+02 -0.18235368005E+02 -0.26583373317E+01  0.24475317199E+02  0.10566000000E+00 0.  1.
         13    1    1    0    0    0 -0.36752785915E+02  0.24459737418E+02  0.13582381897E+02  0.46190240193E+02  0.10566000000E+00 0. -1.
         22    1    1    0    0    0  0.52859759073E+02 -0.62243694130E+01 -0.10924044565E+02  0.54334442608E+02  0.00000000000E+00 0. -1.
</event>
<event>
 4    1  0.9957587E-003  0.9118800E+02  0.7818608E-02  0.1130116E+00
         25   -1    0    0    0    0  0.00000000000E+00  0.00000000000E+00  0.99999998245E-14  0.12500000000E+03  0.12500000000E+03 0.  0.
        -13    1    1    0    0    0  0.16853208423E+02 -0.18378347053E+01  0.22590359286E+01  0.17103294359E+02  0.10566000000E+00 0. -1.
         13    1    1    0    0    0  0.44692091341E+02 -0.51130902922E+01  0.61117108277E+01  0.45397036181E+02  0.10566000000E+00 0. -1.
         22    1    1    0    0    0 -0.61545299764E+02  0.69509249974E+01 -0.83707467563E+01  0.62499669460E+02  0.00000000000E+00 0. -1.
</event>
<event>
 4    1  0.9957587E-003  0.9118800E+02  0.7818608E-02  0.1130116E+00
         25   -1    0    0    0    0  0.00000000000E+00  0.00000000000E+00  0.99999998245E-14  0.12500000000E+03  0.12500000000E+03 0.  0.
        -13    1    1    0    0    0 -0.19629626372E+02 -0.74227727673E+01  0.34081142438E+02  0.40024432800E+02  0.10566000000E+00 0. -1.
         13    1    1    0    0    0 -0.10899929796E+02 -0.41245838735E+01  0.19218103826E+02  0.22475928021E+02  0.10566000000E+00 0.  1.
         22    1    1    0    0    0  0.30529556168E+02  0.11547356641E+02 -0.53299246264E+02  0.62499639179E+02  0.00000000000E+00 0. -1.
</event>
<event>
 4    1  0.9957587E-003  0.9118800E+02  0.7818608E-02  0.1130116E+00
         25   -1    0    0    0    0  0.00000000000E+00  0.00000000000E+00  0.99999998245E-14  0.12500000000E+03  0.12500000000E+03 0.  0.
        -13    1    1    0    0    0  0.12385753892E+02 -0.16659008429E+02 -0.14563184508E+02  0.25357976425E+02  0.10566000000E+00 0.  1.
         13    1    1    0    0    0  0.18746139157E+02 -0.24252371878E+02 -0.20977159634E+02  0.37143608674E+02  0.10566000000E+00 0. -1.
         22    1    1    0    0    0 -0.31131893048E+02  0.40911380307E+02  0.35540344142E+02  0.62498414901E+02  0.00000000000E+00 0. -1.
</event>
<event>
 4    1  0.9957587E-003  0.9118800E+02  0.7818608E-02  0.1130116E+00
         25   -1    0    0    0    0  0.00000000000E+00  0.00000000000E+00  0.99999998245E-14  0.12500000000E+03  0.12500000000E+03 0.  0.
        -13    1    1    0    0    0 -0.29075854466E+01  0.37004112321E+01  0.11528232877E+01  0.48463658533E+01  0.10566000000E+00 0. -1.
         13    1    1    0    0    0 -0.37058618127E+02 -0.13518041163E+02 -0.45118821239E+02  0.59931609426E+02  0.10566000000E+00 0.  1.
         22    1    1    0    0    0  0.39966203574E+02  0.98176299312E+01  0.43965997951E+02  0.60222024720E+02  0.00000000000E+00 0.  1.
</event>
<event>
 4    1  0.9957587E-003  0.9118800E+02  0.7818608E-02  0.1130116E+00
         25   -1    0    0    0    0  0.00000000000E+00  0.00000000000E+00  0.99999998245E-14  0.12500000000E+03  0.12500000000E+03 0.  0.
        -13    1    1    0    0    0  0.24809043781E+01 -0.61421688586E+01 -0.28368228670E+01  0.72069308888E+01  0.10566000000E+00 0.  1.
         13    1    1    0    0    0  0.19912445089E+02 -0.46825837689E+02 -0.21639009169E+02  0.55293963744E+02  0.10566000000E+00 0.  1.
         22    1    1    0    0    0 -0.22393349467E+02  0.52968006547E+02  0.24475832036E+02  0.62499105368E+02  0.00000000000E+00 0.  1.
</event>
<event>
 4    1  0.9957587E-003  0.9118800E+02  0.7818608E-02  0.1130116E+00
         25   -1    0    0    0    0  0.00000000000E+00  0.00000000000E+00  0.99999998245E-14  0.12500000000E+03  0.12500000000E+03 0.  0.
        -13    1    1    0    0    0  0.43100191200E+02 -0.43409190629E+01 -0.27995780096E+02  0.51577562244E+02  0.10566000000E+00 0. -1.
         13    1    1    0    0    0  0.27794135354E+01 -0.14333816245E+02 -0.31130203024E+01  0.14929349859E+02  0.10566000000E+00 0.  1.
         22    1    1    0    0    0 -0.45879604735E+02  0.18674735308E+02  0.31108800399E+02  0.58493087897E+02  0.00000000000E+00 0. -1.
</event>
<event>
 4    1  0.9957587E-003  0.9118800E+02  0.7818608E-02  0.1130116E+00
         25   -1    0    0    0    0  0.00000000000E+00  0.00000000000E+00  0.99999998245E-14  0.12500000000E+03  0.12500000000E+03 0.  0.
        -13    1    1    0    0    0  0.18644386785E+00  0.66811743980E+01  0.69201808668E+01  0.96214822100E+01  0.10566000000E+00 0. -1.
         13    1    1    0    0    0  0.16584227409E+01  0.53846544224E+02 -0.97909722165E+01  0.54754680091E+02  0.10566000000E+00 0.  1.
         22    1    1    0    0    0 -0.18448666088E+01 -0.60527718622E+02  0.28707913498E+01  0.60623837699E+02  0.00000000000E+00 0.  1.
</event>
<event>
 4    1  0.9957587E-003  0.9118800E+02  0.7818608E-02  0.1130116E+00
         25   -1    0    0    0    0  0.00000000000E+00  0.00000000000E+00  0.99999998245E-14  0.12500000000E+03  0.12500000000E+03 0.  0.
        -13    1    1    0    0    0 -0.56797688880E+02 -0.13590973452E+02 -0.16311903115E+02  0.60636468967E+02  0.10566000000E+00 0.  1.
         13    1    1    0    0    0  0.31791599720E+02  0.17144960367E+02  0.14881559492E+02  0.39065681303E+02  0.10566000000E+00 0. -1.
         22    1    1    0    0    0  0.25006089160E+02 -0.35539869151E+01  0.14303436229E+01  0.25297849730E+02  0.00000000000E+00 0.  1.
</event>
<event>
 4    1  0.9957587E-003  0.9118800E+02  0.7818608E-02  0.1130116E+00
         25   -1    0    0    0    0  0.00000000000E+00  0.00000000000E+00  0.99999998245E-14  0.12500000000E+03  0.12500000000E+03 0.  0.
        -13    1    1    0    0    0 -0.25120222627E+02  0.90780424434E+01  0.49981562114E+02  0.56671016885E+02  0.10566000000E+00 0.  1.
         13    1    1    0    0    0 -0.22125827153E+01 -0.33043430793E+01  0.51595402392E+01  0.65150767435E+01  0.10566000000E+00 0. -1.
         22    1    1    0    0    0  0.27332805342E+02 -0.57736993641E+01 -0.55141102353E+02  0.61813906372E+02  0.00000000000E+00 0.  1.
</event>
<event>
 4    1  0.9957587E-003  0.9118800E+02  0.7818608E-02  0.1130116E+00
         25   -1    0    0    0    0  0.00000000000E+00  0.00000000000E+00  0.99999998245E-14  0.12500000000E+03  0.12500000000E+03 0.  0.
        -13    1    1    0    0    0  0.49342827877E+01  0.75411918382E+01  0.88839069120E+01  0.12655105176E+02  0.10566000000E+00 0.  1.
         13    1    1    0    0    0  0.19877187295E+02  0.29646567084E+02  0.34792708356E+02  0.49845413364E+02  0.10566000000E+00 0. -1.
         22    1    1    0    0    0 -0.24811470083E+02 -0.37187758922E+02 -0.43676615268E+02  0.62499481459E+02  0.00000000000E+00 0. -1.
</event>
<event>
 4    1  0.9957587E-003  0.9118800E+02  0.7818608E-02  0.1130116E+00
         25   -1    0    0    0    0  0.00000000000E+00  0.00000000000E+00  0.99999998245E-14  0.12500000000E+03  0.12500000000E+03 0.  0.
        -13    1    1    0    0    0 -0.43547057641E+02 -0.21167477514E+02  0.20180413825E+02  0.52456349469E+02  0.10566000000E+00 0. -1.
         13    1    1    0    0    0 -0.84741197253E+01 -0.41084051972E+01  0.34993658875E+01  0.10047209764E+02  0.10566000000E+00 0. -1.
         22    1    1    0    0    0  0.52021177366E+02  0.25275882711E+02 -0.23679779712E+02  0.62496440767E+02  0.00000000000E+00 0. -1.
</event>
<event>
 4    1  0.9957587E-003  0.9118800E+02  0.7818608E-02  0.1130116E+00
         25   -1    0    0    0    0  0.00000000000E+00  0.00000000000E+00  0.99999998245E-14  0.12500000000E+03  0.12500000000E+03 0.  0.
        -13    1    1    0    0    0  0.23249318737E+02  0.40326652630E+02 -0.12430184637E+02  0.48179771567E+02  0.10566000000E+00 0.  1.
         13    1    1    0    0    0  0.69991578095E+01  0.11943681735E+02 -0.36646091036E+01  0.14320623846E+02  0.10566000000E+00 0.  1.
         22    1    1    0    0    0 -0.30248476547E+02 -0.52270334365E+02  0.16094793740E+02  0.62499604587E+02  0.00000000000E+00 0.  1.
</event>
<event>
 4    1  0.9957587E-003  0.9118800E+02  0.7818608E-02  0.1130116E+00
         25   -1    0    0    0    0  0.00000000000E+00  0.00000000000E+00  0.99999998245E-14  0.12500000000E+03  0.12500000000E+03 0.  0.
        -13    1    1    0    0    0 -0.55175056222E+01  0.85384013323E+01  0.16813865991E+01  0.10304629568E+02  0.10566000000E+00 0.  1.
         13    1    1    0    0    0 -0.27080211839E+02  0.43874126377E+02  0.81368700890E+01  0.52196711175E+02  0.10566000000E+00 0.  1.
         22    1    1    0    0    0  0.32597717461E+02 -0.52412527709E+02 -0.98182566881E+01  0.62498659257E+02  0.00000000000E+00 0.  1.
</event>
<event>
 4    1  0.9957587E-003  0.9118800E+02  0.7818608E-02  0.1130116E+00
         25   -1    0    0    0    0  0.00000000000E+00  0.00000000000E+00  0.99999998245E-14  0.12500000000E+03  0.12500000000E+03 0.  0.
        -13    1    1    0    0    0  0.11856140295E+02  0.23345123662E+02  0.16062101504E+02  0.30717505274E+02  0.10566000000E+00 0. -1.
         13    1    1    0    0    0  0.16015341245E+02  0.23978270294E+02  0.13579921549E+02  0.31872778900E+02  0.10566000000E+00 0.  1.
         22    1    1    0    0    0 -0.27871481540E+02 -0.47323393956E+02 -0.29642023053E+02  0.62409715826E+02  0.00000000000E+00 0. -1.
</event>
<event>
 4    1  0.9957587E-003  0.9118800E+02  0.7818608E-02  0.1130116E+00
         25   -1    0    0    0    0  0.00000000000E+00  0.00000000000E+00  0.99999998245E-14  0.12500000000E+03  0.12500000000E+03 0.  0.
        -13    1    1    0    0    0 -0.96808955095E-01  0.20673241155E-01 -0.14715552492E-01  0.14553329437E+00  0.10566000000E+00 0. -1.
         13    1    1    0    0    0  0.14655822985E+01  0.53532780835E+02  0.32074125212E+02  0.62423290746E+02  0.10566000000E+00 0. -1.
         22    1    1    0    0    0 -0.13687733434E+01 -0.53553454076E+02 -0.32059409659E+02  0.62431175960E+02  0.00000000000E+00 0. -1.
</event>
<event>
 4    1  0.9957587E-003  0.9118800E+02  0.7818608E-02  0.1130116E+00
         25   -1    0    0    0    0  0.00000000000E+00  0.00000000000E+00  0.99999998245E-14  0.12500000000E+03  0.12500000000E+03 0.  0.
        -13    1    1    0    0    0  0.21836582348E+02  0.34440031159E+02  0.32483515699E+02  0.52135803735E+02  0.10566000000E+00 0.  1.
         13    1    1    0    0    0 -0.43182997186E-01  0.51655344474E+01  0.97277963306E+01  0.11014798972E+02  0.10566000000E+00 0. -1.
         22    1    1    0    0    0 -0.21793399351E+02 -0.39605565606E+02 -0.42211312030E+02  0.61849397293E+02  0.00000000000E+00 0.  1.
</event>
<event>
 4    1  0.9957587E-003  0.9118800E+02  0.7818608E-02  0.1130116E+00
         25   -1    0    0    0    0  0.00000000000E+00  0.00000000000E+00  0.99999998245E-14  0.12500000000E+03  0.12500000000E+03 0.  0.
        -13    1    1    0    0    0  0.15384247487E+02  0.21203760616E+02 -0.22262914060E+02  0.34379107631E+02  0.10566000000E+00 0.  1.
         13    1    1    0    0    0  0.12447766005E+02  0.17052549528E+02 -0.18577209615E+02  0.28122236842E+02  0.10566000000E+00 0. -1.
         22    1    1    0    0    0 -0.27832013492E+02 -0.38256310144E+02  0.40840123675E+02  0.62498655527E+02  0.00000000000E+00 0. -1.
</event>
<event>
 4    1  0.9957587E-003  0.9118800E+02  0.7818608E-02  0.1130116E+00
         25   -1    0    0    0    0  0.00000000000E+00  0.00000000000E+00  0.99999998245E-14  0.12500000000E+03  0.12500000000E+03 0.  0.
        -13    1    1    0    0    0  0.25988703612E+02  0.17837222422E+02  0.19181912905E+02  0.36898999524E+02  0.10566000000E+00 0.  1.
         13    1    1    0    0    0  0.17921403317E+02  0.12477007905E+02  0.13362804853E+02  0.25601330838E+02  0.10566000000E+00 0. -1.
         22    1    1    0    0    0 -0.43910106929E+02 -0.30314230328E+02 -0.32544717758E+02  0.62499669637E+02  0.00000000000E+00 0.  1.
</event>
<event>
 4    1  0.9957587E-003  0.9118800E+02  0.7818608E-02  0.1130116E+00
         25   -1    0    0    0    0  0.00000000000E+00  0.00000000000E+00  0.99999998245E-14  0.12500000000E+03  0.12500000000E+03 0.  0.
        -13    1    1    0    0    0  0.34803580550E+02  0.12154944490E+02 -0.45855303204E+01  0.37149295378E+02  0.10566000000E+00 0.  1.
         13    1    1    0    0    0  0.23645064354E+02  0.87479908956E+01 -0.26767968724E+01  0.25353359117E+02  0.10566000000E+00 0. -1.
         22    1    1    0    0    0 -0.58448644904E+02 -0.20902935386E+02  0.72623271928E+01  0.62497345505E+02  0.00000000000E+00 0.  1.
</event>
<event>
 4    1  0.9957587E-003  0.9118800E+02  0.7818608E-02  0.1130116E+00
         25   -1    0    0    0    0  0.00000000000E+00  0.00000000000E+00  0.99999998245E-14  0.12500000000E+03  0.12500000000E+03 0.  0.
        -13    1    1    0    0    0  0.11094500882E+02  0.81783341679E+01  0.24531249174E+02  0.28138344828E+02  0.10566000000E+00 0.  1.
         13    1    1    0    0    0  0.13383267188E+02  0.11350203296E+02  0.29550755429E+02  0.34368550536E+02  0.10566000000E+00 0. -1.
         22    1    1    0    0    0 -0.24477768071E+02 -0.19528537464E+02 -0.54082004603E+02  0.62493104636E+02  0.00000000000E+00 0. -1.
</event>
<event>
 4    1  0.9957587E-003  0.9118800E+02  0.7818608E-02  0.1130116E+00
         25   -1    0    0    0    0  0.00000000000E+00  0.00000000000E+00  0.99999998245E-14  0.12500000000E+03  0.12500000000E+03 0.  0.
        -13    1    1    0    0    0 -0.24734363392E+01  0.10772593525E+02  0.20513473006E+02  0.23301939777E+02  0.10566000000E+00 0.  1.
         13    1    1    0    0    0  0.78289402224E+00  0.19413790594E+02  0.34115724009E+02  0.39260692517E+02  0.10566000000E+00 0. -1.
         22    1    1    0    0    0  0.16905423170E+01 -0.30186384119E+02 -0.54629197015E+02  0.62437367705E+02  0.00000000000E+00 0. -1.
</event>
<event>
 4    1  0.9957587E-003  0.9118800E+02  0.7818608E-02  0.1130116E+00
         25   -1    0    0    0    0  0.00000000000E+00  0.00000000000E+00  0.99999998245E-14  0.12500000000E+03  0.12500000000E+03 0.  0.
        -13    1    1    0    0    0  0.10439298125E+02 -0.44531661395E+02  0.28309529681E+02  0.53791155841E+02  0.10566000000E+00 0. -1.
         13    1    1    0    0    0  0.16529698438E+01 -0.59508374454E+01  0.62966143211E+01  0.88206174133E+01  0.10566000000E+00 0.  1.
         22    1    1    0    0    0 -0.12092267969E+02  0.50482498840E+02 -0.34606144002E+02  0.62388226746E+02  0.00000000000E+00 0. -1.
</event>
<event>
 4    1  0.9957587E-003  0.9118800E+02  0.7818608E-02  0.1130116E+00
         25   -1    0    0    0    0  0.00000000000E+00  0.00000000000E+00  0.99999998245E-14  0.12500000000E+03  0.12500000000E+03 0.  0.
        -13    1    1    0    0    0 -0.42084691471E+01  0.39401504454E+02  0.40481194448E+02  0.56647400945E+02  0.10566000000E+00 0. -1.
         13    1    1    0    0    0 -0.84417174918E+00  0.41771571535E+01  0.40223567566E+01  0.58610396467E+01  0.10566000000E+00 0.  1.
         22    1    1    0    0    0  0.50526408963E+01 -0.43578661608E+02 -0.44503551205E+02  0.62491559409E+02  0.00000000000E+00 0. -1.
</event>
<event>
 4    1  0.9957587E-003  0.9118800E+02  0.7818608E-02  0.1130116E+00
         25   -1    0    0    0    0  0.00000000000E+00  0.00000000000E+00  0.99999998245E-14  0.12500000000E+03  0.12500000000E+03 0.  0.
        -13    1    1    0    0    0  0.10429607099E+02 -0.16350411426E+02 -0.23153840185E+01  0.19531636522E+02  0.10566000000E+00 0. -1.
         13    1    1    0    0    0  0.25148199800E+02 -0.34158060744E+02 -0.69941682009E+01  0.42989936262E+02  0.10566000000E+00 0.  1.
         22    1    1    0    0    0 -0.35577806899E+02  0.50508472171E+02  0.93095522194E+01  0.62478427215E+02  0.00000000000E+00 0.  1.
</event>
<event>
 4    1  0.9957587E-003  0.9118800E+02  0.7818608E-02  0.1130116E+00
         25   -1    0    0    0    0  0.00000000000E+00  0.00000000000E+00  0.99999998245E-14  0.12500000000E+03  0.12500000000E+03 0.  0.
        -13    1    1    0    0    0  0.46065791997E+02 -0.38648636219E+01 -0.36837162534E+02  0.59109915164E+02  0.10566000000E+00 0. -1.
         13    1    1    0    0    0  0.41944651137E+00  0.74582958861E+01  0.85585611711E+01  0.11360556600E+02  0.10566000000E+00 0.  1.
         22    1    1    0    0    0 -0.46485238508E+02 -0.35934322643E+01  0.28278601363E+02  0.54529528236E+02  0.00000000000E+00 0. -1.
</event>
<event>
 4    1  0.9957587E-003  0.9118800E+02  0.7818608E-02  0.1130116E+00
         25   -1    0    0    0    0  0.00000000000E+00  0.00000000000E+00  0.99999998245E-14  0.12500000000E+03  0.12500000000E+03 0.  0.
        -13    1    1    0    0    0  0.44959012557E+02  0.22926095233E+02 -0.97693531998E+01  0.51403988938E+02  0.10566000000E+00 0.  1.
         13    1    1    0    0    0  0.95558289220E+01  0.52057146099E+01 -0.21776070153E+01  0.11098038896E+02  0.10566000000E+00 0. -1.
         22    1    1    0    0    0 -0.54514841479E+02 -0.28131809843E+02  0.11946960215E+02  0.62497972166E+02  0.00000000000E+00 0.  1.
</event>
<event>
 4    1  0.9957587E-003  0.9118800E+02  0.7818608E-02  0.1130116E+00
         25   -1    0    0    0    0  0.00000000000E+00  0.00000000000E+00  0.99999998245E-14  0.12500000000E+03  0.12500000000E+03 0.  0.
        -13    1    1    0    0    0  0.55680584762E+01  0.27259547287E+02  0.87806932277E+01  0.29175296590E+02  0.10566000000E+00 0.  1.
         13    1    1    0    0    0  0.55006121603E+01  0.31849024109E+02  0.81856102264E+01  0.33341152494E+02  0.10566000000E+00 0. -1.
         22    1    1    0    0    0 -0.11068670637E+02 -0.59108571396E+02 -0.16966303454E+02  0.62483550916E+02  0.00000000000E+00 0. -1.
</event>
<event>
 4    1  0.9957587E-003  0.9118800E+02  0.7818608E-02  0.1130116E+00
         25   -1    0    0    0    0  0.00000000000E+00  0.00000000000E+00  0.99999998245E-14  0.12500000000E+03  0.12500000000E+03 0.  0.
        -13    1    1    0    0    0 -0.37613328727E+02  0.32120556546E+02  0.24089131809E+02  0.55016271103E+02  0.10566000000E+00 0. -1.
         13    1    1    0    0    0 -0.70647134723E+01  0.19182274662E+01  0.26374308522E+01  0.77818364538E+01  0.10566000000E+00 0.  1.
         22    1    1    0    0    0  0.44678042199E+02 -0.34038784013E+02 -0.26726562661E+02  0.62201892443E+02  0.00000000000E+00 0. -1.
</event>
<event>
 4    1  0.9957587E-003  0.9118800E+02  0.7818608E-02  0.1130116E+00
         25   -1    0    0    0    0  0.00000000000E+00  0.00000000000E+00  0.99999998245E-14  0.12500000000E+03  0.12500000000E+03 0.  0.
        -13    1    1    0    0    0 -0.35232549946E+02 -0.85218034573E+01 -0.44264819174E+02  0.57213102436E+02  0.10566000000E+00 0.  1.
         13    1    1    0    0    0 -0.21437418718E+01 -0.15604696955E+01 -0.46818780193E+01  0.53816206394E+01  0.10566000000E+00 0. -1.
         22    1    1    0    0    0  0.37376291817E+02  0.10082273153E+02  0.48946697193E+02  0.62405276925E+02  0.00000000000E+00 0.  1.
</event>
<event>
 4    1  0.9957587E-003  0.9118800E+02  0.7818608E-02  0.1130116E+00
         25   -1    0    0    0    0  0.00000000000E+00  0.00000000000E+00  0.99999998245E-14  0.12500000000E+03  0.12500000000E+03 0.  0.
        -13    1    1    0    0    0 -0.40039033175E+02  0.22789476478E+02  0.36714890613E+02  0.58910769579E+02  0.10566000000E+00 0. -1.
         13    1    1    0    0    0 -0.15762782580E+01  0.28048185784E+01  0.19682752320E+01  0.37731858991E+01  0.10566000000E+00 0.  1.
         22    1    1    0    0    0  0.41615311433E+02 -0.25594295056E+02 -0.38683165845E+02  0.62316044522E+02  0.00000000000E+00 0. -1.
</event>
<event>
 4    1  0.9957587E-003  0.9118800E+02  0.7818608E-02  0.1130116E+00
         25   -1    0    0    0    0  0.00000000000E+00  0.00000000000E+00  0.99999998245E-14  0.12500000000E+03  0.12500000000E+03 0.  0.
        -13    1    1    0    0    0 -0.69016143156E+00  0.14906820159E+01  0.50331294720E+01  0.52954708942E+01  0.10566000000E+00 0.  1.
         13    1    1    0    0    0 -0.53972649553E+01  0.51385663462E+02  0.26262680412E+02  0.57959955357E+02  0.10566000000E+00 0. -1.
         22    1    1    0    0    0  0.60874263869E+01 -0.52876345478E+02 -0.31295809884E+02  0.61744573749E+02  0.00000000000E+00 0. -1.
</event>
<event>
 4    1  0.9957587E-003  0.9118800E+02  0.7818608E-02  0.1130116E+00
         25   -1    0    0    0    0  0.00000000000E+00  0.00000000000E+00  0.99999998245E-14  0.12500000000E+03  0.12500000000E+03 0.  0.
        -13    1    1    0    0    0 -0.26273606601E+01  0.13688118275E+02  0.29881163285E+02  0.32972150207E+02  0.10566000000E+00 0. -1.
         13    1    1    0    0    0  0.11023473861E+01  0.34852131560E+02  0.25950425082E+00  0.34870686121E+02  0.10566000000E+00 0.  1.
         22    1    1    0    0    0  0.15250132740E+01 -0.48540249835E+02 -0.30140667536E+02  0.57157163672E+02  0.00000000000E+00 0.  1.
</event>
<event>
 4    1  0.9957587E-003  0.9118800E+02  0.7818608E-02  0.1130116E+00
         25   -1    0    0    0    0  0.00000000000E+00  0.00000000000E+00  0.99999998245E-14  0.12500000000E+03  0.12500000000E+03 0.  0.
        -13    1    1    0    0    0 -0.60532317963E+01  0.33438164986E+01  0.22357648713E+01  0.72685990776E+01  0.10566000000E+00 0. -1.
         13    1    1    0    0    0 -0.35886114237E+02  0.42027714945E+02 -0.72715476203E+01  0.55740726470E+02  0.10566000000E+00 0.  1.
         22    1    1    0    0    0  0.41939346033E+02 -0.45371531444E+02  0.50357827490E+01  0.61990674453E+02  0.00000000000E+00 0.  1.
</event>
<event>
 4    1  0.9957587E-003  0.9118800E+02  0.7818608E-02  0.1130116E+00
         25   -1    0    0    0    0  0.00000000000E+00  0.00000000000E+00  0.99999998245E-14  0.12500000000E+03  0.12500000000E+03 0.  0.
        -13    1    1    0    0    0 -0.51452596061E+01  0.30725693378E+01 -0.13162221220E+02  0.14462697198E+02  0.10566000000E+00 0.  1.
         13    1    1    0    0    0 -0.16653252483E+02 -0.19587088614E+02 -0.41841993611E+02  0.49109555608E+02  0.10566000000E+00 0. -1.
         22    1    1    0    0    0  0.21798512089E+02  0.16514519276E+02  0.55004214831E+02  0.61427747194E+02  0.00000000000E+00 0. -1.
</event>
<event>
 4    1  0.9957587E-003  0.9118800E+02  0.7818608E-02  0.1130116E+00
         25   -1    0    0    0    0  0.00000000000E+00  0.00000000000E+00  0.99999998245E-14  0.12500000000E+03  0.12500000000E+03 0.  0.
        -13    1    1    0    0    0  0.33990947666E+02  0.45360216945E+01 -0.20388039076E+02  0.39895404716E+02  0.10566000000E+00 0.  1.
         13    1    1    0    0    0  0.20176605288E+02 -0.78047922821E+00 -0.10371277521E+02  0.22699760136E+02  0.10566000000E+00 0. -1.
         22    1    1    0    0    0 -0.54167552954E+02 -0.37555424663E+01  0.30759316597E+02  0.62404835148E+02  0.00000000000E+00 0.  1.
</event>
<event>
 4    1  0.9957587E-003  0.9118800E+02  0.7818608E-02  0.1130116E+00
         25   -1    0    0    0    0  0.00000000000E+00  0.00000000000E+00  0.99999998245E-14  0.12500000000E+03  0.12500000000E+03 0.  0.
        -13    1    1    0    0    0 -0.28937951805E+02  0.12923392566E+01  0.51989349688E+02  0.59514526298E+02  0.10566000000E+00 0.  1.
         13    1    1    0    0    0 -0.14036175725E-01  0.10208014589E+01  0.30689912219E+01  0.32360630075E+01  0.10566000000E+00 0. -1.
         22    1    1    0    0    0  0.28951987981E+02 -0.23131407155E+01 -0.55058340910E+02  0.62249410694E+02  0.00000000000E+00 0.  1.
</event>
<event>
 4    1  0.9957587E-003  0.9118800E+02  0.7818608E-02  0.1130116E+00
         25   -1    0    0    0    0  0.00000000000E+00  0.00000000000E+00  0.99999998245E-14  0.12500000000E+03  0.12500000000E+03 0.  0.
        -13    1    1    0    0    0 -0.14206090783E+01  0.20614006839E+01 -0.72526500305E+01  0.76733043360E+01  0.10566000000E+00 0. -1.
         13    1    1    0    0    0 -0.23131145694E+02 -0.41636716119E+02 -0.31193022318E+02  0.56935769387E+02  0.10566000000E+00 0.  1.
         22    1    1    0    0    0  0.24551754773E+02  0.39575315435E+02  0.38445672349E+02  0.60390926277E+02  0.00000000000E+00 0.  1.
</event>
<event>
 4    1  0.9957587E-003  0.9118800E+02  0.7818608E-02  0.1130116E+00
         25   -1    0    0    0    0  0.00000000000E+00  0.00000000000E+00  0.99999998245E-14  0.12500000000E+03  0.12500000000E+03 0.  0.
        -13    1    1    0    0    0 -0.21283926423E+01 -0.11934358807E+02  0.18535815524E+02  0.22148286538E+02  0.10566000000E+00 0. -1.
         13    1    1    0    0    0  0.81777432589E+00 -0.22687890290E+02  0.33420722373E+02  0.40402536661E+02  0.10566000000E+00 0.  1.
         22    1    1    0    0    0  0.13106183164E+01  0.34622249096E+02 -0.51956537898E+02  0.62449176801E+02  0.00000000000E+00 0. -1.
</event>
<event>
 4    1  0.9957587E-003  0.9118800E+02  0.7818608E-02  0.1130116E+00
         25   -1    0    0    0    0  0.00000000000E+00  0.00000000000E+00  0.99999998245E-14  0.12500000000E+03  0.12500000000E+03 0.  0.
        -13    1    1    0    0    0  0.34212615151E+02  0.30238244783E+02 -0.36925225788E+01  0.45809391723E+02  0.10566000000E+00 0. -1.
         13    1    1    0    0    0  0.12304101666E+02  0.11181848866E+02 -0.14743628607E+01  0.16691601833E+02  0.10566000000E+00 0.  1.
         22    1    1    0    0    0 -0.46516716817E+02 -0.41420093649E+02  0.51668854396E+01  0.62499006444E+02  0.00000000000E+00 0. -1.
</event>
<event>
 4    1  0.9957587E-003  0.9118800E+02  0.7818608E-02  0.1130116E+00
         25   -1    0    0    0    0  0.00000000000E+00  0.00000000000E+00  0.99999998245E-14  0.12500000000E+03  0.12500000000E+03 0.  0.
        -13    1    1    0    0    0  0.55139355343E+02  0.60146497363E+01  0.23600750321E+02  0.60278778180E+02  0.10566000000E+00 0. -1.
         13    1    1    0    0    0  0.18885072815E+01  0.27397755204E+00  0.11567067752E+01  0.22339780775E+01  0.10566000000E+00 0.  1.
         22    1    1    0    0    0 -0.57027862624E+02 -0.62886272883E+01 -0.24757457097E+02  0.62487243743E+02  0.00000000000E+00 0. -1.
</event>
<event>
 4    1  0.9957587E-003  0.9118800E+02  0.7818608E-02  0.1130116E+00
         25   -1    0    0    0    0  0.00000000000E+00  0.00000000000E+00  0.99999998245E-14  0.12500000000E+03  0.12500000000E+03 0.  0.
        -13    1    1    0    0    0 -0.47931194205E+02 -0.13806102954E+02 -0.12836451124E+02  0.51505276411E+02  0.10566000000E+00 0. -1.
         13    1    1    0    0    0 -0.10068879813E+02 -0.33556009079E+01 -0.28853996965E+01  0.10999049668E+02  0.10566000000E+00 0.  1.
         22    1    1    0    0    0  0.58000074019E+02  0.17161703862E+02  0.15721850820E+02  0.62495673921E+02  0.00000000000E+00 0. -1.
</event>
<event>
 4    1  0.9957587E-003  0.9118800E+02  0.7818608E-02  0.1130116E+00
         25   -1    0    0    0    0  0.00000000000E+00  0.00000000000E+00  0.99999998245E-14  0.12500000000E+03  0.12500000000E+03 0.  0.
        -13    1    1    0    0    0  0.30959128339E+01 -0.15979650186E+02  0.15294770180E+01  0.16348833608E+02  0.10566000000E+00 0.  1.
         13    1    1    0    0    0  0.90744236680E+01 -0.45042128832E+02  0.43378697374E+01  0.46151563489E+02  0.10566000000E+00 0.  1.
         22    1    1    0    0    0 -0.12170336502E+02  0.61021779018E+02 -0.58673467554E+01  0.62499602903E+02  0.00000000000E+00 0.  1.
</event>
<event>
 4    1  0.9957587E-003  0.9118800E+02  0.7818608E-02  0.1130116E+00
         25   -1    0    0    0    0  0.00000000000E+00  0.00000000000E+00  0.99999998245E-14  0.12500000000E+03  0.12500000000E+03 0.  0.
        -13    1    1    0    0    0 -0.27918041495E+01  0.15866643319E+02 -0.26171255336E+02  0.30732561079E+02  0.10566000000E+00 0. -1.
         13    1    1    0    0    0 -0.30469573857E+01  0.16579802416E+02 -0.26926097886E+02  0.31767903753E+02  0.10566000000E+00 0.  1.
         22    1    1    0    0    0  0.58387615352E+01 -0.32446445735E+02  0.53097353222E+02  0.62499535168E+02  0.00000000000E+00 0.  1.
</event>
<event>
 4    1  0.9957587E-003  0.9118800E+02  0.7818608E-02  0.1130116E+00
         25   -1    0    0    0    0  0.00000000000E+00  0.00000000000E+00  0.99999998245E-14  0.12500000000E+03  0.12500000000E+03 0.  0.
        -13    1    1    0    0    0 -0.54893450310E+02 -0.23929521148E+01 -0.11067975927E+02  0.56049338639E+02  0.10566000000E+00 0. -1.
         13    1    1    0    0    0 -0.62748734577E+01 -0.53789681317E+00 -0.14080209035E+01  0.64542278231E+01  0.10566000000E+00 0.  1.
         22    1    1    0    0    0  0.61168323768E+02  0.29308489280E+01  0.12475996830E+02  0.62496433537E+02  0.00000000000E+00 0. -1.
</event>
<event>
 4    1  0.9957587E-003  0.9118800E+02  0.7818608E-02  0.1130116E+00
         25   -1    0    0    0    0  0.00000000000E+00  0.00000000000E+00  0.99999998245E-14  0.12500000000E+03  0.12500000000E+03 0.  0.
        -13    1    1    0    0    0 -0.62408280721E+00  0.10496719509E+02 -0.10917028760E+02  0.15157944478E+02  0.10566000000E+00 0.  1.
         13    1    1    0    0    0  0.35059114881E+02  0.31796439662E+02 -0.14736007806E+02  0.49571324387E+02  0.10566000000E+00 0. -1.
         22    1    1    0    0    0 -0.34435032074E+02 -0.42293159171E+02  0.25653036566E+02  0.60270731136E+02  0.00000000000E+00 0. -1.
</event>
<event>
 4    1  0.9957587E-003  0.9118800E+02  0.7818608E-02  0.1130116E+00
         25   -1    0    0    0    0  0.00000000000E+00  0.00000000000E+00  0.99999998245E-14  0.12500000000E+03  0.12500000000E+03 0.  0.
        -13    1    1    0    0    0  0.69836914505E+01  0.11874170755E+02  0.44200274945E+02  0.46297336281E+02  0.10566000000E+00 0.  1.
         13    1    1    0    0    0 -0.78701371884E+01  0.95327220477E+01  0.12808271807E+02  0.17800978617E+02  0.10566000000E+00 0. -1.
         22    1    1    0    0    0  0.88644573794E+00 -0.21406892803E+02 -0.57008546752E+02  0.60901685103E+02  0.00000000000E+00 0.  1.
</event>
<event>
 4    1  0.9957587E-003  0.9118800E+02  0.7818608E-02  0.1130116E+00
         25   -1    0    0    0    0  0.00000000000E+00  0.00000000000E+00  0.99999998245E-14  0.12500000000E+03  0.12500000000E+03 0.  0.
        -13    1    1    0    0    0  0.46520000554E+02  0.13763379238E+02 -0.21703121916E+02  0.53146756482E+02  0.10566000000E+00 0. -1.
         13    1    1    0    0    0 -0.71127656010E+01 -0.18539856110E+02 -0.88700493457E+01  0.21748715790E+02  0.10566000000E+00 0.  1.
         22    1    1    0    0    0 -0.39407234953E+02  0.47764768715E+01  0.30573171261E+02  0.50104527729E+02  0.00000000000E+00 0. -1.
</event>
<event>
 4    1  0.9957587E-003  0.9118800E+02  0.7818608E-02  0.1130116E+00
         25   -1    0    0    0    0  0.00000000000E+00  0.00000000000E+00  0.99999998245E-14  0.12500000000E+03  0.12500000000E+03 0.  0.
        -13    1    1    0    0    0  0.24615491317E+02  0.10490127000E+02 -0.85959142401E+01  0.28104556266E+02  0.10566000000E+00 0. -1.
         13    1    1    0    0    0 -0.17456999343E+02 -0.33395067720E+02  0.41573832069E+02  0.56110356005E+02  0.10566000000E+00 0.  1.
         22    1    1    0    0    0 -0.71584919739E+01  0.22904940719E+02 -0.32977917829E+02  0.40785087729E+02  0.00000000000E+00 0.  1.
</event>
<event>
 4    1  0.9957587E-003  0.9118800E+02  0.7818608E-02  0.1130116E+00
         25   -1    0    0    0    0  0.00000000000E+00  0.00000000000E+00  0.99999998245E-14  0.12500000000E+03  0.12500000000E+03 0.  0.
        -13    1    1    0    0    0 -0.18379469150E+02  0.44003626387E+01 -0.57856752219E+02  0.60865285828E+02  0.10566000000E+00 0.  1.
         13    1    1    0    0    0  0.30456942246E+01 -0.95804922416E+00 -0.89487966782E+00  0.33175420541E+01  0.10566000000E+00 0. -1.
         22    1    1    0    0    0  0.15333774925E+02 -0.34423134145E+01  0.58751631886E+02  0.60817172118E+02  0.00000000000E+00 0.  1.
</event>
<event>
 4    1  0.9957587E-003  0.9118800E+02  0.7818608E-02  0.1130116E+00
         25   -1    0    0    0    0  0.00000000000E+00  0.00000000000E+00  0.99999998245E-14  0.12500000000E+03  0.12500000000E+03 0.  0.
        -13    1    1    0    0    0 -0.42471294194E+01 -0.37087450573E+00 -0.22428904564E+02  0.22830737618E+02  0.10566000000E+00 0.  1.
         13    1    1    0    0    0 -0.53777629414E+01 -0.52401004559E+01 -0.39011126529E+02  0.39727297217E+02  0.10566000000E+00 0. -1.
         22    1    1    0    0    0  0.96248923608E+01  0.56109749616E+01  0.61440031093E+02  0.62441965165E+02  0.00000000000E+00 0. -1.
</event>
<event>
 4    1  0.9957587E-003  0.9118800E+02  0.7818608E-02  0.1130116E+00
         25   -1    0    0    0    0  0.00000000000E+00  0.00000000000E+00  0.99999998245E-14  0.12500000000E+03  0.12500000000E+03 0.  0.
        -13    1    1    0    0    0 -0.11846224570E+02  0.61733421693E+01 -0.18288370808E+02  0.22647712046E+02  0.10566000000E+00 0. -1.
         13    1    1    0    0    0 -0.21417088315E+02  0.11501238335E+02 -0.31582226201E+02  0.39854966202E+02  0.10566000000E+00 0. -1.
         22    1    1    0    0    0  0.33263312885E+02 -0.17674580505E+02  0.49870597009E+02  0.62497321751E+02  0.00000000000E+00 0. -1.
</event>
<event>
 4    1  0.9957587E-003  0.9118800E+02  0.7818608E-02  0.1130116E+00
         25   -1    0    0    0    0  0.00000000000E+00  0.00000000000E+00  0.99999998245E-14  0.12500000000E+03  0.12500000000E+03 0.  0.
        -13    1    1    0    0    0 -0.33289858445E+01  0.11302537887E+02  0.86632455252E+01  0.14625063983E+02  0.10566000000E+00 0.  1.
         13    1    1    0    0    0 -0.84965217327E+01  0.37527741619E+02  0.28499288189E+02  0.47882594582E+02  0.10566000000E+00 0. -1.
         22    1    1    0    0    0  0.11825507577E+02 -0.48830279505E+02 -0.37162533714E+02  0.62492341436E+02  0.00000000000E+00 0. -1.
</event>
<event>
 4    1  0.9957587E-003  0.9118800E+02  0.7818608E-02  0.1130116E+00
         25   -1    0    0    0    0  0.00000000000E+00  0.00000000000E+00  0.99999998245E-14  0.12500000000E+03  0.12500000000E+03 0.  0.
        -13    1    1    0    0    0 -0.28325839742E+02 -0.62385579464E+01  0.57878334817E+01  0.29576730427E+02  0.10566000000E+00 0.  1.
         13    1    1    0    0    0 -0.25250997958E+02 -0.23040071546E+02 -0.14248920839E+01  0.34212560212E+02  0.10566000000E+00 0. -1.
         22    1    1    0    0    0  0.53576837700E+02  0.29278629493E+02 -0.43629413977E+01  0.61210709361E+02  0.00000000000E+00 0.  1.
</event>
<event>
 4    1  0.9957587E-003  0.9118800E+02  0.7818608E-02  0.1130116E+00
         25   -1    0    0    0    0  0.00000000000E+00  0.00000000000E+00  0.99999998245E-14  0.12500000000E+03  0.12500000000E+03 0.  0.
        -13    1    1    0    0    0  0.22723723793E+01 -0.40637321501E+01 -0.34636804675E+01  0.58039505197E+01  0.10566000000E+00 0. -1.
         13    1    1    0    0    0  0.21802344688E+02 -0.40349315637E+02 -0.33333469434E+02  0.56696921035E+02  0.10566000000E+00 0.  1.
         22    1    1    0    0    0 -0.24074717068E+02  0.44413047787E+02  0.36797149901E+02  0.62499128446E+02  0.00000000000E+00 0.  1.
</event>
<event>
 4    1  0.9957587E-003  0.9118800E+02  0.7818608E-02  0.1130116E+00
         25   -1    0    0    0    0  0.00000000000E+00  0.00000000000E+00  0.99999998245E-14  0.12500000000E+03  0.12500000000E+03 0.  0.
        -13    1    1    0    0    0 -0.31639134083E+02  0.27699961155E+02  0.38683401301E+01  0.42229111676E+02  0.10566000000E+00 0. -1.
         13    1    1    0    0    0 -0.15244998930E+02  0.13238454955E+02  0.18007369767E+01  0.20271174107E+02  0.10566000000E+00 0. -1.
         22    1    1    0    0    0  0.46884133013E+02 -0.40938416110E+02 -0.56690771068E+01  0.62499714217E+02  0.00000000000E+00 0. -1.
</event>
<event>
 4    1  0.9957587E-003  0.9118800E+02  0.7818608E-02  0.1130116E+00
         25   -1    0    0    0    0  0.00000000000E+00  0.00000000000E+00  0.99999998245E-14  0.12500000000E+03  0.12500000000E+03 0.  0.
        -13    1    1    0    0    0  0.11281982240E+02 -0.11882624868E+02 -0.41624125044E+00  0.16390982821E+02  0.10566000000E+00 0.  1.
         13    1    1    0    0    0  0.30910836722E+02 -0.34200249177E+02 -0.10415794049E+01  0.46111093267E+02  0.10566000000E+00 0.  1.
         22    1    1    0    0    0 -0.42192818962E+02  0.46082874045E+02  0.14578206553E+01  0.62497923912E+02  0.00000000000E+00 0.  1.
</event>
<event>
 4    1  0.9957587E-003  0.9118800E+02  0.7818608E-02  0.1130116E+00
         25   -1    0    0    0    0  0.00000000000E+00  0.00000000000E+00  0.99999998245E-14  0.12500000000E+03  0.12500000000E+03 0.  0.
        -13    1    1    0    0    0  0.21042112221E+02 -0.24221018673E+02  0.27055190553E+02  0.41969307025E+02  0.10566000000E+00 0. -1.
         13    1    1    0    0    0  0.94447496851E+01 -0.12368933793E+02  0.13403546171E+02  0.20539231577E+02  0.10566000000E+00 0.  1.
         22    1    1    0    0    0 -0.30486861906E+02  0.36589952466E+02 -0.40458736723E+02  0.62491461398E+02  0.00000000000E+00 0. -1.
</event>
<event>
 4    1  0.9957587E-003  0.9118800E+02  0.7818608E-02  0.1130116E+00
         25   -1    0    0    0    0  0.00000000000E+00  0.00000000000E+00  0.99999998245E-14  0.12500000000E+03  0.12500000000E+03 0.  0.
        -13    1    1    0    0    0 -0.52277642825E+01  0.19447070927E+02  0.11309530227E+02  0.23096205858E+02  0.10566000000E+00 0.  1.
         13    1    1    0    0    0 -0.98740057710E+01  0.32755343522E+02  0.19556805942E+02  0.39406704277E+02  0.10566000000E+00 0. -1.
         22    1    1    0    0    0  0.15101770053E+02 -0.52202414450E+02 -0.30866336169E+02  0.62497089865E+02  0.00000000000E+00 0. -1.
</event>
<event>
 4    1  0.9957587E-003  0.9118800E+02  0.7818608E-02  0.1130116E+00
         25   -1    0    0    0    0  0.00000000000E+00  0.00000000000E+00  0.99999998245E-14  0.12500000000E+03  0.12500000000E+03 0.  0.
        -13    1    1    0    0    0 -0.43120977144E+01  0.56464495853E+01  0.73806353701E+01  0.10245073066E+02  0.10566000000E+00 0.  1.
         13    1    1    0    0    0 -0.21426359796E+02  0.29215722672E+02  0.37656254768E+02  0.52255641156E+02  0.10566000000E+00 0.  1.
         22    1    1    0    0    0  0.25738457511E+02 -0.34862172258E+02 -0.45036890138E+02  0.62499285779E+02  0.00000000000E+00 0.  1.
</event>
<event>
 4    1  0.9957587E-003  0.9118800E+02  0.7818608E-02  0.1130116E+00
         25   -1    0    0    0    0  0.00000000000E+00  0.00000000000E+00  0.99999998245E-14  0.12500000000E+03  0.12500000000E+03 0.  0.
        -13    1    1    0    0    0  0.10185636174E+02  0.95398527622E+01 -0.52607662443E+02  0.54427321143E+02  0.10566000000E+00 0. -1.
         13    1    1    0    0    0  0.15614346339E+01  0.12646788035E+01 -0.78190131486E+01  0.80737612824E+01  0.10566000000E+00 0.  1.
         22    1    1    0    0    0 -0.11747070808E+02 -0.10804531566E+02  0.60426675592E+02  0.62498917575E+02  0.00000000000E+00 0. -1.
</event>
<event>
 4    1  0.9957587E-003  0.9118800E+02  0.7818608E-02  0.1130116E+00
         25   -1    0    0    0    0  0.00000000000E+00  0.00000000000E+00  0.99999998245E-14  0.12500000000E+03  0.12500000000E+03 0.  0.
        -13    1    1    0    0    0  0.10514715688E+01 -0.14020103192E+02 -0.18357466973E+02  0.23123076000E+02  0.10566000000E+00 0. -1.
         13    1    1    0    0    0  0.15442070938E+02 -0.28687183282E+02 -0.23240667931E+02  0.40019393417E+02  0.10566000000E+00 0.  1.
         22    1    1    0    0    0 -0.16493542507E+02  0.42707286474E+02  0.41598134904E+02  0.61857530584E+02  0.00000000000E+00 0.  1.
</event>
<event>
 4    1  0.9957587E-003  0.9118800E+02  0.7818608E-02  0.1130116E+00
         25   -1    0    0    0    0  0.00000000000E+00  0.00000000000E+00  0.99999998245E-14  0.12500000000E+03  0.12500000000E+03 0.  0.
        -13    1    1    0    0    0 -0.17197776478E+02 -0.83340629756E+00  0.31292660508E+02  0.35716940624E+02  0.10566000000E+00 0.  1.
         13    1    1    0    0    0 -0.13029701939E+02 -0.51246151867E+00  0.23394556525E+02  0.26783431230E+02  0.10566000000E+00 0. -1.
         22    1    1    0    0    0  0.30227478417E+02  0.13458678162E+01 -0.54687217032E+02  0.62499628146E+02  0.00000000000E+00 0.  1.
</event>
<event>
 4    1  0.9957587E-003  0.9118800E+02  0.7818608E-02  0.1130116E+00
         25   -1    0    0    0    0  0.00000000000E+00  0.00000000000E+00  0.99999998245E-14  0.12500000000E+03  0.12500000000E+03 0.  0.
        -13    1    1    0    0    0 -0.73390347813E+00  0.97602674668E+01  0.28389264010E+01  0.10191766407E+02  0.10566000000E+00 0. -1.
         13    1    1    0    0    0 -0.12673321089E+02  0.43437795813E+02  0.26660017489E+02  0.52518785868E+02  0.10566000000E+00 0.  1.
         22    1    1    0    0    0  0.13407224567E+02 -0.53198063280E+02 -0.29498943890E+02  0.62289447725E+02  0.00000000000E+00 0.  1.
</event>
<event>
 4    1  0.9957587E-003  0.9118800E+02  0.7818608E-02  0.1130116E+00
         25   -1    0    0    0    0  0.00000000000E+00  0.00000000000E+00  0.99999998245E-14  0.12500000000E+03  0.12500000000E+03 0.  0.
        -13    1    1    0    0    0  0.98736333696E+01 -0.14364602968E+02 -0.47156834462E+02  0.50275328491E+02  0.10566000000E+00 0. -1.
         13    1    1    0    0    0  0.11536994282E+02  0.50338164864E+00 -0.79371906518E+01  0.14013057826E+02  0.10566000000E+00 0.  1.
         22    1    1    0    0    0 -0.21410627651E+02  0.13861221319E+02  0.55094025114E+02  0.60711613684E+02  0.00000000000E+00 0. -1.
</event>
<event>
 4    1  0.9957587E-003  0.9118800E+02  0.7818608E-02  0.1130116E+00
         25   -1    0    0    0    0  0.00000000000E+00  0.00000000000E+00  0.99999998245E-14  0.12500000000E+03  0.12500000000E+03 0.  0.
        -13    1    1    0    0    0  0.68733230817E+01 -0.72945894680E+00 -0.11216879869E+02  0.13175896120E+02  0.10566000000E+00 0. -1.
         13    1    1    0    0    0  0.25029406975E+02 -0.27528374707E+01 -0.42413487371E+02  0.49325088978E+02  0.10566000000E+00 0.  1.
         22    1    1    0    0    0 -0.31902730057E+02  0.34822964175E+01  0.53630367240E+02  0.62499014902E+02  0.00000000000E+00 0.  1.
</event>
<event>
 4    1  0.9957587E-003  0.9118800E+02  0.7818608E-02  0.1130116E+00
         25   -1    0    0    0    0  0.00000000000E+00  0.00000000000E+00  0.99999998245E-14  0.12500000000E+03  0.12500000000E+03 0.  0.
        -13    1    1    0    0    0  0.37586077021E+01  0.71581257686E+01  0.17789246480E+02  0.19540582150E+02  0.10566000000E+00 0.  1.
         13    1    1    0    0    0  0.52455129953E+01  0.13188572818E+02  0.40581311584E+02  0.42991951264E+02  0.10566000000E+00 0. -1.
         22    1    1    0    0    0 -0.90041206974E+01 -0.20346698587E+02 -0.58370558065E+02  0.62467466586E+02  0.00000000000E+00 0. -1.
</event>
<event>
 4    1  0.9957587E-003  0.9118800E+02  0.7818608E-02  0.1130116E+00
         25   -1    0    0    0    0  0.00000000000E+00  0.00000000000E+00  0.99999998245E-14  0.12500000000E+03  0.12500000000E+03 0.  0.
        -13    1    1    0    0    0  0.98738877904E+00  0.55782443022E+00 -0.51562976212E+02  0.51575554137E+02  0.10566000000E+00 0.  1.
         13    1    1    0    0    0  0.41191674958E+00 -0.46243228685E+00 -0.10913830859E+02  0.10931897689E+02  0.10566000000E+00 0. -1.
         22    1    1    0    0    0 -0.13993055286E+01 -0.95392143372E-01  0.62476807070E+02  0.62492548174E+02  0.00000000000E+00 0.  1.
</event>
<event>
 4    1  0.9957587E-003  0.9118800E+02  0.7818608E-02  0.1130116E+00
         25   -1    0    0    0    0  0.00000000000E+00  0.00000000000E+00  0.99999998245E-14  0.12500000000E+03  0.12500000000E+03 0.  0.
        -13    1    1    0    0    0  0.23043180092E+02  0.17393071181E+02 -0.10375659752E+02  0.30678535707E+02  0.10566000000E+00 0.  1.
         13    1    1    0    0    0  0.33912452396E+02 -0.70325873588E+00  0.83683124731E+01  0.34936926283E+02  0.10566000000E+00 0. -1.
         22    1    1    0    0    0 -0.56955632488E+02 -0.16689812445E+02  0.20073472789E+01  0.59384538010E+02  0.00000000000E+00 0.  1.
</event>
<event>
 4    1  0.9957587E-003  0.9118800E+02  0.7818608E-02  0.1130116E+00
         25   -1    0    0    0    0  0.00000000000E+00  0.00000000000E+00  0.99999998245E-14  0.12500000000E+03  0.12500000000E+03 0.  0.
        -13    1    1    0    0    0  0.18377482745E+01 -0.17586522462E+01 -0.65419204303E+00  0.26285562022E+01  0.10566000000E+00 0. -1.
         13    1    1    0    0    0  0.45306969795E+02 -0.37810784481E+02 -0.10156959157E+02  0.59879478274E+02  0.10566000000E+00 0.  1.
         22    1    1    0    0    0 -0.47144718069E+02  0.39569436727E+02  0.10811151200E+02  0.62491965524E+02  0.00000000000E+00 0.  1.
</event>
<event>
 4    1  0.9957587E-003  0.9118800E+02  0.7818608E-02  0.1130116E+00
         25   -1    0    0    0    0  0.00000000000E+00  0.00000000000E+00  0.99999998245E-14  0.12500000000E+03  0.12500000000E+03 0.  0.
        -13    1    1    0    0    0  0.26843387969E+01  0.52775605022E+01 -0.13016295972E+01  0.60633095975E+01  0.10566000000E+00 0. -1.
         13    1    1    0    0    0  0.25693428808E+02  0.49265316348E+02 -0.99087944211E+01  0.56439516739E+02  0.10566000000E+00 0.  1.
         22    1    1    0    0    0 -0.28377767605E+02 -0.54542876850E+02  0.11210424018E+02  0.62497173664E+02  0.00000000000E+00 0.  1.
</event>
<event>
 4    1  0.9957587E-003  0.9118800E+02  0.7818608E-02  0.1130116E+00
         25   -1    0    0    0    0  0.00000000000E+00  0.00000000000E+00  0.99999998245E-14  0.12500000000E+03  0.12500000000E+03 0.  0.
        -13    1    1    0    0    0  0.21371303008E+01  0.84681781059E+01 -0.45867641862E+01  0.98654415051E+01  0.10566000000E+00 0. -1.
         13    1    1    0    0    0  0.17425594080E+02  0.35210750233E+02 -0.35312733537E+02  0.52824696638E+02  0.10566000000E+00 0.  1.
         22    1    1    0    0    0 -0.19562724381E+02 -0.43678928339E+02  0.39899497724E+02  0.62309861857E+02  0.00000000000E+00 0.  1.
</event>
<event>
 4    1  0.9957587E-003  0.9118800E+02  0.7818608E-02  0.1130116E+00
         25   -1    0    0    0    0  0.00000000000E+00  0.00000000000E+00  0.99999998245E-14  0.12500000000E+03  0.12500000000E+03 0.  0.
        -13    1    1    0    0    0 -0.16948195261E+02  0.12653655559E+02  0.73546290779E+01  0.22393259131E+02  0.10566000000E+00 0. -1.
         13    1    1    0    0    0 -0.31939052976E+02  0.19835490450E+02  0.14036436611E+02  0.40132063280E+02  0.10566000000E+00 0.  1.
         22    1    1    0    0    0  0.48887248237E+02 -0.32489146008E+02 -0.21391065689E+02  0.62474677589E+02  0.00000000000E+00 0.  1.
</event>
<event>
 4    1  0.9957587E-003  0.9118800E+02  0.7818608E-02  0.1130116E+00
         25   -1    0    0    0    0  0.00000000000E+00  0.00000000000E+00  0.99999998245E-14  0.12500000000E+03  0.12500000000E+03 0.  0.
        -13    1    1    0    0    0  0.47990734730E+01 -0.23159940322E+02 -0.44128316444E+02  0.50067288904E+02  0.10566000000E+00 0. -1.
         13    1    1    0    0    0  0.12005147049E+01 -0.57430396224E+01 -0.10961041488E+02  0.12432993774E+02  0.10566000000E+00 0. -1.
         22    1    1    0    0    0 -0.59995881778E+01  0.28902979944E+02  0.55089357932E+02  0.62499717322E+02  0.00000000000E+00 0. -1.
</event>
<event>
 4    1  0.9957587E-003  0.9118800E+02  0.7818608E-02  0.1130116E+00
         25   -1    0    0    0    0  0.00000000000E+00  0.00000000000E+00  0.99999998245E-14  0.12500000000E+03  0.12500000000E+03 0.  0.
        -13    1    1    0    0    0  0.21703526421E+02 -0.22784535238E+01 -0.14235495366E+01  0.21869432249E+02  0.10566000000E+00 0. -1.
         13    1    1    0    0    0  0.40316408941E+02 -0.44997644778E+01 -0.22852096916E+01  0.40631195621E+02  0.10566000000E+00 0.  1.
         22    1    1    0    0    0 -0.62019935362E+02  0.67782180017E+01  0.37087592281E+01  0.62499372130E+02  0.00000000000E+00 0. -1.
</event>
<event>
 4    1  0.9957587E-003  0.9118800E+02  0.7818608E-02  0.1130116E+00
         25   -1    0    0    0    0  0.00000000000E+00  0.00000000000E+00  0.99999998245E-14  0.12500000000E+03  0.12500000000E+03 0.  0.
        -13    1    1    0    0    0  0.23133250917E+02  0.23908102927E+02 -0.24111376323E+02  0.41086668346E+02  0.10566000000E+00 0.  1.
         13    1    1    0    0    0  0.30937519636E+01  0.20810273374E+02  0.24205730785E+02  0.32071285380E+02  0.10566000000E+00 0. -1.
         22    1    1    0    0    0 -0.26227002881E+02 -0.44718376300E+02 -0.94354461845E-01  0.51842046273E+02  0.00000000000E+00 0.  1.
</event>
<event>
 4    1  0.9957587E-003  0.9118800E+02  0.7818608E-02  0.1130116E+00
         25   -1    0    0    0    0  0.00000000000E+00  0.00000000000E+00  0.99999998245E-14  0.12500000000E+03  0.12500000000E+03 0.  0.
        -13    1    1    0    0    0 -0.36451817386E+02 -0.27505184354E+02  0.17727067950E+02  0.48985000349E+02  0.10566000000E+00 0.  1.
         13    1    1    0    0    0 -0.75292678237E+01 -0.96082934582E+01  0.61995542665E+01  0.13691413889E+02  0.10566000000E+00 0. -1.
         22    1    1    0    0    0  0.43981085209E+02  0.37113477812E+02 -0.23926622217E+02  0.62323585762E+02  0.00000000000E+00 0.  1.
</event>
<event>
 4    1  0.9957587E-003  0.9118800E+02  0.7818608E-02  0.1130116E+00
         25   -1    0    0    0    0  0.00000000000E+00  0.00000000000E+00  0.99999998245E-14  0.12500000000E+03  0.12500000000E+03 0.  0.
        -13    1    1    0    0    0 -0.35362219572E+02  0.10220316912E+02 -0.31385408946E+02  0.48373510412E+02  0.10566000000E+00 0.  1.
         13    1    1    0    0    0 -0.51306583013E+01 -0.11454692495E+01 -0.14104371486E+02  0.15052581621E+02  0.10566000000E+00 0. -1.
         22    1    1    0    0    0  0.40492877873E+02 -0.90748476628E+01  0.45489780432E+02  0.61573907967E+02  0.00000000000E+00 0.  1.
</event>
<event>
 4    1  0.9957587E-003  0.9118800E+02  0.7818608E-02  0.1130116E+00
         25   -1    0    0    0    0  0.00000000000E+00  0.00000000000E+00  0.99999998245E-14  0.12500000000E+03  0.12500000000E+03 0.  0.
        -13    1    1    0    0    0 -0.48951956608E+01  0.34680509880E+02  0.83672871872E+01  0.36010045334E+02  0.10566000000E+00 0. -1.
         13    1    1    0    0    0 -0.33957868809E+01  0.25607170163E+02  0.58732732293E+01  0.26490848133E+02  0.10566000000E+00 0.  1.
         22    1    1    0    0    0  0.82909825418E+01 -0.60287680043E+02 -0.14240560416E+02  0.62499106533E+02  0.00000000000E+00 0.  1.
</event>
<event>
 4    1  0.9957587E-003  0.9118800E+02  0.7818608E-02  0.1130116E+00
         25   -1    0    0    0    0  0.00000000000E+00  0.00000000000E+00  0.99999998245E-14  0.12500000000E+03  0.12500000000E+03 0.  0.
        -13    1    1    0    0    0 -0.39464335897E+02 -0.30935962577E+02 -0.10565394711E+02  0.51245549249E+02  0.10566000000E+00 0. -1.
         13    1    1    0    0    0 -0.85583404209E+01 -0.69338398703E+01 -0.23125437258E+01  0.11255325345E+02  0.10566000000E+00 0. -1.
         22    1    1    0    0    0  0.48022676318E+02  0.37869802448E+02  0.12877938437E+02  0.62499125406E+02  0.00000000000E+00 0. -1.
</event>
<event>
 4    1  0.9957587E-003  0.9118800E+02  0.7818608E-02  0.1130116E+00
         25   -1    0    0    0    0  0.00000000000E+00  0.00000000000E+00  0.99999998245E-14  0.12500000000E+03  0.12500000000E+03 0.  0.
        -13    1    1    0    0    0 -0.18112327081E+01  0.37014624008E+00 -0.99874276849E+00  0.21038591482E+01  0.10566000000E+00 0.  1.
         13    1    1    0    0    0 -0.43461599528E+02  0.97248049671E+01 -0.40842377241E+02  0.60428415567E+02  0.10566000000E+00 0. -1.
         22    1    1    0    0    0  0.45272832237E+02 -0.10094951207E+02  0.41841120009E+02  0.62467725285E+02  0.00000000000E+00 0. -1.
</event>
<event>
 4    1  0.9957587E-003  0.9118800E+02  0.7818608E-02  0.1130116E+00
         25   -1    0    0    0    0  0.00000000000E+00  0.00000000000E+00  0.99999998245E-14  0.12500000000E+03  0.12500000000E+03 0.  0.
        -13    1    1    0    0    0  0.55321398686E+01  0.94343763516E+00  0.28468410494E+01  0.62936725441E+01  0.10566000000E+00 0. -1.
         13    1    1    0    0    0 -0.31104436271E+02  0.26565596559E+02 -0.45960362571E+02  0.61527091333E+02  0.10566000000E+00 0.  1.
         22    1    1    0    0    0  0.25572296402E+02 -0.27509034194E+02  0.43113521521E+02  0.57179236123E+02  0.00000000000E+00 0.  1.
</event>
<event>
 4    1  0.9957587E-003  0.9118800E+02  0.7818608E-02  0.1130116E+00
         25   -1    0    0    0    0  0.00000000000E+00  0.00000000000E+00  0.99999998245E-14  0.12500000000E+03  0.12500000000E+03 0.  0.
        -13    1    1    0    0    0 -0.94729074930E+01 -0.14665738848E+02 -0.23073968100E+02  0.28935083208E+02  0.10566000000E+00 0. -1.
         13    1    1    0    0    0 -0.12424091390E+02 -0.16485395174E+02 -0.26477138243E+02  0.33573446568E+02  0.10566000000E+00 0. -1.
         22    1    1    0    0    0  0.21896998883E+02  0.31151134022E+02  0.49551106343E+02  0.62491470224E+02  0.00000000000E+00 0. -1.
</event>
<event>
 4    1  0.9957587E-003  0.9118800E+02  0.7818608E-02  0.1130116E+00
         25   -1    0    0    0    0  0.00000000000E+00  0.00000000000E+00  0.99999998245E-14  0.12500000000E+03  0.12500000000E+03 0.  0.
        -13    1    1    0    0    0  0.31834140024E+00 -0.47261560653E+02  0.91569272255E+01  0.48141634132E+02  0.10566000000E+00 0.  1.
         13    1    1    0    0    0  0.39199074666E-01 -0.14120453821E+02  0.26034031707E+01  0.14358886614E+02  0.10566000000E+00 0.  1.
         22    1    1    0    0    0 -0.35754047490E+00  0.61382014474E+02 -0.11760330396E+02  0.62499479255E+02  0.00000000000E+00 0.  1.
</event>
<event>
 4    1  0.9957587E-003  0.9118800E+02  0.7818608E-02  0.1130116E+00
         25   -1    0    0    0    0  0.00000000000E+00  0.00000000000E+00  0.99999998245E-14  0.12500000000E+03  0.12500000000E+03 0.  0.
        -13    1    1    0    0    0 -0.17578039046E+02 -0.35201971736E+02  0.42795650955E+01  0.39578935208E+02  0.10566000000E+00 0.  1.
         13    1    1    0    0    0 -0.55917325735E+01 -0.21567487038E+02  0.64011686831E+01  0.23182107213E+02  0.10566000000E+00 0. -1.
         22    1    1    0    0    0  0.23169771619E+02  0.56769458774E+02 -0.10680733779E+02  0.62238957578E+02  0.00000000000E+00 0.  1.
</event>
<event>
 4    1  0.9957587E-003  0.9118800E+02  0.7818608E-02  0.1130116E+00
         25   -1    0    0    0    0  0.00000000000E+00  0.00000000000E+00  0.99999998245E-14  0.12500000000E+03  0.12500000000E+03 0.  0.
        -13    1    1    0    0    0  0.31327644134E+02 -0.56614822626E+01  0.44912999619E+02  0.55051451999E+02  0.10566000000E+00 0.  1.
         13    1    1    0    0    0  0.38318069796E+01  0.42376500778E+00  0.64317165261E+01  0.74993641743E+01  0.10566000000E+00 0. -1.
         22    1    1    0    0    0 -0.35159451113E+02  0.52377172548E+01 -0.51344716145E+02  0.62449183827E+02  0.00000000000E+00 0.  1.
</event>
<event>
 4    1  0.9957587E-003  0.9118800E+02  0.7818608E-02  0.1130116E+00
         25   -1    0    0    0    0  0.00000000000E+00  0.00000000000E+00  0.99999998245E-14  0.12500000000E+03  0.12500000000E+03 0.  0.
        -13    1    1    0    0    0  0.14170657683E+02  0.51539581222E+02 -0.23072038444E+01  0.53502059075E+02  0.10566000000E+00 0.  1.
         13    1    1    0    0    0  0.24191224620E+01  0.86486534940E+01 -0.56686689078E+00  0.89991034472E+01  0.10566000000E+00 0.  1.
         22    1    1    0    0    0 -0.16589780145E+02 -0.60188234716E+02  0.28740707352E+01  0.62498837478E+02  0.00000000000E+00 0.  1.
</event>
<event>
 4    1  0.9957587E-003  0.9118800E+02  0.7818608E-02  0.1130116E+00
         25   -1    0    0    0    0  0.00000000000E+00  0.00000000000E+00  0.99999998245E-14  0.12500000000E+03  0.12500000000E+03 0.  0.
        -13    1    1    0    0    0 -0.66337397604E+00  0.13972526288E+01  0.17032763894E+02  0.17103174847E+02  0.10566000000E+00 0.  1.
         13    1    1    0    0    0 -0.31316576825E+01  0.22506062718E+01  0.45238884210E+02  0.45403087087E+02  0.10566000000E+00 0. -1.
         22    1    1    0    0    0  0.37950316586E+01 -0.36478589005E+01 -0.62271648104E+02  0.62493738066E+02  0.00000000000E+00 0. -1.
</event>
<event>
 4    1  0.9957587E-003  0.9118800E+02  0.7818608E-02  0.1130116E+00
         25   -1    0    0    0    0  0.00000000000E+00  0.00000000000E+00  0.99999998245E-14  0.12500000000E+03  0.12500000000E+03 0.  0.
        -13    1    1    0    0    0  0.65603548316E+01 -0.13845846789E+01 -0.87617600328E+01  0.11033355480E+02  0.10566000000E+00 0. -1.
         13    1    1    0    0    0  0.30443335360E+02 -0.83459007526E+01 -0.40653487035E+02  0.51470067995E+02  0.10566000000E+00 0.  1.
         22    1    1    0    0    0 -0.37003690192E+02  0.97304854315E+01  0.49415247068E+02  0.62496576525E+02  0.00000000000E+00 0.  1.
</event>
<event>
 4    1  0.9957587E-003  0.9118800E+02  0.7818608E-02  0.1130116E+00
         25   -1    0    0    0    0  0.00000000000E+00  0.00000000000E+00  0.99999998245E-14  0.12500000000E+03  0.12500000000E+03 0.  0.
        -13    1    1    0    0    0 -0.24547060440E+02 -0.22587555069E+02 -0.40236521588E+02  0.52266094687E+02  0.10566000000E+00 0. -1.
         13    1    1    0    0    0 -0.33356370257E+01 -0.10327636840E+02 -0.34007427329E+01  0.11373775637E+02  0.10566000000E+00 0.  1.
         22    1    1    0    0    0  0.27882697466E+02  0.32915191909E+02  0.43637264321E+02  0.61360129676E+02  0.00000000000E+00 0. -1.
</event>
<event>
 4    1  0.9957587E-003  0.9118800E+02  0.7818608E-02  0.1130116E+00
         25   -1    0    0    0    0  0.00000000000E+00  0.00000000000E+00  0.99999998245E-14  0.12500000000E+03  0.12500000000E+03 0.  0.
        -13    1    1    0    0    0 -0.37853528855E+02 -0.95120073446E+01  0.28766928834E+02  0.48486238141E+02  0.10566000000E+00 0. -1.
         13    1    1    0    0    0 -0.10883697908E+02 -0.25994139697E+01  0.84371516897E+01  0.14014582612E+02  0.10566000000E+00 0.  1.
         22    1    1    0    0    0  0.48737226763E+02  0.12111421314E+02 -0.37204080524E+02  0.62499179246E+02  0.00000000000E+00 0. -1.
</event>
<event>
 4    1  0.9957587E-003  0.9118800E+02  0.7818608E-02  0.1130116E+00
         25   -1    0    0    0    0  0.00000000000E+00  0.00000000000E+00  0.99999998245E-14  0.12500000000E+03  0.12500000000E+03 0.  0.
        -13    1    1    0    0    0 -0.13458152971E+02  0.55287270171E+02 -0.83157685269E+01  0.57506237005E+02  0.10566000000E+00 0.  1.
         13    1    1    0    0    0  0.32033859207E+01  0.46576523885E+01  0.31171103415E+01  0.64562332707E+01  0.10566000000E+00 0. -1.
         22    1    1    0    0    0  0.10254767050E+02 -0.59944922559E+02  0.51986581855E+01  0.61037529724E+02  0.00000000000E+00 0.  1.
</event>
<event>
 4    1  0.9957587E-003  0.9118800E+02  0.7818608E-02  0.1130116E+00
         25   -1    0    0    0    0  0.00000000000E+00  0.00000000000E+00  0.99999998245E-14  0.12500000000E+03  0.12500000000E+03 0.  0.
        -13    1    1    0    0    0  0.62456229235E+01 -0.84950652673E+00  0.16150907255E+01  0.65076223868E+01  0.10566000000E+00 0. -1.
         13    1    1    0    0    0  0.56059808362E+02  0.10540075221E+01  0.17345077174E+01  0.56096637390E+02  0.10566000000E+00 0.  1.
         22    1    1    0    0    0 -0.62305431285E+02 -0.20450099540E+00 -0.33495984429E+01  0.62395740223E+02  0.00000000000E+00 0.  1.
</event>
<event>
 4    1  0.9957587E-003  0.9118800E+02  0.7818608E-02  0.1130116E+00
         25   -1    0    0    0    0  0.00000000000E+00  0.00000000000E+00  0.99999998245E-14  0.12500000000E+03  0.12500000000E+03 0.  0.
        -13    1    1    0    0    0 -0.26699238763E+02  0.15911577163E+02  0.48059019474E+02  0.57233802558E+02  0.10566000000E+00 0. -1.
         13    1    1    0    0    0 -0.24187323313E+01  0.15388475743E+01  0.44173158349E+01  0.52670827949E+01  0.10566000000E+00 0. -1.
         22    1    1    0    0    0  0.29117971094E+02 -0.17450424738E+02 -0.52476335309E+02  0.62499114647E+02  0.00000000000E+00 0. -1.
</event>
<event>
 4    1  0.9957587E-003  0.9118800E+02  0.7818608E-02  0.1130116E+00
         25   -1    0    0    0    0  0.00000000000E+00  0.00000000000E+00  0.99999998245E-14  0.12500000000E+03  0.12500000000E+03 0.  0.
        -13    1    1    0    0    0 -0.37998616814E+02  0.52926701595E+01 -0.97081847782E+01  0.39574831054E+02  0.10566000000E+00 0. -1.
         13    1    1    0    0    0 -0.21941454775E+02  0.31681265537E+01 -0.58409215909E+01  0.22925793172E+02  0.10566000000E+00 0. -1.
         22    1    1    0    0    0  0.59940071590E+02 -0.84607967133E+01  0.15549106369E+02  0.62499375774E+02  0.00000000000E+00 0. -1.
</event>
<event>
 4    1  0.9957587E-003  0.9118800E+02  0.7818608E-02  0.1130116E+00
         25   -1    0    0    0    0  0.00000000000E+00  0.00000000000E+00  0.99999998245E-14  0.12500000000E+03  0.12500000000E+03 0.  0.
        -13    1    1    0    0    0  0.37813380718E+02  0.22545909109E+02 -0.36672889612E+02  0.57298183003E+02  0.10566000000E+00 0.  1.
         13    1    1    0    0    0 -0.37123003264E+01  0.25573807574E+01 -0.60526090159E+01  0.75476228037E+01  0.10566000000E+00 0. -1.
         22    1    1    0    0    0 -0.34101080392E+02 -0.25103289867E+02  0.42725498628E+02  0.60154194193E+02  0.00000000000E+00 0.  1.
</event>
<event>
 4    1  0.9957587E-003  0.9118800E+02  0.7818608E-02  0.1130116E+00
         25   -1    0    0    0    0  0.00000000000E+00  0.00000000000E+00  0.99999998245E-14  0.12500000000E+03  0.12500000000E+03 0.  0.
        -13    1    1    0    0    0  0.34044080462E+01 -0.29483033201E+01 -0.10761337994E+02  0.11666192441E+02  0.10566000000E+00 0.  1.
         13    1    1    0    0    0  0.16779502981E+02 -0.10920571734E+02 -0.46733135539E+02  0.50841004402E+02  0.10566000000E+00 0. -1.
         22    1    1    0    0    0 -0.20183911027E+02  0.13868875054E+02  0.57494473533E+02  0.62492803157E+02  0.00000000000E+00 0. -1.
</event>
<event>
 4    1  0.9957587E-003  0.9118800E+02  0.7818608E-02  0.1130116E+00
         25   -1    0    0    0    0  0.00000000000E+00  0.00000000000E+00  0.99999998245E-14  0.12500000000E+03  0.12500000000E+03 0.  0.
        -13    1    1    0    0    0 -0.10283899528E+01  0.44654599125E+01  0.33774379408E+01  0.56935199310E+01  0.10566000000E+00 0.  1.
         13    1    1    0    0    0 -0.97595548146E+01  0.44436885077E+02  0.34017015116E+02  0.56807166335E+02  0.10566000000E+00 0.  1.
         22    1    1    0    0    0  0.10787944767E+02 -0.48902344990E+02 -0.37394453057E+02  0.62499313734E+02  0.00000000000E+00 0.  1.
</event>
<event>
 4    1  0.9957587E-003  0.9118800E+02  0.7818608E-02  0.1130116E+00
         25   -1    0    0    0    0  0.00000000000E+00  0.00000000000E+00  0.99999998245E-14  0.12500000000E+03  0.12500000000E+03 0.  0.
        -13    1    1    0    0    0 -0.36351152352E+02 -0.90905857870E+01  0.10259055359E+02  0.38849767157E+02  0.10566000000E+00 0. -1.
         13    1    1    0    0    0 -0.20585008868E+02 -0.11724603311E+02 -0.94994514743E+01  0.25523707710E+02  0.10566000000E+00 0.  1.
         22    1    1    0    0    0  0.56936161220E+02  0.20815189098E+02 -0.75960388489E+00  0.60626525133E+02  0.00000000000E+00 0. -1.
</event>
<event>
 4    1  0.9957587E-003  0.9118800E+02  0.7818608E-02  0.1130116E+00
         25   -1    0    0    0    0  0.00000000000E+00  0.00000000000E+00  0.99999998245E-14  0.12500000000E+03  0.12500000000E+03 0.  0.
        -13    1    1    0    0    0 -0.27076540904E+00 -0.69739267589E+01  0.15413888004E+02  0.16920640525E+02  0.10566000000E+00 0. -1.
         13    1    1    0    0    0  0.21232702502E+01 -0.18430801430E+02  0.41646195625E+02  0.45591879671E+02  0.10566000000E+00 0.  1.
         22    1    1    0    0    0 -0.18525048411E+01  0.25404728189E+02 -0.57060083628E+02  0.62487479804E+02  0.00000000000E+00 0.  1.
</event>
<event>
 4    1  0.9957587E-003  0.9118800E+02  0.7818608E-02  0.1130116E+00
         25   -1    0    0    0    0  0.00000000000E+00  0.00000000000E+00  0.99999998245E-14  0.12500000000E+03  0.12500000000E+03 0.  0.
        -13    1    1    0    0    0  0.32577548798E+02 -0.83197961890E+01  0.15612344548E+02  0.37071176952E+02  0.10566000000E+00 0.  1.
         13    1    1    0    0    0  0.22264889300E+02 -0.50022809957E+01  0.11229636727E+02  0.25433521497E+02  0.10566000000E+00 0. -1.
         22    1    1    0    0    0 -0.54842438098E+02  0.13322077185E+02 -0.26841981275E+02  0.62495301550E+02  0.00000000000E+00 0.  1.
</event>
<event>
 4    1  0.9957587E-003  0.9118800E+02  0.7818608E-02  0.1130116E+00
         25   -1    0    0    0    0  0.00000000000E+00  0.00000000000E+00  0.99999998245E-14  0.12500000000E+03  0.12500000000E+03 0.  0.
        -13    1    1    0    0    0 -0.20263697000E+02 -0.88891398324E+01  0.51736799830E+02  0.56270257186E+02  0.10566000000E+00 0.  1.
         13    1    1    0    0    0 -0.19189361976E+01 -0.26185705071E+00  0.59462504256E+01  0.62545937841E+01  0.10566000000E+00 0. -1.
         22    1    1    0    0    0  0.22182633197E+02  0.91509968832E+01 -0.57683050256E+02  0.62475149030E+02  0.00000000000E+00 0.  1.
</event>
<event>
 4    1  0.9957587E-003  0.9118800E+02  0.7818608E-02  0.1130116E+00
         25   -1    0    0    0    0  0.00000000000E+00  0.00000000000E+00  0.99999998245E-14  0.12500000000E+03  0.12500000000E+03 0.  0.
        -13    1    1    0    0    0  0.21607544058E+01 -0.12187571305E+01  0.10019436033E+01  0.26775517858E+01  0.10566000000E+00 0. -1.
         13    1    1    0    0    0  0.50416398016E+02 -0.26715249871E+02  0.17995647296E+02  0.59827855137E+02  0.10566000000E+00 0.  1.
         22    1    1    0    0    0 -0.52577152422E+02  0.27934007001E+02 -0.18997590899E+02  0.62494593078E+02  0.00000000000E+00 0.  1.
</event>
<event>
 4    1  0.9957587E-003  0.9118800E+02  0.7818608E-02  0.1130116E+00
         25   -1    0    0    0    0  0.00000000000E+00  0.00000000000E+00  0.99999998245E-14  0.12500000000E+03  0.12500000000E+03 0.  0.
        -13    1    1    0    0    0  0.25062271041E+02 -0.51833489364E+02 -0.52188236765E+01  0.57810685292E+02  0.10566000000E+00 0.  1.
         13    1    1    0    0    0  0.51442437376E+00 -0.47805369363E+01 -0.31721531578E+00  0.48197464070E+01  0.10566000000E+00 0. -1.
         22    1    1    0    0    0 -0.25576695415E+02  0.56614026300E+02  0.55360389922E+01  0.62369568301E+02  0.00000000000E+00 0.  1.
</event>
<event>
 4    1  0.9957587E-003  0.9118800E+02  0.7818608E-02  0.1130116E+00
         25   -1    0    0    0    0  0.00000000000E+00  0.00000000000E+00  0.99999998245E-14  0.12500000000E+03  0.12500000000E+03 0.  0.
        -13    1    1    0    0    0  0.12298310819E+02  0.68257435583E+01  0.68501547832E+01  0.15645287109E+02  0.10566000000E+00 0.  1.
         13    1    1    0    0    0  0.33196539692E+02 -0.17297695796E+02  0.31511566717E+02  0.48930670630E+02  0.10566000000E+00 0. -1.
         22    1    1    0    0    0 -0.45494850511E+02  0.10471952237E+02 -0.38361721500E+02  0.60424042261E+02  0.00000000000E+00 0. -1.
</event>
<event>
 4    1  0.9957587E-003  0.9118800E+02  0.7818608E-02  0.1130116E+00
         25   -1    0    0    0    0  0.00000000000E+00  0.00000000000E+00  0.99999998245E-14  0.12500000000E+03  0.12500000000E+03 0.  0.
        -13    1    1    0    0    0  0.14827805870E+02 -0.34945103094E+02  0.59452854958E+01  0.38423711960E+02  0.10566000000E+00 0. -1.
         13    1    1    0    0    0 -0.43419826634E+01 -0.24368394087E+02  0.52715084370E+01  0.25307536606E+02  0.10566000000E+00 0.  1.
         22    1    1    0    0    0 -0.10485823206E+02  0.59313497181E+02 -0.11216793933E+02  0.61268751434E+02  0.00000000000E+00 0.  1.
</event>
<event>
 4    1  0.9957587E-003  0.9118800E+02  0.7818608E-02  0.1130116E+00
         25   -1    0    0    0    0  0.00000000000E+00  0.00000000000E+00  0.99999998245E-14  0.12500000000E+03  0.12500000000E+03 0.  0.
        -13    1    1    0    0    0 -0.49401844812E+02 -0.50963926255E+01  0.20260328891E+02  0.53637743981E+02  0.10566000000E+00 0. -1.
         13    1    1    0    0    0 -0.93054501915E+01  0.52370686791E+00 -0.84525511190E+00  0.93590219783E+01  0.10566000000E+00 0.  1.
         22    1    1    0    0    0  0.58707295003E+02  0.45726857576E+01 -0.19415073780E+02  0.62003234040E+02  0.00000000000E+00 0. -1.
</event>
<event>
 4    1  0.9957587E-003  0.9118800E+02  0.7818608E-02  0.1130116E+00
         25   -1    0    0    0    0  0.00000000000E+00  0.00000000000E+00  0.99999998245E-14  0.12500000000E+03  0.12500000000E+03 0.  0.
        -13    1    1    0    0    0 -0.48946243201E+01 -0.22143594890E+01  0.18924547860E+02  0.19672580179E+02  0.10566000000E+00 0.  1.
         13    1    1    0    0    0 -0.35252427590E+02  0.10556957926E+01  0.26927025342E+02  0.44372559115E+02  0.10566000000E+00 0. -1.
         22    1    1    0    0    0  0.40147051910E+02  0.11586636964E+01 -0.45851573202E+02  0.60954860706E+02  0.00000000000E+00 0. -1.
</event>
<event>
 4    1  0.9957587E-003  0.9118800E+02  0.7818608E-02  0.1130116E+00
         25   -1    0    0    0    0  0.00000000000E+00  0.00000000000E+00  0.99999998245E-14  0.12500000000E+03  0.12500000000E+03 0.  0.
        -13    1    1    0    0    0 -0.24534909627E+02  0.24757889590E+02  0.18687483722E+02  0.39549312248E+02  0.10566000000E+00 0. -1.
         13    1    1    0    0    0 -0.14247177520E+02  0.14401649608E+02  0.10786270106E+02  0.22950912085E+02  0.10566000000E+00 0. -1.
         22    1    1    0    0    0  0.38782087147E+02 -0.39159539198E+02 -0.29473753828E+02  0.62499775667E+02  0.00000000000E+00 0. -1.
</event>
<event>
 4    1  0.9957587E-003  0.9118800E+02  0.7818608E-02  0.1130116E+00
         25   -1    0    0    0    0  0.00000000000E+00  0.00000000000E+00  0.99999998245E-14  0.12500000000E+03  0.12500000000E+03 0.  0.
        -13    1    1    0    0    0  0.12040670955E+02  0.37080470180E+02 -0.29478936356E+02  0.48876966749E+02  0.10566000000E+00 0. -1.
         13    1    1    0    0    0  0.36899722726E+01  0.10083532153E+02 -0.83886508978E+01  0.13626229998E+02  0.10566000000E+00 0.  1.
         22    1    1    0    0    0 -0.15730643228E+02 -0.47164002333E+02  0.37867587254E+02  0.62496803253E+02  0.00000000000E+00 0. -1.
</event>
<event>
 4    1  0.9957587E-003  0.9118800E+02  0.7818608E-02  0.1130116E+00
         25   -1    0    0    0    0  0.00000000000E+00  0.00000000000E+00  0.99999998245E-14  0.12500000000E+03  0.12500000000E+03 0.  0.
        -13    1    1    0    0    0 -0.35618561286E+01 -0.72608325381E+01 -0.49971708769E+01  0.95073334345E+01  0.10566000000E+00 0. -1.
         13    1    1    0    0    0 -0.73274503019E+01 -0.44290026373E+02 -0.28390651650E+02  0.53116270852E+02  0.10566000000E+00 0.  1.
         22    1    1    0    0    0  0.10889306431E+02  0.51550858912E+02  0.33387822527E+02  0.62376395713E+02  0.00000000000E+00 0.  1.
</event>
<event>
 4    1  0.9957587E-003  0.9118800E+02  0.7818608E-02  0.1130116E+00
         25   -1    0    0    0    0  0.00000000000E+00  0.00000000000E+00  0.99999998245E-14  0.12500000000E+03  0.12500000000E+03 0.  0.
        -13    1    1    0    0    0 -0.12935505278E+02 -0.29536190061E+02  0.19584631934E+02  0.37726420346E+02  0.10566000000E+00 0. -1.
         13    1    1    0    0    0 -0.83762438990E+01 -0.19366857038E+02  0.12980775538E+02  0.24773944196E+02  0.10566000000E+00 0.  1.
         22    1    1    0    0    0  0.21311749177E+02  0.48903047099E+02 -0.32565407473E+02  0.62499635458E+02  0.00000000000E+00 0. -1.
</event>
<event>
 4    1  0.9957587E-003  0.9118800E+02  0.7818608E-02  0.1130116E+00
         25   -1    0    0    0    0  0.00000000000E+00  0.00000000000E+00  0.99999998245E-14  0.12500000000E+03  0.12500000000E+03 0.  0.
        -13    1    1    0    0    0 -0.22537102414E+02 -0.49984630878E+02 -0.23750901140E+02  0.59753667488E+02  0.10566000000E+00 0.  1.
         13    1    1    0    0    0 -0.16482391987E+01 -0.21670309956E+01 -0.64061078312E+00  0.27989751701E+01  0.10566000000E+00 0. -1.
         22    1    1    0    0    0  0.24185341613E+02  0.52151661874E+02  0.24391511923E+02  0.62447357342E+02  0.00000000000E+00 0.  1.
</event>
<event>
 4    1  0.9957587E-003  0.9118800E+02  0.7818608E-02  0.1130116E+00
         25   -1    0    0    0    0  0.00000000000E+00  0.00000000000E+00  0.99999998245E-14  0.12500000000E+03  0.12500000000E+03 0.  0.
        -13    1    1    0    0    0  0.31882982573E+01 -0.30400998813E+00 -0.47885183420E+01  0.57618347597E+01  0.10566000000E+00 0. -1.
         13    1    1    0    0    0  0.38252116806E+02  0.21527362220E+02 -0.36440119915E+02  0.57048621962E+02  0.10566000000E+00 0.  1.
         22    1    1    0    0    0 -0.41440415063E+02 -0.21223352232E+02  0.41228638257E+02  0.62189543278E+02  0.00000000000E+00 0.  1.
</event>
<event>
 4    1  0.9957587E-003  0.9118800E+02  0.7818608E-02  0.1130116E+00
         25   -1    0    0    0    0  0.00000000000E+00  0.00000000000E+00  0.99999998245E-14  0.12500000000E+03  0.12500000000E+03 0.  0.
        -13    1    1    0    0    0  0.37662240006E+02 -0.20855328249E+02  0.98646664118E+01  0.44166863666E+02  0.10566000000E+00 0.  1.
         13    1    1    0    0    0  0.15469147245E+02 -0.96087497129E+01  0.24105563435E+01  0.18369663400E+02  0.10566000000E+00 0. -1.
         22    1    1    0    0    0 -0.53131387251E+02  0.30464077962E+02 -0.12275222755E+02  0.62463472934E+02  0.00000000000E+00 0. -1.
</event>
<event>
 4    1  0.9957587E-003  0.9118800E+02  0.7818608E-02  0.1130116E+00
         25   -1    0    0    0    0  0.00000000000E+00  0.00000000000E+00  0.99999998245E-14  0.12500000000E+03  0.12500000000E+03 0.  0.
        -13    1    1    0    0    0  0.19871089107E+02  0.20182467602E+01  0.29964294572E+01  0.20197110086E+02  0.10566000000E+00 0.  1.
         13    1    1    0    0    0  0.41104838395E+02 -0.10302943227E+02 -0.77656417008E+01  0.43082185804E+02  0.10566000000E+00 0. -1.
         22    1    1    0    0    0 -0.60975927503E+02  0.82846964670E+01  0.47692122436E+01  0.61720704109E+02  0.00000000000E+00 0. -1.
</event>
<event>
 4    1  0.9957587E-003  0.9118800E+02  0.7818608E-02  0.1130116E+00
         25   -1    0    0    0    0  0.00000000000E+00  0.00000000000E+00  0.99999998245E-14  0.12500000000E+03  0.12500000000E+03 0.  0.
        -13    1    1    0    0    0 -0.10870927331E+02 -0.15086347805E+02 -0.88110920490E+01  0.20577207251E+02  0.10566000000E+00 0. -1.
         13    1    1    0    0    0 -0.22531662397E+02 -0.36297260730E+02  0.21601570735E+01  0.42776680441E+02  0.10566000000E+00 0.  1.
         22    1    1    0    0    0  0.33402589728E+02  0.51383608535E+02  0.66509349755E+01  0.61646112308E+02  0.00000000000E+00 0.  1.
</event>
<event>
 4    1  0.9957587E-003  0.9118800E+02  0.7818608E-02  0.1130116E+00
         25   -1    0    0    0    0  0.00000000000E+00  0.00000000000E+00  0.99999998245E-14  0.12500000000E+03  0.12500000000E+03 0.  0.
        -13    1    1    0    0    0 -0.29954486801E+01  0.69484422361E+01 -0.32673849678E+01  0.82426046166E+01  0.10566000000E+00 0. -1.
         13    1    1    0    0    0 -0.13551064404E+02  0.52538821899E+02 -0.48763195360E+01  0.54477048463E+02  0.10566000000E+00 0.  1.
         22    1    1    0    0    0  0.16546513085E+02 -0.59487264135E+02  0.81437045037E+01  0.62280346920E+02  0.00000000000E+00 0.  1.
</event>
<event>
 4    1  0.9957587E-003  0.9118800E+02  0.7818608E-02  0.1130116E+00
         25   -1    0    0    0    0  0.00000000000E+00  0.00000000000E+00  0.99999998245E-14  0.12500000000E+03  0.12500000000E+03 0.  0.
        -13    1    1    0    0    0  0.46978402767E+02  0.72787712511E+01 -0.29901136605E+02  0.56160840198E+02  0.10566000000E+00 0.  1.
         13    1    1    0    0    0 -0.70284461482E+00 -0.12479155268E+02 -0.16244960919E+01  0.12604501511E+02  0.10566000000E+00 0. -1.
         22    1    1    0    0    0 -0.46275558152E+02  0.52003840170E+01  0.31525632697E+02  0.56234658291E+02  0.00000000000E+00 0.  1.
</event>
<event>
 4    1  0.9957587E-003  0.9118800E+02  0.7818608E-02  0.1130116E+00
         25   -1    0    0    0    0  0.00000000000E+00  0.00000000000E+00  0.99999998245E-14  0.12500000000E+03  0.12500000000E+03 0.  0.
        -13    1    1    0    0    0  0.17870392012E+02  0.36133293876E+01 -0.43314570224E+02  0.46995427625E+02  0.10566000000E+00 0. -1.
         13    1    1    0    0    0  0.62695851386E+01  0.10326593904E+01 -0.14145103804E+02  0.15507069642E+02  0.10566000000E+00 0.  1.
         22    1    1    0    0    0 -0.24139977150E+02 -0.46459887780E+01  0.57459674028E+02  0.62497502733E+02  0.00000000000E+00 0. -1.
</event>
<event>
 4    1  0.9957587E-003  0.9118800E+02  0.7818608E-02  0.1130116E+00
         25   -1    0    0    0    0  0.00000000000E+00  0.00000000000E+00  0.99999998245E-14  0.12500000000E+03  0.12500000000E+03 0.  0.
        -13    1    1    0    0    0 -0.48687001895E+01  0.20154793247E+02 -0.16763957610E+02  0.26663858894E+02  0.10566000000E+00 0. -1.
         13    1    1    0    0    0 -0.42243720745E+02 -0.11162189032E+02 -0.79017735358E+01  0.44402427810E+02  0.10566000000E+00 0.  1.
         22    1    1    0    0    0  0.47112420935E+02 -0.89926042147E+01  0.24665731146E+02  0.53933713296E+02  0.00000000000E+00 0.  1.
</event>
<event>
 4    1  0.9957587E-003  0.9118800E+02  0.7818608E-02  0.1130116E+00
         25   -1    0    0    0    0  0.00000000000E+00  0.00000000000E+00  0.99999998245E-14  0.12500000000E+03  0.12500000000E+03 0.  0.
        -13    1    1    0    0    0  0.83530855098E+01  0.62651825480E+01  0.42306491984E+01  0.11266592500E+02  0.10566000000E+00 0. -1.
         13    1    1    0    0    0  0.37334074398E+02  0.29264520589E+02  0.19357945500E+02  0.51234622029E+02  0.10566000000E+00 0. -1.
         22    1    1    0    0    0 -0.45687159908E+02 -0.35529703137E+02 -0.23588594698E+02  0.62498785470E+02  0.00000000000E+00 0. -1.
</event>
<event>
 4    1  0.9957587E-003  0.9118800E+02  0.7818608E-02  0.1130116E+00
         25   -1    0    0    0    0  0.00000000000E+00  0.00000000000E+00  0.99999998245E-14  0.12500000000E+03  0.12500000000E+03 0.  0.
        -13    1    1    0    0    0 -0.36101370705E+02 -0.23228114236E+01 -0.52266846314E+00  0.36179949780E+02  0.10566000000E+00 0. -1.
         13    1    1    0    0    0 -0.26257204007E+02 -0.17698988502E+01 -0.41525916978E+00  0.26320275615E+02  0.10566000000E+00 0. -1.
         22    1    1    0    0    0  0.62358574712E+02  0.40927102738E+01  0.93792763292E+00  0.62499774606E+02  0.00000000000E+00 0. -1.
</event>
<event>
 4    1  0.9957587E-003  0.9118800E+02  0.7818608E-02  0.1130116E+00
         25   -1    0    0    0    0  0.00000000000E+00  0.00000000000E+00  0.99999998245E-14  0.12500000000E+03  0.12500000000E+03 0.  0.
        -13    1    1    0    0    0 -0.31745792645E+01  0.29534457135E+02 -0.14860986986E+02  0.33214789025E+02  0.10566000000E+00 0.  1.
         13    1    1    0    0    0 -0.28230006228E+01  0.25961101853E+02 -0.13254535670E+02  0.29285525807E+02  0.10566000000E+00 0.  1.
         22    1    1    0    0    0  0.59975798873E+01 -0.55495558988E+02  0.28115522655E+02  0.62499685168E+02  0.00000000000E+00 0.  1.
</event>
<event>
 4    1  0.9957587E-003  0.9118800E+02  0.7818608E-02  0.1130116E+00
         25   -1    0    0    0    0  0.00000000000E+00  0.00000000000E+00  0.99999998245E-14  0.12500000000E+03  0.12500000000E+03 0.  0.
        -13    1    1    0    0    0  0.22450432685E+02  0.55814909846E+02 -0.13268084019E+02  0.61606649856E+02  0.10566000000E+00 0.  1.
         13    1    1    0    0    0 -0.16883149423E+01  0.60515731366E+00 -0.12386269544E+00  0.18008688796E+01  0.10566000000E+00 0. -1.
         22    1    1    0    0    0 -0.20762117743E+02 -0.56420067160E+02  0.13391946715E+02  0.61592481264E+02  0.00000000000E+00 0.  1.
</event>
<event>
 4    1  0.9957587E-003  0.9118800E+02  0.7818608E-02  0.1130116E+00
         25   -1    0    0    0    0  0.00000000000E+00  0.00000000000E+00  0.99999998245E-14  0.12500000000E+03  0.12500000000E+03 0.  0.
        -13    1    1    0    0    0 -0.46290474063E+01  0.10531515831E+01  0.25630296879E+01  0.53960627650E+01  0.10566000000E+00 0.  1.
         13    1    1    0    0    0 -0.49268726300E+02  0.12146288970E+02  0.26192699452E+02  0.57105239651E+02  0.10566000000E+00 0. -1.
         22    1    1    0    0    0  0.53897773706E+02 -0.13199440553E+02 -0.28755729140E+02  0.62498697584E+02  0.00000000000E+00 0. -1.
</event>
<event>
 4    1  0.9957587E-003  0.9118800E+02  0.7818608E-02  0.1130116E+00
         25   -1    0    0    0    0  0.00000000000E+00  0.00000000000E+00  0.99999998245E-14  0.12500000000E+03  0.12500000000E+03 0.  0.
        -13    1    1    0    0    0  0.39621924927E+02 -0.14838351447E+02  0.35239734938E+02  0.55062906671E+02  0.10566000000E+00 0. -1.
         13    1    1    0    0    0  0.54434921397E+01 -0.19833656540E+01  0.46634935452E+01  0.74380563371E+01  0.10566000000E+00 0. -1.
         22    1    1    0    0    0 -0.45065417066E+02  0.16821717101E+02 -0.39903228483E+02  0.62499036992E+02  0.00000000000E+00 0. -1.
</event>
<event>
 4    1  0.9957587E-003  0.9118800E+02  0.7818608E-02  0.1130116E+00
         25   -1    0    0    0    0  0.00000000000E+00  0.00000000000E+00  0.99999998245E-14  0.12500000000E+03  0.12500000000E+03 0.  0.
        -13    1    1    0    0    0  0.19962034415E+01  0.49431853524E+01  0.46842546217E+01  0.70974160794E+01  0.10566000000E+00 0. -1.
         13    1    1    0    0    0  0.22870515638E+02 -0.16689056840E+02  0.49564609350E+02  0.57081054369E+02  0.10566000000E+00 0.  1.
         22    1    1    0    0    0 -0.24866719080E+02  0.11745871488E+02 -0.54248863972E+02  0.60821529552E+02  0.00000000000E+00 0.  1.
</event>
<event>
 4    1  0.9957587E-003  0.9118800E+02  0.7818608E-02  0.1130116E+00
         25   -1    0    0    0    0  0.00000000000E+00  0.00000000000E+00  0.99999998245E-14  0.12500000000E+03  0.12500000000E+03 0.  0.
        -13    1    1    0    0    0 -0.22054471712E+02  0.43605384166E+02 -0.26303428030E+00  0.48866241945E+02  0.10566000000E+00 0.  1.
         13    1    1    0    0    0 -0.59502594668E+01  0.12258104502E+02 -0.56942716329E+00  0.13638259604E+02  0.10566000000E+00 0.  1.
         22    1    1    0    0    0  0.28004731179E+02 -0.55863488668E+02  0.83246144359E+00  0.62495498451E+02  0.00000000000E+00 0.  1.
</event>
<event>
 4    1  0.9957587E-003  0.9118800E+02  0.7818608E-02  0.1130116E+00
         25   -1    0    0    0    0  0.00000000000E+00  0.00000000000E+00  0.99999998245E-14  0.12500000000E+03  0.12500000000E+03 0.  0.
        -13    1    1    0    0    0 -0.17192520048E+01 -0.14037829159E+02  0.11950074268E+02  0.18515720726E+02  0.10566000000E+00 0.  1.
         13    1    1    0    0    0  0.24831321021E+02 -0.23175624719E+02 -0.41511187230E+02  0.53636684406E+02  0.10566000000E+00 0. -1.
         22    1    1    0    0    0 -0.23112069017E+02  0.37213453878E+02  0.29561112962E+02  0.52847594868E+02  0.00000000000E+00 0. -1.
</event>
<event>
 4    1  0.9957587E-003  0.9118800E+02  0.7818608E-02  0.1130116E+00
         25   -1    0    0    0    0  0.00000000000E+00  0.00000000000E+00  0.99999998245E-14  0.12500000000E+03  0.12500000000E+03 0.  0.
        -13    1    1    0    0    0 -0.37033067249E+01  0.75642802072E+01 -0.14580222185E+02  0.16838255811E+02  0.10566000000E+00 0. -1.
         13    1    1    0    0    0 -0.10227293911E+02  0.20952305812E+02 -0.39261288229E+02  0.45662419746E+02  0.10566000000E+00 0.  1.
         22    1    1    0    0    0  0.13930600635E+02 -0.28516586019E+02  0.53841510414E+02  0.62499324444E+02  0.00000000000E+00 0. -1.
</event>
<event>
 4    1  0.9957587E-003  0.9118800E+02  0.7818608E-02  0.1130116E+00
         25   -1    0    0    0    0  0.00000000000E+00  0.00000000000E+00  0.99999998245E-14  0.12500000000E+03  0.12500000000E+03 0.  0.
        -13    1    1    0    0    0 -0.19797638021E+02 -0.15550543851E+02 -0.58236618473E+00  0.25181663958E+02  0.10566000000E+00 0.  1.
         13    1    1    0    0    0  0.97783442586E+01  0.25498791831E+02 -0.44701928306E+02  0.52383947537E+02  0.10566000000E+00 0. -1.
         22    1    1    0    0    0  0.10019293762E+02 -0.99482479800E+01  0.45284294490E+02  0.47434388505E+02  0.00000000000E+00 0. -1.
</event>
<event>
 4    1  0.9957587E-003  0.9118800E+02  0.7818608E-02  0.1130116E+00
         25   -1    0    0    0    0  0.00000000000E+00  0.00000000000E+00  0.99999998245E-14  0.12500000000E+03  0.12500000000E+03 0.  0.
        -13    1    1    0    0    0 -0.70329931541E+00 -0.88648571013E+00 -0.56105517255E+00  0.12674516889E+01  0.10566000000E+00 0.  1.
         13    1    1    0    0    0 -0.26396225984E+02 -0.88773140893E+01 -0.54718827113E+02  0.61398116065E+02  0.10566000000E+00 0. -1.
         22    1    1    0    0    0  0.27099525299E+02  0.97637997995E+01  0.55279882286E+02  0.62334432246E+02  0.00000000000E+00 0. -1.
</event>
<event>
 4    1  0.9957587E-003  0.9118800E+02  0.7818608E-02  0.1130116E+00
         25   -1    0    0    0    0  0.00000000000E+00  0.00000000000E+00  0.99999998245E-14  0.12500000000E+03  0.12500000000E+03 0.  0.
        -13    1    1    0    0    0  0.11872218914E+02 -0.25125444152E+02 -0.53030517714E+02  0.59870564545E+02  0.10566000000E+00 0. -1.
         13    1    1    0    0    0  0.37061458714E+00 -0.89901526097E+00 -0.24496801157E+01  0.26377415181E+01  0.10566000000E+00 0.  1.
         22    1    1    0    0    0 -0.12242833501E+02  0.26024459413E+02  0.55480197830E+02  0.62491693937E+02  0.00000000000E+00 0. -1.
</event>
<event>
 4    1  0.9957587E-003  0.9118800E+02  0.7818608E-02  0.1130116E+00
         25   -1    0    0    0    0  0.00000000000E+00  0.00000000000E+00  0.99999998245E-14  0.12500000000E+03  0.12500000000E+03 0.  0.
        -13    1    1    0    0    0 -0.13137482977E+01 -0.24013986977E+01  0.28938294703E+00  0.27545520182E+01  0.10566000000E+00 0.  1.
         13    1    1    0    0    0 -0.58162989561E+02 -0.15386822823E+02 -0.43065669412E+00  0.60165474323E+02  0.10566000000E+00 0. -1.
         22    1    1    0    0    0  0.59476737859E+02  0.17788221521E+02  0.14127374709E+00  0.62079973659E+02  0.00000000000E+00 0. -1.
</event>
<event>
 4    1  0.9957587E-003  0.9118800E+02  0.7818608E-02  0.1130116E+00
         25   -1    0    0    0    0  0.00000000000E+00  0.00000000000E+00  0.99999998245E-14  0.12500000000E+03  0.12500000000E+03 0.  0.
        -13    1    1    0    0    0 -0.24584704267E+02 -0.36652181064E+02 -0.30230423527E+01  0.44237314676E+02  0.10566000000E+00 0. -1.
         13    1    1    0    0    0 -0.98946256050E+01 -0.15315930397E+02 -0.10444002245E+01  0.18264262253E+02  0.10566000000E+00 0.  1.
         22    1    1    0    0    0  0.34479329872E+02  0.51968111461E+02  0.40674425772E+01  0.62498423071E+02  0.00000000000E+00 0. -1.
</event>
<event>
 4    1  0.9957587E-003  0.9118800E+02  0.7818608E-02  0.1130116E+00
         25   -1    0    0    0    0  0.00000000000E+00  0.00000000000E+00  0.99999998245E-14  0.12500000000E+03  0.12500000000E+03 0.  0.
        -13    1    1    0    0    0  0.12300324649E+02 -0.37287950142E+02 -0.31370439502E+02  0.50257386033E+02  0.10566000000E+00 0.  1.
         13    1    1    0    0    0  0.21888334431E+01 -0.92772512318E+01 -0.77005035693E+01  0.12254276866E+02  0.10566000000E+00 0. -1.
         22    1    1    0    0    0 -0.14489158092E+02  0.46565201374E+02  0.39070943071E+02  0.62488337101E+02  0.00000000000E+00 0.  1.
</event>
<event>
 4    1  0.9957587E-003  0.9118800E+02  0.7818608E-02  0.1130116E+00
         25   -1    0    0    0    0  0.00000000000E+00  0.00000000000E+00  0.99999998245E-14  0.12500000000E+03  0.12500000000E+03 0.  0.
        -13    1    1    0    0    0 -0.16744724872E+01 -0.13306683298E+01  0.18415101975E+02  0.18539193109E+02  0.10566000000E+00 0.  1.
         13    1    1    0    0    0 -0.33505141524E+01 -0.47495738968E+01  0.43579937049E+02  0.43965969505E+02  0.10566000000E+00 0. -1.
         22    1    1    0    0    0  0.50249866396E+01  0.60802422266E+01 -0.61995039025E+02  0.62494837386E+02  0.00000000000E+00 0. -1.
</event>
<event>
 4    1  0.9957587E-003  0.9118800E+02  0.7818608E-02  0.1130116E+00
         25   -1    0    0    0    0  0.00000000000E+00  0.00000000000E+00  0.99999998245E-14  0.12500000000E+03  0.12500000000E+03 0.  0.
        -13    1    1    0    0    0 -0.20844497410E+01 -0.14059081512E+01  0.75515211249E+00  0.26273422314E+01  0.10566000000E+00 0.  1.
         13    1    1    0    0    0 -0.37835565190E+02  0.27908466243E+02 -0.38983641323E+02  0.61074937054E+02  0.10566000000E+00 0. -1.
         22    1    1    0    0    0  0.39920014931E+02 -0.26502558092E+02  0.38228489211E+02  0.61297720715E+02  0.00000000000E+00 0. -1.
</event>
<event>
 4    1  0.9957587E-003  0.9118800E+02  0.7818608E-02  0.1130116E+00
         25   -1    0    0    0    0  0.00000000000E+00  0.00000000000E+00  0.99999998245E-14  0.12500000000E+03  0.12500000000E+03 0.  0.
        -13    1    1    0    0    0 -0.12986066249E+01 -0.49306505308E+01 -0.12877263119E+01  0.52599521779E+01  0.10566000000E+00 0.  1.
         13    1    1    0    0    0 -0.15089425733E+02 -0.53393535107E+02 -0.14069808661E+02  0.57240990907E+02  0.10566000000E+00 0. -1.
         22    1    1    0    0    0  0.16388032358E+02  0.58324185638E+02  0.15357534973E+02  0.62499056916E+02  0.00000000000E+00 0. -1.
</event>
<event>
 4    1  0.9957587E-003  0.9118800E+02  0.7818608E-02  0.1130116E+00
         25   -1    0    0    0    0  0.00000000000E+00  0.00000000000E+00  0.99999998245E-14  0.12500000000E+03  0.12500000000E+03 0.  0.
        -13    1    1    0    0    0  0.17078940288E+02 -0.31880917241E+02  0.37737365042E+02  0.52270478952E+02  0.10566000000E+00 0. -1.
         13    1    1    0    0    0  0.39097781217E+01 -0.50622695996E+01  0.80386001149E+01  0.10273421743E+02  0.10566000000E+00 0.  1.
         22    1    1    0    0    0 -0.20988718410E+02  0.36943186841E+02 -0.45775965157E+02  0.62456099306E+02  0.00000000000E+00 0. -1.
</event>
<event>
 4    1  0.9957587E-003  0.9118800E+02  0.7818608E-02  0.1130116E+00
         25   -1    0    0    0    0  0.00000000000E+00  0.00000000000E+00  0.99999998245E-14  0.12500000000E+03  0.12500000000E+03 0.  0.
        -13    1    1    0    0    0 -0.97848023783E+01  0.15485997277E+02  0.18595959376E+02  0.26103243829E+02  0.10566000000E+00 0. -1.
         13    1    1    0    0    0 -0.19469659727E+02  0.32994464282E+02  0.26894716600E+01  0.38405035412E+02  0.10566000000E+00 0.  1.
         22    1    1    0    0    0  0.29254462106E+02 -0.48480461559E+02 -0.21285431036E+02  0.60491720759E+02  0.00000000000E+00 0.  1.
</event>
<event>
 4    1  0.9957587E-003  0.9118800E+02  0.7818608E-02  0.1130116E+00
         25   -1    0    0    0    0  0.00000000000E+00  0.00000000000E+00  0.99999998245E-14  0.12500000000E+03  0.12500000000E+03 0.  0.
        -13    1    1    0    0    0 -0.22245467048E+02 -0.44006197454E+02  0.51714906526E+01  0.49579851736E+02  0.10566000000E+00 0.  1.
         13    1    1    0    0    0 -0.25217001871E+01 -0.12362702390E+02  0.38516339021E+01  0.13192483844E+02  0.10566000000E+00 0. -1.
         22    1    1    0    0    0  0.24767167235E+02  0.56368899844E+02 -0.90231245547E+01  0.62227664420E+02  0.00000000000E+00 0.  1.
</event>
<event>
 4    1  0.9957587E-003  0.9118800E+02  0.7818608E-02  0.1130116E+00
         25   -1    0    0    0    0  0.00000000000E+00  0.00000000000E+00  0.99999998245E-14  0.12500000000E+03  0.12500000000E+03 0.  0.
        -13    1    1    0    0    0  0.35118632058E+01 -0.10697440872E+02 -0.44994902732E+02  0.46382333493E+02  0.10566000000E+00 0.  1.
         13    1    1    0    0    0  0.70863558350E+01 -0.94654187197E+01 -0.12238640035E+02  0.17017816091E+02  0.10566000000E+00 0. -1.
         22    1    1    0    0    0 -0.10598219041E+02  0.20162859592E+02  0.57233542766E+02  0.61599850416E+02  0.00000000000E+00 0.  1.
</event>
<event>
 4    1  0.9957587E-003  0.9118800E+02  0.7818608E-02  0.1130116E+00
         25   -1    0    0    0    0  0.00000000000E+00  0.00000000000E+00  0.99999998245E-14  0.12500000000E+03  0.12500000000E+03 0.  0.
        -13    1    1    0    0    0  0.15387183392E+02 -0.19819357338E+01  0.26319789156E+01  0.15736326097E+02  0.10566000000E+00 0.  1.
         13    1    1    0    0    0  0.15146413267E+02  0.23902547866E+02 -0.44665800885E+02  0.52875235811E+02  0.10566000000E+00 0. -1.
         22    1    1    0    0    0 -0.30533596659E+02 -0.21920612132E+02  0.42033821969E+02  0.56388438092E+02  0.00000000000E+00 0. -1.
</event>
<event>
 4    1  0.9957587E-003  0.9118800E+02  0.7818608E-02  0.1130116E+00
         25   -1    0    0    0    0  0.00000000000E+00  0.00000000000E+00  0.99999998245E-14  0.12500000000E+03  0.12500000000E+03 0.  0.
        -13    1    1    0    0    0 -0.33672878708E+02 -0.18799460970E+02 -0.26097789611E+02  0.46565956233E+02  0.10566000000E+00 0.  1.
         13    1    1    0    0    0 -0.11451484352E+02 -0.68247215654E+01 -0.87321504577E+01  0.15936591040E+02  0.10566000000E+00 0. -1.
         22    1    1    0    0    0  0.45124363060E+02  0.25624182536E+02  0.34829940069E+02  0.62497452727E+02  0.00000000000E+00 0.  1.
</event>
<event>
 4    1  0.9957587E-003  0.9118800E+02  0.7818608E-02  0.1130116E+00
         25   -1    0    0    0    0  0.00000000000E+00  0.00000000000E+00  0.99999998245E-14  0.12500000000E+03  0.12500000000E+03 0.  0.
        -13    1    1    0    0    0 -0.85962465935E+01  0.30937943427E+01 -0.32169964455E+01  0.96864466703E+01  0.10566000000E+00 0. -1.
         13    1    1    0    0    0 -0.46541966909E+02  0.18681054900E+02 -0.16567919681E+02  0.52817076997E+02  0.10566000000E+00 0.  1.
         22    1    1    0    0    0  0.55138213503E+02 -0.21774849243E+02  0.19784916126E+02  0.62496476332E+02  0.00000000000E+00 0.  1.
</event>
<event>
 4    1  0.9957587E-003  0.9118800E+02  0.7818608E-02  0.1130116E+00
         25   -1    0    0    0    0  0.00000000000E+00  0.00000000000E+00  0.99999998245E-14  0.12500000000E+03  0.12500000000E+03 0.  0.
        -13    1    1    0    0    0 -0.40805637755E+02  0.17274701924E+02  0.21491563173E+02  0.49248490848E+02  0.10566000000E+00 0. -1.
         13    1    1    0    0    0 -0.11112486610E+02  0.45858743239E+01  0.55772692718E+01  0.13252724193E+02  0.10566000000E+00 0.  1.
         22    1    1    0    0    0  0.51918124365E+02 -0.21860576247E+02 -0.27068832444E+02  0.62498784959E+02  0.00000000000E+00 0.  1.
</event>
<event>
 4    1  0.9957587E-003  0.9118800E+02  0.7818608E-02  0.1130116E+00
         25   -1    0    0    0    0  0.00000000000E+00  0.00000000000E+00  0.99999998245E-14  0.12500000000E+03  0.12500000000E+03 0.  0.
        -13    1    1    0    0    0  0.15309114964E+02 -0.12948434297E+01  0.92058263897E+01  0.17911002877E+02  0.10566000000E+00 0.  1.
         13    1    1    0    0    0  0.38502526524E+02 -0.24061912347E+01  0.22363236044E+02  0.44591028194E+02  0.10566000000E+00 0. -1.
         22    1    1    0    0    0 -0.53811641489E+02  0.37010346644E+01 -0.31569062434E+02  0.62497968929E+02  0.00000000000E+00 0. -1.
</event>
<event>
 4    1  0.9957587E-003  0.9118800E+02  0.7818608E-02  0.1130116E+00
         25   -1    0    0    0    0  0.00000000000E+00  0.00000000000E+00  0.99999998245E-14  0.12500000000E+03  0.12500000000E+03 0.  0.
        -13    1    1    0    0    0  0.54411718783E+01 -0.34087897931E+00 -0.56302399614E+02  0.56565837006E+02  0.10566000000E+00 0.  1.
         13    1    1    0    0    0  0.83293425563E+00 -0.43012144420E+00 -0.58679380907E+01  0.59432857413E+01  0.10566000000E+00 0. -1.
         22    1    1    0    0    0 -0.62741061339E+01  0.77100042351E+00  0.62170337705E+02  0.62490877252E+02  0.00000000000E+00 0.  1.
</event>
<event>
 4    1  0.9957587E-003  0.9118800E+02  0.7818608E-02  0.1130116E+00
         25   -1    0    0    0    0  0.00000000000E+00  0.00000000000E+00  0.99999998245E-14  0.12500000000E+03  0.12500000000E+03 0.  0.
        -13    1    1    0    0    0  0.58378885937E+01 -0.14428732521E+01 -0.94984583874E+00  0.60890227137E+01  0.10566000000E+00 0.  1.
         13    1    1    0    0    0  0.54119734301E+02 -0.13500608299E+02 -0.84285267834E+01  0.56411552833E+02  0.10566000000E+00 0.  1.
         22    1    1    0    0    0 -0.59957622894E+02  0.14943481551E+02  0.93783726221E+01  0.62499424454E+02  0.00000000000E+00 0.  1.
</event>
<event>
 4    1  0.9957587E-003  0.9118800E+02  0.7818608E-02  0.1130116E+00
         25   -1    0    0    0    0  0.00000000000E+00  0.00000000000E+00  0.99999998245E-14  0.12500000000E+03  0.12500000000E+03 0.  0.
        -13    1    1    0    0    0 -0.46989775436E+01  0.21620594151E+01  0.26127224939E+01  0.57958928333E+01  0.10566000000E+00 0. -1.
         13    1    1    0    0    0 -0.44657146447E+02  0.19894962278E+02  0.28739456896E+02  0.56710120786E+02  0.10566000000E+00 0.  1.
         22    1    1    0    0    0  0.49356123990E+02 -0.22057021693E+02 -0.31352179390E+02  0.62493986381E+02  0.00000000000E+00 0.  1.
</event>
<event>
 4    1  0.9957587E-003  0.9118800E+02  0.7818608E-02  0.1130116E+00
         25   -1    0    0    0    0  0.00000000000E+00  0.00000000000E+00  0.99999998245E-14  0.12500000000E+03  0.12500000000E+03 0.  0.
        -13    1    1    0    0    0 -0.21087987122E+00 -0.37398491623E+01 -0.31512386406E+01  0.48961628938E+01  0.10566000000E+00 0. -1.
         13    1    1    0    0    0 -0.62593702393E+01 -0.34274273861E+02 -0.45953371119E+02  0.57668267233E+02  0.10566000000E+00 0.  1.
         22    1    1    0    0    0  0.64702501105E+01  0.38014123023E+02  0.49104609759E+02  0.62435569873E+02  0.00000000000E+00 0.  1.
</event>
<event>
 4    1  0.9957587E-003  0.9118800E+02  0.7818608E-02  0.1130116E+00
         25   -1    0    0    0    0  0.00000000000E+00  0.00000000000E+00  0.99999998245E-14  0.12500000000E+03  0.12500000000E+03 0.  0.
        -13    1    1    0    0    0  0.18264417478E+01  0.36583025084E+01 -0.17604009215E+01  0.44530037212E+01  0.10566000000E+00 0. -1.
         13    1    1    0    0    0  0.79526861254E+01  0.12989029224E+02 -0.56841440005E+02  0.58846584970E+02  0.10566000000E+00 0.  1.
         22    1    1    0    0    0 -0.97791278732E+01 -0.16647331732E+02  0.58601840926E+02  0.61700411309E+02  0.00000000000E+00 0.  1.
</event>
<event>
 4    1  0.9957587E-003  0.9118800E+02  0.7818608E-02  0.1130116E+00
         25   -1    0    0    0    0  0.00000000000E+00  0.00000000000E+00  0.99999998245E-14  0.12500000000E+03  0.12500000000E+03 0.  0.
        -13    1    1    0    0    0  0.60611508351E+01 -0.44791880540E+02 -0.26611724408E+02  0.52452313122E+02  0.10566000000E+00 0.  1.
         13    1    1    0    0    0  0.38012960177E+01  0.10181257152E+02 -0.14363607141E+02  0.18012002186E+02  0.10566000000E+00 0. -1.
         22    1    1    0    0    0 -0.98624468528E+01  0.34610623389E+02  0.40975331549E+02  0.54535684692E+02  0.00000000000E+00 0.  1.
</event>
<event>
 4    1  0.9957587E-003  0.9118800E+02  0.7818608E-02  0.1130116E+00
         25   -1    0    0    0    0  0.00000000000E+00  0.00000000000E+00  0.99999998245E-14  0.12500000000E+03  0.12500000000E+03 0.  0.
        -13    1    1    0    0    0 -0.29882508242E+01  0.30279535782E+02  0.35888260399E+01  0.30637734357E+02  0.10566000000E+00 0. -1.
         13    1    1    0    0    0 -0.39539596373E+01  0.30935841380E+02  0.67054123775E+01  0.31900373006E+02  0.10566000000E+00 0.  1.
         22    1    1    0    0    0  0.69422104615E+01 -0.61215377162E+02 -0.10294238417E+02  0.62461892637E+02  0.00000000000E+00 0.  1.
</event>
<event>
 4    1  0.9957587E-003  0.9118800E+02  0.7818608E-02  0.1130116E+00
         25   -1    0    0    0    0  0.00000000000E+00  0.00000000000E+00  0.99999998245E-14  0.12500000000E+03  0.12500000000E+03 0.  0.
        -13    1    1    0    0    0  0.33985326871E+01  0.14088960309E+02  0.36106320582E+02  0.38906636671E+02  0.10566000000E+00 0.  1.
         13    1    1    0    0    0  0.13824722206E+01  0.81300943557E+01  0.22109857249E+02  0.23598021428E+02  0.10566000000E+00 0.  1.
         22    1    1    0    0    0 -0.47810049078E+01 -0.22219054665E+02 -0.58216177831E+02  0.62495341902E+02  0.00000000000E+00 0.  1.
</event>
<event>
 4    1  0.9957587E-003  0.9118800E+02  0.7818608E-02  0.1130116E+00
         25   -1    0    0    0    0  0.00000000000E+00  0.00000000000E+00  0.99999998245E-14  0.12500000000E+03  0.12500000000E+03 0.  0.
        -13    1    1    0    0    0 -0.22432258293E+01 -0.18984937536E+02 -0.50008899337E+01  0.19760566276E+02  0.10566000000E+00 0.  1.
         13    1    1    0    0    0  0.31139583636E+02 -0.90298204196E+01  0.40287726284E+02  0.51713860608E+02  0.10566000000E+00 0. -1.
         22    1    1    0    0    0 -0.28896357806E+02  0.28014757956E+02 -0.35286836350E+02  0.53525573116E+02  0.00000000000E+00 0. -1.
</event>
<event>
 4    1  0.9957587E-003  0.9118800E+02  0.7818608E-02  0.1130116E+00
         25   -1    0    0    0    0  0.00000000000E+00  0.00000000000E+00  0.99999998245E-14  0.12500000000E+03  0.12500000000E+03 0.  0.
        -13    1    1    0    0    0  0.50143121065E+02 -0.15299177449E+02 -0.21058058455E+02  0.56496463701E+02  0.10566000000E+00 0.  1.
         13    1    1    0    0    0  0.45800360349E+01 -0.41039050307E+01 -0.12996422139E+01  0.62864139619E+01  0.10566000000E+00 0. -1.
         22    1    1    0    0    0 -0.54723157100E+02  0.19403082480E+02  0.22357700669E+02  0.62217122337E+02  0.00000000000E+00 0.  1.
</event>
<event>
 4    1  0.9957587E-003  0.9118800E+02  0.7818608E-02  0.1130116E+00
         25   -1    0    0    0    0  0.00000000000E+00  0.00000000000E+00  0.99999998245E-14  0.12500000000E+03  0.12500000000E+03 0.  0.
        -13    1    1    0    0    0 -0.81668386926E+01 -0.83846332445E+01 -0.36339901192E+01  0.12256279089E+02  0.10566000000E+00 0.  1.
         13    1    1    0    0    0 -0.43863792814E+02  0.17142310831E+02 -0.24352423342E+02  0.53018325391E+02  0.10566000000E+00 0. -1.
         22    1    1    0    0    0  0.52030631506E+02 -0.87576775861E+01  0.27986413461E+02  0.59725395520E+02  0.00000000000E+00 0. -1.
</event>
<event>
 4    1  0.9957587E-003  0.9118800E+02  0.7818608E-02  0.1130116E+00
         25   -1    0    0    0    0  0.00000000000E+00  0.00000000000E+00  0.99999998245E-14  0.12500000000E+03  0.12500000000E+03 0.  0.
        -13    1    1    0    0    0 -0.18676630256E+01 -0.12477697193E+01 -0.59000052937E+01  0.63139782190E+01  0.10566000000E+00 0. -1.
         13    1    1    0    0    0  0.44352340952E+02 -0.31940470817E+02 -0.20856070967E+02  0.58500518666E+02  0.10566000000E+00 0.  1.
         22    1    1    0    0    0 -0.42484677926E+02  0.33188240536E+02  0.26756076261E+02  0.60185503115E+02  0.00000000000E+00 0.  1.
</event>
<event>
 4    1  0.9957587E-003  0.9118800E+02  0.7818608E-02  0.1130116E+00
         25   -1    0    0    0    0  0.00000000000E+00  0.00000000000E+00  0.99999998245E-14  0.12500000000E+03  0.12500000000E+03 0.  0.
        -13    1    1    0    0    0 -0.80396683908E+00 -0.82277770404E+01  0.23515990747E+02  0.24927006691E+02  0.10566000000E+00 0. -1.
         13    1    1    0    0    0  0.31431983709E+02 -0.22417480639E+02  0.15658576765E+02  0.41661915804E+02  0.10566000000E+00 0.  1.
         22    1    1    0    0    0 -0.30628016870E+02  0.30645257679E+02 -0.39174567512E+02  0.58411077506E+02  0.00000000000E+00 0.  1.
</event>
<event>
 4    1  0.9957587E-003  0.9118800E+02  0.7818608E-02  0.1130116E+00
         25   -1    0    0    0    0  0.00000000000E+00  0.00000000000E+00  0.99999998245E-14  0.12500000000E+03  0.12500000000E+03 0.  0.
        -13    1    1    0    0    0  0.78035978014E+01  0.17491735124E+02  0.55662375317E+02  0.58865678678E+02  0.10566000000E+00 0. -1.
         13    1    1    0    0    0  0.51056914054E+00 -0.85596772898E+01  0.56873474801E+00  0.85943806875E+01  0.10566000000E+00 0.  1.
         22    1    1    0    0    0 -0.83141669419E+01 -0.89320578346E+01 -0.56231110065E+02  0.57539940634E+02  0.00000000000E+00 0. -1.
</event>
<event>
 4    1  0.9957587E-003  0.9118800E+02  0.7818608E-02  0.1130116E+00
         25   -1    0    0    0    0  0.00000000000E+00  0.00000000000E+00  0.99999998245E-14  0.12500000000E+03  0.12500000000E+03 0.  0.
        -13    1    1    0    0    0 -0.67473777143E+01 -0.82534396039E+00 -0.11433191663E+01  0.68939568772E+01  0.10566000000E+00 0. -1.
         13    1    1    0    0    0 -0.54220137786E+02 -0.64413793218E+01 -0.10528808986E+02  0.55607388824E+02  0.10566000000E+00 0. -1.
         22    1    1    0    0    0  0.60967515501E+02  0.72667232822E+01  0.11672128152E+02  0.62498654299E+02  0.00000000000E+00 0. -1.
</event>
<event>
 4    1  0.9957587E-003  0.9118800E+02  0.7818608E-02  0.1130116E+00
         25   -1    0    0    0    0  0.00000000000E+00  0.00000000000E+00  0.99999998245E-14  0.12500000000E+03  0.12500000000E+03 0.  0.
        -13    1    1    0    0    0 -0.39115002234E+02  0.30074616894E+02 -0.30364226288E+02  0.57934992735E+02  0.10566000000E+00 0.  1.
         13    1    1    0    0    0 -0.53639103023E+01  0.40904831529E+00  0.44656950369E+00  0.53990223757E+01  0.10566000000E+00 0. -1.
         22    1    1    0    0    0  0.44478912536E+02 -0.30483665209E+02  0.29917656784E+02  0.61665984890E+02  0.00000000000E+00 0.  1.
</event>
<event>
 4    1  0.9957587E-003  0.9118800E+02  0.7818608E-02  0.1130116E+00
         25   -1    0    0    0    0  0.00000000000E+00  0.00000000000E+00  0.99999998245E-14  0.12500000000E+03  0.12500000000E+03 0.  0.
        -13    1    1    0    0    0  0.18453779531E+02 -0.25579937607E+02  0.14875653270E+02  0.34873649239E+02  0.10566000000E+00 0.  1.
         13    1    1    0    0    0  0.14654738305E+02 -0.20285204966E+02  0.11703226844E+02  0.27626573764E+02  0.10566000000E+00 0.  1.
         22    1    1    0    0    0 -0.33108517837E+02  0.45865142573E+02 -0.26578880114E+02  0.62499776998E+02  0.00000000000E+00 0.  1.
</event>
<event>
 4    1  0.9957587E-003  0.9118800E+02  0.7818608E-02  0.1130116E+00
         25   -1    0    0    0    0  0.00000000000E+00  0.00000000000E+00  0.99999998245E-14  0.12500000000E+03  0.12500000000E+03 0.  0.
        -13    1    1    0    0    0 -0.80879239921E+01 -0.46533826713E+02 -0.28902394719E+02  0.55373018046E+02  0.10566000000E+00 0. -1.
         13    1    1    0    0    0 -0.64832033716E+01 -0.59412045821E+01  0.53332743135E+01  0.10285174611E+02  0.10566000000E+00 0.  1.
         22    1    1    0    0    0  0.14571127364E+02  0.52475031295E+02  0.23569120405E+02  0.59341807343E+02  0.00000000000E+00 0. -1.
</event>
<event>
 4    1  0.9957587E-003  0.9118800E+02  0.7818608E-02  0.1130116E+00
         25   -1    0    0    0    0  0.00000000000E+00  0.00000000000E+00  0.99999998245E-14  0.12500000000E+03  0.12500000000E+03 0.  0.
        -13    1    1    0    0    0  0.19028345047E+02 -0.13233486506E+02  0.22392501333E+02  0.32227912752E+02  0.10566000000E+00 0.  1.
         13    1    1    0    0    0  0.17863071820E+02 -0.12168720035E+02  0.21195667050E+02  0.30272669982E+02  0.10566000000E+00 0.  1.
         22    1    1    0    0    0 -0.36891416868E+02  0.25402206540E+02 -0.43588168383E+02  0.62499417266E+02  0.00000000000E+00 0.  1.
</event>
<event>
 4    1  0.9957587E-003  0.9118800E+02  0.7818608E-02  0.1130116E+00
         25   -1    0    0    0    0  0.00000000000E+00  0.00000000000E+00  0.99999998245E-14  0.12500000000E+03  0.12500000000E+03 0.  0.
        -13    1    1    0    0    0  0.23968050367E+02  0.35572889312E+02 -0.46549495364E+00  0.42896686841E+02  0.10566000000E+00 0. -1.
         13    1    1    0    0    0  0.19266502086E+02  0.77846303980E+01  0.18094383922E+01  0.20858662574E+02  0.10566000000E+00 0.  1.
         22    1    1    0    0    0 -0.43234552453E+02 -0.43357519710E+02 -0.13439434385E+01  0.61244650584E+02  0.00000000000E+00 0. -1.
</event>
<event>
 4    1  0.9957587E-003  0.9118800E+02  0.7818608E-02  0.1130116E+00
         25   -1    0    0    0    0  0.00000000000E+00  0.00000000000E+00  0.99999998245E-14  0.12500000000E+03  0.12500000000E+03 0.  0.
        -13    1    1    0    0    0  0.11289755018E+02 -0.83233737643E+01  0.27715009656E+01  0.14297884487E+02  0.10566000000E+00 0.  1.
         13    1    1    0    0    0  0.39170560723E+02 -0.27216335400E+02  0.70169084345E+01  0.48211097353E+02  0.10566000000E+00 0. -1.
         22    1    1    0    0    0 -0.50460315740E+02  0.35539709164E+02 -0.97884094001E+01  0.62491018160E+02  0.00000000000E+00 0. -1.
</event>
<event>
 4    1  0.9957587E-003  0.9118800E+02  0.7818608E-02  0.1130116E+00
         25   -1    0    0    0    0  0.00000000000E+00  0.00000000000E+00  0.99999998245E-14  0.12500000000E+03  0.12500000000E+03 0.  0.
        -13    1    1    0    0    0  0.41421782862E+01  0.51931049706E+01 -0.97787601070E+00  0.67151608855E+01  0.10566000000E+00 0. -1.
         13    1    1    0    0    0  0.36973190830E+02  0.41345962949E+02 -0.60205560952E+01  0.55792147763E+02  0.10566000000E+00 0. -1.
         22    1    1    0    0    0 -0.41115369116E+02 -0.46539067919E+02  0.69984321059E+01  0.62492691351E+02  0.00000000000E+00 0. -1.
</event>
<event>
 4    1  0.9957587E-003  0.9118800E+02  0.7818608E-02  0.1130116E+00
         25   -1    0    0    0    0  0.00000000000E+00  0.00000000000E+00  0.99999998245E-14  0.12500000000E+03  0.12500000000E+03 0.  0.
        -13    1    1    0    0    0 -0.28002957168E+02 -0.70446403419E+01 -0.46449614657E+02  0.54693422214E+02  0.10566000000E+00 0.  1.
         13    1    1    0    0    0 -0.63824002268E+01 -0.25207501446E+01 -0.44214212262E+01  0.81639049260E+01  0.10566000000E+00 0. -1.
         22    1    1    0    0    0  0.34385357395E+02  0.95653904865E+01  0.50871035883E+02  0.62142672860E+02  0.00000000000E+00 0.  1.
</event>
<event>
 4    1  0.9957587E-003  0.9118800E+02  0.7818608E-02  0.1130116E+00
         25   -1    0    0    0    0  0.00000000000E+00  0.00000000000E+00  0.99999998245E-14  0.12500000000E+03  0.12500000000E+03 0.  0.
        -13    1    1    0    0    0 -0.21324866117E+02  0.11473322804E+02  0.15058537132E+02  0.28515921091E+02  0.10566000000E+00 0.  1.
         13    1    1    0    0    0 -0.23554222770E+02  0.13094110430E+02  0.20768873911E+02  0.34023733272E+02  0.10566000000E+00 0. -1.
         22    1    1    0    0    0  0.44879088887E+02 -0.24567433234E+02 -0.35827411043E+02  0.62460345637E+02  0.00000000000E+00 0.  1.
</event>
<event>
 4    1  0.9957587E-003  0.9118800E+02  0.7818608E-02  0.1130116E+00
         25   -1    0    0    0    0  0.00000000000E+00  0.00000000000E+00  0.99999998245E-14  0.12500000000E+03  0.12500000000E+03 0.  0.
        -13    1    1    0    0    0  0.25583115838E+01 -0.17713409830E+02 -0.12259306637E+02  0.21693584518E+02  0.10566000000E+00 0. -1.
         13    1    1    0    0    0  0.58210765327E+01 -0.32677035849E+02 -0.23744989405E+02  0.40810651670E+02  0.10566000000E+00 0.  1.
         22    1    1    0    0    0 -0.83793881165E+01  0.50390445679E+02  0.36004296042E+02  0.62495763812E+02  0.00000000000E+00 0.  1.
</event>
<event>
 4    1  0.9957587E-003  0.9118800E+02  0.7818608E-02  0.1130116E+00
         25   -1    0    0    0    0  0.00000000000E+00  0.00000000000E+00  0.99999998245E-14  0.12500000000E+03  0.12500000000E+03 0.  0.
        -13    1    1    0    0    0  0.33229488432E+01 -0.58476046373E+02 -0.77288327613E+01  0.59078219407E+02  0.10566000000E+00 0.  1.
         13    1    1    0    0    0 -0.20747863705E+01 -0.27168791324E+01  0.29729334911E+01  0.45316297600E+01  0.10566000000E+00 0. -1.
         22    1    1    0    0    0 -0.12481624727E+01  0.61192925505E+02  0.47558992702E+01  0.61390150833E+02  0.00000000000E+00 0.  1.
</event>
<event>
 4    1  0.9957587E-003  0.9118800E+02  0.7818608E-02  0.1130116E+00
         25   -1    0    0    0    0  0.00000000000E+00  0.00000000000E+00  0.99999998245E-14  0.12500000000E+03  0.12500000000E+03 0.  0.
        -13    1    1    0    0    0  0.46283284355E+01 -0.13383948977E+02  0.27394754507E+02  0.30838859461E+02  0.10566000000E+00 0.  1.
         13    1    1    0    0    0  0.46782654458E+01 -0.12329373070E+02  0.28794649151E+02  0.31670847662E+02  0.10566000000E+00 0. -1.
         22    1    1    0    0    0 -0.93065938813E+01  0.25713322048E+02 -0.56189403658E+02  0.62490292877E+02  0.00000000000E+00 0.  1.
</event>
<event>
 4    1  0.9957587E-003  0.9118800E+02  0.7818608E-02  0.1130116E+00
         25   -1    0    0    0    0  0.00000000000E+00  0.00000000000E+00  0.99999998245E-14  0.12500000000E+03  0.12500000000E+03 0.  0.
        -13    1    1    0    0    0  0.52867009100E+01  0.10450653299E+02 -0.94406820399E+01  0.15043370710E+02  0.10566000000E+00 0.  1.
         13    1    1    0    0    0  0.17343055221E+02  0.33523131791E+02 -0.28771081207E+02  0.47459121435E+02  0.10566000000E+00 0.  1.
         22    1    1    0    0    0 -0.22629756131E+02 -0.43973785091E+02  0.38211763247E+02  0.62497507856E+02  0.00000000000E+00 0.  1.
</event>
<event>
 4    1  0.9957587E-003  0.9118800E+02  0.7818608E-02  0.1130116E+00
         25   -1    0    0    0    0  0.00000000000E+00  0.00000000000E+00  0.99999998245E-14  0.12500000000E+03  0.12500000000E+03 0.  0.
        -13    1    1    0    0    0  0.96307053924E+01  0.69700444685E+01  0.11513420154E+02  0.16549985315E+02  0.10566000000E+00 0. -1.
         13    1    1    0    0    0  0.26672099560E+02  0.19240834619E+02  0.32090612752E+02  0.45950290560E+02  0.10566000000E+00 0. -1.
         22    1    1    0    0    0 -0.36302804952E+02 -0.26210879088E+02 -0.43604032906E+02  0.62499724124E+02  0.00000000000E+00 0. -1.
</event>
<event>
 4    1  0.9957587E-003  0.9118800E+02  0.7818608E-02  0.1130116E+00
         25   -1    0    0    0    0  0.00000000000E+00  0.00000000000E+00  0.99999998245E-14  0.12500000000E+03  0.12500000000E+03 0.  0.
        -13    1    1    0    0    0  0.87782849108E+01 -0.87308710092E+00  0.59710684474E+01  0.10652952150E+02  0.10566000000E+00 0. -1.
         13    1    1    0    0    0  0.35632561724E+02 -0.13458199540E+02  0.35387539766E+02  0.51991265849E+02  0.10566000000E+00 0.  1.
         22    1    1    0    0    0 -0.44410846635E+02  0.14331286641E+02 -0.41358608214E+02  0.62355782001E+02  0.00000000000E+00 0.  1.
</event>
<event>
 4    1  0.9957587E-003  0.9118800E+02  0.7818608E-02  0.1130116E+00
         25   -1    0    0    0    0  0.00000000000E+00  0.00000000000E+00  0.99999998245E-14  0.12500000000E+03  0.12500000000E+03 0.  0.
        -13    1    1    0    0    0 -0.43257004191E+02 -0.35508840568E+01 -0.83865802759E+00  0.43410732549E+02  0.10566000000E+00 0.  1.
         13    1    1    0    0    0 -0.88983482558E+01 -0.21673853371E+02 -0.24722406547E+01  0.23559704147E+02  0.10566000000E+00 0. -1.
         22    1    1    0    0    0  0.52155352446E+02  0.25224737428E+02  0.33108986823E+01  0.58029563303E+02  0.00000000000E+00 0. -1.
</event>
<event>
 4    1  0.9957587E-003  0.9118800E+02  0.7818608E-02  0.1130116E+00
         25   -1    0    0    0    0  0.00000000000E+00  0.00000000000E+00  0.99999998245E-14  0.12500000000E+03  0.12500000000E+03 0.  0.
        -13    1    1    0    0    0  0.62209195147E+00 -0.44994761046E-01 -0.17366263179E+02  0.17377781325E+02  0.10566000000E+00 0. -1.
         13    1    1    0    0    0 -0.29580435198E+02  0.26142468725E+02  0.44982409035E+02  0.59848634940E+02  0.10566000000E+00 0.  1.
         22    1    1    0    0    0  0.28958343247E+02 -0.26097473964E+02 -0.27616145856E+02  0.47773583735E+02  0.00000000000E+00 0.  1.
</event>
<event>
 4    1  0.9957587E-003  0.9118800E+02  0.7818608E-02  0.1130116E+00
         25   -1    0    0    0    0  0.00000000000E+00  0.00000000000E+00  0.99999998245E-14  0.12500000000E+03  0.12500000000E+03 0.  0.
        -13    1    1    0    0    0  0.26805100437E+02 -0.35108143811E+01 -0.42229074061E+02  0.50141251352E+02  0.10566000000E+00 0.  1.
         13    1    1    0    0    0  0.91176858270E+01 -0.52444280436E+01 -0.74793693790E+01  0.12906910966E+02  0.10566000000E+00 0. -1.
         22    1    1    0    0    0 -0.35922786264E+02  0.87552424247E+01  0.49708443440E+02  0.61951837682E+02  0.00000000000E+00 0.  1.
</event>
<event>
 4    1  0.9957587E-003  0.9118800E+02  0.7818608E-02  0.1130116E+00
         25   -1    0    0    0    0  0.00000000000E+00  0.00000000000E+00  0.99999998245E-14  0.12500000000E+03  0.12500000000E+03 0.  0.
        -13    1    1    0    0    0 -0.14739872280E+02 -0.13475531290E+02 -0.96858610488E+01  0.22196415176E+02  0.10566000000E+00 0. -1.
         13    1    1    0    0    0 -0.26604557793E+02 -0.24433218191E+02 -0.17877880133E+02  0.40304024720E+02  0.10566000000E+00 0. -1.
         22    1    1    0    0    0  0.41344430073E+02  0.37908749482E+02  0.27563741181E+02  0.62499560104E+02  0.00000000000E+00 0. -1.
</event>
<event>
 4    1  0.9957587E-003  0.9118800E+02  0.7818608E-02  0.1130116E+00
         25   -1    0    0    0    0  0.00000000000E+00  0.00000000000E+00  0.99999998245E-14  0.12500000000E+03  0.12500000000E+03 0.  0.
        -13    1    1    0    0    0 -0.21007576148E+02  0.17104103644E+02  0.94031589717E+00  0.27106530120E+02  0.10566000000E+00 0. -1.
         13    1    1    0    0    0  0.16037477843E+02  0.26526312084E+02 -0.31655448328E+02  0.44304903805E+02  0.10566000000E+00 0.  1.
         22    1    1    0    0    0  0.49700983054E+01 -0.43630415728E+02  0.30715132431E+02  0.53588566075E+02  0.00000000000E+00 0.  1.
</event>
<event>
 4    1  0.9957587E-003  0.9118800E+02  0.7818608E-02  0.1130116E+00
         25   -1    0    0    0    0  0.00000000000E+00  0.00000000000E+00  0.99999998245E-14  0.12500000000E+03  0.12500000000E+03 0.  0.
        -13    1    1    0    0    0  0.16019238040E+00 -0.10781201555E+02  0.77142045962E+01  0.13258208218E+02  0.10566000000E+00 0.  1.
         13    1    1    0    0    0 -0.25429783749E+01 -0.37686462167E+02  0.31632410107E+02  0.49268211891E+02  0.10566000000E+00 0. -1.
         22    1    1    0    0    0  0.23827859945E+01  0.48467663723E+02 -0.39346614703E+02  0.62473579891E+02  0.00000000000E+00 0. -1.
</event>
<event>
 4    1  0.9957587E-003  0.9118800E+02  0.7818608E-02  0.1130116E+00
         25   -1    0    0    0    0  0.00000000000E+00  0.00000000000E+00  0.99999998245E-14  0.12500000000E+03  0.12500000000E+03 0.  0.
        -13    1    1    0    0    0  0.15080578348E+01  0.10720335225E+02 -0.14075583250E+02  0.17757619030E+02  0.10566000000E+00 0.  1.
         13    1    1    0    0    0  0.50473098899E+00  0.31256590248E+02 -0.32099462421E+02  0.44806426314E+02  0.10566000000E+00 0. -1.
         22    1    1    0    0    0 -0.20127888238E+01 -0.41976925473E+02  0.46175045671E+02  0.62435954655E+02  0.00000000000E+00 0. -1.
</event>
<event>
 4    1  0.9957587E-003  0.9118800E+02  0.7818608E-02  0.1130116E+00
         25   -1    0    0    0    0  0.00000000000E+00  0.00000000000E+00  0.99999998245E-14  0.12500000000E+03  0.12500000000E+03 0.  0.
        -13    1    1    0    0    0  0.14966470607E+02 -0.26742068319E+02 -0.23078611975E+02  0.38363614990E+02  0.10566000000E+00 0. -1.
         13    1    1    0    0    0  0.17413608508E+02 -0.89907660662E+01 -0.15415844325E+02  0.24934455198E+02  0.10566000000E+00 0.  1.
         22    1    1    0    0    0 -0.32380079115E+02  0.35732834385E+02  0.38494456300E+02  0.61701929812E+02  0.00000000000E+00 0. -1.
</event>
<event>
 4    1  0.9957587E-003  0.9118800E+02  0.7818608E-02  0.1130116E+00
         25   -1    0    0    0    0  0.00000000000E+00  0.00000000000E+00  0.99999998245E-14  0.12500000000E+03  0.12500000000E+03 0.  0.
        -13    1    1    0    0    0  0.23680778091E+01  0.40965755254E+02 -0.10186213348E+02  0.42279675998E+02  0.10566000000E+00 0.  1.
         13    1    1    0    0    0  0.14448598470E+00  0.20208829080E+02 -0.19481231404E+01  0.20303300145E+02  0.10566000000E+00 0. -1.
         22    1    1    0    0    0 -0.25125637938E+01 -0.61174584334E+02  0.12134336489E+02  0.62417023858E+02  0.00000000000E+00 0.  1.
</event>
<event>
 4    1  0.9957587E-003  0.9118800E+02  0.7818608E-02  0.1130116E+00
         25   -1    0    0    0    0  0.00000000000E+00  0.00000000000E+00  0.99999998245E-14  0.12500000000E+03  0.12500000000E+03 0.  0.
        -13    1    1    0    0    0 -0.61072979264E+02 -0.66873666081E+01 -0.69855851099E+01  0.61833965033E+02  0.10566000000E+00 0.  1.
         13    1    1    0    0    0  0.47716948894E-01 -0.10251776651E+01 -0.59337772240E+00  0.11901795282E+01  0.10566000000E+00 0. -1.
         22    1    1    0    0    0  0.61025262315E+02  0.77125442733E+01  0.75789628323E+01  0.61975855439E+02  0.00000000000E+00 0.  1.
</event>
<event>
 4    1  0.9957587E-003  0.9118800E+02  0.7818608E-02  0.1130116E+00
         25   -1    0    0    0    0  0.00000000000E+00  0.00000000000E+00  0.99999998245E-14  0.12500000000E+03  0.12500000000E+03 0.  0.
        -13    1    1    0    0    0  0.22527446864E+02  0.51195960262E+01 -0.64765932953E+01  0.23992781215E+02  0.10566000000E+00 0.  1.
         13    1    1    0    0    0  0.36251273749E+02  0.78596760376E+01 -0.10339571079E+02  0.38507755712E+02  0.10566000000E+00 0.  1.
         22    1    1    0    0    0 -0.58778720613E+02 -0.12979272064E+02  0.16816164374E+02  0.62499463073E+02  0.00000000000E+00 0.  1.
</event>
<event>
 4    1  0.9957587E-003  0.9118800E+02  0.7818608E-02  0.1130116E+00
         25   -1    0    0    0    0  0.00000000000E+00  0.00000000000E+00  0.99999998245E-14  0.12500000000E+03  0.12500000000E+03 0.  0.
        -13    1    1    0    0    0  0.41311568952E+02  0.49535719049E+01  0.72901564003E+01  0.42241462430E+02  0.10566000000E+00 0.  1.
         13    1    1    0    0    0  0.19922780848E+02  0.24849077031E+01  0.27412204640E+01  0.20263697014E+02  0.10566000000E+00 0. -1.
         22    1    1    0    0    0 -0.61234349800E+02 -0.74384796080E+01 -0.10031376864E+02  0.62494840556E+02  0.00000000000E+00 0.  1.
</event>
<event>
 4    1  0.9957587E-003  0.9118800E+02  0.7818608E-02  0.1130116E+00
         25   -1    0    0    0    0  0.00000000000E+00  0.00000000000E+00  0.99999998245E-14  0.12500000000E+03  0.12500000000E+03 0.  0.
        -13    1    1    0    0    0  0.16956659178E+02 -0.10663009533E+02  0.13934671756E+02  0.24401112757E+02  0.10566000000E+00 0. -1.
         13    1    1    0    0    0  0.33679164519E+02 -0.20793756277E+02 -0.96559820420E+00  0.39593054526E+02  0.10566000000E+00 0.  1.
         22    1    1    0    0    0 -0.50635823697E+02  0.31456765810E+02 -0.12969073552E+02  0.61005832717E+02  0.00000000000E+00 0. -1.
</event>
<event>
 4    1  0.9957587E-003  0.9118800E+02  0.7818608E-02  0.1130116E+00
         25   -1    0    0    0    0  0.00000000000E+00  0.00000000000E+00  0.99999998245E-14  0.12500000000E+03  0.12500000000E+03 0.  0.
        -13    1    1    0    0    0 -0.16564834913E+02 -0.12578698388E+02  0.42500333173E+02  0.47317088802E+02  0.10566000000E+00 0. -1.
         13    1    1    0    0    0 -0.52082888895E+01 -0.39152127423E+01  0.13714005085E+02  0.15183552400E+02  0.10566000000E+00 0. -1.
         22    1    1    0    0    0  0.21773123803E+02  0.16493911131E+02 -0.56214338257E+02  0.62499358799E+02  0.00000000000E+00 0. -1.
</event>
<event>
 4    1  0.9957587E-003  0.9118800E+02  0.7818608E-02  0.1130116E+00
         25   -1    0    0    0    0  0.00000000000E+00  0.00000000000E+00  0.99999998245E-14  0.12500000000E+03  0.12500000000E+03 0.  0.
        -13    1    1    0    0    0 -0.43609585386E+02  0.40627029663E+02  0.63234730448E+01  0.59936207356E+02  0.10566000000E+00 0.  1.
         13    1    1    0    0    0 -0.10513664269E+01  0.23919018013E+01 -0.10914562963E+01  0.28335501535E+01  0.10566000000E+00 0. -1.
         22    1    1    0    0    0  0.44660951813E+02 -0.43018931464E+02 -0.52320167485E+01  0.62230242491E+02  0.00000000000E+00 0.  1.
</event>
<event>
 4    1  0.9957587E-003  0.9118800E+02  0.7818608E-02  0.1130116E+00
         25   -1    0    0    0    0  0.00000000000E+00  0.00000000000E+00  0.99999998245E-14  0.12500000000E+03  0.12500000000E+03 0.  0.
        -13    1    1    0    0    0 -0.55177252379E+01 -0.14344930241E+02  0.30752142720E+02  0.34379176274E+02  0.10566000000E+00 0.  1.
         13    1    1    0    0    0 -0.11049435485E+02 -0.16242256800E+02  0.20684143557E+02  0.28526231599E+02  0.10566000000E+00 0. -1.
         22    1    1    0    0    0  0.16567160723E+02  0.30587187041E+02 -0.51436286276E+02  0.62094592127E+02  0.00000000000E+00 0. -1.
</event>
<event>
 4    1  0.9957587E-003  0.9118800E+02  0.7818608E-02  0.1130116E+00
         25   -1    0    0    0    0  0.00000000000E+00  0.00000000000E+00  0.99999998245E-14  0.12500000000E+03  0.12500000000E+03 0.  0.
        -13    1    1    0    0    0 -0.21631621125E+02 -0.90929971868E+01  0.27670508575E+02  0.36280543534E+02  0.10566000000E+00 0.  1.
         13    1    1    0    0    0 -0.15527119532E+02 -0.64702392011E+01  0.20112508414E+02  0.26219832094E+02  0.10566000000E+00 0. -1.
         22    1    1    0    0    0  0.37158740657E+02  0.15563236388E+02 -0.47783016989E+02  0.62499624372E+02  0.00000000000E+00 0.  1.
</event>
<event>
 4    1  0.9957587E-003  0.9118800E+02  0.7818608E-02  0.1130116E+00
         25   -1    0    0    0    0  0.00000000000E+00  0.00000000000E+00  0.99999998245E-14  0.12500000000E+03  0.12500000000E+03 0.  0.
        -13    1    1    0    0    0  0.13201860113E+02  0.13162666650E+02  0.14123324544E+02  0.23388551986E+02  0.10566000000E+00 0.  1.
         13    1    1    0    0    0  0.22524437637E+02  0.22017221433E+02  0.23187774265E+02  0.39112560258E+02  0.10566000000E+00 0. -1.
         22    1    1    0    0    0 -0.35726297750E+02 -0.35179888083E+02 -0.37311098809E+02  0.62498887757E+02  0.00000000000E+00 0. -1.
</event>
<event>
 4    1  0.9957587E-003  0.9118800E+02  0.7818608E-02  0.1130116E+00
         25   -1    0    0    0    0  0.00000000000E+00  0.00000000000E+00  0.99999998245E-14  0.12500000000E+03  0.12500000000E+03 0.  0.
        -13    1    1    0    0    0 -0.11418510852E+02  0.21368831513E+01 -0.93593138490E+01  0.14918330317E+02  0.10566000000E+00 0. -1.
         13    1    1    0    0    0 -0.28547113807E+02  0.16691537798E+02 -0.34527877309E+02  0.47809315162E+02  0.10566000000E+00 0.  1.
         22    1    1    0    0    0  0.39965624659E+02 -0.18828420950E+02  0.43887191158E+02  0.62272354521E+02  0.00000000000E+00 0. -1.
</event>
<event>
 4    1  0.9957587E-003  0.9118800E+02  0.7818608E-02  0.1130116E+00
         25   -1    0    0    0    0  0.00000000000E+00  0.00000000000E+00  0.99999998245E-14  0.12500000000E+03  0.12500000000E+03 0.  0.
        -13    1    1    0    0    0 -0.54725937067E+01  0.39723739102E+02  0.22436624624E+02  0.45949298348E+02  0.10566000000E+00 0.  1.
         13    1    1    0    0    0 -0.25119890421E+01  0.14197537679E+02  0.81335726646E+01  0.16554344850E+02  0.10566000000E+00 0. -1.
         22    1    1    0    0    0  0.79845827488E+01 -0.53921276780E+02 -0.30570197289E+02  0.62496356802E+02  0.00000000000E+00 0.  1.
</event>
<event>
 4    1  0.9957587E-003  0.9118800E+02  0.7818608E-02  0.1130116E+00
         25   -1    0    0    0    0  0.00000000000E+00  0.00000000000E+00  0.99999998245E-14  0.12500000000E+03  0.12500000000E+03 0.  0.
        -13    1    1    0    0    0 -0.31537553033E+02  0.27353587805E+02 -0.21705917907E+02  0.47053098233E+02  0.10566000000E+00 0.  1.
         13    1    1    0    0    0 -0.10331453132E+02  0.90880005216E+01 -0.70200527129E+01  0.15447426369E+02  0.10566000000E+00 0.  1.
         22    1    1    0    0    0  0.41869006165E+02 -0.36441588327E+02  0.28725970620E+02  0.62499475398E+02  0.00000000000E+00 0.  1.
</event>
<event>
 4    1  0.9957587E-003  0.9118800E+02  0.7818608E-02  0.1130116E+00
         25   -1    0    0    0    0  0.00000000000E+00  0.00000000000E+00  0.99999998245E-14  0.12500000000E+03  0.12500000000E+03 0.  0.
        -13    1    1    0    0    0  0.32213483856E+01 -0.17210129228E+02 -0.29157751968E+02  0.34011046696E+02  0.10566000000E+00 0.  1.
         13    1    1    0    0    0  0.30751869767E+01 -0.13068083419E+02 -0.25140821765E+02  0.28500941428E+02  0.10566000000E+00 0. -1.
         22    1    1    0    0    0 -0.62965353622E+01  0.30278212648E+02  0.54298573734E+02  0.62488011876E+02  0.00000000000E+00 0. -1.
</event>
<event>
 4    1  0.9957587E-003  0.9118800E+02  0.7818608E-02  0.1130116E+00
         25   -1    0    0    0    0  0.00000000000E+00  0.00000000000E+00  0.99999998245E-14  0.12500000000E+03  0.12500000000E+03 0.  0.
        -13    1    1    0    0    0 -0.28355957009E+02 -0.80268348478E+01  0.51931271108E+02  0.59710622661E+02  0.10566000000E+00 0. -1.
         13    1    1    0    0    0  0.70907547123E-01 -0.58632614605E+00  0.29175888956E+01  0.29786398287E+01  0.10566000000E+00 0.  1.
         22    1    1    0    0    0  0.28285049462E+02  0.86131609938E+01 -0.54848860004E+02  0.62310737511E+02  0.00000000000E+00 0. -1.
</event>
<event>
 4    1  0.9957587E-003  0.9118800E+02  0.7818608E-02  0.1130116E+00
         25   -1    0    0    0    0  0.00000000000E+00  0.00000000000E+00  0.99999998245E-14  0.12500000000E+03  0.12500000000E+03 0.  0.
        -13    1    1    0    0    0 -0.15059775531E+02 -0.77601258951E+01  0.41887556152E+01  0.17452026546E+02  0.10566000000E+00 0.  1.
         13    1    1    0    0    0 -0.38801470926E+02 -0.19879865844E+02  0.11340564222E+02  0.45048671155E+02  0.10566000000E+00 0.  1.
         22    1    1    0    0    0  0.53861246456E+02  0.27639991739E+02 -0.15529319838E+02  0.62499302298E+02  0.00000000000E+00 0.  1.
</event>
<event>
 4    1  0.9957587E-003  0.9118800E+02  0.7818608E-02  0.1130116E+00
         25   -1    0    0    0    0  0.00000000000E+00  0.00000000000E+00  0.99999998245E-14  0.12500000000E+03  0.12500000000E+03 0.  0.
        -13    1    1    0    0    0 -0.15711121121E+02  0.92287051705E+01 -0.68587043690E+01  0.19469497057E+02  0.10566000000E+00 0.  1.
         13    1    1    0    0    0 -0.41082125263E+02  0.98755868532E+01 -0.97256835836E+01  0.43357448230E+02  0.10566000000E+00 0. -1.
         22    1    1    0    0    0  0.56793246384E+02 -0.19104292024E+02  0.16584387953E+02  0.62173054713E+02  0.00000000000E+00 0.  1.
</event>
<event>
 4    1  0.9957587E-003  0.9118800E+02  0.7818608E-02  0.1130116E+00
         25   -1    0    0    0    0  0.00000000000E+00  0.00000000000E+00  0.99999998245E-14  0.12500000000E+03  0.12500000000E+03 0.  0.
        -13    1    1    0    0    0  0.11126790729E+02 -0.32546235430E+02 -0.15414277794E+02  0.37691829837E+02  0.10566000000E+00 0.  1.
         13    1    1    0    0    0  0.15415638620E+02 -0.62044871737E-01 -0.24752300109E+02  0.29160474762E+02  0.10566000000E+00 0. -1.
         22    1    1    0    0    0 -0.26542429349E+02  0.32608280301E+02  0.40166577903E+02  0.58147695400E+02  0.00000000000E+00 0.  1.
</event>
<event>
 4    1  0.9957587E-003  0.9118800E+02  0.7818608E-02  0.1130116E+00
         25   -1    0    0    0    0  0.00000000000E+00  0.00000000000E+00  0.99999998245E-14  0.12500000000E+03  0.12500000000E+03 0.  0.
        -13    1    1    0    0    0  0.17109550271E+02 -0.48810493470E+02 -0.27980922792E+02  0.58805987684E+02  0.10566000000E+00 0.  1.
         13    1    1    0    0    0  0.90137786493E+00 -0.30439760227E+01 -0.18934844264E+01  0.36979344762E+01  0.10566000000E+00 0. -1.
         22    1    1    0    0    0 -0.18010928135E+02  0.51854469492E+02  0.29874407219E+02  0.62496077839E+02  0.00000000000E+00 0.  1.
</event>
<event>
 4    1  0.9957587E-003  0.9118800E+02  0.7818608E-02  0.1130116E+00
         25   -1    0    0    0    0  0.00000000000E+00  0.00000000000E+00  0.99999998245E-14  0.12500000000E+03  0.12500000000E+03 0.  0.
        -13    1    1    0    0    0  0.57032441543E+00 -0.22516057389E+00  0.17628917605E+01  0.18694701436E+01  0.10566000000E+00 0.  1.
         13    1    1    0    0    0  0.70754642975E+01 -0.13335190167E+02  0.58744188629E+02  0.60652950081E+02  0.10566000000E+00 0. -1.
         22    1    1    0    0    0 -0.76457887129E+01  0.13560350741E+02 -0.60507080390E+02  0.62477579775E+02  0.00000000000E+00 0. -1.
</event>
<event>
 4    1  0.9957587E-003  0.9118800E+02  0.7818608E-02  0.1130116E+00
         25   -1    0    0    0    0  0.00000000000E+00  0.00000000000E+00  0.99999998245E-14  0.12500000000E+03  0.12500000000E+03 0.  0.
        -13    1    1    0    0    0 -0.17793008805E+02  0.34988096514E+02 -0.17936425909E+02  0.43156512816E+02  0.10566000000E+00 0. -1.
         13    1    1    0    0    0 -0.83042510421E+01  0.15498206543E+02 -0.80660873949E+01  0.19344971474E+02  0.10566000000E+00 0. -1.
         22    1    1    0    0    0  0.26097259847E+02 -0.50486303057E+02  0.26002513304E+02  0.62498515710E+02  0.00000000000E+00 0. -1.
</event>
<event>
 4    1  0.9957587E-003  0.9118800E+02  0.7818608E-02  0.1130116E+00
         25   -1    0    0    0    0  0.00000000000E+00  0.00000000000E+00  0.99999998245E-14  0.12500000000E+03  0.12500000000E+03 0.  0.
        -13    1    1    0    0    0  0.12368798871E+02 -0.26743269325E+02 -0.25202384993E+02  0.38773199675E+02  0.10566000000E+00 0.  1.
         13    1    1    0    0    0  0.57674606518E+01 -0.16901578336E+02 -0.15657116894E+02  0.23750440545E+02  0.10566000000E+00 0. -1.
         22    1    1    0    0    0 -0.18136259523E+02  0.43644847661E+02  0.40859501887E+02  0.62476359779E+02  0.00000000000E+00 0.  1.
</event>
<event>
 4    1  0.9957587E-003  0.9118800E+02  0.7818608E-02  0.1130116E+00
         25   -1    0    0    0    0  0.00000000000E+00  0.00000000000E+00  0.99999998245E-14  0.12500000000E+03  0.12500000000E+03 0.  0.
        -13    1    1    0    0    0  0.10065996824E+02  0.21637351335E+02 -0.46678426004E+02  0.52425050149E+02  0.10566000000E+00 0.  1.
         13    1    1    0    0    0  0.11405616761E+02  0.70285445461E+01 -0.42139509747E+00  0.13404375032E+02  0.10566000000E+00 0. -1.
         22    1    1    0    0    0 -0.21471613584E+02 -0.28665895881E+02  0.47099821102E+02  0.59170574819E+02  0.00000000000E+00 0.  1.
</event>
<event>
 4    1  0.9957587E-003  0.9118800E+02  0.7818608E-02  0.1130116E+00
         25   -1    0    0    0    0  0.00000000000E+00  0.00000000000E+00  0.99999998245E-14  0.12500000000E+03  0.12500000000E+03 0.  0.
        -13    1    1    0    0    0  0.21772726142E+02  0.76924694061E+01 -0.27216112418E+02  0.35692487002E+02  0.10566000000E+00 0.  1.
         13    1    1    0    0    0  0.15808915380E+02  0.56296235516E+01 -0.20908851674E+02  0.26810552199E+02  0.10566000000E+00 0. -1.
         22    1    1    0    0    0 -0.37581641522E+02 -0.13322092958E+02  0.48124964092E+02  0.62496960799E+02  0.00000000000E+00 0.  1.
</event>
<event>
 4    1  0.9957587E-003  0.9118800E+02  0.7818608E-02  0.1130116E+00
         25   -1    0    0    0    0  0.00000000000E+00  0.00000000000E+00  0.99999998245E-14  0.12500000000E+03  0.12500000000E+03 0.  0.
        -13    1    1    0    0    0  0.19807131840E+02  0.51642596075E+02  0.28194114558E+02  0.62082199227E+02  0.10566000000E+00 0. -1.
         13    1    1    0    0    0  0.36086597630E+00  0.30453840024E+00 -0.42575851533E-01  0.48574131881E+00  0.10566000000E+00 0.  1.
         22    1    1    0    0    0 -0.20167997816E+02 -0.51947134475E+02 -0.28151538707E+02  0.62432059454E+02  0.00000000000E+00 0. -1.
</event>
<event>
 4    1  0.9957587E-003  0.9118800E+02  0.7818608E-02  0.1130116E+00
         25   -1    0    0    0    0  0.00000000000E+00  0.00000000000E+00  0.99999998245E-14  0.12500000000E+03  0.12500000000E+03 0.  0.
        -13    1    1    0    0    0 -0.26485794450E+02  0.19076741541E+02 -0.42085966399E+02  0.53260295786E+02  0.10566000000E+00 0.  1.
         13    1    1    0    0    0 -0.48783289331E+01 -0.38569597911E+01 -0.83598437867E+01  0.10419807301E+02  0.10566000000E+00 0. -1.
         22    1    1    0    0    0  0.31364123383E+02 -0.15219781750E+02  0.50445810186E+02  0.61319896913E+02  0.00000000000E+00 0.  1.
</event>
<event>
 4    1  0.9957587E-003  0.9118800E+02  0.7818608E-02  0.1130116E+00
         25   -1    0    0    0    0  0.00000000000E+00  0.00000000000E+00  0.99999998245E-14  0.12500000000E+03  0.12500000000E+03 0.  0.
        -13    1    1    0    0    0 -0.30155460325E+02  0.48822652013E+02  0.19813954618E+02  0.60709201104E+02  0.10566000000E+00 0.  1.
         13    1    1    0    0    0 -0.73560607200E+00  0.14081568128E+01  0.85095443859E+00  0.18053557529E+01  0.10566000000E+00 0.  1.
         22    1    1    0    0    0  0.30891066397E+02 -0.50230808826E+02 -0.20664909057E+02  0.62485443143E+02  0.00000000000E+00 0.  1.
</event>
<event>
 4    1  0.9957587E-003  0.9118800E+02  0.7818608E-02  0.1130116E+00
         25   -1    0    0    0    0  0.00000000000E+00  0.00000000000E+00  0.99999998245E-14  0.12500000000E+03  0.12500000000E+03 0.  0.
        -13    1    1    0    0    0 -0.50404573578E+02 -0.17593177124E+02 -0.19746780076E+02  0.56921765664E+02  0.10566000000E+00 0. -1.
         13    1    1    0    0    0 -0.48834474573E+01 -0.17676958400E+01 -0.20361234011E+01  0.55794058995E+01  0.10566000000E+00 0.  1.
         22    1    1    0    0    0  0.55288021036E+02  0.19360872964E+02  0.21782903477E+02  0.62498828436E+02  0.00000000000E+00 0. -1.
</event>
<event>
 4    1  0.9957587E-003  0.9118800E+02  0.7818608E-02  0.1130116E+00
         25   -1    0    0    0    0  0.00000000000E+00  0.00000000000E+00  0.99999998245E-14  0.12500000000E+03  0.12500000000E+03 0.  0.
        -13    1    1    0    0    0  0.15629785521E+02 -0.16536455303E+02 -0.29364804538E+02  0.37148990013E+02  0.10566000000E+00 0. -1.
         13    1    1    0    0    0  0.97661636205E+01 -0.12558565134E+02 -0.19756597904E+02  0.25365918766E+02  0.10566000000E+00 0.  1.
         22    1    1    0    0    0 -0.25395949141E+02  0.29095020437E+02  0.49121402442E+02  0.62485091221E+02  0.00000000000E+00 0. -1.
</event>
<event>
 4    1  0.9957587E-003  0.9118800E+02  0.7818608E-02  0.1130116E+00
         25   -1    0    0    0    0  0.00000000000E+00  0.00000000000E+00  0.99999998245E-14  0.12500000000E+03  0.12500000000E+03 0.  0.
        -13    1    1    0    0    0  0.80779028859E+01 -0.41001140812E+01  0.81417059940E+01  0.12180393715E+02  0.10566000000E+00 0. -1.
         13    1    1    0    0    0  0.31036620453E+02 -0.12545312987E+02  0.37621608214E+02  0.50359242009E+02  0.10566000000E+00 0.  1.
         22    1    1    0    0    0 -0.39114523339E+02  0.16645427068E+02 -0.45763314208E+02  0.62460364277E+02  0.00000000000E+00 0.  1.
</event>
<event>
 4    1  0.9957587E-003  0.9118800E+02  0.7818608E-02  0.1130116E+00
         25   -1    0    0    0    0  0.00000000000E+00  0.00000000000E+00  0.99999998245E-14  0.12500000000E+03  0.12500000000E+03 0.  0.
        -13    1    1    0    0    0  0.25486382208E+02 -0.40956261310E+01  0.17999859918E+02  0.31469603629E+02  0.10566000000E+00 0. -1.
         13    1    1    0    0    0  0.25117325401E+02 -0.50394962776E+01  0.17517836926E+02  0.31034856736E+02  0.10566000000E+00 0.  1.
         22    1    1    0    0    0 -0.50603707609E+02  0.91351224086E+01 -0.35517696844E+02  0.62495539635E+02  0.00000000000E+00 0. -1.
</event>
<event>
 4    1  0.9957587E-003  0.9118800E+02  0.7818608E-02  0.1130116E+00
         25   -1    0    0    0    0  0.00000000000E+00  0.00000000000E+00  0.99999998245E-14  0.12500000000E+03  0.12500000000E+03 0.  0.
        -13    1    1    0    0    0 -0.16048672086E+00  0.89057168993E+01 -0.13702972912E+00  0.89088433964E+01  0.10566000000E+00 0.  1.
         13    1    1    0    0    0  0.58565976607E+01  0.53200945315E+02 -0.33436572064E+01  0.53626779934E+02  0.10566000000E+00 0. -1.
         22    1    1    0    0    0 -0.56961109398E+01 -0.62106662214E+02  0.34806869355E+01  0.62464376670E+02  0.00000000000E+00 0. -1.
</event>
<event>
 4    1  0.9957587E-003  0.9118800E+02  0.7818608E-02  0.1130116E+00
         25   -1    0    0    0    0  0.00000000000E+00  0.00000000000E+00  0.99999998245E-14  0.12500000000E+03  0.12500000000E+03 0.  0.
        -13    1    1    0    0    0  0.27868455679E+02  0.44200745379E+01  0.52697610789E+02  0.59776560856E+02  0.10566000000E+00 0.  1.
         13    1    1    0    0    0  0.15370334110E+01  0.10296905018E+00  0.22555887674E+01  0.27334811240E+01  0.10566000000E+00 0. -1.
         22    1    1    0    0    0 -0.29405489090E+02 -0.45230435881E+01 -0.54953199556E+02  0.62489958020E+02  0.00000000000E+00 0.  1.
</event>
<event>
 4    1  0.9957587E-003  0.9118800E+02  0.7818608E-02  0.1130116E+00
         25   -1    0    0    0    0  0.00000000000E+00  0.00000000000E+00  0.99999998245E-14  0.12500000000E+03  0.12500000000E+03 0.  0.
        -13    1    1    0    0    0  0.50300408739E+02 -0.25803445924E+02  0.18859756472E+02  0.59595725678E+02  0.10566000000E+00 0. -1.
         13    1    1    0    0    0  0.92170635145E+00 -0.25923624331E+01  0.18126800867E+01  0.32964918801E+01  0.10566000000E+00 0.  1.
         22    1    1    0    0    0 -0.51222115090E+02  0.28395808357E+02 -0.20672436559E+02  0.62107782442E+02  0.00000000000E+00 0. -1.
</event>
<event>
 4    1  0.9957587E-003  0.9118800E+02  0.7818608E-02  0.1130116E+00
         25   -1    0    0    0    0  0.00000000000E+00  0.00000000000E+00  0.99999998245E-14  0.12500000000E+03  0.12500000000E+03 0.  0.
        -13    1    1    0    0    0  0.69894923125E+01  0.23341022855E+01 -0.10714912242E+02  0.13004673955E+02  0.10566000000E+00 0.  1.
         13    1    1    0    0    0  0.29686547490E+02  0.80793829491E+01 -0.38790526420E+02  0.49510439653E+02  0.10566000000E+00 0. -1.
         22    1    1    0    0    0 -0.36676039802E+02 -0.10413485235E+02  0.49505438662E+02  0.62484886392E+02  0.00000000000E+00 0. -1.
</event>
<event>
 4    1  0.9957587E-003  0.9118800E+02  0.7818608E-02  0.1130116E+00
         25   -1    0    0    0    0  0.00000000000E+00  0.00000000000E+00  0.99999998245E-14  0.12500000000E+03  0.12500000000E+03 0.  0.
        -13    1    1    0    0    0 -0.13090053740E+02  0.93249436460E+01  0.28566926362E+00  0.16074727116E+02  0.10566000000E+00 0. -1.
         13    1    1    0    0    0 -0.38039530705E+02  0.26598036157E+02  0.93703256363E+00  0.46425753820E+02  0.10566000000E+00 0. -1.
         22    1    1    0    0    0  0.51129584445E+02 -0.35922979803E+02 -0.12227018272E+01  0.62499519064E+02  0.00000000000E+00 0. -1.
</event>
<event>
 4    1  0.9957587E-003  0.9118800E+02  0.7818608E-02  0.1130116E+00
         25   -1    0    0    0    0  0.00000000000E+00  0.00000000000E+00  0.99999998245E-14  0.12500000000E+03  0.12500000000E+03 0.  0.
        -13    1    1    0    0    0  0.19321243715E+02  0.36514209717E+01  0.41622832299E+01  0.20099231317E+02  0.10566000000E+00 0.  1.
         13    1    1    0    0    0  0.40799854242E+02  0.76445263893E+01  0.86468593151E+01  0.42401016850E+02  0.10566000000E+00 0.  1.
         22    1    1    0    0    0 -0.60121097957E+02 -0.11295947361E+02 -0.12809142545E+02  0.62499751832E+02  0.00000000000E+00 0.  1.
</event>
<event>
 4    1  0.9957587E-003  0.9118800E+02  0.7818608E-02  0.1130116E+00
         25   -1    0    0    0    0  0.00000000000E+00  0.00000000000E+00  0.99999998245E-14  0.12500000000E+03  0.12500000000E+03 0.  0.
        -13    1    1    0    0    0  0.39598834960E+01  0.10240864159E+01  0.19634376004E+00  0.40962354908E+01  0.10566000000E+00 0. -1.
         13    1    1    0    0    0  0.56087306329E+02  0.16155549473E+02 -0.22839873553E+01  0.58412459906E+02  0.10566000000E+00 0.  1.
         22    1    1    0    0    0 -0.60047189825E+02 -0.17179635889E+02  0.20876435952E+01  0.62491304603E+02  0.00000000000E+00 0.  1.
</event>
<event>
 4    1  0.9957587E-003  0.9118800E+02  0.7818608E-02  0.1130116E+00
         25   -1    0    0    0    0  0.00000000000E+00  0.00000000000E+00  0.99999998245E-14  0.12500000000E+03  0.12500000000E+03 0.  0.
        -13    1    1    0    0    0 -0.95898041936E+01 -0.37857291183E+02  0.46896987189E+02  0.61028496718E+02  0.10566000000E+00 0. -1.
         13    1    1    0    0    0 -0.10618438036E+01  0.23341904749E+01  0.15203791763E+01  0.29830645839E+01  0.10566000000E+00 0.  1.
         22    1    1    0    0    0  0.10651647997E+02  0.35523100708E+02 -0.48417366366E+02  0.60988438698E+02  0.00000000000E+00 0. -1.
</event>
<event>
 4    1  0.9957587E-003  0.9118800E+02  0.7818608E-02  0.1130116E+00
         25   -1    0    0    0    0  0.00000000000E+00  0.00000000000E+00  0.99999998245E-14  0.12500000000E+03  0.12500000000E+03 0.  0.
        -13    1    1    0    0    0 -0.50647603454E+02 -0.15121591314E+02 -0.13119221669E+02  0.54460695926E+02  0.10566000000E+00 0.  1.
         13    1    1    0    0    0 -0.68328088525E+01 -0.17489629032E+01 -0.41635865524E+01  0.81910173401E+01  0.10566000000E+00 0. -1.
         22    1    1    0    0    0  0.57480412307E+02  0.16870554217E+02  0.17282808221E+02  0.62348286733E+02  0.00000000000E+00 0.  1.
</event>
<event>
 4    1  0.9957587E-003  0.9118800E+02  0.7818608E-02  0.1130116E+00
         25   -1    0    0    0    0  0.00000000000E+00  0.00000000000E+00  0.99999998245E-14  0.12500000000E+03  0.12500000000E+03 0.  0.
        -13    1    1    0    0    0 -0.17070654961E+02 -0.43583474788E+00  0.27758728184E+02  0.32590725171E+02  0.10566000000E+00 0. -1.
         13    1    1    0    0    0 -0.15392214229E+02  0.38740278329E-03  0.25645915668E+02  0.29910607040E+02  0.10566000000E+00 0.  1.
         22    1    1    0    0    0  0.32462869190E+02  0.43544734510E+00 -0.53404643852E+02  0.62498667789E+02  0.00000000000E+00 0. -1.
</event>
<event>
 4    1  0.9957587E-003  0.9118800E+02  0.7818608E-02  0.1130116E+00
         25   -1    0    0    0    0  0.00000000000E+00  0.00000000000E+00  0.99999998245E-14  0.12500000000E+03  0.12500000000E+03 0.  0.
        -13    1    1    0    0    0 -0.17917402683E+00  0.50728730138E+01  0.41767650110E+01  0.65743953288E+01  0.10566000000E+00 0. -1.
         13    1    1    0    0    0  0.78407287531E+01  0.52653454085E+02  0.17878736313E+02  0.56156243025E+02  0.10566000000E+00 0.  1.
         22    1    1    0    0    0 -0.76615547263E+01 -0.57726327099E+02 -0.22055501324E+02  0.62269361646E+02  0.00000000000E+00 0.  1.
</event>
<event>
 4    1  0.9957587E-003  0.9118800E+02  0.7818608E-02  0.1130116E+00
         25   -1    0    0    0    0  0.00000000000E+00  0.00000000000E+00  0.99999998245E-14  0.12500000000E+03  0.12500000000E+03 0.  0.
        -13    1    1    0    0    0 -0.82401654011E+01 -0.40968218675E+01 -0.98639897954E+01  0.13490505327E+02  0.10566000000E+00 0.  1.
         13    1    1    0    0    0 -0.14089043418E+02 -0.31315793112E+02 -0.35767344031E+02  0.49583203867E+02  0.10566000000E+00 0. -1.
         22    1    1    0    0    0  0.22329208820E+02  0.35412614980E+02  0.45631333826E+02  0.61926290806E+02  0.00000000000E+00 0. -1.
</event>
<event>
 4    1  0.9957587E-003  0.9118800E+02  0.7818608E-02  0.1130116E+00
         25   -1    0    0    0    0  0.00000000000E+00  0.00000000000E+00  0.99999998245E-14  0.12500000000E+03  0.12500000000E+03 0.  0.
        -13    1    1    0    0    0 -0.31412506416E+02 -0.60783033881E+01  0.10401187085E+02  0.33643531149E+02  0.10566000000E+00 0.  1.
         13    1    1    0    0    0 -0.25212931350E+02  0.12825779100E+01  0.14719679500E+02  0.29223569973E+02  0.10566000000E+00 0. -1.
         22    1    1    0    0    0  0.56625437766E+02  0.47957254781E+01 -0.25120866584E+02  0.62132898878E+02  0.00000000000E+00 0.  1.
</event>
<event>
 4    1  0.9957587E-003  0.9118800E+02  0.7818608E-02  0.1130116E+00
         25   -1    0    0    0    0  0.00000000000E+00  0.00000000000E+00  0.99999998245E-14  0.12500000000E+03  0.12500000000E+03 0.  0.
        -13    1    1    0    0    0  0.19696554533E+01 -0.16198035119E+02  0.44947504537E+01  0.16925419640E+02  0.10566000000E+00 0.  1.
         13    1    1    0    0    0  0.22476647676E+02 -0.38952477505E+02 -0.13785140684E+02  0.47037606893E+02  0.10566000000E+00 0. -1.
         22    1    1    0    0    0 -0.24446303129E+02  0.55150512624E+02  0.92903902299E+01  0.61036973467E+02  0.00000000000E+00 0. -1.
</event>
<event>
 4    1  0.9957587E-003  0.9118800E+02  0.7818608E-02  0.1130116E+00
         25   -1    0    0    0    0  0.00000000000E+00  0.00000000000E+00  0.99999998245E-14  0.12500000000E+03  0.12500000000E+03 0.  0.
        -13    1    1    0    0    0  0.44580279081E+02  0.41620536203E+02  0.63588655695E+00  0.60992506363E+02  0.10566000000E+00 0.  1.
         13    1    1    0    0    0  0.83395000124E+00  0.12797581594E+01 -0.31791440337E-01  0.15314791159E+01  0.10566000000E+00 0. -1.
         22    1    1    0    0    0 -0.45414229082E+02 -0.42900294362E+02 -0.60409511661E+00  0.62476014521E+02  0.00000000000E+00 0.  1.
</event>
<event>
 4    1  0.9957587E-003  0.9118800E+02  0.7818608E-02  0.1130116E+00
         25   -1    0    0    0    0  0.00000000000E+00  0.00000000000E+00  0.99999998245E-14  0.12500000000E+03  0.12500000000E+03 0.  0.
        -13    1    1    0    0    0  0.11298986724E+02 -0.60983026165E+01  0.86634898959E+01  0.15489467938E+02  0.10566000000E+00 0.  1.
         13    1    1    0    0    0  0.57650408425E+01 -0.44244808949E+02  0.20250303738E+02  0.48999232447E+02  0.10566000000E+00 0. -1.
         22    1    1    0    0    0 -0.17064027566E+02  0.50343111565E+02 -0.28913793634E+02  0.60511299616E+02  0.00000000000E+00 0. -1.
</event>
<event>
 4    1  0.9957587E-003  0.9118800E+02  0.7818608E-02  0.1130116E+00
         25   -1    0    0    0    0  0.00000000000E+00  0.00000000000E+00  0.99999998245E-14  0.12500000000E+03  0.12500000000E+03 0.  0.
        -13    1    1    0    0    0 -0.36700590563E+02 -0.79322669277E+00  0.45680718851E+02  0.58602916268E+02  0.10566000000E+00 0.  1.
         13    1    1    0    0    0 -0.24589196795E+01  0.21671010439E+00  0.30204559714E+01  0.39022516026E+01  0.10566000000E+00 0. -1.
         22    1    1    0    0    0  0.39159510243E+02  0.57651658838E+00 -0.48701174822E+02  0.62494832130E+02  0.00000000000E+00 0.  1.
</event>
<event>
 4    1  0.9957587E-003  0.9118800E+02  0.7818608E-02  0.1130116E+00
         25   -1    0    0    0    0  0.00000000000E+00  0.00000000000E+00  0.99999998245E-14  0.12500000000E+03  0.12500000000E+03 0.  0.
        -13    1    1    0    0    0  0.15695490450E+02  0.31671738092E+02 -0.39140139640E+02  0.52739066254E+02  0.10566000000E+00 0. -1.
         13    1    1    0    0    0 -0.55724112808E+01 -0.24738123781E+02 -0.55148106529E+01  0.25950931317E+02  0.10566000000E+00 0.  1.
         22    1    1    0    0    0 -0.10123079169E+02 -0.69336143116E+01  0.44654950293E+02  0.46310002429E+02  0.00000000000E+00 0. -1.
</event>
<event>
 4    1  0.9957587E-003  0.9118800E+02  0.7818608E-02  0.1130116E+00
         25   -1    0    0    0    0  0.00000000000E+00  0.00000000000E+00  0.99999998245E-14  0.12500000000E+03  0.12500000000E+03 0.  0.
        -13    1    1    0    0    0 -0.40381056636E+00 -0.96573143530E-01  0.12534852578E+00  0.44639179436E+00  0.10566000000E+00 0. -1.
         13    1    1    0    0    0 -0.42887018132E+02 -0.27124577461E+01 -0.44941177229E+02  0.62180176311E+02  0.10566000000E+00 0. -1.
         22    1    1    0    0    0  0.43290828698E+02  0.28090308897E+01  0.44815828703E+02  0.62373431895E+02  0.00000000000E+00 0. -1.
</event>
<event>
 4    1  0.9957587E-003  0.9118800E+02  0.7818608E-02  0.1130116E+00
         25   -1    0    0    0    0  0.00000000000E+00  0.00000000000E+00  0.99999998245E-14  0.12500000000E+03  0.12500000000E+03 0.  0.
        -13    1    1    0    0    0 -0.47842181602E+01 -0.32841153508E+02 -0.45692740124E+01  0.33501037837E+02  0.10566000000E+00 0. -1.
         13    1    1    0    0    0 -0.14857564617E+01 -0.28583241828E+02 -0.48845423573E+01  0.29035824488E+02  0.10566000000E+00 0.  1.
         22    1    1    0    0    0  0.62699746220E+01  0.61424395336E+02  0.94538163697E+01  0.62463137674E+02  0.00000000000E+00 0.  1.
</event>
<event>
 4    1  0.9957587E-003  0.9118800E+02  0.7818608E-02  0.1130116E+00
         25   -1    0    0    0    0  0.00000000000E+00  0.00000000000E+00  0.99999998245E-14  0.12500000000E+03  0.12500000000E+03 0.  0.
        -13    1    1    0    0    0 -0.55265042194E+02 -0.26030550654E+02 -0.49562654445E+01  0.61289397021E+02  0.10566000000E+00 0. -1.
         13    1    1    0    0    0 -0.68052196808E+00  0.13282052724E+01  0.19800998729E+01  0.24817733452E+01  0.10566000000E+00 0.  1.
         22    1    1    0    0    0  0.55945564162E+02  0.24702345382E+02  0.29761655717E+01  0.61228829633E+02  0.00000000000E+00 0. -1.
</event>
<event>
 4    1  0.9957587E-003  0.9118800E+02  0.7818608E-02  0.1130116E+00
         25   -1    0    0    0    0  0.00000000000E+00  0.00000000000E+00  0.99999998245E-14  0.12500000000E+03  0.12500000000E+03 0.  0.
        -13    1    1    0    0    0  0.15584144568E+02  0.52457097105E+01  0.84458028638E+01  0.18485826526E+02  0.10566000000E+00 0. -1.
         13    1    1    0    0    0 -0.21611335764E+02  0.10263659047E+02 -0.53434965544E+02  0.58546556152E+02  0.10566000000E+00 0.  1.
         22    1    1    0    0    0  0.60271911958E+01 -0.15509368757E+02  0.44989162680E+02  0.47967617322E+02  0.00000000000E+00 0.  1.
</event>
<event>
 4    1  0.9957587E-003  0.9118800E+02  0.7818608E-02  0.1130116E+00
         25   -1    0    0    0    0  0.00000000000E+00  0.00000000000E+00  0.99999998245E-14  0.12500000000E+03  0.12500000000E+03 0.  0.
        -13    1    1    0    0    0  0.39820428679E+01  0.45916548472E+02  0.32285266728E+02  0.56271979712E+02  0.10566000000E+00 0. -1.
         13    1    1    0    0    0  0.12229490540E+01  0.42218024626E+01  0.45260245534E+01  0.63099352386E+01  0.10566000000E+00 0.  1.
         22    1    1    0    0    0 -0.52049919218E+01 -0.50138350935E+02 -0.36811291282E+02  0.62418085049E+02  0.00000000000E+00 0. -1.
</event>
<event>
 4    1  0.9957587E-003  0.9118800E+02  0.7818608E-02  0.1130116E+00
         25   -1    0    0    0    0  0.00000000000E+00  0.00000000000E+00  0.99999998245E-14  0.12500000000E+03  0.12500000000E+03 0.  0.
        -13    1    1    0    0    0 -0.11691814315E+02 -0.65772748650E+01 -0.37328869990E+02  0.39666292560E+02  0.10566000000E+00 0.  1.
         13    1    1    0    0    0 -0.10632129694E+02 -0.77712529989E+01 -0.18970234345E+02  0.23093624881E+02  0.10566000000E+00 0. -1.
         22    1    1    0    0    0  0.22323944009E+02  0.14348527864E+02  0.56299104336E+02  0.62240082559E+02  0.00000000000E+00 0.  1.
</event>
<event>
 4    1  0.9957587E-003  0.9118800E+02  0.7818608E-02  0.1130116E+00
         25   -1    0    0    0    0  0.00000000000E+00  0.00000000000E+00  0.99999998245E-14  0.12500000000E+03  0.12500000000E+03 0.  0.
        -13    1    1    0    0    0  0.42221397610E+02  0.21118962799E+02 -0.49211907897E+01  0.47464579306E+02  0.10566000000E+00 0. -1.
         13    1    1    0    0    0  0.13307773608E+02  0.68232239773E+01 -0.15541203687E+01  0.15035946195E+02  0.10566000000E+00 0. -1.
         22    1    1    0    0    0 -0.55529171218E+02 -0.27942186777E+02  0.64753111585E+01  0.62499474499E+02  0.00000000000E+00 0. -1.
</event>
<event>
 4    1  0.9957587E-003  0.9118800E+02  0.7818608E-02  0.1130116E+00
         25   -1    0    0    0    0  0.00000000000E+00  0.00000000000E+00  0.99999998245E-14  0.12500000000E+03  0.12500000000E+03 0.  0.
        -13    1    1    0    0    0 -0.60158791595E+01 -0.94003286251E+00 -0.12299029534E+01  0.62127521401E+01  0.10566000000E+00 0. -1.
         13    1    1    0    0    0 -0.54573661562E+02 -0.88994566351E+01 -0.10528091477E+02  0.56287980412E+02  0.10566000000E+00 0. -1.
         22    1    1    0    0    0  0.60589540722E+02  0.98394894976E+01  0.11757994431E+02  0.62499267448E+02  0.00000000000E+00 0. -1.
</event>
<event>
 4    1  0.9957587E-003  0.9118800E+02  0.7818608E-02  0.1130116E+00
         25   -1    0    0    0    0  0.00000000000E+00  0.00000000000E+00  0.99999998245E-14  0.12500000000E+03  0.12500000000E+03 0.  0.
        -13    1    1    0    0    0  0.18043167975E+01  0.96231383689E+00  0.10528006674E+01  0.23024248755E+01  0.10566000000E+00 0. -1.
         13    1    1    0    0    0  0.48649915158E+02  0.22330786229E+02  0.27542652449E+02  0.60200391414E+02  0.10566000000E+00 0. -1.
         22    1    1    0    0    0 -0.50454231955E+02 -0.23293100066E+02 -0.28595453116E+02  0.62497183711E+02  0.00000000000E+00 0. -1.
</event>
<event>
 4    1  0.9957587E-003  0.9118800E+02  0.7818608E-02  0.1130116E+00
         25   -1    0    0    0    0  0.00000000000E+00  0.00000000000E+00  0.99999998245E-14  0.12500000000E+03  0.12500000000E+03 0.  0.
        -13    1    1    0    0    0 -0.21560213987E+02 -0.25314446084E+02  0.39392614552E+02  0.51550492267E+02  0.10566000000E+00 0.  1.
         13    1    1    0    0    0 -0.40860005901E+01 -0.56635354811E+01  0.84411423596E+01  0.10956052361E+02  0.10566000000E+00 0. -1.
         22    1    1    0    0    0  0.25646214578E+02  0.30977981565E+02 -0.47833756911E+02  0.62493455372E+02  0.00000000000E+00 0.  1.
</event>
<event>
 4    1  0.9957587E-003  0.9118800E+02  0.7818608E-02  0.1130116E+00
         25   -1    0    0    0    0  0.00000000000E+00  0.00000000000E+00  0.99999998245E-14  0.12500000000E+03  0.12500000000E+03 0.  0.
        -13    1    1    0    0    0 -0.23920812572E+02  0.33132295086E+01  0.26942719976E+02  0.36181543466E+02  0.10566000000E+00 0. -1.
         13    1    1    0    0    0 -0.17427523090E+02  0.22269097336E+01  0.19595710584E+02  0.26318828344E+02  0.10566000000E+00 0. -1.
         22    1    1    0    0    0  0.41348335662E+02 -0.55401392423E+01 -0.46538430561E+02  0.62499628190E+02  0.00000000000E+00 0. -1.
</event>
<event>
 4    1  0.9957587E-003  0.9118800E+02  0.7818608E-02  0.1130116E+00
         25   -1    0    0    0    0  0.00000000000E+00  0.00000000000E+00  0.99999998245E-14  0.12500000000E+03  0.12500000000E+03 0.  0.
        -13    1    1    0    0    0 -0.26015086163E+02  0.17219737632E+02  0.34515917643E+02  0.46525947674E+02  0.10566000000E+00 0.  1.
         13    1    1    0    0    0 -0.12913985286E+02  0.36676243897E+01  0.92373315623E+01  0.16296071400E+02  0.10566000000E+00 0. -1.
         22    1    1    0    0    0  0.38929071449E+02 -0.20887362022E+02 -0.43753249205E+02  0.62177980927E+02  0.00000000000E+00 0.  1.
</event>
<event>
 4    1  0.9957587E-003  0.9118800E+02  0.7818608E-02  0.1130116E+00
         25   -1    0    0    0    0  0.00000000000E+00  0.00000000000E+00  0.99999998245E-14  0.12500000000E+03  0.12500000000E+03 0.  0.
        -13    1    1    0    0    0  0.26829707464E+02 -0.34792452184E+02  0.21767140750E+02  0.49032310898E+02  0.10566000000E+00 0. -1.
         13    1    1    0    0    0  0.13452541158E+02 -0.62110900852E+01 -0.10001563909E+01  0.14851261916E+02  0.10566000000E+00 0.  1.
         22    1    1    0    0    0 -0.40282248621E+02  0.41003542269E+02 -0.20766984359E+02  0.61116427186E+02  0.00000000000E+00 0. -1.
</event>
<event>
 4    1  0.9957587E-003  0.9118800E+02  0.7818608E-02  0.1130116E+00
         25   -1    0    0    0    0  0.00000000000E+00  0.00000000000E+00  0.99999998245E-14  0.12500000000E+03  0.12500000000E+03 0.  0.
        -13    1    1    0    0    0 -0.12242010131E+02 -0.21033731583E+02  0.94351500810E+00  0.24355411328E+02  0.10566000000E+00 0.  1.
         13    1    1    0    0    0 -0.32786682241E+02 -0.20001356689E+02  0.75269770251E+01  0.39136777448E+02  0.10566000000E+00 0. -1.
         22    1    1    0    0    0  0.45028692373E+02  0.41035088272E+02 -0.84704920332E+01  0.61507811224E+02  0.00000000000E+00 0.  1.
</event>
<event>
 4    1  0.9957587E-003  0.9118800E+02  0.7818608E-02  0.1130116E+00
         25   -1    0    0    0    0  0.00000000000E+00  0.00000000000E+00  0.99999998245E-14  0.12500000000E+03  0.12500000000E+03 0.  0.
        -13    1    1    0    0    0  0.32969093399E+02 -0.19888233088E+02 -0.28854638327E+02  0.48115530257E+02  0.10566000000E+00 0. -1.
         13    1    1    0    0    0  0.99875695607E+01 -0.57145323987E+01 -0.86330094238E+01  0.14385667938E+02  0.10566000000E+00 0. -1.
         22    1    1    0    0    0 -0.42956662959E+02  0.25602765486E+02  0.37487647751E+02  0.62498801805E+02  0.00000000000E+00 0. -1.
</event>
<event>
 4    1  0.9957587E-003  0.9118800E+02  0.7818608E-02  0.1130116E+00
         25   -1    0    0    0    0  0.00000000000E+00  0.00000000000E+00  0.99999998245E-14  0.12500000000E+03  0.12500000000E+03 0.  0.
        -13    1    1    0    0    0 -0.81733781472E+01 -0.13594561430E+01 -0.99257023743E+00  0.83455731411E+01  0.10566000000E+00 0.  1.
         13    1    1    0    0    0 -0.53057082341E+02 -0.85461317543E+01 -0.66821563281E+01  0.54154895732E+02  0.10566000000E+00 0.  1.
         22    1    1    0    0    0  0.61230460488E+02  0.99055878973E+01  0.76747265655E+01  0.62499531127E+02  0.00000000000E+00 0.  1.
</event>
<event>
 4    1  0.9957587E-003  0.9118800E+02  0.7818608E-02  0.1130116E+00
         25   -1    0    0    0    0  0.00000000000E+00  0.00000000000E+00  0.99999998245E-14  0.12500000000E+03  0.12500000000E+03 0.  0.
        -13    1    1    0    0    0 -0.47031763357E+01 -0.73990691233E+01  0.69752523982E+01  0.11204079685E+02  0.10566000000E+00 0. -1.
         13    1    1    0    0    0 -0.26250082642E+02  0.46457916139E+02  0.20169917299E+02  0.57045959879E+02  0.10566000000E+00 0.  1.
         22    1    1    0    0    0  0.30953258978E+02 -0.39058847016E+02 -0.27145169697E+02  0.56749960435E+02  0.00000000000E+00 0.  1.
</event>
<event>
 4    1  0.9957587E-003  0.9118800E+02  0.7818608E-02  0.1130116E+00
         25   -1    0    0    0    0  0.00000000000E+00  0.00000000000E+00  0.99999998245E-14  0.12500000000E+03  0.12500000000E+03 0.  0.
        -13    1    1    0    0    0 -0.49804037756E+01  0.14235738813E+02 -0.25316540722E+01  0.15293172257E+02  0.10566000000E+00 0.  1.
         13    1    1    0    0    0 -0.15314134052E+02  0.44080139983E+02 -0.71395585893E+01  0.47207689031E+02  0.10566000000E+00 0. -1.
         22    1    1    0    0    0  0.20294537828E+02 -0.58315878796E+02  0.96712126615E+01  0.62499138712E+02  0.00000000000E+00 0. -1.
</event>
<event>
 4    1  0.9957587E-003  0.9118800E+02  0.7818608E-02  0.1130116E+00
         25   -1    0    0    0    0  0.00000000000E+00  0.00000000000E+00  0.99999998245E-14  0.12500000000E+03  0.12500000000E+03 0.  0.
        -13    1    1    0    0    0 -0.16426881336E+02  0.83050110719E+01 -0.72001767467E+01  0.19765357284E+02  0.10566000000E+00 0.  1.
         13    1    1    0    0    0 -0.35135515737E+02  0.18702562881E+02 -0.15558820368E+02  0.42736148395E+02  0.10566000000E+00 0. -1.
         22    1    1    0    0    0  0.51562397073E+02 -0.27007573953E+02  0.22758997115E+02  0.62498494321E+02  0.00000000000E+00 0. -1.
</event>
<event>
 4    1  0.9957587E-003  0.9118800E+02  0.7818608E-02  0.1130116E+00
         25   -1    0    0    0    0  0.00000000000E+00  0.00000000000E+00  0.99999998245E-14  0.12500000000E+03  0.12500000000E+03 0.  0.
        -13    1    1    0    0    0  0.15434825544E+02  0.24172662583E+01 -0.14221342917E+02  0.21126636603E+02  0.10566000000E+00 0. -1.
         13    1    1    0    0    0  0.24363003735E+02  0.25877570899E+01 -0.33519354250E+02  0.41518799490E+02  0.10566000000E+00 0.  1.
         22    1    1    0    0    0 -0.39797829279E+02 -0.50050233482E+01  0.47740697167E+02  0.62354563907E+02  0.00000000000E+00 0.  1.
</event>
<event>
 4    1  0.9957587E-003  0.9118800E+02  0.7818608E-02  0.1130116E+00
         25   -1    0    0    0    0  0.00000000000E+00  0.00000000000E+00  0.99999998245E-14  0.12500000000E+03  0.12500000000E+03 0.  0.
        -13    1    1    0    0    0 -0.16448940997E+02 -0.41093030054E+02 -0.28156864568E+02  0.52459746142E+02  0.10566000000E+00 0. -1.
         13    1    1    0    0    0 -0.26508245198E+01 -0.79954740302E+01 -0.54737298393E+01  0.10046260896E+02  0.10566000000E+00 0.  1.
         22    1    1    0    0    0  0.19099765517E+02  0.49088504084E+02  0.33630594408E+02  0.62493992961E+02  0.00000000000E+00 0. -1.
</event>
<event>
 4    1  0.9957587E-003  0.9118800E+02  0.7818608E-02  0.1130116E+00
         25   -1    0    0    0    0  0.00000000000E+00  0.00000000000E+00  0.99999998245E-14  0.12500000000E+03  0.12500000000E+03 0.  0.
        -13    1    1    0    0    0 -0.49613669569E+01  0.13934777132E+02  0.50001750505E+02  0.52143833704E+02  0.10566000000E+00 0. -1.
         13    1    1    0    0    0  0.34033663565E+01 -0.65513668703E+00  0.10415276235E+02  0.10977306123E+02  0.10566000000E+00 0.  1.
         22    1    1    0    0    0  0.15580006004E+01 -0.13279640445E+02 -0.60417026740E+02  0.61878860173E+02  0.00000000000E+00 0. -1.
</event>
<event>
 4    1  0.9957587E-003  0.9118800E+02  0.7818608E-02  0.1130116E+00
         25   -1    0    0    0    0  0.00000000000E+00  0.00000000000E+00  0.99999998245E-14  0.12500000000E+03  0.12500000000E+03 0.  0.
        -13    1    1    0    0    0  0.42201989691E+00 -0.68812922172E+01  0.15691861927E+02  0.17139894344E+02  0.10566000000E+00 0. -1.
         13    1    1    0    0    0  0.14388805708E+01 -0.18510887748E+02  0.41386644150E+02  0.45360652779E+02  0.10566000000E+00 0. -1.
         22    1    1    0    0    0 -0.18609004677E+01  0.25392179966E+02 -0.57078506076E+02  0.62499452877E+02  0.00000000000E+00 0. -1.
</event>
<event>
 4    1  0.9957587E-003  0.9118800E+02  0.7818608E-02  0.1130116E+00
         25   -1    0    0    0    0  0.00000000000E+00  0.00000000000E+00  0.99999998245E-14  0.12500000000E+03  0.12500000000E+03 0.  0.
        -13    1    1    0    0    0 -0.10645196398E+02  0.26683872322E+02  0.17858207908E+02  0.33827148892E+02  0.10566000000E+00 0. -1.
         13    1    1    0    0    0 -0.87314715655E+01  0.22677087482E+02  0.15220660546E+02  0.28673481893E+02  0.10566000000E+00 0. -1.
         22    1    1    0    0    0  0.19376667964E+02 -0.49360959804E+02 -0.33078868454E+02  0.62499369215E+02  0.00000000000E+00 0. -1.
</event>
<event>
 4    1  0.9957587E-003  0.9118800E+02  0.7818608E-02  0.1130116E+00
         25   -1    0    0    0    0  0.00000000000E+00  0.00000000000E+00  0.99999998245E-14  0.12500000000E+03  0.12500000000E+03 0.  0.
        -13    1    1    0    0    0  0.26282972394E+02  0.38846186294E+02  0.11686862224E+02  0.48336474221E+02  0.10566000000E+00 0. -1.
         13    1    1    0    0    0  0.15563541156E+02 -0.99841600750E+01  0.10425925870E+02  0.21227773317E+02  0.10566000000E+00 0.  1.
         22    1    1    0    0    0 -0.41846513550E+02 -0.28862026219E+02 -0.22112788094E+02  0.55435752462E+02  0.00000000000E+00 0. -1.
</event>
<event>
 4    1  0.9957587E-003  0.9118800E+02  0.7818608E-02  0.1130116E+00
         25   -1    0    0    0    0  0.00000000000E+00  0.00000000000E+00  0.99999998245E-14  0.12500000000E+03  0.12500000000E+03 0.  0.
        -13    1    1    0    0    0  0.36833748149E+01  0.18967243432E+02 -0.31296388312E+02  0.36780411347E+02  0.10566000000E+00 0. -1.
         13    1    1    0    0    0  0.19421071293E+01  0.98011849145E+01 -0.23798942368E+02  0.25811544465E+02  0.10566000000E+00 0.  1.
         22    1    1    0    0    0 -0.56254819442E+01 -0.28768428346E+02  0.55095330680E+02  0.62408044188E+02  0.00000000000E+00 0. -1.
</event>
<event>
 4    1  0.9957587E-003  0.9118800E+02  0.7818608E-02  0.1130116E+00
         25   -1    0    0    0    0  0.00000000000E+00  0.00000000000E+00  0.99999998245E-14  0.12500000000E+03  0.12500000000E+03 0.  0.
        -13    1    1    0    0    0 -0.28383303550E+02 -0.11630024930E+02  0.23900708854E+02  0.38886044387E+02  0.10566000000E+00 0.  1.
         13    1    1    0    0    0 -0.17145355778E+02 -0.73261631387E+01  0.14491554985E+02  0.23614661145E+02  0.10566000000E+00 0.  1.
         22    1    1    0    0    0  0.45528659328E+02  0.18956188069E+02 -0.38392263839E+02  0.62499294468E+02  0.00000000000E+00 0.  1.
</event>
<event>
 4    1  0.9957587E-003  0.9118800E+02  0.7818608E-02  0.1130116E+00
         25   -1    0    0    0    0  0.00000000000E+00  0.00000000000E+00  0.99999998245E-14  0.12500000000E+03  0.12500000000E+03 0.  0.
        -13    1    1    0    0    0 -0.22080755600E+02  0.71900888340E+01 -0.24173221196E+02  0.33520336101E+02  0.10566000000E+00 0. -1.
         13    1    1    0    0    0 -0.20732085091E+02  0.13483834042E+02 -0.15814834458E+02  0.29355634649E+02  0.10566000000E+00 0.  1.
         22    1    1    0    0    0  0.42812840691E+02 -0.20673922876E+02  0.39988055655E+02  0.62124029249E+02  0.00000000000E+00 0.  1.
</event>
<event>
 4    1  0.9957587E-003  0.9118800E+02  0.7818608E-02  0.1130116E+00
         25   -1    0    0    0    0  0.00000000000E+00  0.00000000000E+00  0.99999998245E-14  0.12500000000E+03  0.12500000000E+03 0.  0.
        -13    1    1    0    0    0 -0.16527604757E-02  0.26994933451E+01 -0.94253583384E-01  0.27032045474E+01  0.10566000000E+00 0. -1.
         13    1    1    0    0    0 -0.29769254564E+02  0.23907195982E+02 -0.47000498352E+02  0.60554277689E+02  0.10566000000E+00 0.  1.
         22    1    1    0    0    0  0.29770907324E+02 -0.26606689327E+02  0.47094751936E+02  0.61742517764E+02  0.00000000000E+00 0.  1.
</event>
<event>
 4    1  0.9957587E-003  0.9118800E+02  0.7818608E-02  0.1130116E+00
         25   -1    0    0    0    0  0.00000000000E+00  0.00000000000E+00  0.99999998245E-14  0.12500000000E+03  0.12500000000E+03 0.  0.
        -13    1    1    0    0    0 -0.14151845570E+02 -0.27563052717E+01  0.40389592794E+02  0.42885922188E+02  0.10566000000E+00 0. -1.
         13    1    1    0    0    0 -0.65784772901E+01 -0.11140596500E+01  0.18444593243E+02  0.19614578157E+02  0.10566000000E+00 0.  1.
         22    1    1    0    0    0  0.20730322861E+02  0.38703649217E+01 -0.58834186037E+02  0.62499499655E+02  0.00000000000E+00 0.  1.
</event>
<event>
 4    1  0.9957587E-003  0.9118800E+02  0.7818608E-02  0.1130116E+00
         25   -1    0    0    0    0  0.00000000000E+00  0.00000000000E+00  0.99999998245E-14  0.12500000000E+03  0.12500000000E+03 0.  0.
        -13    1    1    0    0    0 -0.19425875208E+02  0.48747169688E+02 -0.24621800383E+01  0.52533081718E+02  0.10566000000E+00 0. -1.
         13    1    1    0    0    0 -0.35680683951E+01  0.93035852322E+01 -0.26664165414E+00  0.99684538446E+01  0.10566000000E+00 0.  1.
         22    1    1    0    0    0  0.22993943603E+02 -0.58050754920E+02  0.27288216925E+01  0.62498464438E+02  0.00000000000E+00 0. -1.
</event>
<event>
 4    1  0.9957587E-003  0.9118800E+02  0.7818608E-02  0.1130116E+00
         25   -1    0    0    0    0  0.00000000000E+00  0.00000000000E+00  0.99999998245E-14  0.12500000000E+03  0.12500000000E+03 0.  0.
        -13    1    1    0    0    0  0.13008028953E+01 -0.10515007950E+02  0.23187746195E+02  0.25493925119E+02  0.10566000000E+00 0. -1.
         13    1    1    0    0    0 -0.51242612001E+01 -0.27465269176E+02  0.25370954577E+02  0.37739840540E+02  0.10566000000E+00 0.  1.
         22    1    1    0    0    0  0.38234583048E+01  0.37980277126E+02 -0.48558700772E+02  0.61766234341E+02  0.00000000000E+00 0.  1.
</event>
<event>
 4    1  0.9957587E-003  0.9118800E+02  0.7818608E-02  0.1130116E+00
         25   -1    0    0    0    0  0.00000000000E+00  0.00000000000E+00  0.99999998245E-14  0.12500000000E+03  0.12500000000E+03 0.  0.
        -13    1    1    0    0    0 -0.19780165689E+02 -0.46159694472E+02 -0.15030500417E+02  0.52420410674E+02  0.10566000000E+00 0. -1.
         13    1    1    0    0    0  0.18032125943E+01 -0.88270362693E+01 -0.62209503199E+01  0.10948951177E+02  0.10566000000E+00 0.  1.
         22    1    1    0    0    0  0.17976953095E+02  0.54986730741E+02  0.21251450737E+02  0.61630638149E+02  0.00000000000E+00 0. -1.
</event>
<event>
 4    1  0.9957587E-003  0.9118800E+02  0.7818608E-02  0.1130116E+00
         25   -1    0    0    0    0  0.00000000000E+00  0.00000000000E+00  0.99999998245E-14  0.12500000000E+03  0.12500000000E+03 0.  0.
        -13    1    1    0    0    0 -0.48148506380E+01  0.15310770833E+01  0.84800151853E+00  0.51241832825E+01  0.10566000000E+00 0. -1.
         13    1    1    0    0    0 -0.57318443933E+02 -0.44653575527E+01  0.28558395791E+01  0.57563099436E+02  0.10566000000E+00 0.  1.
         22    1    1    0    0    0  0.62133294571E+02  0.29342804693E+01 -0.37038410976E+01  0.62312717281E+02  0.00000000000E+00 0.  1.
</event>
<event>
 4    1  0.9957587E-003  0.9118800E+02  0.7818608E-02  0.1130116E+00
         25   -1    0    0    0    0  0.00000000000E+00  0.00000000000E+00  0.99999998245E-14  0.12500000000E+03  0.12500000000E+03 0.  0.
        -13    1    1    0    0    0 -0.40031904646E+02 -0.71583698844E+01  0.39622644218E+02  0.56778171403E+02  0.10566000000E+00 0. -1.
         13    1    1    0    0    0  0.23545219693E+02 -0.35276311573E+01  0.20804646814E+00  0.23809157888E+02  0.10566000000E+00 0.  1.
         22    1    1    0    0    0  0.16486684953E+02  0.10686001042E+02 -0.39830690686E+02  0.44412670709E+02  0.00000000000E+00 0. -1.
</event>
<event>
 4    1  0.9957587E-003  0.9118800E+02  0.7818608E-02  0.1130116E+00
         25   -1    0    0    0    0  0.00000000000E+00  0.00000000000E+00  0.99999998245E-14  0.12500000000E+03  0.12500000000E+03 0.  0.
        -13    1    1    0    0    0 -0.15054124608E+02  0.47390986734E+02  0.17900450902E+02  0.52848553413E+02  0.10566000000E+00 0. -1.
         13    1    1    0    0    0  0.39289876222E+01 -0.80167598910E+01  0.16457429562E+02  0.18723341975E+02  0.10566000000E+00 0.  1.
         22    1    1    0    0    0  0.11125136986E+02 -0.39374226843E+02 -0.34357880464E+02  0.53428104612E+02  0.00000000000E+00 0. -1.
</event>
<event>
 4    1  0.9957587E-003  0.9118800E+02  0.7818608E-02  0.1130116E+00
         25   -1    0    0    0    0  0.00000000000E+00  0.00000000000E+00  0.99999998245E-14  0.12500000000E+03  0.12500000000E+03 0.  0.
        -13    1    1    0    0    0  0.81978030065E+01 -0.53172985662E+02  0.94905689877E+01  0.54631972709E+02  0.10566000000E+00 0.  1.
         13    1    1    0    0    0 -0.19473995241E+00 -0.79610816122E+01  0.13615006721E+00  0.79653276745E+01  0.10566000000E+00 0. -1.
         22    1    1    0    0    0 -0.80030630541E+01  0.61134067274E+02 -0.96267190549E+01  0.62402699617E+02  0.00000000000E+00 0.  1.
</event>
<event>
 4    1  0.9957587E-003  0.9118800E+02  0.7818608E-02  0.1130116E+00
         25   -1    0    0    0    0  0.00000000000E+00  0.00000000000E+00  0.99999998245E-14  0.12500000000E+03  0.12500000000E+03 0.  0.
        -13    1    1    0    0    0  0.56988589709E+02 -0.20541824440E+02  0.77049087723E+01  0.61065888117E+02  0.10566000000E+00 0.  1.
         13    1    1    0    0    0  0.13996003600E+01 -0.35976894948E+00 -0.89822574581E-01  0.14517393000E+01  0.10566000000E+00 0. -1.
         22    1    1    0    0    0 -0.58388190069E+02  0.20901593390E+02 -0.76150861977E+01  0.62482372583E+02  0.00000000000E+00 0.  1.
</event>
<event>
 4    1  0.9957587E-003  0.9118800E+02  0.7818608E-02  0.1130116E+00
         25   -1    0    0    0    0  0.00000000000E+00  0.00000000000E+00  0.99999998245E-14  0.12500000000E+03  0.12500000000E+03 0.  0.
        -13    1    1    0    0    0 -0.24868387670E+02  0.21845543573E+02 -0.38034956989E+02  0.50421558846E+02  0.10566000000E+00 0.  1.
         13    1    1    0    0    0 -0.63995065967E+01  0.48716566315E+01 -0.90184738131E+01  0.12084318639E+02  0.10566000000E+00 0. -1.
         22    1    1    0    0    0  0.31267894267E+02 -0.26717200204E+02  0.47053430802E+02  0.62494122515E+02  0.00000000000E+00 0.  1.
</event>
<event>
 4    1  0.9957587E-003  0.9118800E+02  0.7818608E-02  0.1130116E+00
         25   -1    0    0    0    0  0.00000000000E+00  0.00000000000E+00  0.99999998245E-14  0.12500000000E+03  0.12500000000E+03 0.  0.
        -13    1    1    0    0    0  0.44416409127E+01  0.68155039530E+01 -0.16037057025E+02  0.17982703640E+02  0.10566000000E+00 0. -1.
         13    1    1    0    0    0  0.11191161076E+02  0.16472240342E+02 -0.39815217285E+02  0.44517855739E+02  0.10566000000E+00 0.  1.
         22    1    1    0    0    0 -0.15632801989E+02 -0.23287744295E+02  0.55852274310E+02  0.62499440621E+02  0.00000000000E+00 0.  1.
</event>
<event>
 4    1  0.9957587E-003  0.9118800E+02  0.7818608E-02  0.1130116E+00
         25   -1    0    0    0    0  0.00000000000E+00  0.00000000000E+00  0.99999998245E-14  0.12500000000E+03  0.12500000000E+03 0.  0.
        -13    1    1    0    0    0 -0.78237153142E+01 -0.50789346338E+02  0.31664515488E+02  0.60360756522E+02  0.10566000000E+00 0. -1.
         13    1    1    0    0    0 -0.10806158257E+01 -0.77993299631E+00  0.20060979391E+01  0.24107299763E+01  0.10566000000E+00 0.  1.
         22    1    1    0    0    0  0.89043311400E+01  0.51569279334E+02 -0.33670613427E+02  0.62228513502E+02  0.00000000000E+00 0. -1.
</event>
<event>
 4    1  0.9957587E-003  0.9118800E+02  0.7818608E-02  0.1130116E+00
         25   -1    0    0    0    0  0.00000000000E+00  0.00000000000E+00  0.99999998245E-14  0.12500000000E+03  0.12500000000E+03 0.  0.
        -13    1    1    0    0    0  0.26449880620E+02  0.12405370800E+02 -0.26201447510E+02  0.39243043016E+02  0.10566000000E+00 0.  1.
         13    1    1    0    0    0  0.23681085504E+02  0.58924078807E+01 -0.35465811436E+01  0.24659758375E+02  0.10566000000E+00 0. -1.
         22    1    1    0    0    0 -0.50130966124E+02 -0.18297778680E+02  0.29748028653E+02  0.61097198609E+02  0.00000000000E+00 0.  1.
</event>
<event>
 4    1  0.9957587E-003  0.9118800E+02  0.7818608E-02  0.1130116E+00
         25   -1    0    0    0    0  0.00000000000E+00  0.00000000000E+00  0.99999998245E-14  0.12500000000E+03  0.12500000000E+03 0.  0.
        -13    1    1    0    0    0  0.29729310986E+02 -0.12593957117E+02 -0.92767702163E+01  0.33593292742E+02  0.10566000000E+00 0. -1.
         13    1    1    0    0    0  0.25528510785E+02 -0.11055860283E+02 -0.78535437081E+01  0.28907200181E+02  0.10566000000E+00 0.  1.
         22    1    1    0    0    0 -0.55257821770E+02  0.23649817400E+02  0.17130313924E+02  0.62499507078E+02  0.00000000000E+00 0. -1.
</event>
<event>
 4    1  0.9957587E-003  0.9118800E+02  0.7818608E-02  0.1130116E+00
         25   -1    0    0    0    0  0.00000000000E+00  0.00000000000E+00  0.99999998245E-14  0.12500000000E+03  0.12500000000E+03 0.  0.
        -13    1    1    0    0    0  0.14225728855E+01  0.41377922219E+02 -0.13945408854E+02  0.43688004680E+02  0.10566000000E+00 0. -1.
         13    1    1    0    0    0  0.16418781207E+01  0.19083257910E+02 -0.14695879772E+00  0.19154614513E+02  0.10566000000E+00 0.  1.
         22    1    1    0    0    0 -0.30644510062E+01 -0.60461180130E+02  0.14092367652E+02  0.62157380806E+02  0.00000000000E+00 0.  1.
</event>
<event>
 4    1  0.9957587E-003  0.9118800E+02  0.7818608E-02  0.1130116E+00
         25   -1    0    0    0    0  0.00000000000E+00  0.00000000000E+00  0.99999998245E-14  0.12500000000E+03  0.12500000000E+03 0.  0.
        -13    1    1    0    0    0  0.14525072386E+02  0.20565310903E+02 -0.33977332159E+02  0.42289242190E+02  0.10566000000E+00 0. -1.
         13    1    1    0    0    0  0.62856425781E+01  0.10077362901E+02 -0.16357894720E+02  0.20215202927E+02  0.10566000000E+00 0.  1.
         22    1    1    0    0    0 -0.20810714964E+02 -0.30642673804E+02  0.50335226879E+02  0.62495554883E+02  0.00000000000E+00 0.  1.
</event>
<event>
 4    1  0.9957587E-003  0.9118800E+02  0.7818608E-02  0.1130116E+00
         25   -1    0    0    0    0  0.00000000000E+00  0.00000000000E+00  0.99999998245E-14  0.12500000000E+03  0.12500000000E+03 0.  0.
        -13    1    1    0    0    0  0.22207183271E+02  0.12153329064E+02 -0.22409487188E+02  0.33809150777E+02  0.10566000000E+00 0.  1.
         13    1    1    0    0    0  0.19912426965E+02  0.16853126959E+02 -0.12842404479E+02  0.29076986652E+02  0.10566000000E+00 0. -1.
         22    1    1    0    0    0 -0.42119610236E+02 -0.29006456023E+02  0.35251891667E+02  0.62113862571E+02  0.00000000000E+00 0. -1.
</event>
<event>
 4    1  0.9957587E-003  0.9118800E+02  0.7818608E-02  0.1130116E+00
         25   -1    0    0    0    0  0.00000000000E+00  0.00000000000E+00  0.99999998245E-14  0.12500000000E+03  0.12500000000E+03 0.  0.
        -13    1    1    0    0    0  0.24770480537E+02  0.58965170073E+01 -0.23584416268E+02  0.34707081030E+02  0.10566000000E+00 0. -1.
         13    1    1    0    0    0  0.19348942421E+02  0.70523486596E+01 -0.18705921168E+02  0.27821571581E+02  0.10566000000E+00 0.  1.
         22    1    1    0    0    0 -0.44119422959E+02 -0.12948865667E+02  0.42290337436E+02  0.62471347390E+02  0.00000000000E+00 0. -1.
</event>
<event>
 4    1  0.9957587E-003  0.9118800E+02  0.7818608E-02  0.1130116E+00
         25   -1    0    0    0    0  0.00000000000E+00  0.00000000000E+00  0.99999998245E-14  0.12500000000E+03  0.12500000000E+03 0.  0.
        -13    1    1    0    0    0  0.16435977158E+02 -0.27018971414E+02  0.17871353454E+02  0.36325784227E+02  0.10566000000E+00 0.  1.
         13    1    1    0    0    0  0.11154225428E+02 -0.19677082310E+02  0.13178030559E+02  0.26177776197E+02  0.10566000000E+00 0. -1.
         22    1    1    0    0    0 -0.27590202586E+02  0.46696053724E+02 -0.31049384013E+02  0.62496439576E+02  0.00000000000E+00 0. -1.
</event>
<event>
 4    1  0.9957587E-003  0.9118800E+02  0.7818608E-02  0.1130116E+00
         25   -1    0    0    0    0  0.00000000000E+00  0.00000000000E+00  0.99999998245E-14  0.12500000000E+03  0.12500000000E+03 0.  0.
        -13    1    1    0    0    0  0.32891255545E+01  0.11970033477E+02  0.13368499003E+02  0.18243573608E+02  0.10566000000E+00 0. -1.
         13    1    1    0    0    0  0.16651805443E+02  0.95126536141E+01  0.40846868504E+02  0.45124838326E+02  0.10566000000E+00 0.  1.
         22    1    1    0    0    0 -0.19940930998E+02 -0.21482687091E+02 -0.54215367507E+02  0.61631588067E+02  0.00000000000E+00 0. -1.
</event>
<event>
 4    1  0.9957587E-003  0.9118800E+02  0.7818608E-02  0.1130116E+00
         25   -1    0    0    0    0  0.00000000000E+00  0.00000000000E+00  0.99999998245E-14  0.12500000000E+03  0.12500000000E+03 0.  0.
        -13    1    1    0    0    0 -0.36515825040E+02  0.48749795614E+01 -0.23281306545E+02  0.43579826785E+02  0.10566000000E+00 0. -1.
         13    1    1    0    0    0  0.33349524919E+00  0.12088348137E+02 -0.19457384718E+02  0.22909394664E+02  0.10566000000E+00 0.  1.
         22    1    1    0    0    0  0.36182329791E+02 -0.16963327699E+02  0.42738691263E+02  0.58510778551E+02  0.00000000000E+00 0. -1.
</event>
<event>
 4    1  0.9957587E-003  0.9118800E+02  0.7818608E-02  0.1130116E+00
         25   -1    0    0    0    0  0.00000000000E+00  0.00000000000E+00  0.99999998245E-14  0.12500000000E+03  0.12500000000E+03 0.  0.
        -13    1    1    0    0    0  0.25653724280E+02  0.49265839617E+02 -0.24343641036E+02  0.60645367058E+02  0.10566000000E+00 0.  1.
         13    1    1    0    0    0  0.60445571573E+00  0.15431517422E+01 -0.84176444826E+00  0.18618312044E+01  0.10566000000E+00 0. -1.
         22    1    1    0    0    0 -0.26258179996E+02 -0.50808991359E+02  0.25185405485E+02  0.62492801738E+02  0.00000000000E+00 0.  1.
</event>
<event>
 4    1  0.9957587E-003  0.9118800E+02  0.7818608E-02  0.1130116E+00
         25   -1    0    0    0    0  0.00000000000E+00  0.00000000000E+00  0.99999998245E-14  0.12500000000E+03  0.12500000000E+03 0.  0.
        -13    1    1    0    0    0 -0.23189263063E+02 -0.20153211777E+01  0.26852177340E+02  0.35536657592E+02  0.10566000000E+00 0. -1.
         13    1    1    0    0    0 -0.17537874279E+02 -0.17791269201E+01  0.20403359911E+02  0.26963875584E+02  0.10566000000E+00 0.  1.
         22    1    1    0    0    0  0.40727137342E+02  0.37944480978E+01 -0.47255537251E+02  0.62499466824E+02  0.00000000000E+00 0.  1.
</event>
<event>
 4    1  0.9957587E-003  0.9118800E+02  0.7818608E-02  0.1130116E+00
         25   -1    0    0    0    0  0.00000000000E+00  0.00000000000E+00  0.99999998245E-14  0.12500000000E+03  0.12500000000E+03 0.  0.
        -13    1    1    0    0    0 -0.37017323238E+01  0.15560772723E+01 -0.45790061454E+01  0.60911952841E+01  0.10566000000E+00 0. -1.
         13    1    1    0    0    0 -0.28172831366E+02  0.38709510979E+02 -0.30455193603E+02  0.56742088866E+02  0.10566000000E+00 0.  1.
         22    1    1    0    0    0  0.31874563690E+02 -0.40265588251E+02  0.35034199748E+02  0.62166715850E+02  0.00000000000E+00 0.  1.
</event>
<event>
 4    1  0.9957587E-003  0.9118800E+02  0.7818608E-02  0.1130116E+00
         25   -1    0    0    0    0  0.00000000000E+00  0.00000000000E+00  0.99999998245E-14  0.12500000000E+03  0.12500000000E+03 0.  0.
        -13    1    1    0    0    0  0.52773147796E+01 -0.33432342833E+02  0.21457073134E+02  0.40074789458E+02  0.10566000000E+00 0.  1.
         13    1    1    0    0    0  0.14720313289E+01 -0.18195999409E+02  0.13068094725E+02  0.22451002973E+02  0.10566000000E+00 0. -1.
         22    1    1    0    0    0 -0.67493461085E+01  0.51628342242E+02 -0.34525167859E+02  0.62474207568E+02  0.00000000000E+00 0.  1.
</event>
<event>
 4    1  0.9957587E-003  0.9118800E+02  0.7818608E-02  0.1130116E+00
         25   -1    0    0    0    0  0.00000000000E+00  0.00000000000E+00  0.99999998245E-14  0.12500000000E+03  0.12500000000E+03 0.  0.
        -13    1    1    0    0    0  0.27810177140E+02  0.25186549256E+02  0.44197725902E+02  0.57976015342E+02  0.10566000000E+00 0.  1.
         13    1    1    0    0    0 -0.26916645677E+01  0.41310086674E+01  0.32106425209E+01  0.58846988188E+01  0.10566000000E+00 0. -1.
         22    1    1    0    0    0 -0.25118512573E+02 -0.29317557923E+02 -0.47408368423E+02  0.61139285839E+02  0.00000000000E+00 0.  1.
</event>
<event>
 4    1  0.9957587E-003  0.9118800E+02  0.7818608E-02  0.1130116E+00
         25   -1    0    0    0    0  0.00000000000E+00  0.00000000000E+00  0.99999998245E-14  0.12500000000E+03  0.12500000000E+03 0.  0.
        -13    1    1    0    0    0  0.18373731649E+01 -0.27631245383E+02 -0.50466857509E+01  0.28148567684E+02  0.10566000000E+00 0. -1.
         13    1    1    0    0    0  0.33715645774E+01 -0.33603068816E+02 -0.63074334503E+01  0.34355910151E+02  0.10566000000E+00 0.  1.
         22    1    1    0    0    0 -0.52089377424E+01  0.61234314199E+02  0.11354119201E+02  0.62495522165E+02  0.00000000000E+00 0.  1.
</event>
<event>
 4    1  0.9957587E-003  0.9118800E+02  0.7818608E-02  0.1130116E+00
         25   -1    0    0    0    0  0.00000000000E+00  0.00000000000E+00  0.99999998245E-14  0.12500000000E+03  0.12500000000E+03 0.  0.
        -13    1    1    0    0    0  0.18768336595E+02  0.84777155779E+01 -0.28270760449E+02  0.34976694818E+02  0.10566000000E+00 0.  1.
         13    1    1    0    0    0  0.15306894967E+02  0.37627111626E+01 -0.22617694642E+02  0.27568647115E+02  0.10566000000E+00 0. -1.
         22    1    1    0    0    0 -0.34075231562E+02 -0.12240426741E+02  0.50888455091E+02  0.62454658067E+02  0.00000000000E+00 0. -1.
</event>
<event>
 4    1  0.9957587E-003  0.9118800E+02  0.7818608E-02  0.1130116E+00
         25   -1    0    0    0    0  0.00000000000E+00  0.00000000000E+00  0.99999998245E-14  0.12500000000E+03  0.12500000000E+03 0.  0.
        -13    1    1    0    0    0 -0.40697093902E+01  0.32393535860E+02 -0.44447782211E+02  0.55149979216E+02  0.10566000000E+00 0.  1.
         13    1    1    0    0    0 -0.10858871376E+01  0.44969505789E+01 -0.57252326848E+01  0.73614651201E+01  0.10566000000E+00 0.  1.
         22    1    1    0    0    0  0.51555965277E+01 -0.36890486438E+02  0.50173014896E+02  0.62488555664E+02  0.00000000000E+00 0.  1.
</event>
<event>
 4    1  0.9957587E-003  0.9118800E+02  0.7818608E-02  0.1130116E+00
         25   -1    0    0    0    0  0.00000000000E+00  0.00000000000E+00  0.99999998245E-14  0.12500000000E+03  0.12500000000E+03 0.  0.
        -13    1    1    0    0    0 -0.18368855131E+02  0.23193786074E+02  0.13865915914E+02  0.32674781398E+02  0.10566000000E+00 0.  1.
         13    1    1    0    0    0 -0.16993409756E+02  0.22505061138E+02  0.98408325545E+01  0.29868158654E+02  0.10566000000E+00 0. -1.
         22    1    1    0    0    0  0.35362264887E+02 -0.45698847211E+02 -0.23706748469E+02  0.62457059948E+02  0.00000000000E+00 0.  1.
</event>
<event>
 4    1  0.9957587E-003  0.9118800E+02  0.7818608E-02  0.1130116E+00
         25   -1    0    0    0    0  0.00000000000E+00  0.00000000000E+00  0.99999998245E-14  0.12500000000E+03  0.12500000000E+03 0.  0.
        -13    1    1    0    0    0 -0.85031190047E+01 -0.25560469644E+02 -0.65430716520E+01  0.27721175875E+02  0.10566000000E+00 0. -1.
         13    1    1    0    0    0  0.12612918743E+02  0.30756036650E+02 -0.39006667912E+02  0.51249886002E+02  0.10566000000E+00 0.  1.
         22    1    1    0    0    0 -0.41097997382E+01 -0.51955670060E+01  0.45549739564E+02  0.46028938123E+02  0.00000000000E+00 0.  1.
</event>
<event>
 4    1  0.9957587E-003  0.9118800E+02  0.7818608E-02  0.1130116E+00
         25   -1    0    0    0    0  0.00000000000E+00  0.00000000000E+00  0.99999998245E-14  0.12500000000E+03  0.12500000000E+03 0.  0.
        -13    1    1    0    0    0 -0.70727698360E+01  0.17196985196E+02  0.20450176069E+02  0.27640210533E+02  0.10566000000E+00 0. -1.
         13    1    1    0    0    0 -0.77392680181E+01  0.21564559803E+02  0.26280114303E+02  0.34865198706E+02  0.10566000000E+00 0.  1.
         22    1    1    0    0    0  0.14812037854E+02 -0.38761545000E+02 -0.46730290372E+02  0.62494590761E+02  0.00000000000E+00 0.  1.
</event>
<event>
 4    1  0.9957587E-003  0.9118800E+02  0.7818608E-02  0.1130116E+00
         25   -1    0    0    0    0  0.00000000000E+00  0.00000000000E+00  0.99999998245E-14  0.12500000000E+03  0.12500000000E+03 0.  0.
        -13    1    1    0    0    0 -0.11263212023E+02  0.51470260288E+01 -0.70111770199E+01  0.14230937750E+02  0.10566000000E+00 0.  1.
         13    1    1    0    0    0 -0.34362018297E+02  0.12338705239E+02 -0.31762451255E+02  0.48392731088E+02  0.10566000000E+00 0. -1.
         22    1    1    0    0    0  0.45625230319E+02 -0.17485731268E+02  0.38773628275E+02  0.62376331162E+02  0.00000000000E+00 0. -1.
</event>
<event>
 4    1  0.9957587E-003  0.9118800E+02  0.7818608E-02  0.1130116E+00
         25   -1    0    0    0    0  0.00000000000E+00  0.00000000000E+00  0.99999998245E-14  0.12500000000E+03  0.12500000000E+03 0.  0.
        -13    1    1    0    0    0 -0.41077810812E+01  0.45689923844E+01 -0.14114402201E+02  0.15394059580E+02  0.10566000000E+00 0.  1.
         13    1    1    0    0    0 -0.14370477302E+02  0.14846453952E+02 -0.42339508371E+02  0.47112343882E+02  0.10566000000E+00 0. -1.
         22    1    1    0    0    0  0.18478258384E+02 -0.19415446337E+02  0.56453910573E+02  0.62493596538E+02  0.00000000000E+00 0. -1.
</event>
<event>
 4    1  0.9957587E-003  0.9118800E+02  0.7818608E-02  0.1130116E+00
         25   -1    0    0    0    0  0.00000000000E+00  0.00000000000E+00  0.99999998245E-14  0.12500000000E+03  0.12500000000E+03 0.  0.
        -13    1    1    0    0    0 -0.47660308921E+00 -0.79689950349E+01  0.23897129229E+02  0.25195554802E+02  0.10566000000E+00 0. -1.
         13    1    1    0    0    0  0.85437470929E+01 -0.34746612174E+02  0.17450340690E+02  0.39810152300E+02  0.10566000000E+00 0.  1.
         22    1    1    0    0    0 -0.80671440037E+01  0.42715607209E+02 -0.41347469919E+02  0.59994292897E+02  0.00000000000E+00 0. -1.
</event>
<event>
 4    1  0.9957587E-003  0.9118800E+02  0.7818608E-02  0.1130116E+00
         25   -1    0    0    0    0  0.00000000000E+00  0.00000000000E+00  0.99999998245E-14  0.12500000000E+03  0.12500000000E+03 0.  0.
        -13    1    1    0    0    0  0.13288872289E+02  0.13874511733E+02  0.44786770933E+02  0.48733584079E+02  0.10566000000E+00 0. -1.
         13    1    1    0    0    0  0.28414068634E+01  0.54292580294E+01  0.12377550794E+02  0.13811783498E+02  0.10566000000E+00 0.  1.
         22    1    1    0    0    0 -0.16130279152E+02 -0.19303769762E+02 -0.57164321727E+02  0.62454632423E+02  0.00000000000E+00 0. -1.
</event>
<event>
 4    1  0.9957587E-003  0.9118800E+02  0.7818608E-02  0.1130116E+00
         25   -1    0    0    0    0  0.00000000000E+00  0.00000000000E+00  0.99999998245E-14  0.12500000000E+03  0.12500000000E+03 0.  0.
        -13    1    1    0    0    0  0.13034602604E+02  0.31442706581E+01  0.22781319995E+02  0.26434579772E+02  0.10566000000E+00 0.  1.
         13    1    1    0    0    0  0.14590731880E+02  0.57032644760E+01  0.32531900503E+02  0.36107511640E+02  0.10566000000E+00 0. -1.
         22    1    1    0    0    0 -0.27625334484E+02 -0.88475351341E+01 -0.55313220498E+02  0.62457908587E+02  0.00000000000E+00 0. -1.
</event>
<event>
 4    1  0.9957587E-003  0.9118800E+02  0.7818608E-02  0.1130116E+00
         25   -1    0    0    0    0  0.00000000000E+00  0.00000000000E+00  0.99999998245E-14  0.12500000000E+03  0.12500000000E+03 0.  0.
        -13    1    1    0    0    0 -0.97198557825E+01  0.10687999551E+02  0.91538807691E+01  0.17103029791E+02  0.10566000000E+00 0.  1.
         13    1    1    0    0    0 -0.26078183787E+02  0.28308226661E+02  0.24072490918E+02  0.45397393640E+02  0.10566000000E+00 0.  1.
         22    1    1    0    0    0  0.35798039569E+02 -0.38996226212E+02 -0.33226371687E+02  0.62499576569E+02  0.00000000000E+00 0.  1.
</event>
<event>
 4    1  0.9957587E-003  0.9118800E+02  0.7818608E-02  0.1130116E+00
         25   -1    0    0    0    0  0.00000000000E+00  0.00000000000E+00  0.99999998245E-14  0.12500000000E+03  0.12500000000E+03 0.  0.
        -13    1    1    0    0    0 -0.37646510077E+02  0.77072306627E+01  0.11425711229E+02  0.40090138021E+02  0.10566000000E+00 0. -1.
         13    1    1    0    0    0 -0.20947396189E+02  0.39732760944E+01  0.69098358748E+01  0.22412883034E+02  0.10566000000E+00 0.  1.
         22    1    1    0    0    0  0.58593906266E+02 -0.11680506757E+02 -0.18335547104E+02  0.62496978945E+02  0.00000000000E+00 0. -1.
</event>
<event>
 4    1  0.9957587E-003  0.9118800E+02  0.7818608E-02  0.1130116E+00
         25   -1    0    0    0    0  0.00000000000E+00  0.00000000000E+00  0.99999998245E-14  0.12500000000E+03  0.12500000000E+03 0.  0.
        -13    1    1    0    0    0 -0.31608412941E+01  0.20952977895E+02 -0.85196778663E+00  0.21207432977E+02  0.10566000000E+00 0.  1.
         13    1    1    0    0    0 -0.19973488004E+02  0.28792727502E+02 -0.25097765505E+02  0.43103020514E+02  0.10566000000E+00 0. -1.
         22    1    1    0    0    0  0.23134329298E+02 -0.49745705397E+02  0.25949733292E+02  0.60689546509E+02  0.00000000000E+00 0. -1.
</event>
<event>
 4    1  0.9957587E-003  0.9118800E+02  0.7818608E-02  0.1130116E+00
         25   -1    0    0    0    0  0.00000000000E+00  0.00000000000E+00  0.99999998245E-14  0.12500000000E+03  0.12500000000E+03 0.  0.
        -13    1    1    0    0    0 -0.16444548209E+02 -0.77829189116E+01 -0.13548652374E+02  0.22684226630E+02  0.10566000000E+00 0.  1.
         13    1    1    0    0    0 -0.30804586206E+02  0.22665280846E+01 -0.26061392195E+02  0.40413698272E+02  0.10566000000E+00 0. -1.
         22    1    1    0    0    0  0.47249134415E+02  0.55163908270E+01  0.39610044569E+02  0.61902075098E+02  0.00000000000E+00 0. -1.
</event>
<event>
 4    1  0.9957587E-003  0.9118800E+02  0.7818608E-02  0.1130116E+00
         25   -1    0    0    0    0  0.00000000000E+00  0.00000000000E+00  0.99999998245E-14  0.12500000000E+03  0.12500000000E+03 0.  0.
        -13    1    1    0    0    0 -0.28387151983E+01  0.13491612909E+02 -0.45047742154E+00  0.13794782231E+02  0.10566000000E+00 0.  1.
         13    1    1    0    0    0  0.25168812870E+02 -0.42645923250E+02 -0.34623813526E+02  0.60423203641E+02  0.10566000000E+00 0. -1.
         22    1    1    0    0    0 -0.22330097672E+02  0.29154310341E+02  0.35074290947E+02  0.50782014128E+02  0.00000000000E+00 0. -1.
</event>
<event>
 4    1  0.9957587E-003  0.9118800E+02  0.7818608E-02  0.1130116E+00
         25   -1    0    0    0    0  0.00000000000E+00  0.00000000000E+00  0.99999998245E-14  0.12500000000E+03  0.12500000000E+03 0.  0.
        -13    1    1    0    0    0  0.72453116902E+01  0.23166177448E+02 -0.14690850422E+02  0.28372496704E+02  0.10566000000E+00 0. -1.
         13    1    1    0    0    0 -0.16842089335E+02 -0.60355080862E+01  0.51713017301E+02  0.54720477460E+02  0.10566000000E+00 0.  1.
         22    1    1    0    0    0  0.95967776446E+01 -0.17130669362E+02 -0.37022166880E+02  0.41907025836E+02  0.00000000000E+00 0.  1.
</event>
<event>
 4    1  0.9957587E-003  0.9118800E+02  0.7818608E-02  0.1130116E+00
         25   -1    0    0    0    0  0.00000000000E+00  0.00000000000E+00  0.99999998245E-14  0.12500000000E+03  0.12500000000E+03 0.  0.
        -13    1    1    0    0    0 -0.44421616944E+00 -0.50131797980E+01  0.48267769327E+01  0.69741120787E+01  0.10566000000E+00 0. -1.
         13    1    1    0    0    0 -0.11048972905E+02 -0.39044446249E+02  0.37944949074E+02  0.55555187961E+02  0.10566000000E+00 0.  1.
         22    1    1    0    0    0  0.11493189074E+02  0.44057626047E+02 -0.42771726007E+02  0.62470699960E+02  0.00000000000E+00 0.  1.
</event>
<event>
 4    1  0.9957587E-003  0.9118800E+02  0.7818608E-02  0.1130116E+00
         25   -1    0    0    0    0  0.00000000000E+00  0.00000000000E+00  0.99999998245E-14  0.12500000000E+03  0.12500000000E+03 0.  0.
        -13    1    1    0    0    0 -0.54370991552E+02  0.12805463926E+01  0.14605587519E+01  0.54405780183E+02  0.10566000000E+00 0.  1.
         13    1    1    0    0    0 -0.80731070141E+01  0.68191551613E+00 -0.32092787349E+00  0.81088978516E+01  0.10566000000E+00 0. -1.
         22    1    1    0    0    0  0.62444098567E+02 -0.19624619087E+01 -0.11396308784E+01  0.62485321965E+02  0.00000000000E+00 0.  1.
</event>
<event>
 4    1  0.9957587E-003  0.9118800E+02  0.7818608E-02  0.1130116E+00
         25   -1    0    0    0    0  0.00000000000E+00  0.00000000000E+00  0.99999998245E-14  0.12500000000E+03  0.12500000000E+03 0.  0.
        -13    1    1    0    0    0  0.31487597125E+00 -0.82043142105E+00  0.31278140731E+01  0.32506367846E+01  0.10566000000E+00 0.  1.
         13    1    1    0    0    0 -0.30472867211E+02 -0.40986354119E+02  0.31169344818E+02  0.59833235584E+02  0.10566000000E+00 0. -1.
         22    1    1    0    0    0  0.30157991240E+02  0.41806785540E+02 -0.34297158891E+02  0.61916127631E+02  0.00000000000E+00 0. -1.
</event>
<event>
 4    1  0.9957587E-003  0.9118800E+02  0.7818608E-02  0.1130116E+00
         25   -1    0    0    0    0  0.00000000000E+00  0.00000000000E+00  0.99999998245E-14  0.12500000000E+03  0.12500000000E+03 0.  0.
        -13    1    1    0    0    0  0.27951690509E+02  0.41670475298E+02  0.10871108157E+02  0.51341188830E+02  0.10566000000E+00 0. -1.
         13    1    1    0    0    0  0.62180387468E+01  0.89624683389E+01  0.23530698165E+01  0.11159657082E+02  0.10566000000E+00 0. -1.
         22    1    1    0    0    0 -0.34169729256E+02 -0.50632943637E+02 -0.13224177974E+02  0.62499154089E+02  0.00000000000E+00 0. -1.
</event>
<event>
 4    1  0.9957587E-003  0.9118800E+02  0.7818608E-02  0.1130116E+00
         25   -1    0    0    0    0  0.00000000000E+00  0.00000000000E+00  0.99999998245E-14  0.12500000000E+03  0.12500000000E+03 0.  0.
        -13    1    1    0    0    0  0.21346407688E+01  0.36095776701E+02 -0.20927257324E+01  0.36219503750E+02  0.10566000000E+00 0.  1.
         13    1    1    0    0    0  0.55534157626E+00  0.26173355205E+02 -0.24142759530E+01  0.26290546198E+02  0.10566000000E+00 0. -1.
         22    1    1    0    0    0 -0.26899823451E+01 -0.62269131906E+02  0.45070016854E+01  0.62489950052E+02  0.00000000000E+00 0.  1.
</event>
<event>
 4    1  0.9957587E-003  0.9118800E+02  0.7818608E-02  0.1130116E+00
         25   -1    0    0    0    0  0.00000000000E+00  0.00000000000E+00  0.99999998245E-14  0.12500000000E+03  0.12500000000E+03 0.  0.
        -13    1    1    0    0    0  0.43942770582E+02 -0.18450912449E+02  0.37813510112E+02  0.60838112788E+02  0.10566000000E+00 0. -1.
         13    1    1    0    0    0  0.15286714068E+01  0.32602124381E+01 -0.45835210991E+01  0.58297213581E+01  0.10566000000E+00 0.  1.
         22    1    1    0    0    0 -0.45471441989E+02  0.15190700011E+02 -0.33229989012E+02  0.58332165853E+02  0.00000000000E+00 0. -1.
</event>
<event>
 4    1  0.9957587E-003  0.9118800E+02  0.7818608E-02  0.1130116E+00
         25   -1    0    0    0    0  0.00000000000E+00  0.00000000000E+00  0.99999998245E-14  0.12500000000E+03  0.12500000000E+03 0.  0.
        -13    1    1    0    0    0 -0.38359252164E+02  0.26005964833E+02 -0.33270700788E+02  0.57049917865E+02  0.10566000000E+00 0. -1.
         13    1    1    0    0    0 -0.45212943305E+01 -0.21817281429E+01 -0.39372781626E+01  0.63808591488E+01  0.10566000000E+00 0.  1.
         22    1    1    0    0    0  0.42880546494E+02 -0.23824236690E+02  0.37207978951E+02  0.61569222986E+02  0.00000000000E+00 0. -1.
</event>
<event>
 4    1  0.9957587E-003  0.9118800E+02  0.7818608E-02  0.1130116E+00
         25   -1    0    0    0    0  0.00000000000E+00  0.00000000000E+00  0.99999998245E-14  0.12500000000E+03  0.12500000000E+03 0.  0.
        -13    1    1    0    0    0 -0.12312716237E+02 -0.38914405324E+01 -0.52843940930E+02  0.54398892889E+02  0.10566000000E+00 0. -1.
         13    1    1    0    0    0 -0.19167336153E+01 -0.73229387369E+00 -0.78375171694E+01  0.81023429627E+01  0.10566000000E+00 0. -1.
         22    1    1    0    0    0  0.14229449853E+02  0.46237344061E+01  0.60681458099E+02  0.62498764148E+02  0.00000000000E+00 0. -1.
</event>
<event>
 4    1  0.9957587E-003  0.9118800E+02  0.7818608E-02  0.1130116E+00
         25   -1    0    0    0    0  0.00000000000E+00  0.00000000000E+00  0.99999998245E-14  0.12500000000E+03  0.12500000000E+03 0.  0.
        -13    1    1    0    0    0  0.22829289113E+02  0.80447054409E+01 -0.18132761725E+02  0.30244039724E+02  0.10566000000E+00 0.  1.
         13    1    1    0    0    0  0.27601519233E+02  0.79567121254E+01 -0.14922428650E+02  0.32370405816E+02  0.10566000000E+00 0. -1.
         22    1    1    0    0    0 -0.50430808346E+02 -0.16001417566E+02  0.33055190375E+02  0.62385554460E+02  0.00000000000E+00 0. -1.
</event>
<event>
 4    1  0.9957587E-003  0.9118800E+02  0.7818608E-02  0.1130116E+00
         25   -1    0    0    0    0  0.00000000000E+00  0.00000000000E+00  0.99999998245E-14  0.12500000000E+03  0.12500000000E+03 0.  0.
        -13    1    1    0    0    0  0.49977129192E+01 -0.14529668376E+02  0.17533761790E+02  0.23313780561E+02  0.10566000000E+00 0.  1.
         13    1    1    0    0    0  0.43802831650E+01 -0.27813028243E+02  0.27364280308E+02  0.39262786725E+02  0.10566000000E+00 0. -1.
         22    1    1    0    0    0 -0.93779960842E+01  0.42342696619E+02 -0.44898042097E+02  0.62423432713E+02  0.00000000000E+00 0. -1.
</event>
<event>
 4    1  0.9957587E-003  0.9118800E+02  0.7818608E-02  0.1130116E+00
         25   -1    0    0    0    0  0.00000000000E+00  0.00000000000E+00  0.99999998245E-14  0.12500000000E+03  0.12500000000E+03 0.  0.
        -13    1    1    0    0    0 -0.26570222888E+01 -0.52106364370E+01  0.14624483263E+02  0.15751100732E+02  0.10566000000E+00 0. -1.
         13    1    1    0    0    0 -0.84985504612E+01 -0.13955598036E+02  0.43804577375E+02  0.46752927604E+02  0.10566000000E+00 0.  1.
         22    1    1    0    0    0  0.11155572750E+02  0.19166234473E+02 -0.58429060638E+02  0.62495971664E+02  0.00000000000E+00 0.  1.
</event>
<event>
 4    1  0.9957587E-003  0.9118800E+02  0.7818608E-02  0.1130116E+00
         25   -1    0    0    0    0  0.00000000000E+00  0.00000000000E+00  0.99999998245E-14  0.12500000000E+03  0.12500000000E+03 0.  0.
        -13    1    1    0    0    0  0.65286777818E+01 -0.77035699458E+01 -0.54528693389E+01  0.11476653325E+02  0.10566000000E+00 0.  1.
         13    1    1    0    0    0  0.28554887204E+02 -0.33178731402E+02 -0.26223599017E+02  0.51028404934E+02  0.10566000000E+00 0. -1.
         22    1    1    0    0    0 -0.35083564986E+02  0.40882301348E+02  0.31676468356E+02  0.62494941740E+02  0.00000000000E+00 0. -1.
</event>
<event>
 4    1  0.9957587E-003  0.9118800E+02  0.7818608E-02  0.1130116E+00
         25   -1    0    0    0    0  0.00000000000E+00  0.00000000000E+00  0.99999998245E-14  0.12500000000E+03  0.12500000000E+03 0.  0.
        -13    1    1    0    0    0  0.15622790385E+02 -0.34771331170E+02  0.16762283033E+02  0.41642554524E+02  0.10566000000E+00 0. -1.
         13    1    1    0    0    0  0.89928921067E+01 -0.16539093460E+02  0.90254891336E+01  0.20877843257E+02  0.10566000000E+00 0.  1.
         22    1    1    0    0    0 -0.24615682491E+02  0.51310424630E+02 -0.25787772167E+02  0.62479602220E+02  0.00000000000E+00 0. -1.
</event>
<event>
 4    1  0.9957587E-003  0.9118800E+02  0.7818608E-02  0.1130116E+00
         25   -1    0    0    0    0  0.00000000000E+00  0.00000000000E+00  0.99999998245E-14  0.12500000000E+03  0.12500000000E+03 0.  0.
        -13    1    1    0    0    0 -0.66803411017E+01  0.23408208109E+02  0.37553478842E+01  0.24630975739E+02  0.10566000000E+00 0. -1.
         13    1    1    0    0    0 -0.96856167015E+01  0.22319342570E+02  0.31898989920E+02  0.40118835297E+02  0.10566000000E+00 0.  1.
         22    1    1    0    0    0  0.16365957803E+02 -0.45727550679E+02 -0.35654337804E+02  0.60250188964E+02  0.00000000000E+00 0.  1.
</event>
<event>
 4    1  0.9957587E-003  0.9118800E+02  0.7818608E-02  0.1130116E+00
         25   -1    0    0    0    0  0.00000000000E+00  0.00000000000E+00  0.99999998245E-14  0.12500000000E+03  0.12500000000E+03 0.  0.
        -13    1    1    0    0    0  0.26936482821E+02  0.32040551731E+02 -0.94260352143E+00  0.41869687453E+02  0.10566000000E+00 0. -1.
         13    1    1    0    0    0  0.14147982050E+02  0.14910421562E+02 -0.21390091417E+01  0.20665734717E+02  0.10566000000E+00 0.  1.
         22    1    1    0    0    0 -0.41084464870E+02 -0.46950973293E+02  0.30816126631E+01  0.62464577830E+02  0.00000000000E+00 0. -1.
</event>
<event>
 4    1  0.9957587E-003  0.9118800E+02  0.7818608E-02  0.1130116E+00
         25   -1    0    0    0    0  0.00000000000E+00  0.00000000000E+00  0.99999998245E-14  0.12500000000E+03  0.12500000000E+03 0.  0.
        -13    1    1    0    0    0 -0.55843179256E+01 -0.36887779771E+01  0.50454981672E+01  0.83821181959E+01  0.10566000000E+00 0. -1.
         13    1    1    0    0    0 -0.35723451953E+02 -0.27891698283E+02  0.29603672651E+02  0.54134096935E+02  0.10566000000E+00 0.  1.
         22    1    1    0    0    0  0.41307769878E+02  0.31580476261E+02 -0.34649170818E+02  0.62483784869E+02  0.00000000000E+00 0.  1.
</event>
<event>
 4    1  0.9957587E-003  0.9118800E+02  0.7818608E-02  0.1130116E+00
         25   -1    0    0    0    0  0.00000000000E+00  0.00000000000E+00  0.99999998245E-14  0.12500000000E+03  0.12500000000E+03 0.  0.
        -13    1    1    0    0    0 -0.24356344314E+02 -0.55145202904E+01 -0.49370994084E+01  0.25456385387E+02  0.10566000000E+00 0.  1.
         13    1    1    0    0    0 -0.35538367245E+02 -0.76751887663E+01 -0.70976131247E+01  0.37044180989E+02  0.10566000000E+00 0.  1.
         22    1    1    0    0    0  0.59894711558E+02  0.13189709057E+02  0.12034712533E+02  0.62499433625E+02  0.00000000000E+00 0.  1.
</event>
<event>
 4    1  0.9957587E-003  0.9118800E+02  0.7818608E-02  0.1130116E+00
         25   -1    0    0    0    0  0.00000000000E+00  0.00000000000E+00  0.99999998245E-14  0.12500000000E+03  0.12500000000E+03 0.  0.
        -13    1    1    0    0    0 -0.42923930774E+01 -0.17209139732E+01 -0.19208545895E+02  0.19757671489E+02  0.10566000000E+00 0. -1.
         13    1    1    0    0    0 -0.89124761362E+01 -0.30572930093E+01 -0.41692072735E+02  0.42743647065E+02  0.10566000000E+00 0. -1.
         22    1    1    0    0    0  0.13204869214E+02  0.47782069825E+01  0.60900618630E+02  0.62498681446E+02  0.00000000000E+00 0. -1.
</event>
<event>
 4    1  0.9957587E-003  0.9118800E+02  0.7818608E-02  0.1130116E+00
         25   -1    0    0    0    0  0.00000000000E+00  0.00000000000E+00  0.99999998245E-14  0.12500000000E+03  0.12500000000E+03 0.  0.
        -13    1    1    0    0    0 -0.57469050685E+02  0.37664300419E+01  0.62130604856E+01  0.57926600682E+02  0.10566000000E+00 0. -1.
         13    1    1    0    0    0 -0.44361310906E+01 -0.27117967304E+00  0.12603131358E+01  0.46208603857E+01  0.10566000000E+00 0.  1.
         22    1    1    0    0    0  0.61905181776E+02 -0.34952503689E+01 -0.74733736214E+01  0.62452538933E+02  0.00000000000E+00 0. -1.
</event>
<event>
 4    1  0.9957587E-003  0.9118800E+02  0.7818608E-02  0.1130116E+00
         25   -1    0    0    0    0  0.00000000000E+00  0.00000000000E+00  0.99999998245E-14  0.12500000000E+03  0.12500000000E+03 0.  0.
        -13    1    1    0    0    0  0.58109137961E+02  0.55972211397E+00 -0.26134622323E+00  0.58112517320E+02  0.10566000000E+00 0. -1.
         13    1    1    0    0    0  0.43788631397E+01  0.31133682494E+00  0.13568713228E+00  0.43932844261E+01  0.10566000000E+00 0.  1.
         22    1    1    0    0    0 -0.62488001100E+02 -0.87105893891E+00  0.12565909096E+00  0.62494198254E+02  0.00000000000E+00 0. -1.
</event>
<event>
 4    1  0.9957587E-003  0.9118800E+02  0.7818608E-02  0.1130116E+00
         25   -1    0    0    0    0  0.00000000000E+00  0.00000000000E+00  0.99999998245E-14  0.12500000000E+03  0.12500000000E+03 0.  0.
        -13    1    1    0    0    0 -0.65117367662E+01  0.16534338416E+02 -0.30965702051E+02  0.35702561955E+02  0.10566000000E+00 0. -1.
         13    1    1    0    0    0 -0.29767497090E+02 -0.98816727112E+01 -0.11173758558E+02  0.33295876365E+02  0.10566000000E+00 0.  1.
         22    1    1    0    0    0  0.36279233856E+02 -0.66526657044E+01  0.42139460610E+02  0.56001561680E+02  0.00000000000E+00 0.  1.
</event>
<event>
 4    1  0.9957587E-003  0.9118800E+02  0.7818608E-02  0.1130116E+00
         25   -1    0    0    0    0  0.00000000000E+00  0.00000000000E+00  0.99999998245E-14  0.12500000000E+03  0.12500000000E+03 0.  0.
        -13    1    1    0    0    0  0.69451658436E+01  0.18403245335E+01 -0.10756546351E+02  0.12935863961E+02  0.10566000000E+00 0.  1.
         13    1    1    0    0    0  0.27032510938E+02  0.61447985684E+01 -0.41087824139E+02  0.49565468358E+02  0.10566000000E+00 0. -1.
         22    1    1    0    0    0 -0.33977676781E+02 -0.79851231019E+01  0.51844370490E+02  0.62498667681E+02  0.00000000000E+00 0. -1.
</event>
<event>
 4    1  0.9957587E-003  0.9118800E+02  0.7818608E-02  0.1130116E+00
         25   -1    0    0    0    0  0.00000000000E+00  0.00000000000E+00  0.99999998245E-14  0.12500000000E+03  0.12500000000E+03 0.  0.
        -13    1    1    0    0    0 -0.23183593993E+01 -0.10349279343E+02  0.72078524853E+01  0.12823676334E+02  0.10566000000E+00 0.  1.
         13    1    1    0    0    0 -0.81708856039E+01 -0.40845689998E+02  0.27070638438E+02  0.49678611016E+02  0.10566000000E+00 0. -1.
         22    1    1    0    0    0  0.10489245003E+02  0.51194969341E+02 -0.34278490923E+02  0.62497712651E+02  0.00000000000E+00 0. -1.
</event>
<event>
 4    1  0.9957587E-003  0.9118800E+02  0.7818608E-02  0.1130116E+00
         25   -1    0    0    0    0  0.00000000000E+00  0.00000000000E+00  0.99999998245E-14  0.12500000000E+03  0.12500000000E+03 0.  0.
        -13    1    1    0    0    0 -0.44317426986E+00  0.76692671096E+00  0.45804249704E+00  0.10027696536E+01  0.10566000000E+00 0.  1.
         13    1    1    0    0    0  0.15380261163E+02  0.44967106707E+02 -0.39689393568E+02  0.61918109183E+02  0.10566000000E+00 0. -1.
         22    1    1    0    0    0 -0.14937086893E+02 -0.45734033418E+02  0.39231351071E+02  0.62079121163E+02  0.00000000000E+00 0. -1.
</event>
<event>
 4    1  0.9957587E-003  0.9118800E+02  0.7818608E-02  0.1130116E+00
         25   -1    0    0    0    0  0.00000000000E+00  0.00000000000E+00  0.99999998245E-14  0.12500000000E+03  0.12500000000E+03 0.  0.
        -13    1    1    0    0    0  0.13083372814E+02 -0.43422137224E+02 -0.28432564336E+02  0.53526428277E+02  0.10566000000E+00 0. -1.
         13    1    1    0    0    0  0.10501759240E+00 -0.96393839497E+01  0.97045938886E+01  0.13679146838E+02  0.10566000000E+00 0.  1.
         22    1    1    0    0    0 -0.13188390407E+02  0.53061521174E+02  0.18727970447E+02  0.57794424886E+02  0.00000000000E+00 0. -1.
</event>
<event>
 4    1  0.9957587E-003  0.9118800E+02  0.7818608E-02  0.1130116E+00
         25   -1    0    0    0    0  0.00000000000E+00  0.00000000000E+00  0.99999998245E-14  0.12500000000E+03  0.12500000000E+03 0.  0.
        -13    1    1    0    0    0 -0.35622810695E+01 -0.99976097302E+01 -0.65414093358E+01  0.12467688112E+02  0.10566000000E+00 0.  1.
         13    1    1    0    0    0 -0.34141949331E+02 -0.34255008975E+02 -0.14837755718E+02  0.50589015634E+02  0.10566000000E+00 0. -1.
         22    1    1    0    0    0  0.37704230400E+02  0.44252618706E+02  0.21379165054E+02  0.61943296254E+02  0.00000000000E+00 0. -1.
</event>
<event>
 4    1  0.9957587E-003  0.9118800E+02  0.7818608E-02  0.1130116E+00
         25   -1    0    0    0    0  0.00000000000E+00  0.00000000000E+00  0.99999998245E-14  0.12500000000E+03  0.12500000000E+03 0.  0.
        -13    1    1    0    0    0  0.18631188108E+02  0.26396816717E+01 -0.10853720534E+02  0.21723340054E+02  0.10566000000E+00 0. -1.
         13    1    1    0    0    0  0.34334879326E+02  0.43347349308E+01 -0.21574410710E+02  0.40781616284E+02  0.10566000000E+00 0.  1.
         22    1    1    0    0    0 -0.52966067434E+02 -0.69744166025E+01  0.32428131244E+02  0.62495043662E+02  0.00000000000E+00 0.  1.
</event>
<event>
 4    1  0.9957587E-003  0.9118800E+02  0.7818608E-02  0.1130116E+00
         25   -1    0    0    0    0  0.00000000000E+00  0.00000000000E+00  0.99999998245E-14  0.12500000000E+03  0.12500000000E+03 0.  0.
        -13    1    1    0    0    0 -0.26591288541E+02 -0.24185555898E+02 -0.26886207041E+01  0.36045493279E+02  0.10566000000E+00 0.  1.
         13    1    1    0    0    0 -0.15613160851E+02 -0.21023448615E+02 -0.49061833792E+01  0.26642784817E+02  0.10566000000E+00 0. -1.
         22    1    1    0    0    0  0.42204449392E+02  0.45209004513E+02  0.75948040833E+01  0.62311721904E+02  0.00000000000E+00 0.  1.
</event>
<event>
 4    1  0.9957587E-003  0.9118800E+02  0.7818608E-02  0.1130116E+00
         25   -1    0    0    0    0  0.00000000000E+00  0.00000000000E+00  0.99999998245E-14  0.12500000000E+03  0.12500000000E+03 0.  0.
        -13    1    1    0    0    0  0.30391142888E+02  0.33204212259E+02 -0.41751158241E+02  0.61394720101E+02  0.10566000000E+00 0.  1.
         13    1    1    0    0    0  0.34062910391E+00 -0.55351820336E+00  0.65942865773E+01  0.66270800574E+01  0.10566000000E+00 0. -1.
         22    1    1    0    0    0 -0.30731771992E+02 -0.32650694055E+02  0.35156871664E+02  0.56978199842E+02  0.00000000000E+00 0.  1.
</event>
<event>
 4    1  0.9957587E-003  0.9118800E+02  0.7818608E-02  0.1130116E+00
         25   -1    0    0    0    0  0.00000000000E+00  0.00000000000E+00  0.99999998245E-14  0.12500000000E+03  0.12500000000E+03 0.  0.
        -13    1    1    0    0    0  0.33677111089E+01  0.50715937113E+01 -0.42440612352E+01  0.74219782194E+01  0.10566000000E+00 0.  1.
         13    1    1    0    0    0  0.30765985235E+02  0.29120280413E+02 -0.35302095811E+02  0.55143319736E+02  0.10566000000E+00 0. -1.
         22    1    1    0    0    0 -0.34133696344E+02 -0.34191874125E+02  0.39546157046E+02  0.62434702044E+02  0.00000000000E+00 0. -1.
</event>
<event>
 4    1  0.9957587E-003  0.9118800E+02  0.7818608E-02  0.1130116E+00
         25   -1    0    0    0    0  0.00000000000E+00  0.00000000000E+00  0.99999998245E-14  0.12500000000E+03  0.12500000000E+03 0.  0.
        -13    1    1    0    0    0  0.11787807519E+01 -0.25934180517E+02 -0.16730306081E+02  0.30885037619E+02  0.10566000000E+00 0. -1.
         13    1    1    0    0    0  0.11150895732E+01 -0.26556684500E+02 -0.17117452274E+02  0.31615174406E+02  0.10566000000E+00 0. -1.
         22    1    1    0    0    0 -0.22938703250E+01  0.52490865016E+02  0.33847758355E+02  0.62499787975E+02  0.00000000000E+00 0. -1.
</event>
<event>
 4    1  0.9957587E-003  0.9118800E+02  0.7818608E-02  0.1130116E+00
         25   -1    0    0    0    0  0.00000000000E+00  0.00000000000E+00  0.99999998245E-14  0.12500000000E+03  0.12500000000E+03 0.  0.
        -13    1    1    0    0    0  0.95837170910E+01 -0.25790095865E+02  0.17370655236E+02  0.32538093143E+02  0.10566000000E+00 0.  1.
         13    1    1    0    0    0  0.13950979790E+02 -0.25210993677E+02  0.93064134580E+01  0.30279440793E+02  0.10566000000E+00 0. -1.
         22    1    1    0    0    0 -0.23534696881E+02  0.51001089542E+02 -0.26677068694E+02  0.62182466064E+02  0.00000000000E+00 0. -1.
</event>
<event>
 4    1  0.9957587E-003  0.9118800E+02  0.7818608E-02  0.1130116E+00
         25   -1    0    0    0    0  0.00000000000E+00  0.00000000000E+00  0.99999998245E-14  0.12500000000E+03  0.12500000000E+03 0.  0.
        -13    1    1    0    0    0 -0.11929425318E+02 -0.90399062529E+01 -0.68470750017E+01  0.16459790205E+02  0.10566000000E+00 0.  1.
         13    1    1    0    0    0 -0.33911783258E+02 -0.24505258732E+02 -0.19217541559E+02  0.46041739942E+02  0.10566000000E+00 0. -1.
         22    1    1    0    0    0  0.45841208576E+02  0.33545164985E+02  0.26064616560E+02  0.62498469853E+02  0.00000000000E+00 0. -1.
</event>
<event>
 4    1  0.9957587E-003  0.9118800E+02  0.7818608E-02  0.1130116E+00
         25   -1    0    0    0    0  0.00000000000E+00  0.00000000000E+00  0.99999998245E-14  0.12500000000E+03  0.12500000000E+03 0.  0.
        -13    1    1    0    0    0  0.10152010492E+01  0.10752425654E+01  0.44494856453E+01  0.46899750840E+01  0.10566000000E+00 0.  1.
         13    1    1    0    0    0  0.11350012352E+02  0.12270578735E+02  0.55342286277E+02  0.57811501427E+02  0.10566000000E+00 0. -1.
         22    1    1    0    0    0 -0.12365213401E+02 -0.13345821301E+02 -0.59791771922E+02  0.62498523489E+02  0.00000000000E+00 0. -1.
</event>
<event>
 4    1  0.9957587E-003  0.9118800E+02  0.7818608E-02  0.1130116E+00
         25   -1    0    0    0    0  0.00000000000E+00  0.00000000000E+00  0.99999998245E-14  0.12500000000E+03  0.12500000000E+03 0.  0.
        -13    1    1    0    0    0 -0.14290839106E+01  0.13586988829E+01  0.30912250119E+00  0.19987656777E+01  0.10566000000E+00 0. -1.
         13    1    1    0    0    0 -0.56763646991E+02  0.21125804216E+02 -0.18678096645E+01  0.60596296096E+02  0.10566000000E+00 0.  1.
         22    1    1    0    0    0  0.58192730902E+02 -0.22484503099E+02  0.15586871633E+01  0.62404938227E+02  0.00000000000E+00 0.  1.
</event>
<event>
 4    1  0.9957587E-003  0.9118800E+02  0.7818608E-02  0.1130116E+00
         25   -1    0    0    0    0  0.00000000000E+00  0.00000000000E+00  0.99999998245E-14  0.12500000000E+03  0.12500000000E+03 0.  0.
        -13    1    1    0    0    0  0.12522121008E+01  0.26287151863E+01 -0.24504267373E+01  0.38070899525E+01  0.10566000000E+00 0. -1.
         13    1    1    0    0    0  0.16926341861E+02  0.43583363494E+02 -0.35490054007E+02  0.58698941385E+02  0.10566000000E+00 0.  1.
         22    1    1    0    0    0 -0.18178553962E+02 -0.46212078680E+02  0.37940480744E+02  0.62493968663E+02  0.00000000000E+00 0.  1.
</event>
<event>
 4    1  0.9957587E-003  0.9118800E+02  0.7818608E-02  0.1130116E+00
         25   -1    0    0    0    0  0.00000000000E+00  0.00000000000E+00  0.99999998245E-14  0.12500000000E+03  0.12500000000E+03 0.  0.
        -13    1    1    0    0    0  0.30252725505E+02 -0.21662051797E+02  0.97335726448E+01  0.38460700579E+02  0.10566000000E+00 0.  1.
         13    1    1    0    0    0 -0.52539923624E+02  0.28562573506E+02  0.31547476862E+01  0.59885121497E+02  0.10566000000E+00 0. -1.
         22    1    1    0    0    0  0.22287198119E+02 -0.69005217089E+01 -0.12888320331E+02  0.26654177924E+02  0.00000000000E+00 0. -1.
</event>
<event>
 4    1  0.9957587E-003  0.9118800E+02  0.7818608E-02  0.1130116E+00
         25   -1    0    0    0    0  0.00000000000E+00  0.00000000000E+00  0.99999998245E-14  0.12500000000E+03  0.12500000000E+03 0.  0.
        -13    1    1    0    0    0 -0.36724432962E+00 -0.56734674975E+01  0.59761620355E+01  0.82491683552E+01  0.10566000000E+00 0. -1.
         13    1    1    0    0    0 -0.35452919155E+01 -0.37251602535E+02  0.39281260508E+02  0.54252000676E+02  0.10566000000E+00 0.  1.
         22    1    1    0    0    0  0.39125362452E+01  0.42925070032E+02 -0.45257422544E+02  0.62498830969E+02  0.00000000000E+00 0.  1.
</event>
<event>
 4    1  0.9957587E-003  0.9118800E+02  0.7818608E-02  0.1130116E+00
         25   -1    0    0    0    0  0.00000000000E+00  0.00000000000E+00  0.99999998245E-14  0.12500000000E+03  0.12500000000E+03 0.  0.
        -13    1    1    0    0    0 -0.35744321160E+02  0.34988948004E+02 -0.13103295745E+02  0.51706774228E+02  0.10566000000E+00 0. -1.
         13    1    1    0    0    0 -0.74610876326E+01  0.73564391664E+01 -0.25911421567E+01  0.10793989419E+02  0.10566000000E+00 0.  1.
         22    1    1    0    0    0  0.43205408793E+02 -0.42345387171E+02  0.15694437902E+02  0.62499236353E+02  0.00000000000E+00 0. -1.
</event>
<event>
 4    1  0.9957587E-003  0.9118800E+02  0.7818608E-02  0.1130116E+00
         25   -1    0    0    0    0  0.00000000000E+00  0.00000000000E+00  0.99999998245E-14  0.12500000000E+03  0.12500000000E+03 0.  0.
        -13    1    1    0    0    0 -0.99431219841E+01 -0.12822203321E+02  0.45224098310E+01  0.16844522181E+02  0.10566000000E+00 0.  1.
         13    1    1    0    0    0 -0.32345768323E+02 -0.32404454416E+02  0.24225841513E+01  0.45849508965E+02  0.10566000000E+00 0. -1.
         22    1    1    0    0    0  0.42288890307E+02  0.45226657736E+02 -0.69449939823E+01  0.62305968854E+02  0.00000000000E+00 0. -1.
</event>
<event>
 4    1  0.9957587E-003  0.9118800E+02  0.7818608E-02  0.1130116E+00
         25   -1    0    0    0    0  0.00000000000E+00  0.00000000000E+00  0.99999998245E-14  0.12500000000E+03  0.12500000000E+03 0.  0.
        -13    1    1    0    0    0 -0.41916804992E+02 -0.27276578254E+01 -0.10875744632E+02  0.43390686135E+02  0.10566000000E+00 0. -1.
         13    1    1    0    0    0 -0.15721386171E+02 -0.54384810579E+01 -0.10411807080E+02  0.19625390443E+02  0.10566000000E+00 0.  1.
         22    1    1    0    0    0  0.57638191163E+02  0.81661388833E+01  0.21287551711E+02  0.61983923421E+02  0.00000000000E+00 0. -1.
</event>
<event>
 4    1  0.9957587E-003  0.9118800E+02  0.7818608E-02  0.1130116E+00
         25   -1    0    0    0    0  0.00000000000E+00  0.00000000000E+00  0.99999998245E-14  0.12500000000E+03  0.12500000000E+03 0.  0.
        -13    1    1    0    0    0 -0.69211700763E+01 -0.27085269549E+01  0.83670212833E+00  0.74799697846E+01  0.10566000000E+00 0. -1.
         13    1    1    0    0    0 -0.52472290440E+02 -0.15571327539E+02  0.57203495925E+01  0.55032182119E+02  0.10566000000E+00 0.  1.
         22    1    1    0    0    0  0.59393460516E+02  0.18279854494E+02 -0.65570517208E+01  0.62487848096E+02  0.00000000000E+00 0.  1.
</event>
<event>
 4    1  0.9957587E-003  0.9118800E+02  0.7818608E-02  0.1130116E+00
         25   -1    0    0    0    0  0.00000000000E+00  0.00000000000E+00  0.99999998245E-14  0.12500000000E+03  0.12500000000E+03 0.  0.
        -13    1    1    0    0    0 -0.11441515506E+02 -0.31697163978E+02 -0.12510804416E+02  0.35946486233E+02  0.10566000000E+00 0. -1.
         13    1    1    0    0    0 -0.73904908679E+01  0.62868719146E+01 -0.32569833222E+02  0.33984545221E+02  0.10566000000E+00 0.  1.
         22    1    1    0    0    0  0.18832006374E+02  0.25410292064E+02  0.45080637638E+02  0.55068968546E+02  0.00000000000E+00 0.  1.
</event>
<event>
 4    1  0.9957587E-003  0.9118800E+02  0.7818608E-02  0.1130116E+00
         25   -1    0    0    0    0  0.00000000000E+00  0.00000000000E+00  0.99999998245E-14  0.12500000000E+03  0.12500000000E+03 0.  0.
        -13    1    1    0    0    0 -0.16140875050E+02  0.17586543764E+02  0.32771205515E+02  0.40543525302E+02  0.10566000000E+00 0.  1.
         13    1    1    0    0    0 -0.86292956445E+01  0.56496650371E+01  0.19535160952E+02  0.22091109882E+02  0.10566000000E+00 0. -1.
         22    1    1    0    0    0  0.24770170694E+02 -0.23236208801E+02 -0.52306366467E+02  0.62365364816E+02  0.00000000000E+00 0.  1.
</event>
<event>
 4    1  0.9957587E-003  0.9118800E+02  0.7818608E-02  0.1130116E+00
         25   -1    0    0    0    0  0.00000000000E+00  0.00000000000E+00  0.99999998245E-14  0.12500000000E+03  0.12500000000E+03 0.  0.
        -13    1    1    0    0    0 -0.29731722639E+02  0.41269051702E+02  0.50965604066E+01  0.51118451184E+02  0.10566000000E+00 0.  1.
         13    1    1    0    0    0 -0.70250075548E+01  0.89201389759E+01  0.86185785352E+00  0.11387430504E+02  0.10566000000E+00 0. -1.
         22    1    1    0    0    0  0.36756730193E+02 -0.50189190678E+02 -0.59584182602E+01  0.62494118312E+02  0.00000000000E+00 0.  1.
</event>
<event>
 4    1  0.9957587E-003  0.9118800E+02  0.7818608E-02  0.1130116E+00
         25   -1    0    0    0    0  0.00000000000E+00  0.00000000000E+00  0.99999998245E-14  0.12500000000E+03  0.12500000000E+03 0.  0.
        -13    1    1    0    0    0  0.39355696443E+00 -0.22150413794E+00  0.11491111624E+01  0.12391818537E+01  0.10566000000E+00 0. -1.
         13    1    1    0    0    0  0.27379364341E+02  0.84914705235E-01  0.54821441349E+02  0.61278368107E+02  0.10566000000E+00 0.  1.
         22    1    1    0    0    0 -0.27772921306E+02  0.13658943270E+00 -0.55970552511E+02  0.62482450039E+02  0.00000000000E+00 0.  1.
</event>
<event>
 4    1  0.9957587E-003  0.9118800E+02  0.7818608E-02  0.1130116E+00
         25   -1    0    0    0    0  0.00000000000E+00  0.00000000000E+00  0.99999998245E-14  0.12500000000E+03  0.12500000000E+03 0.  0.
        -13    1    1    0    0    0  0.10826594712E+02  0.73026032441E+01  0.11596438639E+02  0.17465157324E+02  0.10566000000E+00 0. -1.
         13    1    1    0    0    0  0.27809888823E+02  0.19002737413E+02  0.29894107998E+02  0.45035128539E+02  0.10566000000E+00 0. -1.
         22    1    1    0    0    0 -0.38636483535E+02 -0.26305340657E+02 -0.41490546637E+02  0.62499714137E+02  0.00000000000E+00 0. -1.
</event>
<event>
 4    1  0.9957587E-003  0.9118800E+02  0.7818608E-02  0.1130116E+00
         25   -1    0    0    0    0  0.00000000000E+00  0.00000000000E+00  0.99999998245E-14  0.12500000000E+03  0.12500000000E+03 0.  0.
        -13    1    1    0    0    0  0.23578834709E+02  0.15310899649E+02  0.55707564347E+02  0.62399751472E+02  0.10566000000E+00 0.  1.
         13    1    1    0    0    0 -0.15068402594E+00 -0.51644105367E+00 -0.24305099738E+00  0.59971231480E+00  0.10566000000E+00 0. -1.
         22    1    1    0    0    0 -0.23428150683E+02 -0.14794458596E+02 -0.55464513350E+02  0.62000536213E+02  0.00000000000E+00 0.  1.
</event>
<event>
 4    1  0.9957587E-003  0.9118800E+02  0.7818608E-02  0.1130116E+00
         25   -1    0    0    0    0  0.00000000000E+00  0.00000000000E+00  0.99999998245E-14  0.12500000000E+03  0.12500000000E+03 0.  0.
        -13    1    1    0    0    0  0.88693799287E+01  0.17072207750E+01 -0.99360639877E+01  0.13428217853E+02  0.10566000000E+00 0. -1.
         13    1    1    0    0    0  0.27313304697E+01  0.48579912359E+02 -0.19199234359E+02  0.52307645856E+02  0.10566000000E+00 0.  1.
         22    1    1    0    0    0 -0.11600710398E+02 -0.50287133134E+02  0.29135298347E+02  0.59264136291E+02  0.00000000000E+00 0.  1.
</event>
<event>
 4    1  0.9957587E-003  0.9118800E+02  0.7818608E-02  0.1130116E+00
         25   -1    0    0    0    0  0.00000000000E+00  0.00000000000E+00  0.99999998245E-14  0.12500000000E+03  0.12500000000E+03 0.  0.
        -13    1    1    0    0    0 -0.36317542839E+01 -0.23775287075E+01 -0.16561741380E+00  0.43452128943E+01  0.10566000000E+00 0.  1.
         13    1    1    0    0    0  0.18250942770E+02  0.51671814979E+02 -0.28520073846E+02  0.61777658999E+02  0.10566000000E+00 0. -1.
         22    1    1    0    0    0 -0.14619188486E+02 -0.49294286272E+02  0.28685691259E+02  0.58877128106E+02  0.00000000000E+00 0. -1.
</event>
<event>
 4    1  0.9957587E-003  0.9118800E+02  0.7818608E-02  0.1130116E+00
         25   -1    0    0    0    0  0.00000000000E+00  0.00000000000E+00  0.99999998245E-14  0.12500000000E+03  0.12500000000E+03 0.  0.
        -13    1    1    0    0    0 -0.11521578259E+01  0.17832989452E+01 -0.44512965516E+01  0.49328316219E+01  0.10566000000E+00 0.  1.
         13    1    1    0    0    0  0.27595874807E+02 -0.39636837701E+02 -0.34746955777E+02  0.59497674821E+02  0.10566000000E+00 0. -1.
         22    1    1    0    0    0 -0.26443716981E+02  0.37853538756E+02  0.39198252329E+02  0.60569493557E+02  0.00000000000E+00 0. -1.
</event>
<event>
 4    1  0.9957587E-003  0.9118800E+02  0.7818608E-02  0.1130116E+00
         25   -1    0    0    0    0  0.00000000000E+00  0.00000000000E+00  0.99999998245E-14  0.12500000000E+03  0.12500000000E+03 0.  0.
        -13    1    1    0    0    0  0.49775551071E+02  0.90995327622E+01 -0.28663500620E+02  0.58155089311E+02  0.10566000000E+00 0. -1.
         13    1    1    0    0    0  0.33425965433E+01  0.21515841606E+01 -0.20389961804E+01  0.44688852649E+01  0.10566000000E+00 0.  1.
         22    1    1    0    0    0 -0.53118147614E+02 -0.11251116923E+02  0.30702496800E+02  0.62376025424E+02  0.00000000000E+00 0. -1.
</event>
<event>
 4    1  0.9957587E-003  0.9118800E+02  0.7818608E-02  0.1130116E+00
         25   -1    0    0    0    0  0.00000000000E+00  0.00000000000E+00  0.99999998245E-14  0.12500000000E+03  0.12500000000E+03 0.  0.
        -13    1    1    0    0    0 -0.28138172888E+02 -0.14170513558E+02  0.31922045894E+02  0.44850734733E+02  0.10566000000E+00 0.  1.
         13    1    1    0    0    0 -0.11174834706E+02 -0.56171658713E+01  0.12452802658E+02  0.17649729210E+02  0.10566000000E+00 0.  1.
         22    1    1    0    0    0  0.39313007594E+02  0.19787679429E+02 -0.44374848552E+02  0.62499536057E+02  0.00000000000E+00 0.  1.
</event>
<event>
 4    1  0.9957587E-003  0.9118800E+02  0.7818608E-02  0.1130116E+00
         25   -1    0    0    0    0  0.00000000000E+00  0.00000000000E+00  0.99999998245E-14  0.12500000000E+03  0.12500000000E+03 0.  0.
        -13    1    1    0    0    0  0.44827326830E+01 -0.12088016846E+02 -0.78694862025E+01  0.15104801247E+02  0.10566000000E+00 0. -1.
         13    1    1    0    0    0  0.14384800352E+02 -0.37008981982E+02 -0.25884666370E+02  0.47398463537E+02  0.10566000000E+00 0. -1.
         22    1    1    0    0    0 -0.18867533035E+02  0.49096998829E+02  0.33754152573E+02  0.62496735216E+02  0.00000000000E+00 0. -1.
</event>
<event>
 4    1  0.9957587E-003  0.9118800E+02  0.7818608E-02  0.1130116E+00
         25   -1    0    0    0    0  0.00000000000E+00  0.00000000000E+00  0.99999998245E-14  0.12500000000E+03  0.12500000000E+03 0.  0.
        -13    1    1    0    0    0 -0.81211381222E+01  0.18636586917E+02 -0.12004485296E+02  0.23609194979E+02  0.10566000000E+00 0. -1.
         13    1    1    0    0    0 -0.12562324690E+02  0.23206646883E+02 -0.29037383882E+02  0.39236988772E+02  0.10566000000E+00 0.  1.
         22    1    1    0    0    0  0.20683462812E+02 -0.41843233800E+02  0.41041869178E+02  0.62153816249E+02  0.00000000000E+00 0. -1.
</event>
<event>
 4    1  0.9957587E-003  0.9118800E+02  0.7818608E-02  0.1130116E+00
         25   -1    0    0    0    0  0.00000000000E+00  0.00000000000E+00  0.99999998245E-14  0.12500000000E+03  0.12500000000E+03 0.  0.
        -13    1    1    0    0    0 -0.41558942005E+02 -0.29666698526E+01 -0.16630136595E+01  0.41698004378E+02  0.10566000000E+00 0. -1.
         13    1    1    0    0    0 -0.20640454226E+02 -0.11739944472E+01 -0.25074006961E+01  0.20825581286E+02  0.10566000000E+00 0.  1.
         22    1    1    0    0    0  0.62199396231E+02  0.41406642998E+01  0.41704143556E+01  0.62476414336E+02  0.00000000000E+00 0. -1.
</event>
<event>
 4    1  0.9957587E-003  0.9118800E+02  0.7818608E-02  0.1130116E+00
         25   -1    0    0    0    0  0.00000000000E+00  0.00000000000E+00  0.99999998245E-14  0.12500000000E+03  0.12500000000E+03 0.  0.
        -13    1    1    0    0    0 -0.43137116779E+01 -0.75584952648E+01 -0.13845268756E+02  0.16353641493E+02  0.10566000000E+00 0.  1.
         13    1    1    0    0    0 -0.22046882266E+02 -0.24560377264E+02 -0.32556562400E+02  0.46359659925E+02  0.10566000000E+00 0. -1.
         22    1    1    0    0    0  0.26360593944E+02  0.32118872529E+02  0.46401831157E+02  0.62286698582E+02  0.00000000000E+00 0.  1.
</event>
<event>
 4    1  0.9957587E-003  0.9118800E+02  0.7818608E-02  0.1130116E+00
         25   -1    0    0    0    0  0.00000000000E+00  0.00000000000E+00  0.99999998245E-14  0.12500000000E+03  0.12500000000E+03 0.  0.
        -13    1    1    0    0    0 -0.50158057780E+01  0.11798290898E+02  0.11568818010E+01  0.12872743113E+02  0.10566000000E+00 0.  1.
         13    1    1    0    0    0 -0.18247479562E+02  0.45959884053E+02  0.42131776856E+01  0.49629058854E+02  0.10566000000E+00 0. -1.
         22    1    1    0    0    0  0.23263285340E+02 -0.57758174951E+02 -0.53700594866E+01  0.62498198033E+02  0.00000000000E+00 0. -1.
</event>
<event>
 4    1  0.9957587E-003  0.9118800E+02  0.7818608E-02  0.1130116E+00
         25   -1    0    0    0    0  0.00000000000E+00  0.00000000000E+00  0.99999998245E-14  0.12500000000E+03  0.12500000000E+03 0.  0.
        -13    1    1    0    0    0  0.28097297033E+02  0.58703298041E+01 -0.32286237717E+02  0.43201055341E+02  0.10566000000E+00 0. -1.
         13    1    1    0    0    0  0.85875382208E+01  0.23649086606E+02  0.83459979269E+00  0.25174050743E+02  0.10566000000E+00 0.  1.
         22    1    1    0    0    0 -0.36684835254E+02 -0.29519416410E+02  0.31451637925E+02  0.56624893916E+02  0.00000000000E+00 0. -1.
</event>
<event>
 4    1  0.9957587E-003  0.9118800E+02  0.7818608E-02  0.1130116E+00
         25   -1    0    0    0    0  0.00000000000E+00  0.00000000000E+00  0.99999998245E-14  0.12500000000E+03  0.12500000000E+03 0.  0.
        -13    1    1    0    0    0 -0.20883808322E+01  0.38830280276E+01 -0.34753658017E+01  0.56150309575E+01  0.10566000000E+00 0. -1.
         13    1    1    0    0    0 -0.34334023540E+02 -0.49431262376E+02  0.87869900162E+01  0.60823492419E+02  0.10566000000E+00 0.  1.
         22    1    1    0    0    0  0.36422404372E+02  0.45548234348E+02 -0.53116242145E+01  0.58561476623E+02  0.00000000000E+00 0.  1.
</event>
<event>
 4    1  0.9957587E-003  0.9118800E+02  0.7818608E-02  0.1130116E+00
         25   -1    0    0    0    0  0.00000000000E+00  0.00000000000E+00  0.99999998245E-14  0.12500000000E+03  0.12500000000E+03 0.  0.
        -13    1    1    0    0    0  0.44909292113E+01 -0.26853312445E+02 -0.81904763360E+01  0.28431741084E+02  0.10566000000E+00 0.  1.
         13    1    1    0    0    0  0.54844256666E+01 -0.32178926799E+02 -0.97513301346E+01  0.34068487760E+02  0.10566000000E+00 0.  1.
         22    1    1    0    0    0 -0.99753548779E+01  0.59032239244E+02  0.17941806471E+02  0.62499771156E+02  0.00000000000E+00 0.  1.
</event>
<event>
 4    1  0.9957587E-003  0.9118800E+02  0.7818608E-02  0.1130116E+00
         25   -1    0    0    0    0  0.00000000000E+00  0.00000000000E+00  0.99999998245E-14  0.12500000000E+03  0.12500000000E+03 0.  0.
        -13    1    1    0    0    0 -0.53346374243E+02 -0.22277520883E+02  0.97161092915E+01  0.58621988412E+02  0.10566000000E+00 0. -1.
         13    1    1    0    0    0 -0.34283071025E+01 -0.16590959937E+01  0.74401784485E+00  0.38820890889E+01  0.10566000000E+00 0.  1.
         22    1    1    0    0    0  0.56774681345E+02  0.23936616877E+02 -0.10460127136E+02  0.62495922499E+02  0.00000000000E+00 0. -1.
</event>
<event>
 4    1  0.9957587E-003  0.9118800E+02  0.7818608E-02  0.1130116E+00
         25   -1    0    0    0    0  0.00000000000E+00  0.00000000000E+00  0.99999998245E-14  0.12500000000E+03  0.12500000000E+03 0.  0.
        -13    1    1    0    0    0 -0.11241813432E+00  0.17570438441E+01 -0.13383354588E+01  0.22140792088E+01  0.10566000000E+00 0. -1.
         13    1    1    0    0    0 -0.20872133401E+02  0.53031948619E+02 -0.19935769592E+02  0.60377807184E+02  0.10566000000E+00 0.  1.
         22    1    1    0    0    0  0.20984551536E+02 -0.54788992463E+02  0.21274105051E+02  0.62408113607E+02  0.00000000000E+00 0.  1.
</event>
<event>
 4    1  0.9957587E-003  0.9118800E+02  0.7818608E-02  0.1130116E+00
         25   -1    0    0    0    0  0.00000000000E+00  0.00000000000E+00  0.99999998245E-14  0.12500000000E+03  0.12500000000E+03 0.  0.
        -13    1    1    0    0    0 -0.28815313022E+02 -0.16470199747E+02  0.47224469111E+02  0.57721325272E+02  0.10566000000E+00 0. -1.
         13    1    1    0    0    0 -0.23986403236E+00 -0.48155967588E+01  0.28456091612E+01  0.55996573495E+01  0.10566000000E+00 0.  1.
         22    1    1    0    0    0  0.29055177054E+02  0.21285796506E+02 -0.50070078273E+02  0.61679017379E+02  0.00000000000E+00 0. -1.
</event>
<event>
 4    1  0.9957587E-003  0.9118800E+02  0.7818608E-02  0.1130116E+00
         25   -1    0    0    0    0  0.00000000000E+00  0.00000000000E+00  0.99999998245E-14  0.12500000000E+03  0.12500000000E+03 0.  0.
        -13    1    1    0    0    0  0.11840771216E+02  0.11225277070E+02 -0.11050819943E+02  0.19706407429E+02  0.10566000000E+00 0. -1.
         13    1    1    0    0    0  0.29440809683E+02  0.21416297537E+02 -0.22578100502E+02  0.42839244406E+02  0.10566000000E+00 0.  1.
         22    1    1    0    0    0 -0.41281580899E+02 -0.32641574607E+02  0.33628920446E+02  0.62454348165E+02  0.00000000000E+00 0. -1.
</event>
<event>
 4    1  0.9957587E-003  0.9118800E+02  0.7818608E-02  0.1130116E+00
         25   -1    0    0    0    0  0.00000000000E+00  0.00000000000E+00  0.99999998245E-14  0.12500000000E+03  0.12500000000E+03 0.  0.
        -13    1    1    0    0    0  0.10911798966E+02 -0.19436384309E+02  0.13242671554E+02  0.25927203968E+02  0.10566000000E+00 0. -1.
         13    1    1    0    0    0  0.19736393875E+02  0.25573104410E+02 -0.44420827736E+02  0.54924766847E+02  0.10566000000E+00 0.  1.
         22    1    1    0    0    0 -0.30648192841E+02 -0.61367201006E+01  0.31178156182E+02  0.44148029186E+02  0.00000000000E+00 0.  1.
</event>
<event>
 4    1  0.9957587E-003  0.9118800E+02  0.7818608E-02  0.1130116E+00
         25   -1    0    0    0    0  0.00000000000E+00  0.00000000000E+00  0.99999998245E-14  0.12500000000E+03  0.12500000000E+03 0.  0.
        -13    1    1    0    0    0 -0.12979100030E+02 -0.11031506183E+02 -0.10001651760E+01  0.17063489112E+02  0.10566000000E+00 0.  1.
         13    1    1    0    0    0 -0.35267105129E+02 -0.28124473959E+02  0.64270179715E+01  0.45563938194E+02  0.10566000000E+00 0. -1.
         22    1    1    0    0    0  0.48246205159E+02  0.39155980143E+02 -0.54268527956E+01  0.62372572694E+02  0.00000000000E+00 0. -1.
</event>
<event>
 4    1  0.9957587E-003  0.9118800E+02  0.7818608E-02  0.1130116E+00
         25   -1    0    0    0    0  0.00000000000E+00  0.00000000000E+00  0.99999998245E-14  0.12500000000E+03  0.12500000000E+03 0.  0.
        -13    1    1    0    0    0 -0.54258240126E+01 -0.42566354118E+01 -0.17886145793E+00  0.68993961113E+01  0.10566000000E+00 0.  1.
         13    1    1    0    0    0 -0.42104266419E+02 -0.36003548421E+02 -0.48355324654E+01  0.55609516163E+02  0.10566000000E+00 0. -1.
         22    1    1    0    0    0  0.47530090432E+02  0.40260183833E+02  0.50143939233E+01  0.62491087726E+02  0.00000000000E+00 0. -1.
</event>
<event>
 4    1  0.9957587E-003  0.9118800E+02  0.7818608E-02  0.1130116E+00
         25   -1    0    0    0    0  0.00000000000E+00  0.00000000000E+00  0.99999998245E-14  0.12500000000E+03  0.12500000000E+03 0.  0.
        -13    1    1    0    0    0  0.14097130879E+02 -0.40743425475E+01  0.58881742068E+02  0.60682782395E+02  0.10566000000E+00 0. -1.
         13    1    1    0    0    0  0.60795480768E+00 -0.70329696071E+00  0.16201396278E+01  0.18708960720E+01  0.10566000000E+00 0.  1.
         22    1    1    0    0    0 -0.14705085687E+02  0.47776395082E+01 -0.60501881695E+02  0.62446321533E+02  0.00000000000E+00 0. -1.
</event>
<event>
 4    1  0.9957587E-003  0.9118800E+02  0.7818608E-02  0.1130116E+00
         25   -1    0    0    0    0  0.00000000000E+00  0.00000000000E+00  0.99999998245E-14  0.12500000000E+03  0.12500000000E+03 0.  0.
        -13    1    1    0    0    0 -0.91735638503E+01  0.34319464378E+01  0.18318274267E+01  0.99649027002E+01  0.10566000000E+00 0. -1.
         13    1    1    0    0    0  0.26447361882E+00  0.34914910925E+02 -0.44773444660E+02  0.56778459489E+02  0.10566000000E+00 0.  1.
         22    1    1    0    0    0  0.89090902315E+01 -0.38346857363E+02  0.42941617233E+02  0.58256637811E+02  0.00000000000E+00 0.  1.
</event>
<event>
 4    1  0.9957587E-003  0.9118800E+02  0.7818608E-02  0.1130116E+00
         25   -1    0    0    0    0  0.00000000000E+00  0.00000000000E+00  0.99999998245E-14  0.12500000000E+03  0.12500000000E+03 0.  0.
        -13    1    1    0    0    0  0.42881803101E+01  0.65290566854E+01 -0.21421033135E+02  0.22801072259E+02  0.10566000000E+00 0. -1.
         13    1    1    0    0    0  0.45452617608E+01  0.12630777777E+02 -0.37385320301E+02  0.39722402870E+02  0.10566000000E+00 0.  1.
         22    1    1    0    0    0 -0.88334420709E+01 -0.19159834462E+02  0.58806353436E+02  0.62476524870E+02  0.00000000000E+00 0.  1.
</event>
<event>
 4    1  0.9957587E-003  0.9118800E+02  0.7818608E-02  0.1130116E+00
         25   -1    0    0    0    0  0.00000000000E+00  0.00000000000E+00  0.99999998245E-14  0.12500000000E+03  0.12500000000E+03 0.  0.
        -13    1    1    0    0    0  0.11331002495E+02  0.10649084227E+02  0.36870705193E+01  0.15981247306E+02  0.10566000000E+00 0. -1.
         13    1    1    0    0    0  0.31045820060E+02  0.20563845655E+02  0.28881143594E+02  0.47125856073E+02  0.10566000000E+00 0.  1.
         22    1    1    0    0    0 -0.42376822554E+02 -0.31212929881E+02 -0.32568214113E+02  0.61892896621E+02  0.00000000000E+00 0.  1.
</event>
<event>
 4    1  0.9957587E-003  0.9118800E+02  0.7818608E-02  0.1130116E+00
         25   -1    0    0    0    0  0.00000000000E+00  0.00000000000E+00  0.99999998245E-14  0.12500000000E+03  0.12500000000E+03 0.  0.
        -13    1    1    0    0    0  0.44079789970E+02 -0.25362300673E+02  0.33305157728E+02  0.60790779519E+02  0.10566000000E+00 0. -1.
         13    1    1    0    0    0  0.19438248381E+01  0.45878984834E+00  0.29457110731E+00  0.20216031508E+01  0.10566000000E+00 0.  1.
         22    1    1    0    0    0 -0.46023614808E+02  0.24903510825E+02 -0.33599728835E+02  0.62187617330E+02  0.00000000000E+00 0. -1.
</event>
<event>
 4    1  0.9957587E-003  0.9118800E+02  0.7818608E-02  0.1130116E+00
         25   -1    0    0    0    0  0.00000000000E+00  0.00000000000E+00  0.99999998245E-14  0.12500000000E+03  0.12500000000E+03 0.  0.
        -13    1    1    0    0    0 -0.45574541335E+02  0.19787774407E+02 -0.32856799805E+02  0.59566561856E+02  0.10566000000E+00 0. -1.
         13    1    1    0    0    0 -0.24342268545E+01  0.10881400014E+01 -0.12555240597E+01  0.29490699792E+01  0.10566000000E+00 0.  1.
         22    1    1    0    0    0  0.48008768189E+02 -0.20875914409E+02  0.34112323865E+02  0.62484368165E+02  0.00000000000E+00 0. -1.
</event>
<event>
 4    1  0.9957587E-003  0.9118800E+02  0.7818608E-02  0.1130116E+00
         25   -1    0    0    0    0  0.00000000000E+00  0.00000000000E+00  0.99999998245E-14  0.12500000000E+03  0.12500000000E+03 0.  0.
        -13    1    1    0    0    0 -0.23261787963E+01  0.42614378161E+02 -0.97472915096E+01  0.43776902468E+02  0.10566000000E+00 0.  1.
         13    1    1    0    0    0 -0.99688231833E+00  0.18244734004E+02 -0.40852985332E+01  0.18723379005E+02  0.10566000000E+00 0.  1.
         22    1    1    0    0    0  0.33230611146E+01 -0.60859112165E+02  0.13832590043E+02  0.62499718527E+02  0.00000000000E+00 0.  1.
</event>
<event>
 4    1  0.9957587E-003  0.9118800E+02  0.7818608E-02  0.1130116E+00
         25   -1    0    0    0    0  0.00000000000E+00  0.00000000000E+00  0.99999998245E-14  0.12500000000E+03  0.12500000000E+03 0.  0.
        -13    1    1    0    0    0 -0.47125056912E+02  0.16488518460E+02 -0.25340471823E+02  0.55989221340E+02  0.10566000000E+00 0.  1.
         13    1    1    0    0    0 -0.58475471738E+01  0.17525073567E+01 -0.23174352740E+01  0.65304487035E+01  0.10566000000E+00 0. -1.
         22    1    1    0    0    0  0.52972604086E+02 -0.18241025817E+02  0.27657907097E+02  0.62480329957E+02  0.00000000000E+00 0.  1.
</event>
<event>
 4    1  0.9957587E-003  0.9118800E+02  0.7818608E-02  0.1130116E+00
         25   -1    0    0    0    0  0.00000000000E+00  0.00000000000E+00  0.99999998245E-14  0.12500000000E+03  0.12500000000E+03 0.  0.
        -13    1    1    0    0    0 -0.90444041962E+01  0.33340749249E+02 -0.36279996595E+01  0.34735865519E+02  0.10566000000E+00 0.  1.
         13    1    1    0    0    0 -0.13981813200E+02  0.24318173582E+02  0.25650397954E+01  0.28168337898E+02  0.10566000000E+00 0. -1.
         22    1    1    0    0    0  0.23026217396E+02 -0.57658922832E+02  0.10629598641E+01  0.62095796584E+02  0.00000000000E+00 0.  1.
</event>
<event>
 4    1  0.9957587E-003  0.9118800E+02  0.7818608E-02  0.1130116E+00
         25   -1    0    0    0    0  0.00000000000E+00  0.00000000000E+00  0.99999998245E-14  0.12500000000E+03  0.12500000000E+03 0.  0.
        -13    1    1    0    0    0 -0.11182652795E+02 -0.56814451762E+01 -0.29511442573E+01  0.12886076179E+02  0.10566000000E+00 0.  1.
         13    1    1    0    0    0 -0.43078369260E+02 -0.21387717915E+02 -0.12184875620E+02  0.49615146212E+02  0.10566000000E+00 0. -1.
         22    1    1    0    0    0  0.54261022055E+02  0.27069163092E+02  0.15136019877E+02  0.62498777609E+02  0.00000000000E+00 0. -1.
</event>
<event>
 4    1  0.9957587E-003  0.9118800E+02  0.7818608E-02  0.1130116E+00
         25   -1    0    0    0    0  0.00000000000E+00  0.00000000000E+00  0.99999998245E-14  0.12500000000E+03  0.12500000000E+03 0.  0.
        -13    1    1    0    0    0  0.55941139251E+01 -0.76274755995E+01  0.25752320844E+02  0.27434753279E+02  0.10566000000E+00 0. -1.
         13    1    1    0    0    0  0.72411146917E+01 -0.63876594136E+01  0.33748664333E+02  0.35102983393E+02  0.10566000000E+00 0.  1.
         22    1    1    0    0    0 -0.12835228617E+02  0.14015135013E+02 -0.59500985177E+02  0.62462263328E+02  0.00000000000E+00 0.  1.
</event>
<event>
 4    1  0.9957587E-003  0.9118800E+02  0.7818608E-02  0.1130116E+00
         25   -1    0    0    0    0  0.00000000000E+00  0.00000000000E+00  0.99999998245E-14  0.12500000000E+03  0.12500000000E+03 0.  0.
        -13    1    1    0    0    0  0.79996376981E+01 -0.37283391138E+01  0.37218053279E+01  0.95790247302E+01  0.10566000000E+00 0.  1.
         13    1    1    0    0    0 -0.33242727013E+02  0.31428092176E+01  0.47646653313E+02  0.58182221383E+02  0.10566000000E+00 0. -1.
         22    1    1    0    0    0  0.25243089315E+02  0.58552989627E+00 -0.51368458641E+02  0.57238753887E+02  0.00000000000E+00 0. -1.
</event>
<event>
 4    1  0.9957587E-003  0.9118800E+02  0.7818608E-02  0.1130116E+00
         25   -1    0    0    0    0  0.00000000000E+00  0.00000000000E+00  0.99999998245E-14  0.12500000000E+03  0.12500000000E+03 0.  0.
        -13    1    1    0    0    0  0.53462603972E+01 -0.20472914641E+02  0.58215861937E+02  0.61942073578E+02  0.10566000000E+00 0.  1.
         13    1    1    0    0    0  0.35983409102E+00  0.36583352726E+01 -0.21778230235E+01  0.42739881489E+01  0.10566000000E+00 0. -1.
         22    1    1    0    0    0 -0.57060944882E+01  0.16814579368E+02 -0.56038038913E+02  0.58783938273E+02  0.00000000000E+00 0.  1.
</event>
<event>
 4    1  0.9957587E-003  0.9118800E+02  0.7818608E-02  0.1130116E+00
         25   -1    0    0    0    0  0.00000000000E+00  0.00000000000E+00  0.99999998245E-14  0.12500000000E+03  0.12500000000E+03 0.  0.
        -13    1    1    0    0    0 -0.37110198015E+00 -0.21110124201E+02  0.92427318849E+01  0.23048087061E+02  0.10566000000E+00 0.  1.
         13    1    1    0    0    0  0.20475549551E+02 -0.21595899433E+02  0.28735398265E+02  0.41368650923E+02  0.10566000000E+00 0. -1.
         22    1    1    0    0    0 -0.20104447571E+02  0.42706023634E+02 -0.37978130150E+02  0.60583262015E+02  0.00000000000E+00 0. -1.
</event>
<event>
 4    1  0.9957587E-003  0.9118800E+02  0.7818608E-02  0.1130116E+00
         25   -1    0    0    0    0  0.00000000000E+00  0.00000000000E+00  0.99999998245E-14  0.12500000000E+03  0.12500000000E+03 0.  0.
        -13    1    1    0    0    0 -0.77678614191E+00  0.96200474085E+00 -0.92825586314E-01  0.12444398164E+01  0.10566000000E+00 0.  1.
         13    1    1    0    0    0 -0.27866551259E+02  0.48419552730E+01 -0.54742832941E+02  0.61618001691E+02  0.10566000000E+00 0. -1.
         22    1    1    0    0    0  0.28643337401E+02 -0.58039600138E+01  0.54835658527E+02  0.62137558493E+02  0.00000000000E+00 0. -1.
</event>
<event>
 4    1  0.9957587E-003  0.9118800E+02  0.7818608E-02  0.1130116E+00
         25   -1    0    0    0    0  0.00000000000E+00  0.00000000000E+00  0.99999998245E-14  0.12500000000E+03  0.12500000000E+03 0.  0.
        -13    1    1    0    0    0  0.27717407342E+01  0.44324180747E+01 -0.32117890318E+01  0.61364182962E+01  0.10566000000E+00 0.  1.
         13    1    1    0    0    0  0.21004123796E+02  0.43705764244E+02 -0.28757144417E+02  0.56376870821E+02  0.10566000000E+00 0. -1.
         22    1    1    0    0    0 -0.23775864530E+02 -0.48138182318E+02  0.31968933449E+02  0.62486710882E+02  0.00000000000E+00 0. -1.
</event>
<event>
 4    1  0.9957587E-003  0.9118800E+02  0.7818608E-02  0.1130116E+00
         25   -1    0    0    0    0  0.00000000000E+00  0.00000000000E+00  0.99999998245E-14  0.12500000000E+03  0.12500000000E+03 0.  0.
        -13    1    1    0    0    0  0.82531862532E+01  0.27424688086E+00  0.25710676810E+01  0.86493842404E+01  0.10566000000E+00 0.  1.
         13    1    1    0    0    0  0.44746501584E+02  0.19347864912E+02  0.23491498031E+02  0.54115163535E+02  0.10566000000E+00 0. -1.
         22    1    1    0    0    0 -0.52999687837E+02 -0.19622111793E+02 -0.26062565712E+02  0.62235452224E+02  0.00000000000E+00 0. -1.
</event>
<event>
 4    1  0.9957587E-003  0.9118800E+02  0.7818608E-02  0.1130116E+00
         25   -1    0    0    0    0  0.00000000000E+00  0.00000000000E+00  0.99999998245E-14  0.12500000000E+03  0.12500000000E+03 0.  0.
        -13    1    1    0    0    0 -0.10852037032E+02  0.61246795602E+01  0.10986424876E+02  0.16612979957E+02  0.10566000000E+00 0. -1.
         13    1    1    0    0    0 -0.31908279285E+02  0.19422205673E+02  0.26708765048E+02  0.45920906509E+02  0.10566000000E+00 0.  1.
         22    1    1    0    0    0  0.42760316318E+02 -0.25546885233E+02 -0.37695189924E+02  0.62466113534E+02  0.00000000000E+00 0.  1.
</event>
<event>
 4    1  0.9957587E-003  0.9118800E+02  0.7818608E-02  0.1130116E+00
         25   -1    0    0    0    0  0.00000000000E+00  0.00000000000E+00  0.99999998245E-14  0.12500000000E+03  0.12500000000E+03 0.  0.
        -13    1    1    0    0    0  0.26334924872E+02  0.47058924612E+02 -0.27799348615E+01  0.53998239374E+02  0.10566000000E+00 0.  1.
         13    1    1    0    0    0  0.40327030591E+01  0.74830355235E+01 -0.21475197400E+00  0.85038695342E+01  0.10566000000E+00 0. -1.
         22    1    1    0    0    0 -0.30367627931E+02 -0.54541960136E+02  0.29946868355E+01  0.62497891091E+02  0.00000000000E+00 0.  1.
</event>
<event>
 4    1  0.9957587E-003  0.9118800E+02  0.7818608E-02  0.1130116E+00
         25   -1    0    0    0    0  0.00000000000E+00  0.00000000000E+00  0.99999998245E-14  0.12500000000E+03  0.12500000000E+03 0.  0.
        -13    1    1    0    0    0  0.15080741842E+02 -0.69576841396E+01  0.14319309025E+02  0.21929248006E+02  0.10566000000E+00 0.  1.
         13    1    1    0    0    0  0.28527443758E+02 -0.11397652808E+02  0.26508859324E+02  0.40576499647E+02  0.10566000000E+00 0. -1.
         22    1    1    0    0    0 -0.43608185600E+02  0.18355336947E+02 -0.40828168349E+02  0.62494252348E+02  0.00000000000E+00 0. -1.
</event>
<event>
 4    1  0.9957587E-003  0.9118800E+02  0.7818608E-02  0.1130116E+00
         25   -1    0    0    0    0  0.00000000000E+00  0.00000000000E+00  0.99999998245E-14  0.12500000000E+03  0.12500000000E+03 0.  0.
        -13    1    1    0    0    0  0.39154554995E+02  0.12480615226E+02  0.75917669936E+01  0.41791039989E+02  0.10566000000E+00 0.  1.
         13    1    1    0    0    0  0.15994228848E+02  0.11319205414E+02  0.79813955789E+01  0.21157826142E+02  0.10566000000E+00 0. -1.
         22    1    1    0    0    0 -0.55148783843E+02 -0.23799820639E+02 -0.15573162572E+02  0.62051133868E+02  0.00000000000E+00 0.  1.
</event>
<event>
 4    1  0.9957587E-003  0.9118800E+02  0.7818608E-02  0.1130116E+00
         25   -1    0    0    0    0  0.00000000000E+00  0.00000000000E+00  0.99999998245E-14  0.12500000000E+03  0.12500000000E+03 0.  0.
        -13    1    1    0    0    0  0.38910432000E+00  0.58885091913E+01  0.18208564544E+02  0.19141288605E+02  0.10566000000E+00 0. -1.
         13    1    1    0    0    0  0.89966513159E+01 -0.11909527020E+02  0.42027439273E+02  0.44599253184E+02  0.10566000000E+00 0.  1.
         22    1    1    0    0    0 -0.93857556359E+01  0.60210178284E+01 -0.60236003816E+02  0.61259458211E+02  0.00000000000E+00 0.  1.
</event>
<event>
 4    1  0.9957587E-003  0.9118800E+02  0.7818608E-02  0.1130116E+00
         25   -1    0    0    0    0  0.00000000000E+00  0.00000000000E+00  0.99999998245E-14  0.12500000000E+03  0.12500000000E+03 0.  0.
        -13    1    1    0    0    0 -0.26491585675E+01  0.86250169934E+01  0.41918781558E+01  0.99494706272E+01  0.10566000000E+00 0.  1.
         13    1    1    0    0    0 -0.13113597290E+02  0.45739026078E+02  0.22307475238E+02  0.52551494327E+02  0.10566000000E+00 0. -1.
         22    1    1    0    0    0  0.15762755857E+02 -0.54364043072E+02 -0.26499353394E+02  0.62499035046E+02  0.00000000000E+00 0. -1.
</event>
<event>
 4    1  0.9957587E-003  0.9118800E+02  0.7818608E-02  0.1130116E+00
         25   -1    0    0    0    0  0.00000000000E+00  0.00000000000E+00  0.99999998245E-14  0.12500000000E+03  0.12500000000E+03 0.  0.
        -13    1    1    0    0    0  0.70332651834E+00  0.15411890577E+01 -0.50390552199E+01  0.53172524341E+01  0.10566000000E+00 0. -1.
         13    1    1    0    0    0 -0.50209642731E+02  0.27531498018E+02 -0.14442473876E+02  0.59055802610E+02  0.10566000000E+00 0.  1.
         22    1    1    0    0    0  0.49506316212E+02 -0.29072687076E+02  0.19481529096E+02  0.60626944956E+02  0.00000000000E+00 0.  1.
</event>
<event>
 4    1  0.9957587E-003  0.9118800E+02  0.7818608E-02  0.1130116E+00
         25   -1    0    0    0    0  0.00000000000E+00  0.00000000000E+00  0.99999998245E-14  0.12500000000E+03  0.12500000000E+03 0.  0.
        -13    1    1    0    0    0  0.15734501458E+00 -0.20104190461E+01  0.34778112088E+01  0.40215515705E+01  0.10566000000E+00 0.  1.
         13    1    1    0    0    0 -0.43956557275E+00 -0.35758475513E+02  0.46294067538E+02  0.58497979812E+02  0.10566000000E+00 0. -1.
         22    1    1    0    0    0  0.28222055817E+00  0.37768894559E+02 -0.49771878746E+02  0.62480468617E+02  0.00000000000E+00 0. -1.
</event>
<event>
 4    1  0.9957587E-003  0.9118800E+02  0.7818608E-02  0.1130116E+00
         25   -1    0    0    0    0  0.00000000000E+00  0.00000000000E+00  0.99999998245E-14  0.12500000000E+03  0.12500000000E+03 0.  0.
        -13    1    1    0    0    0  0.42372868612E+02 -0.19029783750E+02  0.80793913294E+00  0.46457040303E+02  0.10566000000E+00 0. -1.
         13    1    1    0    0    0  0.61120141187E+01  0.24133204783E+02  0.12708152013E+02  0.27951325216E+02  0.10566000000E+00 0.  1.
         22    1    1    0    0    0 -0.48484882731E+02 -0.51034210329E+01 -0.13516091146E+02  0.50591634482E+02  0.00000000000E+00 0. -1.
</event>
<event>
 4    1  0.9957587E-003  0.9118800E+02  0.7818608E-02  0.1130116E+00
         25   -1    0    0    0    0  0.00000000000E+00  0.00000000000E+00  0.99999998245E-14  0.12500000000E+03  0.12500000000E+03 0.  0.
        -13    1    1    0    0    0  0.11887426612E+02  0.40708430608E+02  0.29647588507E+02  0.51744351405E+02  0.10566000000E+00 0. -1.
         13    1    1    0    0    0  0.34447576091E+01  0.79932498121E+01  0.63577238637E+01  0.10779156475E+02  0.10566000000E+00 0.  1.
         22    1    1    0    0    0 -0.15332184221E+02 -0.48701680420E+02 -0.36005312371E+02  0.62476492120E+02  0.00000000000E+00 0. -1.
</event>
<event>
 4    1  0.9957587E-003  0.9118800E+02  0.7818608E-02  0.1130116E+00
         25   -1    0    0    0    0  0.00000000000E+00  0.00000000000E+00  0.99999998245E-14  0.12500000000E+03  0.12500000000E+03 0.  0.
        -13    1    1    0    0    0  0.18840354215E+02  0.34947124365E+01 -0.33259424343E+02  0.38384533782E+02  0.10566000000E+00 0.  1.
         13    1    1    0    0    0  0.15434856241E+02  0.49632441830E+01 -0.18095399675E+02  0.24296568347E+02  0.10566000000E+00 0. -1.
         22    1    1    0    0    0 -0.34275210455E+02 -0.84579566195E+01  0.51354824019E+02  0.62318897872E+02  0.00000000000E+00 0.  1.
</event>
<event>
 4    1  0.9957587E-003  0.9118800E+02  0.7818608E-02  0.1130116E+00
         25   -1    0    0    0    0  0.00000000000E+00  0.00000000000E+00  0.99999998245E-14  0.12500000000E+03  0.12500000000E+03 0.  0.
        -13    1    1    0    0    0 -0.30489279204E+02 -0.23830009797E+01  0.42374380647E+02  0.52257766306E+02  0.10566000000E+00 0.  1.
         13    1    1    0    0    0 -0.88376076425E+01 -0.73479034225E+01 -0.27115706386E+02  0.29451106777E+02  0.10566000000E+00 0. -1.
         22    1    1    0    0    0  0.39326886847E+02  0.97309044022E+01 -0.15258674261E+02  0.43291126917E+02  0.00000000000E+00 0.  1.
</event>
<event>
 4    1  0.9957587E-003  0.9118800E+02  0.7818608E-02  0.1130116E+00
         25   -1    0    0    0    0  0.00000000000E+00  0.00000000000E+00  0.99999998245E-14  0.12500000000E+03  0.12500000000E+03 0.  0.
        -13    1    1    0    0    0 -0.13138941427E+02  0.42904555910E+01  0.62675803586E+01  0.15176742687E+02  0.10566000000E+00 0. -1.
         13    1    1    0    0    0 -0.30479158480E+02  0.15732125013E+02 -0.38841859133E+02  0.51818722910E+02  0.10566000000E+00 0.  1.
         22    1    1    0    0    0  0.43618099907E+02 -0.20022580604E+02  0.32574278775E+02  0.58004534403E+02  0.00000000000E+00 0.  1.
</event>
<event>
 4    1  0.9957587E-003  0.9118800E+02  0.7818608E-02  0.1130116E+00
         25   -1    0    0    0    0  0.00000000000E+00  0.00000000000E+00  0.99999998245E-14  0.12500000000E+03  0.12500000000E+03 0.  0.
        -13    1    1    0    0    0 -0.20101681000E+02  0.99062990994E+01  0.56285699379E+01  0.23106369349E+02  0.10566000000E+00 0. -1.
         13    1    1    0    0    0 -0.34629487142E+02  0.17094480945E+02  0.78139665235E+01  0.39401673763E+02  0.10566000000E+00 0.  1.
         22    1    1    0    0    0  0.54731168142E+02 -0.27000780044E+02 -0.13442536461E+02  0.62491956888E+02  0.00000000000E+00 0.  1.
</event>
<event>
 4    1  0.9957587E-003  0.9118800E+02  0.7818608E-02  0.1130116E+00
         25   -1    0    0    0    0  0.00000000000E+00  0.00000000000E+00  0.99999998245E-14  0.12500000000E+03  0.12500000000E+03 0.  0.
        -13    1    1    0    0    0  0.48077146995E+01 -0.54789722408E+02 -0.17347879735E+02  0.57671378496E+02  0.10566000000E+00 0.  1.
         13    1    1    0    0    0  0.30501318338E+00 -0.42215051511E+01 -0.24299866935E+01  0.48816122489E+01  0.10566000000E+00 0. -1.
         22    1    1    0    0    0 -0.51127278829E+01  0.59011227560E+02  0.19777866429E+02  0.62447009256E+02  0.00000000000E+00 0.  1.
</event>
<event>
 4    1  0.9957587E-003  0.9118800E+02  0.7818608E-02  0.1130116E+00
         25   -1    0    0    0    0  0.00000000000E+00  0.00000000000E+00  0.99999998245E-14  0.12500000000E+03  0.12500000000E+03 0.  0.
        -13    1    1    0    0    0  0.38390586362E+02 -0.33183796036E+02  0.17003177353E+01  0.50773060623E+02  0.10566000000E+00 0. -1.
         13    1    1    0    0    0  0.83071651400E+01 -0.82797601832E+01  0.48815886293E+00  0.11739373257E+02  0.10566000000E+00 0.  1.
         22    1    1    0    0    0 -0.46697751502E+02  0.41463556220E+02 -0.21884765982E+01  0.62487566120E+02  0.00000000000E+00 0. -1.
</event>
<event>
 4    1  0.9957587E-003  0.9118800E+02  0.7818608E-02  0.1130116E+00
         25   -1    0    0    0    0  0.00000000000E+00  0.00000000000E+00  0.99999998245E-14  0.12500000000E+03  0.12500000000E+03 0.  0.
        -13    1    1    0    0    0 -0.65362592569E+01 -0.38055982883E+02 -0.12080170493E+02  0.40458895208E+02  0.10566000000E+00 0.  1.
         13    1    1    0    0    0 -0.36203346389E+01 -0.20681822306E+02 -0.67059810143E+01  0.22041459621E+02  0.10566000000E+00 0.  1.
         22    1    1    0    0    0  0.10156593896E+02  0.58737805190E+02  0.18786151508E+02  0.62499645171E+02  0.00000000000E+00 0.  1.
</event>
<event>
 4    1  0.9957587E-003  0.9118800E+02  0.7818608E-02  0.1130116E+00
         25   -1    0    0    0    0  0.00000000000E+00  0.00000000000E+00  0.99999998245E-14  0.12500000000E+03  0.12500000000E+03 0.  0.
        -13    1    1    0    0    0 -0.48129476528E+01 -0.57171811396E-01  0.24038678814E+01  0.53812153415E+01  0.10566000000E+00 0. -1.
         13    1    1    0    0    0 -0.50476227830E+02 -0.94359229882E+00  0.26719892222E+02  0.57120081817E+02  0.10566000000E+00 0.  1.
         22    1    1    0    0    0  0.55289175483E+02  0.10007641102E+01 -0.29123760103E+02  0.62498702842E+02  0.00000000000E+00 0.  1.
</event>
<event>
 4    1  0.9957587E-003  0.9118800E+02  0.7818608E-02  0.1130116E+00
         25   -1    0    0    0    0  0.00000000000E+00  0.00000000000E+00  0.99999998245E-14  0.12500000000E+03  0.12500000000E+03 0.  0.
        -13    1    1    0    0    0  0.11451815477E+02 -0.11960533443E+02 -0.89764549700E+01  0.18835773035E+02  0.10566000000E+00 0. -1.
         13    1    1    0    0    0  0.26914902925E+02  0.57892333714E+01 -0.36901900177E+02  0.46040076272E+02  0.10566000000E+00 0.  1.
         22    1    1    0    0    0 -0.38366718402E+02  0.61713000715E+01  0.45878355147E+02  0.60124150692E+02  0.00000000000E+00 0.  1.
</event>
<event>
 4    1  0.9957587E-003  0.9118800E+02  0.7818608E-02  0.1130116E+00
         25   -1    0    0    0    0  0.00000000000E+00  0.00000000000E+00  0.99999998245E-14  0.12500000000E+03  0.12500000000E+03 0.  0.
        -13    1    1    0    0    0  0.33847463789E-01  0.30878958102E+02  0.28681095492E+02  0.42144128913E+02  0.10566000000E+00 0. -1.
         13    1    1    0    0    0  0.80719441504E+01 -0.18945982716E+02  0.22015799244E+02  0.30146527559E+02  0.10566000000E+00 0.  1.
         22    1    1    0    0    0 -0.81057916142E+01 -0.11932975386E+02 -0.50696894737E+02  0.52709343528E+02  0.00000000000E+00 0. -1.
</event>
<event>
 4    1  0.9957587E-003  0.9118800E+02  0.7818608E-02  0.1130116E+00
         25   -1    0    0    0    0  0.00000000000E+00  0.00000000000E+00  0.99999998245E-14  0.12500000000E+03  0.12500000000E+03 0.  0.
        -13    1    1    0    0    0 -0.44457394279E+02 -0.36764809979E+02  0.14107333547E+02  0.59389722871E+02  0.10566000000E+00 0.  1.
         13    1    1    0    0    0 -0.21491293710E+01 -0.20733795688E+01  0.88713056943E+00  0.31170217472E+01  0.10566000000E+00 0. -1.
         22    1    1    0    0    0  0.46606523650E+02  0.38838189548E+02 -0.14994464116E+02  0.62493255382E+02  0.00000000000E+00 0.  1.
</event>
<event>
 4    1  0.9957587E-003  0.9118800E+02  0.7818608E-02  0.1130116E+00
         25   -1    0    0    0    0  0.00000000000E+00  0.00000000000E+00  0.99999998245E-14  0.12500000000E+03  0.12500000000E+03 0.  0.
        -13    1    1    0    0    0 -0.44568836188E+02  0.13089186516E+01 -0.28339373624E+02  0.52832051716E+02  0.10566000000E+00 0.  1.
         13    1    1    0    0    0 -0.75672491032E+01 -0.46124693623E+00 -0.60549597527E+01  0.97030773144E+01  0.10566000000E+00 0. -1.
         22    1    1    0    0    0  0.52136085291E+02 -0.84767171541E+00  0.34394333377E+02  0.62464870969E+02  0.00000000000E+00 0.  1.
</event>
<event>
 4    1  0.9957587E-003  0.9118800E+02  0.7818608E-02  0.1130116E+00
         25   -1    0    0    0    0  0.00000000000E+00  0.00000000000E+00  0.99999998245E-14  0.12500000000E+03  0.12500000000E+03 0.  0.
        -13    1    1    0    0    0  0.10798386101E+02 -0.10043229691E+02  0.80553531305E+01  0.16803912732E+02  0.10566000000E+00 0. -1.
         13    1    1    0    0    0 -0.22636675191E+01  0.99655031109E+01  0.49229380744E+02  0.50279006905E+02  0.10566000000E+00 0.  1.
         22    1    1    0    0    0 -0.85347185817E+01  0.77726580092E-01 -0.57284733875E+02  0.57917080363E+02  0.00000000000E+00 0.  1.
</event>
<event>
 4    1  0.9957587E-003  0.9118800E+02  0.7818608E-02  0.1130116E+00
         25   -1    0    0    0    0  0.00000000000E+00  0.00000000000E+00  0.99999998245E-14  0.12500000000E+03  0.12500000000E+03 0.  0.
        -13    1    1    0    0    0  0.29604788449E+02 -0.54582264787E+01  0.27753861737E+01  0.30231600484E+02  0.10566000000E+00 0. -1.
         13    1    1    0    0    0  0.31497633189E+02 -0.65013505964E+01  0.26491658314E+01  0.32270694131E+02  0.10566000000E+00 0.  1.
         22    1    1    0    0    0 -0.61102421638E+02  0.11959577075E+02 -0.54245520051E+01  0.62497705384E+02  0.00000000000E+00 0. -1.
</event>
<event>
 4    1  0.9957587E-003  0.9118800E+02  0.7818608E-02  0.1130116E+00
         25   -1    0    0    0    0  0.00000000000E+00  0.00000000000E+00  0.99999998245E-14  0.12500000000E+03  0.12500000000E+03 0.  0.
        -13    1    1    0    0    0 -0.25485783896E+01 -0.11872273781E+01  0.37163157557E+00  0.28379631285E+01  0.10566000000E+00 0. -1.
         13    1    1    0    0    0 -0.56764755192E+02 -0.11928352376E+01  0.18756349790E+02  0.59795251562E+02  0.10566000000E+00 0.  1.
         22    1    1    0    0    0  0.59313333582E+02  0.23800626156E+01 -0.19127981366E+02  0.62366785309E+02  0.00000000000E+00 0.  1.
</event>
<event>
 4    1  0.9957587E-003  0.9118800E+02  0.7818608E-02  0.1130116E+00
         25   -1    0    0    0    0  0.00000000000E+00  0.00000000000E+00  0.99999998245E-14  0.12500000000E+03  0.12500000000E+03 0.  0.
        -13    1    1    0    0    0 -0.35712010575E+02 -0.97164688008E+01 -0.40809454389E+02  0.55092469511E+02  0.10566000000E+00 0.  1.
         13    1    1    0    0    0 -0.39125811987E+01 -0.82704328245E+01 -0.14319804112E+01  0.92612138878E+01  0.10566000000E+00 0. -1.
         22    1    1    0    0    0  0.39624591774E+02  0.17986901625E+02  0.42241434800E+02  0.60646316601E+02  0.00000000000E+00 0.  1.
</event>
<event>
 4    1  0.9957587E-003  0.9118800E+02  0.7818608E-02  0.1130116E+00
         25   -1    0    0    0    0  0.00000000000E+00  0.00000000000E+00  0.99999998245E-14  0.12500000000E+03  0.12500000000E+03 0.  0.
        -13    1    1    0    0    0 -0.38537622821E+02 -0.26676072635E+02  0.25703434994E+02  0.53455018085E+02  0.10566000000E+00 0. -1.
         13    1    1    0    0    0 -0.56059288604E+01 -0.52884478106E+01  0.48081700703E+01  0.90842601291E+01  0.10566000000E+00 0.  1.
         22    1    1    0    0    0  0.44143551682E+02  0.31964520445E+02 -0.30511605065E+02  0.62460721786E+02  0.00000000000E+00 0. -1.
</event>
<event>
 4    1  0.9957587E-003  0.9118800E+02  0.7818608E-02  0.1130116E+00
         25   -1    0    0    0    0  0.00000000000E+00  0.00000000000E+00  0.99999998245E-14  0.12500000000E+03  0.12500000000E+03 0.  0.
        -13    1    1    0    0    0  0.26916016246E+01 -0.27673358205E+02 -0.55183569377E+02  0.61792369811E+02  0.10566000000E+00 0.  1.
         13    1    1    0    0    0  0.68722644905E-01 -0.46439194587E+00 -0.53914201709E+00  0.72264848405E+00  0.10566000000E+00 0.  1.
         22    1    1    0    0    0 -0.27603242695E+01  0.28137750151E+02  0.55722711394E+02  0.62484981705E+02  0.00000000000E+00 0.  1.
</event>
<event>
 4    1  0.9957587E-003  0.9118800E+02  0.7818608E-02  0.1130116E+00
         25   -1    0    0    0    0  0.00000000000E+00  0.00000000000E+00  0.99999998245E-14  0.12500000000E+03  0.12500000000E+03 0.  0.
        -13    1    1    0    0    0  0.59712156494E+01  0.20070089108E+02 -0.24933736779E+02  0.32560194824E+02  0.10566000000E+00 0.  1.
         13    1    1    0    0    0  0.54024992337E+01  0.18518987888E+02 -0.22896613545E+02  0.29940039850E+02  0.10566000000E+00 0.  1.
         22    1    1    0    0    0 -0.11373714883E+02 -0.38589076997E+02  0.47830350324E+02  0.62499765326E+02  0.00000000000E+00 0.  1.
</event>
<event>
 4    1  0.9957587E-003  0.9118800E+02  0.7818608E-02  0.1130116E+00
         25   -1    0    0    0    0  0.00000000000E+00  0.00000000000E+00  0.99999998245E-14  0.12500000000E+03  0.12500000000E+03 0.  0.
        -13    1    1    0    0    0  0.34543598273E+02 -0.31267649178E+02  0.27602055114E+02  0.54155430728E+02  0.10566000000E+00 0.  1.
         13    1    1    0    0    0  0.89721640680E+01 -0.29834409442E+01 -0.69727258256E+01  0.11748647471E+02  0.10566000000E+00 0. -1.
         22    1    1    0    0    0 -0.43515762341E+02  0.34251090122E+02 -0.20629329288E+02  0.59095921801E+02  0.00000000000E+00 0.  1.
</event>
<event>
 4    1  0.9957587E-003  0.9118800E+02  0.7818608E-02  0.1130116E+00
         25   -1    0    0    0    0  0.00000000000E+00  0.00000000000E+00  0.99999998245E-14  0.12500000000E+03  0.12500000000E+03 0.  0.
        -13    1    1    0    0    0 -0.18474340205E+02  0.86491904146E+01  0.35885306340E+02  0.41278034303E+02  0.10566000000E+00 0.  1.
         13    1    1    0    0    0 -0.10171996523E+02 -0.54080512584E+01  0.18715731190E+02  0.21977404071E+02  0.10566000000E+00 0. -1.
         22    1    1    0    0    0  0.28646336728E+02 -0.32411391562E+01 -0.54601037530E+02  0.61744561625E+02  0.00000000000E+00 0.  1.
</event>
<event>
 4    1  0.9957587E-003  0.9118800E+02  0.7818608E-02  0.1130116E+00
         25   -1    0    0    0    0  0.00000000000E+00  0.00000000000E+00  0.99999998245E-14  0.12500000000E+03  0.12500000000E+03 0.  0.
        -13    1    1    0    0    0 -0.14966968449E+02  0.68430293462E+01 -0.34462584296E+02  0.38190549559E+02  0.10566000000E+00 0. -1.
         13    1    1    0    0    0 -0.73077595619E+01  0.65963987329E+01 -0.22296014506E+02  0.24372920485E+02  0.10566000000E+00 0.  1.
         22    1    1    0    0    0  0.22274728011E+02 -0.13439428079E+02  0.56758598802E+02  0.62436529957E+02  0.00000000000E+00 0. -1.
</event>
<event>
 4    1  0.9957587E-003  0.9118800E+02  0.7818608E-02  0.1130116E+00
         25   -1    0    0    0    0  0.00000000000E+00  0.00000000000E+00  0.99999998245E-14  0.12500000000E+03  0.12500000000E+03 0.  0.
        -13    1    1    0    0    0 -0.16797592330E+00  0.32045895155E+00  0.52398585560E+00  0.64547274374E+00  0.10566000000E+00 0. -1.
         13    1    1    0    0    0 -0.22406373385E+02  0.19058156700E+01  0.57668124712E+02  0.61897507813E+02  0.10566000000E+00 0.  1.
         22    1    1    0    0    0  0.22574349309E+02 -0.22262746215E+01 -0.58192110568E+02  0.62457019443E+02  0.00000000000E+00 0.  1.
</event>
<event>
 4    1  0.9957587E-003  0.9118800E+02  0.7818608E-02  0.1130116E+00
         25   -1    0    0    0    0  0.00000000000E+00  0.00000000000E+00  0.99999998245E-14  0.12500000000E+03  0.12500000000E+03 0.  0.
        -13    1    1    0    0    0 -0.48356238376E+02 -0.22413271107E+02 -0.23283052129E+02  0.58161776040E+02  0.10566000000E+00 0.  1.
         13    1    1    0    0    0 -0.35127775714E+01 -0.19145973571E+01 -0.16859681551E+01  0.43426883335E+01  0.10566000000E+00 0.  1.
         22    1    1    0    0    0  0.51869015947E+02  0.24327868464E+02  0.24969020284E+02  0.62495535627E+02  0.00000000000E+00 0.  1.
</event>
<event>
 4    1  0.9957587E-003  0.9118800E+02  0.7818608E-02  0.1130116E+00
         25   -1    0    0    0    0  0.00000000000E+00  0.00000000000E+00  0.99999998245E-14  0.12500000000E+03  0.12500000000E+03 0.  0.
        -13    1    1    0    0    0 -0.26061859261E+02  0.44686643193E+01  0.11770102954E+02  0.28943668678E+02  0.10566000000E+00 0. -1.
         13    1    1    0    0    0 -0.24450023709E+02  0.14111439426E+02 -0.28081089192E+02  0.39818276159E+02  0.10566000000E+00 0.  1.
         22    1    1    0    0    0  0.50511882971E+02 -0.18580103745E+02  0.16310986238E+02  0.56238055163E+02  0.00000000000E+00 0.  1.
</event>
<event>
 4    1  0.9957587E-003  0.9118800E+02  0.7818608E-02  0.1130116E+00
         25   -1    0    0    0    0  0.00000000000E+00  0.00000000000E+00  0.99999998245E-14  0.12500000000E+03  0.12500000000E+03 0.  0.
        -13    1    1    0    0    0  0.19528776066E+02 -0.23509682091E+01  0.85320578776E+01  0.21440786408E+02  0.10566000000E+00 0.  1.
         13    1    1    0    0    0  0.32356828631E+02 -0.24176884035E+02 -0.18520667280E+02  0.44435485383E+02  0.10566000000E+00 0. -1.
         22    1    1    0    0    0 -0.51885604697E+02  0.26527852244E+02  0.99886094027E+01  0.59123728208E+02  0.00000000000E+00 0. -1.
</event>
<event>
 4    1  0.9957587E-003  0.9118800E+02  0.7818608E-02  0.1130116E+00
         25   -1    0    0    0    0  0.00000000000E+00  0.00000000000E+00  0.99999998245E-14  0.12500000000E+03  0.12500000000E+03 0.  0.
        -13    1    1    0    0    0 -0.30090084932E+02 -0.12913721612E+02 -0.60502332068E+01  0.33298557070E+02  0.10566000000E+00 0.  1.
         13    1    1    0    0    0 -0.25568286551E+02 -0.14081176281E+02 -0.23049858669E+01  0.29280384671E+02  0.10566000000E+00 0. -1.
         22    1    1    0    0    0  0.55658371483E+02  0.26994897893E+02  0.83552190737E+01  0.62421058259E+02  0.00000000000E+00 0.  1.
</event>
<event>
 4    1  0.9957587E-003  0.9118800E+02  0.7818608E-02  0.1130116E+00
         25   -1    0    0    0    0  0.00000000000E+00  0.00000000000E+00  0.99999998245E-14  0.12500000000E+03  0.12500000000E+03 0.  0.
        -13    1    1    0    0    0 -0.10713685665E+02  0.40138456255E+02  0.90169376291E+01  0.42511116891E+02  0.10566000000E+00 0. -1.
         13    1    1    0    0    0 -0.12518181106E+02  0.14720354338E+02 -0.12159053632E+02  0.22830844034E+02  0.10566000000E+00 0.  1.
         22    1    1    0    0    0  0.23231866771E+02 -0.54858810593E+02  0.31421160028E+01  0.59658039075E+02  0.00000000000E+00 0. -1.
</event>
<event>
 4    1  0.9957587E-003  0.9118800E+02  0.7818608E-02  0.1130116E+00
         25   -1    0    0    0    0  0.00000000000E+00  0.00000000000E+00  0.99999998245E-14  0.12500000000E+03  0.12500000000E+03 0.  0.
        -13    1    1    0    0    0  0.23757403298E+01 -0.31421675863E+02 -0.26200709604E+02  0.40981144493E+02  0.10566000000E+00 0.  1.
         13    1    1    0    0    0  0.32385587657E+00 -0.16357011385E+02 -0.13989486841E+02  0.21526114609E+02  0.10566000000E+00 0. -1.
         22    1    1    0    0    0 -0.26995962064E+01  0.47778687247E+02  0.40190196444E+02  0.62492740898E+02  0.00000000000E+00 0. -1.
</event>
<event>
 4    1  0.9957587E-003  0.9118800E+02  0.7818608E-02  0.1130116E+00
         25   -1    0    0    0    0  0.00000000000E+00  0.00000000000E+00  0.99999998245E-14  0.12500000000E+03  0.12500000000E+03 0.  0.
        -13    1    1    0    0    0 -0.17557062887E+01 -0.18739961247E+01 -0.32308342269E+01  0.41284161472E+01  0.10566000000E+00 0. -1.
         13    1    1    0    0    0 -0.40967483086E+02 -0.41510525717E+02  0.11433952927E+02  0.59432355324E+02  0.10566000000E+00 0.  1.
         22    1    1    0    0    0  0.42723189375E+02  0.43384521842E+02 -0.82031186997E+01  0.61439228529E+02  0.00000000000E+00 0.  1.
</event>
<event>
 4    1  0.9957587E-003  0.9118800E+02  0.7818608E-02  0.1130116E+00
         25   -1    0    0    0    0  0.00000000000E+00  0.00000000000E+00  0.99999998245E-14  0.12500000000E+03  0.12500000000E+03 0.  0.
        -13    1    1    0    0    0 -0.27289844546E+01  0.30682798949E+02 -0.10857291445E+02  0.32661497961E+02  0.10566000000E+00 0.  1.
         13    1    1    0    0    0 -0.87305297054E+00  0.28534266920E+02 -0.87453543000E+01  0.29857310596E+02  0.10566000000E+00 0. -1.
         22    1    1    0    0    0  0.36020374251E+01 -0.59217065870E+02  0.19602645745E+02  0.62481191442E+02  0.00000000000E+00 0. -1.
</event>
<event>
 4    1  0.9957587E-003  0.9118800E+02  0.7818608E-02  0.1130116E+00
         25   -1    0    0    0    0  0.00000000000E+00  0.00000000000E+00  0.99999998245E-14  0.12500000000E+03  0.12500000000E+03 0.  0.
        -13    1    1    0    0    0  0.30103227955E+02 -0.49667960946E+02  0.11122913885E+02  0.59134093848E+02  0.10566000000E+00 0.  1.
         13    1    1    0    0    0  0.67922763925E+00 -0.33894455126E+01  0.29819089726E+00  0.34712782826E+01  0.10566000000E+00 0. -1.
         22    1    1    0    0    0 -0.30782455594E+02  0.53057406459E+02 -0.11421104782E+02  0.62394627870E+02  0.00000000000E+00 0.  1.
</event>
<event>
 4    1  0.9957587E-003  0.9118800E+02  0.7818608E-02  0.1130116E+00
         25   -1    0    0    0    0  0.00000000000E+00  0.00000000000E+00  0.99999998245E-14  0.12500000000E+03  0.12500000000E+03 0.  0.
        -13    1    1    0    0    0 -0.66498901554E+01 -0.10021760733E+02 -0.12977738799E+01  0.12097607547E+02  0.10566000000E+00 0. -1.
         13    1    1    0    0    0 -0.27507246562E+02 -0.41931730541E+02 -0.50516615609E+01  0.50402867857E+02  0.10566000000E+00 0.  1.
         22    1    1    0    0    0  0.34157136717E+02  0.51953491275E+02  0.63494354409E+01  0.62499524597E+02  0.00000000000E+00 0.  1.
</event>
<event>
 4    1  0.9957587E-003  0.9118800E+02  0.7818608E-02  0.1130116E+00
         25   -1    0    0    0    0  0.00000000000E+00  0.00000000000E+00  0.99999998245E-14  0.12500000000E+03  0.12500000000E+03 0.  0.
        -13    1    1    0    0    0  0.77338240092E+01 -0.56932886804E+01  0.22071212238E+01  0.98543451297E+01  0.10566000000E+00 0.  1.
         13    1    1    0    0    0  0.25032457068E+02 -0.46715302165E+02 -0.52725840637E+01  0.53261192908E+02  0.10566000000E+00 0. -1.
         22    1    1    0    0    0 -0.32766281077E+02  0.52408590845E+02  0.30654628399E+01  0.61884461963E+02  0.00000000000E+00 0. -1.
</event>
<event>
 4    1  0.9957587E-003  0.9118800E+02  0.7818608E-02  0.1130116E+00
         25   -1    0    0    0    0  0.00000000000E+00  0.00000000000E+00  0.99999998245E-14  0.12500000000E+03  0.12500000000E+03 0.  0.
        -13    1    1    0    0    0  0.42026230377E+02  0.42258794769E+02  0.73255856640E+01  0.60047357514E+02  0.10566000000E+00 0. -1.
         13    1    1    0    0    0  0.16603554197E+01  0.17881416615E+01  0.24615850180E+00  0.24547889450E+01  0.10566000000E+00 0. -1.
         22    1    1    0    0    0 -0.43686585797E+02 -0.44046936431E+02 -0.75717441658E+01  0.62497853541E+02  0.00000000000E+00 0. -1.
</event>
<event>
 4    1  0.9957587E-003  0.9118800E+02  0.7818608E-02  0.1130116E+00
         25   -1    0    0    0    0  0.00000000000E+00  0.00000000000E+00  0.99999998245E-14  0.12500000000E+03  0.12500000000E+03 0.  0.
        -13    1    1    0    0    0 -0.23714566312E+02 -0.14509608407E+02 -0.36213914488E+02  0.45654880988E+02  0.10566000000E+00 0.  1.
         13    1    1    0    0    0 -0.89317952437E+01 -0.56789564095E+01 -0.13107303480E+02  0.16847554147E+02  0.10566000000E+00 0. -1.
         22    1    1    0    0    0  0.32646361555E+02  0.20188564816E+02  0.49321217968E+02  0.62497564865E+02  0.00000000000E+00 0.  1.
</event>
<event>
 4    1  0.9957587E-003  0.9118800E+02  0.7818608E-02  0.1130116E+00
         25   -1    0    0    0    0  0.00000000000E+00  0.00000000000E+00  0.99999998245E-14  0.12500000000E+03  0.12500000000E+03 0.  0.
        -13    1    1    0    0    0  0.14308257305E+02  0.46247277238E+01  0.18746733756E+02  0.24032592956E+02  0.10566000000E+00 0. -1.
         13    1    1    0    0    0  0.41411437322E+02  0.27449373586E+01  0.65606669402E+00  0.41507630741E+02  0.10566000000E+00 0.  1.
         22    1    1    0    0    0 -0.55719694627E+02 -0.73696650825E+01 -0.19402800450E+02  0.59459776303E+02  0.00000000000E+00 0.  1.
</event>
<event>
 4    1  0.9957587E-003  0.9118800E+02  0.7818608E-02  0.1130116E+00
         25   -1    0    0    0    0  0.00000000000E+00  0.00000000000E+00  0.99999998245E-14  0.12500000000E+03  0.12500000000E+03 0.  0.
        -13    1    1    0    0    0 -0.15042370054E+02  0.19401259877E+02 -0.31643228477E+01  0.24752896493E+02  0.10566000000E+00 0.  1.
         13    1    1    0    0    0 -0.25542443640E+02  0.26435959484E+02 -0.89592295912E+01  0.37835900146E+02  0.10566000000E+00 0. -1.
         22    1    1    0    0    0  0.40584813694E+02 -0.45837219361E+02  0.12123552439E+02  0.62411203362E+02  0.00000000000E+00 0. -1.
</event>
<event>
 4    1  0.9957587E-003  0.9118800E+02  0.7818608E-02  0.1130116E+00
         25   -1    0    0    0    0  0.00000000000E+00  0.00000000000E+00  0.99999998245E-14  0.12500000000E+03  0.12500000000E+03 0.  0.
        -13    1    1    0    0    0 -0.12215456397E+02  0.41477802242E+01  0.14853237379E+01  0.12986100509E+02  0.10566000000E+00 0.  1.
         13    1    1    0    0    0 -0.49063436525E+02  0.43879983786E+00 -0.97055689919E+01  0.50016223192E+02  0.10566000000E+00 0. -1.
         22    1    1    0    0    0  0.61278892922E+02 -0.45865800621E+01  0.82202452540E+01  0.61997676299E+02  0.00000000000E+00 0. -1.
</event>
<event>
 4    1  0.9957587E-003  0.9118800E+02  0.7818608E-02  0.1130116E+00
         25   -1    0    0    0    0  0.00000000000E+00  0.00000000000E+00  0.99999998245E-14  0.12500000000E+03  0.12500000000E+03 0.  0.
        -13    1    1    0    0    0 -0.11051929552E+02 -0.15421024791E+02 -0.21956071061E+02  0.29017811305E+02  0.10566000000E+00 0.  1.
         13    1    1    0    0    0  0.44352470997E+02 -0.35608405103E+01  0.33784573053E+02  0.55867967648E+02  0.10566000000E+00 0. -1.
         22    1    1    0    0    0 -0.33300541445E+02  0.18981865301E+02 -0.11828501991E+02  0.40114221047E+02  0.00000000000E+00 0. -1.
</event>
<event>
 4    1  0.9957587E-003  0.9118800E+02  0.7818608E-02  0.1130116E+00
         25   -1    0    0    0    0  0.00000000000E+00  0.00000000000E+00  0.99999998245E-14  0.12500000000E+03  0.12500000000E+03 0.  0.
        -13    1    1    0    0    0  0.22610016033E+02 -0.16859881901E+02 -0.19480717880E+02  0.34277951746E+02  0.10566000000E+00 0. -1.
         13    1    1    0    0    0  0.21686176381E+02 -0.14403616569E+02 -0.11295061654E+02  0.28378583441E+02  0.10566000000E+00 0.  1.
         22    1    1    0    0    0 -0.44296192414E+02  0.31263498470E+02  0.30775779534E+02  0.62343464813E+02  0.00000000000E+00 0. -1.
</event>
<event>
 4    1  0.9957587E-003  0.9118800E+02  0.7818608E-02  0.1130116E+00
         25   -1    0    0    0    0  0.00000000000E+00  0.00000000000E+00  0.99999998245E-14  0.12500000000E+03  0.12500000000E+03 0.  0.
        -13    1    1    0    0    0  0.43750983562E+02  0.35423581833E+02 -0.51959444001E+01  0.56533067445E+02  0.10566000000E+00 0. -1.
         13    1    1    0    0    0  0.47202272982E+01  0.36068191892E+01 -0.56780528295E+00  0.59685222028E+01  0.10566000000E+00 0.  1.
         22    1    1    0    0    0 -0.48471210860E+02 -0.39030401022E+02  0.57637496830E+01  0.62498410352E+02  0.00000000000E+00 0. -1.
</event>
<event>
 4    1  0.9957587E-003  0.9118800E+02  0.7818608E-02  0.1130116E+00
         25   -1    0    0    0    0  0.00000000000E+00  0.00000000000E+00  0.99999998245E-14  0.12500000000E+03  0.12500000000E+03 0.  0.
        -13    1    1    0    0    0 -0.17416099600E+02 -0.39160189301E+00  0.30585319410E+02  0.35198676179E+02  0.10566000000E+00 0. -1.
         13    1    1    0    0    0 -0.13279218350E+02 -0.59413910839E+00  0.23847711013E+02  0.27302291586E+02  0.10566000000E+00 0.  1.
         22    1    1    0    0    0  0.30695317950E+02  0.98574100140E+00 -0.54433030422E+02  0.62499032235E+02  0.00000000000E+00 0.  1.
</event>
<event>
 4    1  0.9957587E-003  0.9118800E+02  0.7818608E-02  0.1130116E+00
         25   -1    0    0    0    0  0.00000000000E+00  0.00000000000E+00  0.99999998245E-14  0.12500000000E+03  0.12500000000E+03 0.  0.
        -13    1    1    0    0    0 -0.15563688080E+01 -0.25236188010E+01 -0.29491644665E+01  0.41832607862E+01  0.10566000000E+00 0. -1.
         13    1    1    0    0    0 -0.18996256830E+02 -0.40216155756E+02 -0.37738458176E+02  0.58330089550E+02  0.10566000000E+00 0.  1.
         22    1    1    0    0    0  0.20552625638E+02  0.42739774557E+02  0.40687622643E+02  0.62486649663E+02  0.00000000000E+00 0.  1.
</event>
<event>
 4    1  0.9957587E-003  0.9118800E+02  0.7818608E-02  0.1130116E+00
         25   -1    0    0    0    0  0.00000000000E+00  0.00000000000E+00  0.99999998245E-14  0.12500000000E+03  0.12500000000E+03 0.  0.
        -13    1    1    0    0    0  0.11496374951E+02  0.23986607095E+01 -0.15488880402E+02  0.19438024343E+02  0.10566000000E+00 0. -1.
         13    1    1    0    0    0 -0.13769556933E+02  0.49268995821E+02 -0.13416295254E+01  0.51174659561E+02  0.10566000000E+00 0.  1.
         22    1    1    0    0    0  0.22731819816E+01 -0.51667656531E+02  0.16830509928E+02  0.54387316096E+02  0.00000000000E+00 0.  1.
</event>
<event>
 4    1  0.9957587E-003  0.9118800E+02  0.7818608E-02  0.1130116E+00
         25   -1    0    0    0    0  0.00000000000E+00  0.00000000000E+00  0.99999998245E-14  0.12500000000E+03  0.12500000000E+03 0.  0.
        -13    1    1    0    0    0 -0.54511043007E+02  0.35347189591E+01 -0.24129630316E+02  0.59717654602E+02  0.10566000000E+00 0.  1.
         13    1    1    0    0    0 -0.25567404337E+01  0.65349588638E-01 -0.10955272160E+01  0.27843376467E+01  0.10566000000E+00 0. -1.
         22    1    1    0    0    0  0.57067783441E+02 -0.36000685477E+01  0.25225157532E+02  0.62498007752E+02  0.00000000000E+00 0.  1.
</event>
<event>
 4    1  0.9957587E-003  0.9118800E+02  0.7818608E-02  0.1130116E+00
         25   -1    0    0    0    0  0.00000000000E+00  0.00000000000E+00  0.99999998245E-14  0.12500000000E+03  0.12500000000E+03 0.  0.
        -13    1    1    0    0    0  0.24618138573E+02 -0.19374128504E+02 -0.14093789978E+02  0.34351938549E+02  0.10566000000E+00 0.  1.
         13    1    1    0    0    0  0.20621820538E+02 -0.15935534948E+02 -0.10648510331E+02  0.28153200399E+02  0.10566000000E+00 0. -1.
         22    1    1    0    0    0 -0.45239959111E+02  0.35309663452E+02  0.24742300309E+02  0.62494861053E+02  0.00000000000E+00 0. -1.
</event>
<event>
 4    1  0.9957587E-003  0.9118800E+02  0.7818608E-02  0.1130116E+00
         25   -1    0    0    0    0  0.00000000000E+00  0.00000000000E+00  0.99999998245E-14  0.12500000000E+03  0.12500000000E+03 0.  0.
        -13    1    1    0    0    0  0.11676794417E+02  0.20611948135E+02 -0.46528788359E+01  0.24142501512E+02  0.10566000000E+00 0.  1.
         13    1    1    0    0    0  0.19072426849E+02  0.32405791010E+02 -0.75822238857E+01  0.38358754411E+02  0.10566000000E+00 0. -1.
         22    1    1    0    0    0 -0.30749221267E+02 -0.53017739145E+02  0.12235102722E+02  0.62498744076E+02  0.00000000000E+00 0. -1.
</event>
<event>
 4    1  0.9957587E-003  0.9118800E+02  0.7818608E-02  0.1130116E+00
         25   -1    0    0    0    0  0.00000000000E+00  0.00000000000E+00  0.99999998245E-14  0.12500000000E+03  0.12500000000E+03 0.  0.
        -13    1    1    0    0    0  0.24558018298E+02  0.11798588627E+02  0.38645696307E+02  0.47284288758E+02  0.10566000000E+00 0. -1.
         13    1    1    0    0    0  0.89283356282E+01  0.52709389655E+01  0.11216114292E+02  0.15274500270E+02  0.10566000000E+00 0.  1.
         22    1    1    0    0    0 -0.33486353926E+02 -0.17069527592E+02 -0.49861810598E+02  0.62441210972E+02  0.00000000000E+00 0. -1.
</event>
<event>
 4    1  0.9957587E-003  0.9118800E+02  0.7818608E-02  0.1130116E+00
         25   -1    0    0    0    0  0.00000000000E+00  0.00000000000E+00  0.99999998245E-14  0.12500000000E+03  0.12500000000E+03 0.  0.
        -13    1    1    0    0    0  0.41658416447E+02 -0.10748320952E+02  0.43612503539E+02  0.61261829006E+02  0.10566000000E+00 0.  1.
         13    1    1    0    0    0  0.12472100548E+01  0.73758434774E+00  0.35407550162E+00  0.14953585147E+01  0.10566000000E+00 0. -1.
         22    1    1    0    0    0 -0.42905626502E+02  0.10010736604E+02 -0.43966579040E+02  0.62242812480E+02  0.00000000000E+00 0.  1.
</event>
<event>
 4    1  0.9957587E-003  0.9118800E+02  0.7818608E-02  0.1130116E+00
         25   -1    0    0    0    0  0.00000000000E+00  0.00000000000E+00  0.99999998245E-14  0.12500000000E+03  0.12500000000E+03 0.  0.
        -13    1    1    0    0    0 -0.14738486991E+02  0.16962691857E+02 -0.39824563812E+02  0.45727048458E+02  0.10566000000E+00 0. -1.
         13    1    1    0    0    0 -0.13517046986E+01  0.65132149490E+01 -0.15604823591E+02  0.16963807294E+02  0.10566000000E+00 0.  1.
         22    1    1    0    0    0  0.16090191690E+02 -0.23475906806E+02  0.55429387403E+02  0.62309144248E+02  0.00000000000E+00 0. -1.
</event>
<event>
 4    1  0.9957587E-003  0.9118800E+02  0.7818608E-02  0.1130116E+00
         25   -1    0    0    0    0  0.00000000000E+00  0.00000000000E+00  0.99999998245E-14  0.12500000000E+03  0.12500000000E+03 0.  0.
        -13    1    1    0    0    0 -0.14441023675E+02  0.20779187193E+02 -0.14703046032E+02  0.29266166675E+02  0.10566000000E+00 0.  1.
         13    1    1    0    0    0 -0.15599003882E+02  0.23963396585E+02 -0.16944346355E+02  0.33236957374E+02  0.10566000000E+00 0. -1.
         22    1    1    0    0    0  0.30040027557E+02 -0.44742583779E+02  0.31647392387E+02  0.62496875952E+02  0.00000000000E+00 0.  1.
</event>
<event>
 4    1  0.9957587E-003  0.9118800E+02  0.7818608E-02  0.1130116E+00
         25   -1    0    0    0    0  0.00000000000E+00  0.00000000000E+00  0.99999998245E-14  0.12500000000E+03  0.12500000000E+03 0.  0.
        -13    1    1    0    0    0 -0.17228144976E+02 -0.21178303621E+02 -0.59492595570E+01  0.27941624450E+02  0.10566000000E+00 0.  1.
         13    1    1    0    0    0 -0.14920870204E+02 -0.31474144633E+02  0.61264623014E+01  0.35366634734E+02  0.10566000000E+00 0. -1.
         22    1    1    0    0    0  0.32149015181E+02  0.52652448254E+02 -0.17720274432E+00  0.61691740817E+02  0.00000000000E+00 0.  1.
</event>
<event>
 4    1  0.9957587E-003  0.9118800E+02  0.7818608E-02  0.1130116E+00
         25   -1    0    0    0    0  0.00000000000E+00  0.00000000000E+00  0.99999998245E-14  0.12500000000E+03  0.12500000000E+03 0.  0.
        -13    1    1    0    0    0 -0.36571805131E+01 -0.26533519862E+01  0.24519309432E+01  0.51418260817E+01  0.10566000000E+00 0. -1.
         13    1    1    0    0    0 -0.39436878568E+02 -0.32886894464E+02  0.25570548413E+02  0.57364443072E+02  0.10566000000E+00 0.  1.
         22    1    1    0    0    0  0.43094059081E+02  0.35540246451E+02 -0.28022479357E+02  0.62493730847E+02  0.00000000000E+00 0.  1.
</event>
<event>
 4    1  0.9957587E-003  0.9118800E+02  0.7818608E-02  0.1130116E+00
         25   -1    0    0    0    0  0.00000000000E+00  0.00000000000E+00  0.99999998245E-14  0.12500000000E+03  0.12500000000E+03 0.  0.
        -13    1    1    0    0    0 -0.24443743844E+01 -0.12717158009E+01 -0.44417285302E+01  0.52280343898E+01  0.10566000000E+00 0.  1.
         13    1    1    0    0    0 -0.28031899170E+02 -0.12844926795E+02 -0.48264642817E+02  0.57273610203E+02  0.10566000000E+00 0.  1.
         22    1    1    0    0    0  0.30476273555E+02  0.14116642596E+02  0.52706371347E+02  0.62498355407E+02  0.00000000000E+00 0.  1.
</event>
<event>
 4    1  0.9957587E-003  0.9118800E+02  0.7818608E-02  0.1130116E+00
         25   -1    0    0    0    0  0.00000000000E+00  0.00000000000E+00  0.99999998245E-14  0.12500000000E+03  0.12500000000E+03 0.  0.
        -13    1    1    0    0    0  0.48054870863E+01  0.90490003324E+01  0.11344299636E+01  0.10308986785E+02  0.10566000000E+00 0.  1.
         13    1    1    0    0    0  0.26288459673E+02  0.44632653303E+02  0.64216171244E+01  0.52195834924E+02  0.10566000000E+00 0.  1.
         22    1    1    0    0    0 -0.31093946759E+02 -0.53681653635E+02 -0.75560470880E+01  0.62495178292E+02  0.00000000000E+00 0.  1.
</event>
<event>
 4    1  0.9957587E-003  0.9118800E+02  0.7818608E-02  0.1130116E+00
         25   -1    0    0    0    0  0.00000000000E+00  0.00000000000E+00  0.99999998245E-14  0.12500000000E+03  0.12500000000E+03 0.  0.
        -13    1    1    0    0    0 -0.38581803427E+02 -0.14822111141E+02  0.90189807904E+01  0.42303708027E+02  0.10566000000E+00 0. -1.
         13    1    1    0    0    0 -0.17201172483E+02 -0.10022426627E+02  0.38812019178E+01  0.20283102885E+02  0.10566000000E+00 0.  1.
         22    1    1    0    0    0  0.55782975910E+02  0.24844537767E+02 -0.12900182708E+02  0.62413189088E+02  0.00000000000E+00 0. -1.
</event>
<event>
 4    1  0.9957587E-003  0.9118800E+02  0.7818608E-02  0.1130116E+00
         25   -1    0    0    0    0  0.00000000000E+00  0.00000000000E+00  0.99999998245E-14  0.12500000000E+03  0.12500000000E+03 0.  0.
        -13    1    1    0    0    0 -0.24059190415E+02 -0.40663998588E+01 -0.45292010779E+02  0.51446648634E+02  0.10566000000E+00 0. -1.
         13    1    1    0    0    0 -0.45104613486E+01  0.36607616082E+01 -0.98571361838E+01  0.11442016208E+02  0.10566000000E+00 0.  1.
         22    1    1    0    0    0  0.28569651763E+02  0.40563825059E+00  0.55149146963E+02  0.62111335157E+02  0.00000000000E+00 0. -1.
</event>
<event>
 4    1  0.9957587E-003  0.9118800E+02  0.7818608E-02  0.1130116E+00
         25   -1    0    0    0    0  0.00000000000E+00  0.00000000000E+00  0.99999998245E-14  0.12500000000E+03  0.12500000000E+03 0.  0.
        -13    1    1    0    0    0 -0.16842979903E+02 -0.23669091513E+02  0.35673253402E+02  0.46005478341E+02  0.10566000000E+00 0.  1.
         13    1    1    0    0    0 -0.66958725260E+01 -0.87359339250E+01  0.12295781790E+02  0.16502989556E+02  0.10566000000E+00 0. -1.
         22    1    1    0    0    0  0.23538852429E+02  0.32405025438E+02 -0.47969035192E+02  0.62491532103E+02  0.00000000000E+00 0.  1.
</event>
<event>
 4    1  0.9957587E-003  0.9118800E+02  0.7818608E-02  0.1130116E+00
         25   -1    0    0    0    0  0.00000000000E+00  0.00000000000E+00  0.99999998245E-14  0.12500000000E+03  0.12500000000E+03 0.  0.
        -13    1    1    0    0    0 -0.11475954692E+02  0.37792595231E+01 -0.94665820427E+01  0.15349517199E+02  0.10566000000E+00 0. -1.
         13    1    1    0    0    0 -0.39762329305E+02  0.11229208213E+02 -0.22875512206E+02  0.47227514984E+02  0.10566000000E+00 0.  1.
         22    1    1    0    0    0  0.51238283997E+02 -0.15008467736E+02  0.32342094248E+02  0.62422967817E+02  0.00000000000E+00 0.  1.
</event>
<event>
 4    1  0.9957587E-003  0.9118800E+02  0.7818608E-02  0.1130116E+00
         25   -1    0    0    0    0  0.00000000000E+00  0.00000000000E+00  0.99999998245E-14  0.12500000000E+03  0.12500000000E+03 0.  0.
        -13    1    1    0    0    0  0.17105355019E+02 -0.14502385348E+02 -0.20934867721E+02  0.30678855938E+02  0.10566000000E+00 0. -1.
         13    1    1    0    0    0  0.19298060805E+02 -0.15105966528E+02 -0.20323631958E+02  0.31838130529E+02  0.10566000000E+00 0.  1.
         22    1    1    0    0    0 -0.36403415824E+02  0.29608351876E+02  0.41258499679E+02  0.62483013533E+02  0.00000000000E+00 0. -1.
</event>
<event>
 4    1  0.9957587E-003  0.9118800E+02  0.7818608E-02  0.1130116E+00
         25   -1    0    0    0    0  0.00000000000E+00  0.00000000000E+00  0.99999998245E-14  0.12500000000E+03  0.12500000000E+03 0.  0.
        -13    1    1    0    0    0  0.12458896820E+02 -0.53573277447E+02 -0.17098597520E+02  0.57599421591E+02  0.10566000000E+00 0.  1.
         13    1    1    0    0    0  0.10020736705E+01 -0.45884873148E+01 -0.13984384257E+01  0.49015468523E+01  0.10566000000E+00 0.  1.
         22    1    1    0    0    0 -0.13460970490E+02  0.58161764762E+02  0.18497035945E+02  0.62499031557E+02  0.00000000000E+00 0.  1.
</event>
<event>
 4    1  0.9957587E-003  0.9118800E+02  0.7818608E-02  0.1130116E+00
         25   -1    0    0    0    0  0.00000000000E+00  0.00000000000E+00  0.99999998245E-14  0.12500000000E+03  0.12500000000E+03 0.  0.
        -13    1    1    0    0    0  0.13643649241E+02  0.17745635959E+02 -0.25991270599E+01  0.22534937002E+02  0.10566000000E+00 0. -1.
         13    1    1    0    0    0 -0.26357219255E+02  0.11189533655E+02 -0.40141812344E+02  0.49308061537E+02  0.10566000000E+00 0.  1.
         22    1    1    0    0    0  0.12713570014E+02 -0.28935169614E+02  0.42740939404E+02  0.53157001460E+02  0.00000000000E+00 0.  1.
</event>
<event>
 4    1  0.9957587E-003  0.9118800E+02  0.7818608E-02  0.1130116E+00
         25   -1    0    0    0    0  0.00000000000E+00  0.00000000000E+00  0.99999998245E-14  0.12500000000E+03  0.12500000000E+03 0.  0.
        -13    1    1    0    0    0  0.22811643532E+02 -0.65537646438E+01 -0.13478279806E+02  0.27294653363E+02  0.10566000000E+00 0. -1.
         13    1    1    0    0    0  0.28638032515E+02 -0.69488524470E+01 -0.19298271281E+02  0.35225812909E+02  0.10566000000E+00 0.  1.
         22    1    1    0    0    0 -0.51449676047E+02  0.13502617091E+02  0.32776551087E+02  0.62479533728E+02  0.00000000000E+00 0. -1.
</event>
<event>
 4    1  0.9957587E-003  0.9118800E+02  0.7818608E-02  0.1130116E+00
         25   -1    0    0    0    0  0.00000000000E+00  0.00000000000E+00  0.99999998245E-14  0.12500000000E+03  0.12500000000E+03 0.  0.
        -13    1    1    0    0    0  0.96537540107E+01  0.37719261496E+02  0.26054183552E+02  0.46848364954E+02  0.10566000000E+00 0. -1.
         13    1    1    0    0    0 -0.29858752817E+02 -0.57928157661E+01 -0.26538265884E+02  0.40365734906E+02  0.10566000000E+00 0.  1.
         22    1    1    0    0    0  0.20204998806E+02 -0.31926445730E+02  0.48408233284E+00  0.37785900140E+02  0.00000000000E+00 0.  1.
</event>
<event>
 4    1  0.9957587E-003  0.9118800E+02  0.7818608E-02  0.1130116E+00
         25   -1    0    0    0    0  0.00000000000E+00  0.00000000000E+00  0.99999998245E-14  0.12500000000E+03  0.12500000000E+03 0.  0.
        -13    1    1    0    0    0  0.14216589203E+02 -0.10035781527E+02  0.40681876287E+02  0.44247650126E+02  0.10566000000E+00 0.  1.
         13    1    1    0    0    0 -0.11810725054E+02  0.87009022996E+00  0.17870197904E+02  0.21438409933E+02  0.10566000000E+00 0. -1.
         22    1    1    0    0    0 -0.24058641485E+01  0.91656912971E+01 -0.58552074191E+02  0.59313939941E+02  0.00000000000E+00 0. -1.
</event>
<event>
 4    1  0.9957587E-003  0.9118800E+02  0.7818608E-02  0.1130116E+00
         25   -1    0    0    0    0  0.00000000000E+00  0.00000000000E+00  0.99999998245E-14  0.12500000000E+03  0.12500000000E+03 0.  0.
        -13    1    1    0    0    0  0.89677853390E+01 -0.15946963732E+02 -0.22632772760E+01  0.18435303475E+02  0.10566000000E+00 0. -1.
         13    1    1    0    0    0  0.18902094617E+02 -0.38398071807E+02  0.12615081556E+02  0.44618970698E+02  0.10566000000E+00 0.  1.
         22    1    1    0    0    0 -0.27869879956E+02  0.54345035538E+02 -0.10351804280E+02  0.61945725828E+02  0.00000000000E+00 0. -1.
</event>
<event>
 4    1  0.9957587E-003  0.9118800E+02  0.7818608E-02  0.1130116E+00
         25   -1    0    0    0    0  0.00000000000E+00  0.00000000000E+00  0.99999998245E-14  0.12500000000E+03  0.12500000000E+03 0.  0.
        -13    1    1    0    0    0 -0.92906925432E+01  0.33932110059E+02 -0.18120353250E+02  0.39573519264E+02  0.10566000000E+00 0. -1.
         13    1    1    0    0    0  0.16761910370E+02 -0.25723938579E+02 -0.25813225981E+02  0.40112547349E+02  0.10566000000E+00 0.  1.
         22    1    1    0    0    0 -0.74712178267E+01 -0.82081714802E+01  0.43933579232E+02  0.45313933387E+02  0.00000000000E+00 0. -1.
</event>
<event>
 4    1  0.9957587E-003  0.9118800E+02  0.7818608E-02  0.1130116E+00
         25   -1    0    0    0    0  0.00000000000E+00  0.00000000000E+00  0.99999998245E-14  0.12500000000E+03  0.12500000000E+03 0.  0.
        -13    1    1    0    0    0  0.15968665391E+01  0.19875715929E+02 -0.78124128163E+01  0.21415859181E+02  0.10566000000E+00 0.  1.
         13    1    1    0    0    0  0.24528508981E+01  0.38663570050E+02 -0.13690310125E+02  0.41089218560E+02  0.10566000000E+00 0. -1.
         22    1    1    0    0    0 -0.40497174372E+01 -0.58539285979E+02  0.21502722942E+02  0.62494922259E+02  0.00000000000E+00 0. -1.
</event>
<event>
 4    1  0.9957587E-003  0.9118800E+02  0.7818608E-02  0.1130116E+00
         25   -1    0    0    0    0  0.00000000000E+00  0.00000000000E+00  0.99999998245E-14  0.12500000000E+03  0.12500000000E+03 0.  0.
        -13    1    1    0    0    0  0.91730103575E+01  0.45718585081E+01 -0.35355534910E+02  0.36811289329E+02  0.10566000000E+00 0. -1.
         13    1    1    0    0    0  0.37203325114E+01  0.10580259011E+02  0.57404856010E+02  0.58490267671E+02  0.10566000000E+00 0.  1.
         22    1    1    0    0    0 -0.12893342869E+02 -0.15152117520E+02 -0.22049321099E+02  0.29698442999E+02  0.00000000000E+00 0.  1.
</event>
<event>
 4    1  0.9957587E-003  0.9118800E+02  0.7818608E-02  0.1130116E+00
         25   -1    0    0    0    0  0.00000000000E+00  0.00000000000E+00  0.99999998245E-14  0.12500000000E+03  0.12500000000E+03 0.  0.
        -13    1    1    0    0    0 -0.69570481117E+01 -0.36465409022E+02  0.41438819271E+02  0.55635541520E+02  0.10566000000E+00 0.  1.
         13    1    1    0    0    0 -0.58840409835E+00 -0.33623076322E+01  0.60378850882E+01  0.69367537343E+01  0.10566000000E+00 0. -1.
         22    1    1    0    0    0  0.75454522101E+01  0.39827716654E+02 -0.47476704360E+02  0.62427704746E+02  0.00000000000E+00 0.  1.
</event>
<event>
 4    1  0.9957587E-003  0.9118800E+02  0.7818608E-02  0.1130116E+00
         25   -1    0    0    0    0  0.00000000000E+00  0.00000000000E+00  0.99999998245E-14  0.12500000000E+03  0.12500000000E+03 0.  0.
        -13    1    1    0    0    0  0.30127845004E+01  0.15960913966E+02 -0.10320291886E+02  0.19244407856E+02  0.10566000000E+00 0.  1.
         13    1    1    0    0    0  0.24301576847E+02  0.32410536984E+02 -0.16901123818E+02  0.43893834364E+02  0.10566000000E+00 0. -1.
         22    1    1    0    0    0 -0.27314361347E+02 -0.48371450950E+02  0.27221415704E+02  0.61861757780E+02  0.00000000000E+00 0. -1.
</event>
<event>
 4    1  0.9957587E-003  0.9118800E+02  0.7818608E-02  0.1130116E+00
         25   -1    0    0    0    0  0.00000000000E+00  0.00000000000E+00  0.99999998245E-14  0.12500000000E+03  0.12500000000E+03 0.  0.
        -13    1    1    0    0    0 -0.30693596072E+02 -0.13841645828E+01  0.17648327499E+02  0.35432857335E+02  0.10566000000E+00 0. -1.
         13    1    1    0    0    0 -0.23532841199E+02 -0.11848320129E+01  0.13320828718E+02  0.27067583631E+02  0.10566000000E+00 0. -1.
         22    1    1    0    0    0  0.54226437271E+02  0.25689965957E+01 -0.30969156218E+02  0.62499559034E+02  0.00000000000E+00 0. -1.
</event>
<event>
 4    1  0.9957587E-003  0.9118800E+02  0.7818608E-02  0.1130116E+00
         25   -1    0    0    0    0  0.00000000000E+00  0.00000000000E+00  0.99999998245E-14  0.12500000000E+03  0.12500000000E+03 0.  0.
        -13    1    1    0    0    0 -0.37969195312E+00 -0.40492541823E-01 -0.18655795828E+00  0.43791955038E+00  0.10566000000E+00 0. -1.
         13    1    1    0    0    0 -0.24054550697E+02  0.54419029006E+02 -0.18123907112E+02  0.62197582753E+02  0.10566000000E+00 0.  1.
         22    1    1    0    0    0  0.24434242650E+02 -0.54378536464E+02  0.18310465071E+02  0.62364497697E+02  0.00000000000E+00 0.  1.
</event>
<event>
 4    1  0.9957587E-003  0.9118800E+02  0.7818608E-02  0.1130116E+00
         25   -1    0    0    0    0  0.00000000000E+00  0.00000000000E+00  0.99999998245E-14  0.12500000000E+03  0.12500000000E+03 0.  0.
        -13    1    1    0    0    0  0.27058571853E+02  0.35309921189E+02  0.83102843300E+01  0.45255152577E+02  0.10566000000E+00 0. -1.
         13    1    1    0    0    0  0.10245180859E+02  0.13540414731E+02  0.30145193533E+01  0.17245435712E+02  0.10566000000E+00 0. -1.
         22    1    1    0    0    0 -0.37303752712E+02 -0.48850335919E+02 -0.11324803683E+02  0.62499411712E+02  0.00000000000E+00 0. -1.
</event>
<event>
 4    1  0.9957587E-003  0.9118800E+02  0.7818608E-02  0.1130116E+00
         25   -1    0    0    0    0  0.00000000000E+00  0.00000000000E+00  0.99999998245E-14  0.12500000000E+03  0.12500000000E+03 0.  0.
        -13    1    1    0    0    0 -0.17751985573E+01  0.69903033359E+01 -0.10898223578E+01  0.72948301867E+01  0.10566000000E+00 0. -1.
         13    1    1    0    0    0 -0.14092963978E+01  0.53527939315E+02  0.14835738455E+02  0.55563807493E+02  0.10566000000E+00 0.  1.
         22    1    1    0    0    0  0.31844949551E+01 -0.60518242651E+02 -0.13745916097E+02  0.62141362320E+02  0.00000000000E+00 0.  1.
</event>
<event>
 4    1  0.9957587E-003  0.9118800E+02  0.7818608E-02  0.1130116E+00
         25   -1    0    0    0    0  0.00000000000E+00  0.00000000000E+00  0.99999998245E-14  0.12500000000E+03  0.12500000000E+03 0.  0.
        -13    1    1    0    0    0 -0.36047076382E+02  0.12064974008E+02 -0.44272819857E+02  0.58352798182E+02  0.10566000000E+00 0.  1.
         13    1    1    0    0    0 -0.22107641572E+01  0.30936313649E+01 -0.23419329858E+01  0.44669729490E+01  0.10566000000E+00 0. -1.
         22    1    1    0    0    0  0.38257840539E+02 -0.15158605373E+02  0.46614752843E+02  0.62180228869E+02  0.00000000000E+00 0.  1.
</event>
<event>
 4    1  0.9957587E-003  0.9118800E+02  0.7818608E-02  0.1130116E+00
         25   -1    0    0    0    0  0.00000000000E+00  0.00000000000E+00  0.99999998245E-14  0.12500000000E+03  0.12500000000E+03 0.  0.
        -13    1    1    0    0    0 -0.25183415303E+02 -0.31545180939E+01 -0.11439602092E+02  0.27839379497E+02  0.10566000000E+00 0. -1.
         13    1    1    0    0    0 -0.32115774070E+02 -0.25199286619E+01 -0.12829739363E+02  0.34675443194E+02  0.10566000000E+00 0.  1.
         22    1    1    0    0    0  0.57299189372E+02  0.56744467558E+01  0.24269341455E+02  0.62485177309E+02  0.00000000000E+00 0. -1.
</event>
<event>
 4    1  0.9957587E-003  0.9118800E+02  0.7818608E-02  0.1130116E+00
         25   -1    0    0    0    0  0.00000000000E+00  0.00000000000E+00  0.99999998245E-14  0.12500000000E+03  0.12500000000E+03 0.  0.
        -13    1    1    0    0    0 -0.76650737399E+01  0.16885233500E+00 -0.37240348506E+02  0.38021527947E+02  0.10566000000E+00 0.  1.
         13    1    1    0    0    0 -0.39662873287E+01 -0.33698978908E+01 -0.24001599411E+02  0.24559633248E+02  0.10566000000E+00 0. -1.
         22    1    1    0    0    0  0.11631361069E+02  0.32010455558E+01  0.61241947917E+02  0.62418838804E+02  0.00000000000E+00 0. -1.
</event>
<event>
 4    1  0.9957587E-003  0.9118800E+02  0.7818608E-02  0.1130116E+00
         25   -1    0    0    0    0  0.00000000000E+00  0.00000000000E+00  0.99999998245E-14  0.12500000000E+03  0.12500000000E+03 0.  0.
        -13    1    1    0    0    0 -0.66707296575E+01  0.10674560552E+02  0.20247436535E+02  0.23841449776E+02  0.10566000000E+00 0. -1.
         13    1    1    0    0    0 -0.29539242241E+02  0.26996034842E+02 -0.27286821380E+02  0.48434848141E+02  0.10566000000E+00 0.  1.
         22    1    1    0    0    0  0.36209971899E+02 -0.37670595395E+02  0.70393848444E+01  0.52723702083E+02  0.00000000000E+00 0.  1.
</event>
<event>
 4    1  0.9957587E-003  0.9118800E+02  0.7818608E-02  0.1130116E+00
         25   -1    0    0    0    0  0.00000000000E+00  0.00000000000E+00  0.99999998245E-14  0.12500000000E+03  0.12500000000E+03 0.  0.
        -13    1    1    0    0    0 -0.26440702853E+02  0.15687056211E+02  0.20742317263E+02  0.37087051506E+02  0.10566000000E+00 0. -1.
         13    1    1    0    0    0 -0.17307647948E+02  0.11603824246E+02  0.14562296325E+02  0.25421940385E+02  0.10566000000E+00 0. -1.
         22    1    1    0    0    0  0.43748350801E+02 -0.27290880458E+02 -0.35304613587E+02  0.62491008109E+02  0.00000000000E+00 0. -1.
</event>
<event>
 4    1  0.9957587E-003  0.9118800E+02  0.7818608E-02  0.1130116E+00
         25   -1    0    0    0    0  0.00000000000E+00  0.00000000000E+00  0.99999998245E-14  0.12500000000E+03  0.12500000000E+03 0.  0.
        -13    1    1    0    0    0  0.53550471147E+01 -0.51480914189E+01  0.18256116521E+02  0.19709802874E+02  0.10566000000E+00 0.  1.
         13    1    1    0    0    0  0.11730853314E+02 -0.11195371153E+02  0.39598740439E+02  0.42790427237E+02  0.10566000000E+00 0.  1.
         22    1    1    0    0    0 -0.17085900429E+02  0.16343462572E+02 -0.57854856960E+02  0.62499769889E+02  0.00000000000E+00 0.  1.
</event>
<event>
 4    1  0.9957587E-003  0.9118800E+02  0.7818608E-02  0.1130116E+00
         25   -1    0    0    0    0  0.00000000000E+00  0.00000000000E+00  0.99999998245E-14  0.12500000000E+03  0.12500000000E+03 0.  0.
        -13    1    1    0    0    0 -0.46053211020E+02 -0.19919581644E+01 -0.63055013064E+01  0.46525655862E+02  0.10566000000E+00 0.  1.
         13    1    1    0    0    0 -0.15804751834E+02  0.37513220472E+01 -0.24165478454E+00  0.16245989004E+02  0.10566000000E+00 0. -1.
         22    1    1    0    0    0  0.61857962855E+02 -0.17593638828E+01  0.65471560909E+01  0.62228355134E+02  0.00000000000E+00 0.  1.
</event>
<event>
 4    1  0.9957587E-003  0.9118800E+02  0.7818608E-02  0.1130116E+00
         25   -1    0    0    0    0  0.00000000000E+00  0.00000000000E+00  0.99999998245E-14  0.12500000000E+03  0.12500000000E+03 0.  0.
        -13    1    1    0    0    0  0.36494116073E+02 -0.10255396913E+02 -0.12113149197E+02  0.39796145810E+02  0.10566000000E+00 0.  1.
         13    1    1    0    0    0  0.20709772190E+02 -0.56848919164E+01 -0.73708900619E+01  0.22705810811E+02  0.10566000000E+00 0. -1.
         22    1    1    0    0    0 -0.57203888263E+02  0.15940288830E+02  0.19484039259E+02  0.62498043379E+02  0.00000000000E+00 0.  1.
</event>
<event>
 4    1  0.9957587E-003  0.9118800E+02  0.7818608E-02  0.1130116E+00
         25   -1    0    0    0    0  0.00000000000E+00  0.00000000000E+00  0.99999998245E-14  0.12500000000E+03  0.12500000000E+03 0.  0.
        -13    1    1    0    0    0 -0.42331411296E+01 -0.44656273371E+01  0.17137607539E+02  0.18209065532E+02  0.10566000000E+00 0. -1.
         13    1    1    0    0    0 -0.97992502909E+01 -0.33431715500E+02  0.29092237682E+02  0.45388042092E+02  0.10566000000E+00 0.  1.
         22    1    1    0    0    0  0.14032391420E+02  0.37897342837E+02 -0.46229845221E+02  0.61402892377E+02  0.00000000000E+00 0.  1.
</event>
<event>
 4    1  0.9957587E-003  0.9118800E+02  0.7818608E-02  0.1130116E+00
         25   -1    0    0    0    0  0.00000000000E+00  0.00000000000E+00  0.99999998245E-14  0.12500000000E+03  0.12500000000E+03 0.  0.
        -13    1    1    0    0    0  0.12644838470E+01  0.10875721898E+01  0.28538613077E+01  0.33071772052E+01  0.10566000000E+00 0.  1.
         13    1    1    0    0    0  0.35009326443E+02 -0.45137201473E+01  0.47722630342E+02  0.59358969149E+02  0.10566000000E+00 0. -1.
         22    1    1    0    0    0 -0.36273810290E+02  0.34261479575E+01 -0.50576491650E+02  0.62333853646E+02  0.00000000000E+00 0. -1.
</event>
<event>
 4    1  0.9957587E-003  0.9118800E+02  0.7818608E-02  0.1130116E+00
         25   -1    0    0    0    0  0.00000000000E+00  0.00000000000E+00  0.99999998245E-14  0.12500000000E+03  0.12500000000E+03 0.  0.
        -13    1    1    0    0    0  0.13016798494E+02  0.37132672266E+02 -0.13290222870E+02  0.41532078934E+02  0.10566000000E+00 0.  1.
         13    1    1    0    0    0  0.65890884313E+01  0.18734318161E+02 -0.67275883967E+01  0.20968127551E+02  0.10566000000E+00 0.  1.
         22    1    1    0    0    0 -0.19605886926E+02 -0.55866990427E+02  0.20017811266E+02  0.62499793515E+02  0.00000000000E+00 0.  1.
</event>
<event>
 4    1  0.9957587E-003  0.9118800E+02  0.7818608E-02  0.1130116E+00
         25   -1    0    0    0    0  0.00000000000E+00  0.00000000000E+00  0.99999998245E-14  0.12500000000E+03  0.12500000000E+03 0.  0.
        -13    1    1    0    0    0  0.55081000807E+01 -0.55540524879E+02 -0.14339794825E+02  0.57625775049E+02  0.10566000000E+00 0. -1.
         13    1    1    0    0    0  0.42934013867E+01 -0.29951364214E+01  0.50989740265E+01  0.73085455331E+01  0.10566000000E+00 0.  1.
         22    1    1    0    0    0 -0.98015014675E+01  0.58535661301E+02  0.92408207983E+01  0.60065679418E+02  0.00000000000E+00 0. -1.
</event>
<event>
 4    1  0.9957587E-003  0.9118800E+02  0.7818608E-02  0.1130116E+00
         25   -1    0    0    0    0  0.00000000000E+00  0.00000000000E+00  0.99999998245E-14  0.12500000000E+03  0.12500000000E+03 0.  0.
        -13    1    1    0    0    0  0.16049194840E+02  0.11742020740E+02  0.33533084069E+02  0.38986287298E+02  0.10566000000E+00 0. -1.
         13    1    1    0    0    0  0.47900875423E+01  0.85651989479E+01  0.21571206061E+02  0.23698853699E+02  0.10566000000E+00 0.  1.
         22    1    1    0    0    0 -0.20839282382E+02 -0.20307219688E+02 -0.55104290131E+02  0.62314859002E+02  0.00000000000E+00 0. -1.
</event>
<event>
 4    1  0.9957587E-003  0.9118800E+02  0.7818608E-02  0.1130116E+00
         25   -1    0    0    0    0  0.00000000000E+00  0.00000000000E+00  0.99999998245E-14  0.12500000000E+03  0.12500000000E+03 0.  0.
        -13    1    1    0    0    0  0.17486633552E+02 -0.26179102213E+02 -0.33401270806E+01  0.31659048605E+02  0.10566000000E+00 0.  1.
         13    1    1    0    0    0 -0.91219307226E+01 -0.31522074780E+02 -0.83837356697E+01  0.33869588223E+02  0.10566000000E+00 0. -1.
         22    1    1    0    0    0 -0.83647028295E+01  0.57701176993E+02  0.11723862750E+02  0.59471363172E+02  0.00000000000E+00 0.  1.
</event>
<event>
 4    1  0.9957587E-003  0.9118800E+02  0.7818608E-02  0.1130116E+00
         25   -1    0    0    0    0  0.00000000000E+00  0.00000000000E+00  0.99999998245E-14  0.12500000000E+03  0.12500000000E+03 0.  0.
        -13    1    1    0    0    0  0.14194508630E+02  0.59169432948E+01  0.38181247621E+01  0.15845615606E+02  0.10566000000E+00 0. -1.
         13    1    1    0    0    0  0.41415647024E+02  0.95570286259E+01 -0.22999596590E+02  0.48327892794E+02  0.10566000000E+00 0.  1.
         22    1    1    0    0    0 -0.55610155654E+02 -0.15473971921E+02  0.19181471828E+02  0.60826491600E+02  0.00000000000E+00 0.  1.
</event>
<event>
 4    1  0.9957587E-003  0.9118800E+02  0.7818608E-02  0.1130116E+00
         25   -1    0    0    0    0  0.00000000000E+00  0.00000000000E+00  0.99999998245E-14  0.12500000000E+03  0.12500000000E+03 0.  0.
        -13    1    1    0    0    0 -0.54308556522E+01  0.49402802689E+01  0.19438040125E+01  0.75953999450E+01  0.10566000000E+00 0. -1.
         13    1    1    0    0    0 -0.39182896538E+02  0.35819287759E+02  0.14008221745E+02  0.54905028888E+02  0.10566000000E+00 0. -1.
         22    1    1    0    0    0  0.44613752190E+02 -0.40759568028E+02 -0.15952025758E+02  0.62499571167E+02  0.00000000000E+00 0. -1.
</event>
<event>
 4    1  0.9957587E-003  0.9118800E+02  0.7818608E-02  0.1130116E+00
         25   -1    0    0    0    0  0.00000000000E+00  0.00000000000E+00  0.99999998245E-14  0.12500000000E+03  0.12500000000E+03 0.  0.
        -13    1    1    0    0    0 -0.11430927796E+02 -0.99592670968E+01  0.31373327765E+02  0.34844654834E+02  0.10566000000E+00 0.  1.
         13    1    1    0    0    0  0.52053317277E+01  0.82184035958E+01  0.28406872489E+02  0.30026641582E+02  0.10566000000E+00 0. -1.
         22    1    1    0    0    0  0.62255960686E+01  0.17408635010E+01 -0.59780200255E+02  0.60128703584E+02  0.00000000000E+00 0.  1.
</event>
<event>
 4    1  0.9957587E-003  0.9118800E+02  0.7818608E-02  0.1130116E+00
         25   -1    0    0    0    0  0.00000000000E+00  0.00000000000E+00  0.99999998245E-14  0.12500000000E+03  0.12500000000E+03 0.  0.
        -13    1    1    0    0    0  0.18598126577E+02 -0.16683512567E+02 -0.78805356014E+01  0.26198166141E+02  0.10566000000E+00 0. -1.
         13    1    1    0    0    0 -0.32600652455E+01 -0.30315135522E+02  0.31649197653E+02  0.43946767153E+02  0.10566000000E+00 0.  1.
         22    1    1    0    0    0 -0.15338061331E+02  0.46998648089E+02 -0.23768662051E+02  0.54855066706E+02  0.00000000000E+00 0.  1.
</event>
<event>
 4    1  0.9957587E-003  0.9118800E+02  0.7818608E-02  0.1130116E+00
         25   -1    0    0    0    0  0.00000000000E+00  0.00000000000E+00  0.99999998245E-14  0.12500000000E+03  0.12500000000E+03 0.  0.
        -13    1    1    0    0    0 -0.19177756576E+02 -0.85259314232E+01  0.25891357078E+01  0.21146929840E+02  0.10566000000E+00 0.  1.
         13    1    1    0    0    0  0.42103359171E+01 -0.98711602659E+01 -0.49840953107E+02  0.50983315939E+02  0.10566000000E+00 0. -1.
         22    1    1    0    0    0  0.14967420659E+02  0.18397091689E+02  0.47251817399E+02  0.52869754220E+02  0.00000000000E+00 0.  1.
</event>
<event>
 4    1  0.9957587E-003  0.9118800E+02  0.7818608E-02  0.1130116E+00
         25   -1    0    0    0    0  0.00000000000E+00  0.00000000000E+00  0.99999998245E-14  0.12500000000E+03  0.12500000000E+03 0.  0.
        -13    1    1    0    0    0  0.97907231928E+00  0.39477392024E+01  0.11729615526E+02  0.12415243527E+02  0.10566000000E+00 0. -1.
         13    1    1    0    0    0 -0.44589962703E+01  0.17733288776E+02  0.46706925817E+02  0.50158750601E+02  0.10566000000E+00 0.  1.
         22    1    1    0    0    0  0.34799239510E+01 -0.21681027978E+02 -0.58436541343E+02  0.62426005871E+02  0.00000000000E+00 0.  1.
</event>
<event>
 4    1  0.9957587E-003  0.9118800E+02  0.7818608E-02  0.1130116E+00
         25   -1    0    0    0    0  0.00000000000E+00  0.00000000000E+00  0.99999998245E-14  0.12500000000E+03  0.12500000000E+03 0.  0.
        -13    1    1    0    0    0  0.17376145930E+02 -0.19648551713E+02 -0.93958855987E+01  0.27861978788E+02  0.10566000000E+00 0. -1.
         13    1    1    0    0    0  0.14031716016E+02 -0.31290236162E+02 -0.71914107171E+01  0.35038485777E+02  0.10566000000E+00 0.  1.
         22    1    1    0    0    0 -0.31407861946E+02  0.50938787874E+02  0.16587296316E+02  0.62099535435E+02  0.00000000000E+00 0.  1.
</event>
<event>
 4    1  0.9957587E-003  0.9118800E+02  0.7818608E-02  0.1130116E+00
         25   -1    0    0    0    0  0.00000000000E+00  0.00000000000E+00  0.99999998245E-14  0.12500000000E+03  0.12500000000E+03 0.  0.
        -13    1    1    0    0    0 -0.80566051072E+01  0.22993871413E+02  0.10420150731E+02  0.26499390818E+02  0.10566000000E+00 0. -1.
         13    1    1    0    0    0 -0.32549086555E+01 -0.59537035914E+02 -0.81375725656E+01  0.60178769737E+02  0.10566000000E+00 0.  1.
         22    1    1    0    0    0  0.11311513763E+02  0.36543164501E+02 -0.22825781653E+01  0.38321839445E+02  0.00000000000E+00 0.  1.
</event>
<event>
 4    1  0.9957587E-003  0.9118800E+02  0.7818608E-02  0.1130116E+00
         25   -1    0    0    0    0  0.00000000000E+00  0.00000000000E+00  0.99999998245E-14  0.12500000000E+03  0.12500000000E+03 0.  0.
        -13    1    1    0    0    0  0.69143267182E+01 -0.42061968049E+01  0.36121170617E+01  0.88633266458E+01  0.10566000000E+00 0.  1.
         13    1    1    0    0    0  0.41128528619E+02 -0.26213023752E+02  0.22323412143E+02  0.53637900540E+02  0.10566000000E+00 0.  1.
         22    1    1    0    0    0 -0.48042855337E+02  0.30419220557E+02 -0.25935529205E+02  0.62498772815E+02  0.00000000000E+00 0.  1.
</event>
<event>
 4    1  0.9957587E-003  0.9118800E+02  0.7818608E-02  0.1130116E+00
         25   -1    0    0    0    0  0.00000000000E+00  0.00000000000E+00  0.99999998245E-14  0.12500000000E+03  0.12500000000E+03 0.  0.
        -13    1    1    0    0    0 -0.41464492433E+02 -0.39799691301E+01 -0.95757786942E+01  0.42741677419E+02  0.10566000000E+00 0. -1.
         13    1    1    0    0    0 -0.19130418077E+02 -0.20016960035E+01 -0.45189580297E+01  0.19758841777E+02  0.10566000000E+00 0.  1.
         22    1    1    0    0    0  0.60594910509E+02  0.59816651336E+01  0.14094736724E+02  0.62499480803E+02  0.00000000000E+00 0. -1.
</event>
<event>
 4    1  0.9957587E-003  0.9118800E+02  0.7818608E-02  0.1130116E+00
         25   -1    0    0    0    0  0.00000000000E+00  0.00000000000E+00  0.99999998245E-14  0.12500000000E+03  0.12500000000E+03 0.  0.
        -13    1    1    0    0    0  0.23757814536E+02  0.10464705794E+02  0.43914798062E+02  0.51014355546E+02  0.10566000000E+00 0. -1.
         13    1    1    0    0    0  0.54557800998E+01  0.23937846473E+01  0.98197279775E+01  0.11486251043E+02  0.10566000000E+00 0. -1.
         22    1    1    0    0    0 -0.29213594636E+02 -0.12858490441E+02 -0.53734526040E+02  0.62499393411E+02  0.00000000000E+00 0. -1.
</event>
<event>
 4    1  0.9957587E-003  0.9118800E+02  0.7818608E-02  0.1130116E+00
         25   -1    0    0    0    0  0.00000000000E+00  0.00000000000E+00  0.99999998245E-14  0.12500000000E+03  0.12500000000E+03 0.  0.
        -13    1    1    0    0    0  0.35436594124E+02  0.31448807660E+02  0.39692564161E+01  0.47545198148E+02  0.10566000000E+00 0.  1.
         13    1    1    0    0    0  0.11032545208E+02  0.10005900903E+02  0.13494063850E+01  0.14955506286E+02  0.10566000000E+00 0.  1.
         22    1    1    0    0    0 -0.46469139332E+02 -0.41454708563E+02 -0.53186628011E+01  0.62499295566E+02  0.00000000000E+00 0.  1.
</event>
<event>
 4    1  0.9957587E-003  0.9118800E+02  0.7818608E-02  0.1130116E+00
         25   -1    0    0    0    0  0.00000000000E+00  0.00000000000E+00  0.99999998245E-14  0.12500000000E+03  0.12500000000E+03 0.  0.
        -13    1    1    0    0    0 -0.20561497791E+01 -0.40260071127E+01  0.75979514407E+01  0.88417484310E+01  0.10566000000E+00 0. -1.
         13    1    1    0    0    0 -0.22666992806E+02 -0.25695493278E+02  0.41403076944E+02  0.53742691430E+02  0.10566000000E+00 0.  1.
         22    1    1    0    0    0  0.24723142585E+02  0.29721500391E+02 -0.49001028384E+02  0.62415560139E+02  0.00000000000E+00 0.  1.
</event>
<event>
 4    1  0.9957587E-003  0.9118800E+02  0.7818608E-02  0.1130116E+00
         25   -1    0    0    0    0  0.00000000000E+00  0.00000000000E+00  0.99999998245E-14  0.12500000000E+03  0.12500000000E+03 0.  0.
        -13    1    1    0    0    0 -0.15536858317E+02 -0.15936175394E+01  0.18396065914E+02  0.24132136009E+02  0.10566000000E+00 0. -1.
         13    1    1    0    0    0 -0.24671417492E+02 -0.24805268661E+01  0.29279093909E+02  0.38368064308E+02  0.10566000000E+00 0. -1.
         22    1    1    0    0    0  0.40208275808E+02  0.40741444055E+01 -0.47675159824E+02  0.62499799682E+02  0.00000000000E+00 0. -1.
</event>
<event>
 4    1  0.9957587E-003  0.9118800E+02  0.7818608E-02  0.1130116E+00
         25   -1    0    0    0    0  0.00000000000E+00  0.00000000000E+00  0.99999998245E-14  0.12500000000E+03  0.12500000000E+03 0.  0.
        -13    1    1    0    0    0  0.44443768169E+02  0.23402793642E+02  0.31979741977E+02  0.59545397306E+02  0.10566000000E+00 0. -1.
         13    1    1    0    0    0  0.38130002583E+01 -0.20826394106E+01 -0.21507398707E+01  0.48490415456E+01  0.10566000000E+00 0.  1.
         22    1    1    0    0    0 -0.48256768428E+02 -0.21320154231E+02 -0.29829002106E+02  0.60605561149E+02  0.00000000000E+00 0. -1.
</event>
<event>
 4    1  0.9957587E-003  0.9118800E+02  0.7818608E-02  0.1130116E+00
         25   -1    0    0    0    0  0.00000000000E+00  0.00000000000E+00  0.99999998245E-14  0.12500000000E+03  0.12500000000E+03 0.  0.
        -13    1    1    0    0    0  0.46444825627E+02 -0.10447071562E+02  0.11985860671E+02  0.49091090350E+02  0.10566000000E+00 0. -1.
         13    1    1    0    0    0  0.12519046920E+02 -0.30168209263E+01  0.37521091758E+01  0.13413322914E+02  0.10566000000E+00 0.  1.
         22    1    1    0    0    0 -0.58963872546E+02  0.13463892488E+02 -0.15737969847E+02  0.62495586736E+02  0.00000000000E+00 0. -1.
</event>
<event>
 4    1  0.9957587E-003  0.9118800E+02  0.7818608E-02  0.1130116E+00
         25   -1    0    0    0    0  0.00000000000E+00  0.00000000000E+00  0.99999998245E-14  0.12500000000E+03  0.12500000000E+03 0.  0.
        -13    1    1    0    0    0  0.96352626345E+01 -0.19900728304E+02 -0.35908073547E+02  0.42169635794E+02  0.10566000000E+00 0. -1.
         13    1    1    0    0    0  0.45401881438E+01 -0.96257511409E+01 -0.17322139555E+02  0.20330668366E+02  0.10566000000E+00 0. -1.
         22    1    1    0    0    0 -0.14175450778E+02  0.29526479445E+02  0.53230213102E+02  0.62499695840E+02  0.00000000000E+00 0. -1.
</event>
<event>
 4    1  0.9957587E-003  0.9118800E+02  0.7818608E-02  0.1130116E+00
         25   -1    0    0    0    0  0.00000000000E+00  0.00000000000E+00  0.99999998245E-14  0.12500000000E+03  0.12500000000E+03 0.  0.
        -13    1    1    0    0    0 -0.96280845217E+01 -0.10637703771E+02 -0.72543602692E+00  0.14366564465E+02  0.10566000000E+00 0.  1.
         13    1    1    0    0    0 -0.31841142658E+02 -0.77891095043E+01 -0.38561024198E+02  0.50611187932E+02  0.10566000000E+00 0. -1.
         22    1    1    0    0    0  0.41469227179E+02  0.18426813275E+02  0.39286460225E+02  0.60022247603E+02  0.00000000000E+00 0. -1.
</event>
<event>
 4    1  0.9957587E-003  0.9118800E+02  0.7818608E-02  0.1130116E+00
         25   -1    0    0    0    0  0.00000000000E+00  0.00000000000E+00  0.99999998245E-14  0.12500000000E+03  0.12500000000E+03 0.  0.
        -13    1    1    0    0    0 -0.15202535657E+02  0.37735731717E+02 -0.30022971837E+02  0.50561769555E+02  0.10566000000E+00 0.  1.
         13    1    1    0    0    0 -0.19947096810E+01  0.12604901147E+02  0.13858295251E+02  0.18839477459E+02  0.10566000000E+00 0. -1.
         22    1    1    0    0    0  0.17197245338E+02 -0.50340632864E+02  0.16164676586E+02  0.55598752985E+02  0.00000000000E+00 0.  1.
</event>
<event>
 4    1  0.9957587E-003  0.9118800E+02  0.7818608E-02  0.1130116E+00
         25   -1    0    0    0    0  0.00000000000E+00  0.00000000000E+00  0.99999998245E-14  0.12500000000E+03  0.12500000000E+03 0.  0.
        -13    1    1    0    0    0  0.43953064956E+01 -0.38201392259E+01  0.16058293351E+01  0.60416913845E+01  0.10566000000E+00 0. -1.
         13    1    1    0    0    0  0.66608745088E+01 -0.48779667303E+02  0.28967435508E+02  0.57122208250E+02  0.10566000000E+00 0.  1.
         22    1    1    0    0    0 -0.11056181004E+02  0.52599806529E+02 -0.30573264843E+02  0.61836100366E+02  0.00000000000E+00 0.  1.
</event>
<event>
 4    1  0.9957587E-003  0.9118800E+02  0.7818608E-02  0.1130116E+00
         25   -1    0    0    0    0  0.00000000000E+00  0.00000000000E+00  0.99999998245E-14  0.12500000000E+03  0.12500000000E+03 0.  0.
        -13    1    1    0    0    0 -0.19243188671E+02 -0.28534751261E+02 -0.36915375774E+02  0.50470669427E+02  0.10566000000E+00 0. -1.
         13    1    1    0    0    0 -0.36774675415E+01 -0.93505261557E+01 -0.69369441195E+01  0.12210178732E+02  0.10566000000E+00 0.  1.
         22    1    1    0    0    0  0.22920656213E+02  0.37885277417E+02  0.43852319894E+02  0.62319151842E+02  0.00000000000E+00 0. -1.
</event>
<event>
 4    1  0.9957587E-003  0.9118800E+02  0.7818608E-02  0.1130116E+00
         25   -1    0    0    0    0  0.00000000000E+00  0.00000000000E+00  0.99999998245E-14  0.12500000000E+03  0.12500000000E+03 0.  0.
        -13    1    1    0    0    0  0.20305949123E+02  0.35280773474E+02 -0.21118553949E+01  0.40761938668E+02  0.10566000000E+00 0. -1.
         13    1    1    0    0    0 -0.22881565235E+01  0.22362500421E+02 -0.60905831752E+01  0.23289986105E+02  0.10566000000E+00 0.  1.
         22    1    1    0    0    0 -0.18017792599E+02 -0.57643273894E+02  0.82024385700E+01  0.60948075227E+02  0.00000000000E+00 0.  1.
</event>
<event>
 4    1  0.9957587E-003  0.9118800E+02  0.7818608E-02  0.1130116E+00
         25   -1    0    0    0    0  0.00000000000E+00  0.00000000000E+00  0.99999998245E-14  0.12500000000E+03  0.12500000000E+03 0.  0.
        -13    1    1    0    0    0  0.65932826465E+01  0.42592160521E+01 -0.16129791002E+01  0.80140603347E+01  0.10566000000E+00 0. -1.
         13    1    1    0    0    0  0.44068529615E+02  0.29985636252E+02 -0.11299912885E+02  0.54487364399E+02  0.10566000000E+00 0.  1.
         22    1    1    0    0    0 -0.50661812262E+02 -0.34244852304E+02  0.12912891985E+02  0.62498575267E+02  0.00000000000E+00 0.  1.
</event>
<event>
 4    1  0.9957587E-003  0.9118800E+02  0.7818608E-02  0.1130116E+00
         25   -1    0    0    0    0  0.00000000000E+00  0.00000000000E+00  0.99999998245E-14  0.12500000000E+03  0.12500000000E+03 0.  0.
        -13    1    1    0    0    0  0.36344495145E+02  0.12396584315E+01  0.28294218119E+02  0.46076382490E+02  0.10566000000E+00 0. -1.
         13    1    1    0    0    0  0.13099634847E+02  0.39504229002E+00  0.98993142636E+01  0.16424496293E+02  0.10566000000E+00 0. -1.
         22    1    1    0    0    0 -0.49444129992E+02 -0.16347007215E+01 -0.38193532383E+02  0.62499121218E+02  0.00000000000E+00 0. -1.
</event>
<event>
 4    1  0.9957587E-003  0.9118800E+02  0.7818608E-02  0.1130116E+00
         25   -1    0    0    0    0  0.00000000000E+00  0.00000000000E+00  0.99999998245E-14  0.12500000000E+03  0.12500000000E+03 0.  0.
        -13    1    1    0    0    0 -0.15053981067E+02  0.13465722259E+02 -0.14423158643E+02  0.24819079177E+02  0.10566000000E+00 0. -1.
         13    1    1    0    0    0 -0.22889213009E+02  0.20470280818E+02 -0.21838206964E+02  0.37681121485E+02  0.10566000000E+00 0. -1.
         22    1    1    0    0    0  0.37943194076E+02 -0.33936003078E+02  0.36261365607E+02  0.62499799338E+02  0.00000000000E+00 0. -1.
</event>
<event>
 4    1  0.9957587E-003  0.9118800E+02  0.7818608E-02  0.1130116E+00
         25   -1    0    0    0    0  0.00000000000E+00  0.00000000000E+00  0.99999998245E-14  0.12500000000E+03  0.12500000000E+03 0.  0.
        -13    1    1    0    0    0 -0.17766173848E+02 -0.21240111573E+02  0.54245260821E+02  0.60904341048E+02  0.10566000000E+00 0.  1.
         13    1    1    0    0    0 -0.30386751037E+00 -0.95368165895E+00  0.12801131467E+01  0.16284034741E+01  0.10566000000E+00 0. -1.
         22    1    1    0    0    0  0.18070041358E+02  0.22193793232E+02 -0.55525373968E+02  0.62467255478E+02  0.00000000000E+00 0.  1.
</event>
<event>
 4    1  0.9957587E-003  0.9118800E+02  0.7818608E-02  0.1130116E+00
         25   -1    0    0    0    0  0.00000000000E+00  0.00000000000E+00  0.99999998245E-14  0.12500000000E+03  0.12500000000E+03 0.  0.
        -13    1    1    0    0    0 -0.59858392337E+01  0.33975016179E+02 -0.33335622685E+02  0.47972980932E+02  0.10566000000E+00 0. -1.
         13    1    1    0    0    0 -0.20042998686E+01  0.10387365911E+02 -0.99569547935E+01  0.14528134819E+02  0.10566000000E+00 0.  1.
         22    1    1    0    0    0  0.79901391023E+01 -0.44362382090E+02  0.43292577479E+02  0.62498884248E+02  0.00000000000E+00 0. -1.
</event>
<event>
 4    1  0.9957587E-003  0.9118800E+02  0.7818608E-02  0.1130116E+00
         25   -1    0    0    0    0  0.00000000000E+00  0.00000000000E+00  0.99999998245E-14  0.12500000000E+03  0.12500000000E+03 0.  0.
        -13    1    1    0    0    0 -0.30479755882E+01 -0.54904544314E+01 -0.12395284530E+02  0.13895664348E+02  0.10566000000E+00 0. -1.
         13    1    1    0    0    0  0.91441500867E+01  0.16760570293E+02  0.59395496223E+02  0.62388847825E+02  0.10566000000E+00 0.  1.
         22    1    1    0    0    0 -0.60961744985E+01 -0.11270115862E+02 -0.47000211693E+02  0.48715487827E+02  0.00000000000E+00 0.  1.
</event>
<event>
 4    1  0.9957587E-003  0.9118800E+02  0.7818608E-02  0.1130116E+00
         25   -1    0    0    0    0  0.00000000000E+00  0.00000000000E+00  0.99999998245E-14  0.12500000000E+03  0.12500000000E+03 0.  0.
        -13    1    1    0    0    0 -0.12574032146E+02 -0.18228846902E+02  0.80892144192E+01  0.23576337666E+02  0.10566000000E+00 0. -1.
         13    1    1    0    0    0 -0.20252750109E+02 -0.30153826640E+02  0.13991188475E+02  0.38925462965E+02  0.10566000000E+00 0.  1.
         22    1    1    0    0    0  0.32826782255E+02  0.48382673543E+02 -0.22080402894E+02  0.62498199369E+02  0.00000000000E+00 0.  1.
</event>
<event>
 4    1  0.9957587E-003  0.9118800E+02  0.7818608E-02  0.1130116E+00
         25   -1    0    0    0    0  0.00000000000E+00  0.00000000000E+00  0.99999998245E-14  0.12500000000E+03  0.12500000000E+03 0.  0.
        -13    1    1    0    0    0  0.25189292320E+02 -0.46485215472E+02 -0.14238239259E+02  0.54755039278E+02  0.10566000000E+00 0. -1.
         13    1    1    0    0    0  0.33701944025E+01 -0.67780003627E+01 -0.16637766979E+01  0.77510525842E+01  0.10566000000E+00 0.  1.
         22    1    1    0    0    0 -0.28559486722E+02  0.53263215835E+02  0.15902015956E+02  0.62493908138E+02  0.00000000000E+00 0. -1.
</event>
<event>
 4    1  0.9957587E-003  0.9118800E+02  0.7818608E-02  0.1130116E+00
         25   -1    0    0    0    0  0.00000000000E+00  0.00000000000E+00  0.99999998245E-14  0.12500000000E+03  0.12500000000E+03 0.  0.
        -13    1    1    0    0    0  0.16392805443E+02 -0.24842067701E+00 -0.19417177503E+01  0.16509609777E+02  0.10566000000E+00 0.  1.
         13    1    1    0    0    0  0.45585373891E+02  0.59836711055E+00 -0.60846251047E+01  0.45993675463E+02  0.10566000000E+00 0. -1.
         22    1    1    0    0    0 -0.61978179334E+02 -0.34994643355E+00  0.80263428550E+01  0.62496714759E+02  0.00000000000E+00 0. -1.
</event>
<event>
 4    1  0.9957587E-003  0.9118800E+02  0.7818608E-02  0.1130116E+00
         25   -1    0    0    0    0  0.00000000000E+00  0.00000000000E+00  0.99999998245E-14  0.12500000000E+03  0.12500000000E+03 0.  0.
        -13    1    1    0    0    0 -0.26552970111E+01  0.15093023624E+02  0.48676251610E+00  0.15332907947E+02  0.10566000000E+00 0. -1.
         13    1    1    0    0    0  0.37564789716E+02  0.25015209683E+02 -0.24466697063E+02  0.51337165593E+02  0.10566000000E+00 0.  1.
         22    1    1    0    0    0 -0.34909492705E+02 -0.40108233307E+02  0.23979934547E+02  0.58329926460E+02  0.00000000000E+00 0.  1.
</event>
<event>
 4    1  0.9957587E-003  0.9118800E+02  0.7818608E-02  0.1130116E+00
         25   -1    0    0    0    0  0.00000000000E+00  0.00000000000E+00  0.99999998245E-14  0.12500000000E+03  0.12500000000E+03 0.  0.
        -13    1    1    0    0    0 -0.17218156003E+02  0.20652573934E+02  0.46088293115E+02  0.53358557257E+02  0.10566000000E+00 0.  1.
         13    1    1    0    0    0 -0.28225220346E+01  0.36279683476E+01  0.79020844437E+01  0.91423677216E+01  0.10566000000E+00 0.  1.
         22    1    1    0    0    0  0.20040678037E+02 -0.24280542281E+02 -0.53990377559E+02  0.62499075022E+02  0.00000000000E+00 0.  1.
</event>
<event>
 4    1  0.9957587E-003  0.9118800E+02  0.7818608E-02  0.1130116E+00
         25   -1    0    0    0    0  0.00000000000E+00  0.00000000000E+00  0.99999998245E-14  0.12500000000E+03  0.12500000000E+03 0.  0.
        -13    1    1    0    0    0  0.77991594780E+01 -0.27256895501E+02 -0.31392894882E+01  0.28524227307E+02  0.10566000000E+00 0.  1.
         13    1    1    0    0    0 -0.35569066861E+02  0.10598854407E+02  0.35023318416E+02  0.51030757677E+02  0.10566000000E+00 0. -1.
         22    1    1    0    0    0  0.27769907383E+02  0.16658041094E+02 -0.31884028928E+02  0.45445015017E+02  0.00000000000E+00 0. -1.
</event>
<event>
 4    1  0.9957587E-003  0.9118800E+02  0.7818608E-02  0.1130116E+00
         25   -1    0    0    0    0  0.00000000000E+00  0.00000000000E+00  0.99999998245E-14  0.12500000000E+03  0.12500000000E+03 0.  0.
        -13    1    1    0    0    0 -0.57966936532E+00 -0.29431600350E+01  0.15543714709E+00  0.30055835219E+01  0.10566000000E+00 0.  1.
         13    1    1    0    0    0  0.71392060992E+01 -0.54113285248E+02 -0.24232210127E+02  0.59719570291E+02  0.10566000000E+00 0. -1.
         22    1    1    0    0    0 -0.65595367338E+01  0.57056445283E+02  0.24076772980E+02  0.62274846187E+02  0.00000000000E+00 0. -1.
</event>
<event>
 4    1  0.9957587E-003  0.9118800E+02  0.7818608E-02  0.1130116E+00
         25   -1    0    0    0    0  0.00000000000E+00  0.00000000000E+00  0.99999998245E-14  0.12500000000E+03  0.12500000000E+03 0.  0.
        -13    1    1    0    0    0  0.22423220078E+02 -0.11904647570E+02  0.37742311791E+02  0.45486423203E+02  0.10566000000E+00 0.  1.
         13    1    1    0    0    0  0.95708793410E+01 -0.43570510507E+01  0.13400486409E+02  0.17034371877E+02  0.10566000000E+00 0. -1.
         22    1    1    0    0    0 -0.31994099419E+02  0.16261698621E+02 -0.51142798200E+02  0.62479204920E+02  0.00000000000E+00 0. -1.
</event>
<event>
 4    1  0.9957587E-003  0.9118800E+02  0.7818608E-02  0.1130116E+00
         25   -1    0    0    0    0  0.00000000000E+00  0.00000000000E+00  0.99999998245E-14  0.12500000000E+03  0.12500000000E+03 0.  0.
        -13    1    1    0    0    0  0.23403890096E+01 -0.30333661651E+01 -0.35236540670E+01  0.52063454579E+01  0.10566000000E+00 0.  1.
         13    1    1    0    0    0  0.23664054437E+02 -0.39248500598E+02 -0.34417933226E+02  0.57315247214E+02  0.10566000000E+00 0. -1.
         22    1    1    0    0    0 -0.26004443447E+02  0.42281866763E+02  0.37941587293E+02  0.62478407328E+02  0.00000000000E+00 0. -1.
</event>
<event>
 4    1  0.9957587E-003  0.9118800E+02  0.7818608E-02  0.1130116E+00
         25   -1    0    0    0    0  0.00000000000E+00  0.00000000000E+00  0.99999998245E-14  0.12500000000E+03  0.12500000000E+03 0.  0.
        -13    1    1    0    0    0 -0.77916746121E+01  0.33977820992E+01  0.41315745631E+01  0.94517823113E+01  0.10566000000E+00 0. -1.
         13    1    1    0    0    0 -0.43784970117E+02  0.18633435731E+02  0.23448461789E+02  0.53048751725E+02  0.10566000000E+00 0. -1.
         22    1    1    0    0    0  0.51576644729E+02 -0.22031217830E+02 -0.27580036352E+02  0.62499465964E+02  0.00000000000E+00 0. -1.
</event>
<event>
 4    1  0.9957587E-003  0.9118800E+02  0.7818608E-02  0.1130116E+00
         25   -1    0    0    0    0  0.00000000000E+00  0.00000000000E+00  0.99999998245E-14  0.12500000000E+03  0.12500000000E+03 0.  0.
        -13    1    1    0    0    0 -0.23678452038E+01  0.11198329460E+01  0.17592564883E+01  0.31570340770E+01  0.10566000000E+00 0. -1.
         13    1    1    0    0    0  0.41625920460E+02 -0.26156525787E+02  0.36782274668E+02  0.61398924984E+02  0.10566000000E+00 0.  1.
         22    1    1    0    0    0 -0.39258075256E+02  0.25036692841E+02 -0.38541531156E+02  0.60444040939E+02  0.00000000000E+00 0.  1.
</event>
<event>
 4    1  0.9957587E-003  0.9118800E+02  0.7818608E-02  0.1130116E+00
         25   -1    0    0    0    0  0.00000000000E+00  0.00000000000E+00  0.99999998245E-14  0.12500000000E+03  0.12500000000E+03 0.  0.
        -13    1    1    0    0    0 -0.28530320372E+01 -0.12059094680E+01 -0.33098592795E+01  0.45343513247E+01  0.10566000000E+00 0.  1.
         13    1    1    0    0    0 -0.55208177978E+02  0.24967262964E+01 -0.18724425290E+02  0.58350594035E+02  0.10566000000E+00 0. -1.
         22    1    1    0    0    0  0.58061210015E+02 -0.12908168284E+01  0.22034284569E+02  0.62115054640E+02  0.00000000000E+00 0. -1.
</event>
<event>
 4    1  0.9957587E-003  0.9118800E+02  0.7818608E-02  0.1130116E+00
         25   -1    0    0    0    0  0.00000000000E+00  0.00000000000E+00  0.99999998245E-14  0.12500000000E+03  0.12500000000E+03 0.  0.
        -13    1    1    0    0    0  0.36395702895E+02 -0.87777093266E+01 -0.89342955619E+01  0.38490624462E+02  0.10566000000E+00 0.  1.
         13    1    1    0    0    0  0.22973939500E+02 -0.48952333664E+01 -0.49913197129E+01  0.24014363252E+02  0.10566000000E+00 0. -1.
         22    1    1    0    0    0 -0.59369642395E+02  0.13672942693E+02  0.13925615275E+02  0.62495012287E+02  0.00000000000E+00 0.  1.
</event>
<event>
 4    1  0.9957587E-003  0.9118800E+02  0.7818608E-02  0.1130116E+00
         25   -1    0    0    0    0  0.00000000000E+00  0.00000000000E+00  0.99999998245E-14  0.12500000000E+03  0.12500000000E+03 0.  0.
        -13    1    1    0    0    0 -0.26121132667E+01  0.16883690855E+01 -0.25823967289E+01  0.40439662199E+01  0.10566000000E+00 0.  1.
         13    1    1    0    0    0 -0.12697075949E+02  0.39207454648E+02 -0.41795352631E+02  0.58696702660E+02  0.10566000000E+00 0. -1.
         22    1    1    0    0    0  0.15309189215E+02 -0.40895823733E+02  0.44377749360E+02  0.62259331120E+02  0.00000000000E+00 0. -1.
</event>
<event>
 4    1  0.9957587E-003  0.9118800E+02  0.7818608E-02  0.1130116E+00
         25   -1    0    0    0    0  0.00000000000E+00  0.00000000000E+00  0.99999998245E-14  0.12500000000E+03  0.12500000000E+03 0.  0.
        -13    1    1    0    0    0 -0.30525356090E+02 -0.24357264507E+02  0.11546602058E+02  0.40723566664E+02  0.10566000000E+00 0. -1.
         13    1    1    0    0    0 -0.11746239391E+02 -0.19364614534E+02 -0.39029836368E+01  0.22982751819E+02  0.10566000000E+00 0.  1.
         22    1    1    0    0    0  0.42271595480E+02  0.43721879041E+02 -0.76436184213E+01  0.61293681517E+02  0.00000000000E+00 0.  1.
</event>
<event>
 4    1  0.9957587E-003  0.9118800E+02  0.7818608E-02  0.1130116E+00
         25   -1    0    0    0    0  0.00000000000E+00  0.00000000000E+00  0.99999998245E-14  0.12500000000E+03  0.12500000000E+03 0.  0.
        -13    1    1    0    0    0  0.16050975911E+02  0.45660133062E+02  0.52202925775E+01  0.48680018463E+02  0.10566000000E+00 0. -1.
         13    1    1    0    0    0  0.68539661569E+01  0.11720073326E+02  0.32449353242E+01  0.13959861752E+02  0.10566000000E+00 0.  1.
         22    1    1    0    0    0 -0.22904942068E+02 -0.57380206388E+02 -0.84652279016E+01  0.62360119785E+02  0.00000000000E+00 0. -1.
</event>
<event>
 4    1  0.9957587E-003  0.9118800E+02  0.7818608E-02  0.1130116E+00
         25   -1    0    0    0    0  0.00000000000E+00  0.00000000000E+00  0.99999998245E-14  0.12500000000E+03  0.12500000000E+03 0.  0.
        -13    1    1    0    0    0  0.36723412111E+02 -0.16210896453E+02 -0.20318862298E+02  0.44991882490E+02  0.10566000000E+00 0. -1.
         13    1    1    0    0    0  0.14368913274E+02 -0.59976677919E+01 -0.80083538737E+01  0.17509499805E+02  0.10566000000E+00 0.  1.
         22    1    1    0    0    0 -0.51092325384E+02  0.22208564245E+02  0.28327216172E+02  0.62498617705E+02  0.00000000000E+00 0. -1.
</event>
<event>
 4    1  0.9957587E-003  0.9118800E+02  0.7818608E-02  0.1130116E+00
         25   -1    0    0    0    0  0.00000000000E+00  0.00000000000E+00  0.99999998245E-14  0.12500000000E+03  0.12500000000E+03 0.  0.
        -13    1    1    0    0    0  0.28696775941E+01  0.16441047463E+01 -0.14608710684E+02  0.14978775711E+02  0.10566000000E+00 0. -1.
         13    1    1    0    0    0  0.52386535964E+02 -0.86827104574E+01  0.10799971878E+02  0.54188459729E+02  0.10566000000E+00 0.  1.
         22    1    1    0    0    0 -0.55256213558E+02  0.70386057111E+01  0.38087388062E+01  0.55832764560E+02  0.00000000000E+00 0.  1.
</event>
<event>
 4    1  0.9957587E-003  0.9118800E+02  0.7818608E-02  0.1130116E+00
         25   -1    0    0    0    0  0.00000000000E+00  0.00000000000E+00  0.99999998245E-14  0.12500000000E+03  0.12500000000E+03 0.  0.
        -13    1    1    0    0    0 -0.84547145952E-01  0.25058699913E+01 -0.52390257203E+01  0.58090521746E+01  0.10566000000E+00 0. -1.
         13    1    1    0    0    0 -0.21926551251E+02  0.27570412833E+02 -0.44678049286E+02  0.56894995963E+02  0.10566000000E+00 0.  1.
         22    1    1    0    0    0  0.22011098397E+02 -0.30076282825E+02  0.49917075007E+02  0.62295951862E+02  0.00000000000E+00 0.  1.
</event>
<event>
 4    1  0.9957587E-003  0.9118800E+02  0.7818608E-02  0.1130116E+00
         25   -1    0    0    0    0  0.00000000000E+00  0.00000000000E+00  0.99999998245E-14  0.12500000000E+03  0.12500000000E+03 0.  0.
        -13    1    1    0    0    0  0.11534285028E+02  0.63392283530E+00 -0.76071164195E+01  0.13831882501E+02  0.10566000000E+00 0.  1.
         13    1    1    0    0    0  0.40023502590E+02  0.33132353507E+01 -0.27494812119E+02  0.48670670280E+02  0.10566000000E+00 0. -1.
         22    1    1    0    0    0 -0.51557787618E+02 -0.39471581860E+01  0.35101928538E+02  0.62497447219E+02  0.00000000000E+00 0. -1.
</event>
<event>
 4    1  0.9957587E-003  0.9118800E+02  0.7818608E-02  0.1130116E+00
         25   -1    0    0    0    0  0.00000000000E+00  0.00000000000E+00  0.99999998245E-14  0.12500000000E+03  0.12500000000E+03 0.  0.
        -13    1    1    0    0    0 -0.32347579707E+02 -0.49779913099E+01  0.36531787751E+01  0.32931796027E+02  0.10566000000E+00 0. -1.
         13    1    1    0    0    0 -0.24124734868E+02 -0.90285752790E+01  0.16387676150E+02  0.30530068746E+02  0.10566000000E+00 0.  1.
         22    1    1    0    0    0  0.56472314575E+02  0.14006566589E+02 -0.20040854925E+02  0.61538135227E+02  0.00000000000E+00 0. -1.
</event>
<event>
 4    1  0.9957587E-003  0.9118800E+02  0.7818608E-02  0.1130116E+00
         25   -1    0    0    0    0  0.00000000000E+00  0.00000000000E+00  0.99999998245E-14  0.12500000000E+03  0.12500000000E+03 0.  0.
        -13    1    1    0    0    0 -0.10300903534E+02  0.15087184327E+02 -0.23292301620E+02  0.29601929385E+02  0.10566000000E+00 0. -1.
         13    1    1    0    0    0 -0.38395224621E+02 -0.78963531339E+01 -0.34998502133E+01  0.39354869864E+02  0.10566000000E+00 0.  1.
         22    1    1    0    0    0  0.48696128155E+02 -0.71908311935E+01  0.26792151833E+02  0.56043200750E+02  0.00000000000E+00 0.  1.
</event>
<event>
 4    1  0.9957587E-003  0.9118800E+02  0.7818608E-02  0.1130116E+00
         25   -1    0    0    0    0  0.00000000000E+00  0.00000000000E+00  0.99999998245E-14  0.12500000000E+03  0.12500000000E+03 0.  0.
        -13    1    1    0    0    0 -0.13246512161E+02  0.19387640067E+02 -0.26070099342E+02  0.35085779392E+02  0.10566000000E+00 0. -1.
         13    1    1    0    0    0 -0.10264746836E+02  0.15748513641E+02 -0.19957663916E+02  0.27417151977E+02  0.10566000000E+00 0.  1.
         22    1    1    0    0    0  0.23511258997E+02 -0.35136153708E+02  0.46027763258E+02  0.62497068631E+02  0.00000000000E+00 0. -1.
</event>
<event>
 4    1  0.9957587E-003  0.9118800E+02  0.7818608E-02  0.1130116E+00
         25   -1    0    0    0    0  0.00000000000E+00  0.00000000000E+00  0.99999998245E-14  0.12500000000E+03  0.12500000000E+03 0.  0.
        -13    1    1    0    0    0  0.82966270487E+01 -0.23935013795E+02  0.35435637416E+02  0.43559321263E+02  0.10566000000E+00 0.  1.
         13    1    1    0    0    0  0.33316243822E+01 -0.11367868866E+02  0.14795168550E+02  0.18953531070E+02  0.10566000000E+00 0. -1.
         22    1    1    0    0    0 -0.11628251431E+02  0.35302882661E+02 -0.50230805966E+02  0.62487147667E+02  0.00000000000E+00 0. -1.
</event>
<event>
 4    1  0.9957587E-003  0.9118800E+02  0.7818608E-02  0.1130116E+00
         25   -1    0    0    0    0  0.00000000000E+00  0.00000000000E+00  0.99999998245E-14  0.12500000000E+03  0.12500000000E+03 0.  0.
        -13    1    1    0    0    0 -0.35887106154E+02  0.33791366687E+02  0.93944192580E+01  0.50179748185E+02  0.10566000000E+00 0.  1.
         13    1    1    0    0    0 -0.27267980185E+01  0.13142808304E+02 -0.91111968956E+00  0.13454000917E+02  0.10566000000E+00 0. -1.
         22    1    1    0    0    0  0.38613904173E+02 -0.46934174992E+02 -0.84832995684E+01  0.61366250897E+02  0.00000000000E+00 0.  1.
</event>
<event>
 4    1  0.9957587E-003  0.9118800E+02  0.7818608E-02  0.1130116E+00
         25   -1    0    0    0    0  0.00000000000E+00  0.00000000000E+00  0.99999998245E-14  0.12500000000E+03  0.12500000000E+03 0.  0.
        -13    1    1    0    0    0  0.28958218040E+02  0.67575109921E+01 -0.88632147968E+01  0.31029181224E+02  0.10566000000E+00 0. -1.
         13    1    1    0    0    0  0.16517688505E+02 -0.18749019201E+02  0.32772590512E+02  0.41211813930E+02  0.10566000000E+00 0.  1.
         22    1    1    0    0    0 -0.45475906545E+02  0.11991508209E+02 -0.23909375715E+02  0.52759004845E+02  0.00000000000E+00 0.  1.
</event>
<event>
 4    1  0.9957587E-003  0.9118800E+02  0.7818608E-02  0.1130116E+00
         25   -1    0    0    0    0  0.00000000000E+00  0.00000000000E+00  0.99999998245E-14  0.12500000000E+03  0.12500000000E+03 0.  0.
        -13    1    1    0    0    0 -0.17306136771E+02 -0.33488915395E+02  0.78001938669E+01  0.38494986851E+02  0.10566000000E+00 0. -1.
         13    1    1    0    0    0 -0.10867576639E+02 -0.20874142803E+02  0.47340777160E+01  0.24005347646E+02  0.10566000000E+00 0.  1.
         22    1    1    0    0    0  0.28173713410E+02  0.54363058197E+02 -0.12534271583E+02  0.62499665503E+02  0.00000000000E+00 0. -1.
</event>
<event>
 4    1  0.9957587E-003  0.9118800E+02  0.7818608E-02  0.1130116E+00
         25   -1    0    0    0    0  0.00000000000E+00  0.00000000000E+00  0.99999998245E-14  0.12500000000E+03  0.12500000000E+03 0.  0.
        -13    1    1    0    0    0  0.74132744428E+00  0.14285304132E+02  0.43306107177E+02  0.45607560375E+02  0.10566000000E+00 0.  1.
         13    1    1    0    0    0 -0.16622144512E+01  0.16780637091E+02  0.85721979981E+01  0.18916830618E+02  0.10566000000E+00 0. -1.
         22    1    1    0    0    0  0.92088700695E+00 -0.31065941223E+02 -0.51878305175E+02  0.60475609007E+02  0.00000000000E+00 0.  1.
</event>
<event>
 4    1  0.9957587E-003  0.9118800E+02  0.7818608E-02  0.1130116E+00
         25   -1    0    0    0    0  0.00000000000E+00  0.00000000000E+00  0.99999998245E-14  0.12500000000E+03  0.12500000000E+03 0.  0.
        -13    1    1    0    0    0  0.12519957982E+02 -0.40505859955E+02  0.65163347957E+01  0.42894612969E+02  0.10566000000E+00 0. -1.
         13    1    1    0    0    0  0.10455675611E+02 -0.16958870234E+02 -0.26270881217E+01  0.20095700737E+02  0.10566000000E+00 0.  1.
         22    1    1    0    0    0 -0.22975633593E+02  0.57464730188E+02 -0.38892466740E+01  0.62009686294E+02  0.00000000000E+00 0. -1.
</event>
<event>
 4    1  0.9957587E-003  0.9118800E+02  0.7818608E-02  0.1130116E+00
         25   -1    0    0    0    0  0.00000000000E+00  0.00000000000E+00  0.99999998245E-14  0.12500000000E+03  0.12500000000E+03 0.  0.
        -13    1    1    0    0    0  0.35600074844E+02 -0.73600975748E+01 -0.31080142694E+02  0.47828054519E+02  0.10566000000E+00 0.  1.
         13    1    1    0    0    0  0.90981428713E+01  0.17019006810E+02 -0.37861446880E+01  0.19666439742E+02  0.10566000000E+00 0. -1.
         22    1    1    0    0    0 -0.44698217715E+02 -0.96589092347E+01  0.34866287382E+02  0.57505505739E+02  0.00000000000E+00 0.  1.
</event>
<event>
 4    1  0.9957587E-003  0.9118800E+02  0.7818608E-02  0.1130116E+00
         25   -1    0    0    0    0  0.00000000000E+00  0.00000000000E+00  0.99999998245E-14  0.12500000000E+03  0.12500000000E+03 0.  0.
        -13    1    1    0    0    0 -0.77204371225E+01  0.13738936744E+01  0.40453670622E+02  0.41206836375E+02  0.10566000000E+00 0.  1.
         13    1    1    0    0    0  0.50108336619E+01 -0.22616142054E+02 -0.53789701743E+02  0.58565702532E+02  0.10566000000E+00 0. -1.
         22    1    1    0    0    0  0.27096034606E+01  0.21242248380E+02  0.13336031121E+02  0.25227461093E+02  0.00000000000E+00 0. -1.
</event>
<event>
 4    1  0.9957587E-003  0.9118800E+02  0.7818608E-02  0.1130116E+00
         25   -1    0    0    0    0  0.00000000000E+00  0.00000000000E+00  0.99999998245E-14  0.12500000000E+03  0.12500000000E+03 0.  0.
        -13    1    1    0    0    0  0.33368265268E+01 -0.10540264591E+02  0.37930392085E+01  0.11688879305E+02  0.10566000000E+00 0. -1.
         13    1    1    0    0    0 -0.67182155186E+01 -0.33833435053E+02  0.38657004563E+02  0.51809370900E+02  0.10566000000E+00 0.  1.
         22    1    1    0    0    0  0.33813889918E+01  0.44373699645E+02 -0.42450043771E+02  0.61501749795E+02  0.00000000000E+00 0.  1.
</event>
<event>
 4    1  0.9957587E-003  0.9118800E+02  0.7818608E-02  0.1130116E+00
         25   -1    0    0    0    0  0.00000000000E+00  0.00000000000E+00  0.99999998245E-14  0.12500000000E+03  0.12500000000E+03 0.  0.
        -13    1    1    0    0    0 -0.17941377673E+02  0.81753358796E+01  0.33226118116E+00  0.19719297936E+02  0.10566000000E+00 0. -1.
         13    1    1    0    0    0 -0.41448131833E+02  0.93477819052E+01  0.65023285118E+01  0.42983951646E+02  0.10566000000E+00 0.  1.
         22    1    1    0    0    0  0.59389509507E+02 -0.17523117785E+02 -0.68345896929E+01  0.62296750418E+02  0.00000000000E+00 0.  1.
</event>
<event>
 4    1  0.9957587E-003  0.9118800E+02  0.7818608E-02  0.1130116E+00
         25   -1    0    0    0    0  0.00000000000E+00  0.00000000000E+00  0.99999998245E-14  0.12500000000E+03  0.12500000000E+03 0.  0.
        -13    1    1    0    0    0  0.10887333105E+01 -0.18369490720E+02  0.19462393559E+01  0.18504662688E+02  0.10566000000E+00 0.  1.
         13    1    1    0    0    0 -0.12374131988E+02 -0.40946582348E+02 -0.13832223853E+02  0.44956460372E+02  0.10566000000E+00 0. -1.
         22    1    1    0    0    0  0.11285398677E+02  0.59316073068E+02  0.11885984497E+02  0.61538876940E+02  0.00000000000E+00 0. -1.
</event>
<event>
 4    1  0.9957587E-003  0.9118800E+02  0.7818608E-02  0.1130116E+00
         25   -1    0    0    0    0  0.00000000000E+00  0.00000000000E+00  0.99999998245E-14  0.12500000000E+03  0.12500000000E+03 0.  0.
        -13    1    1    0    0    0 -0.45842430106E+02 -0.34655248293E+02 -0.20199164249E+02  0.60914136558E+02  0.10566000000E+00 0.  1.
         13    1    1    0    0    0 -0.34549994277E+00  0.50901855675E+00 -0.23104597930E+01  0.23932945060E+01  0.10566000000E+00 0. -1.
         22    1    1    0    0    0  0.46187930049E+02  0.34146229736E+02  0.22509624043E+02  0.61692568936E+02  0.00000000000E+00 0.  1.
</event>
<event>
 4    1  0.9957587E-003  0.9118800E+02  0.7818608E-02  0.1130116E+00
         25   -1    0    0    0    0  0.00000000000E+00  0.00000000000E+00  0.99999998245E-14  0.12500000000E+03  0.12500000000E+03 0.  0.
        -13    1    1    0    0    0  0.67761228150E+00 -0.87348389639E+01  0.24576673508E+02  0.26091772935E+02  0.10566000000E+00 0.  1.
         13    1    1    0    0    0  0.30047583853E+02  0.69265606897E+01  0.25577483129E+02  0.40063117024E+02  0.10566000000E+00 0. -1.
         22    1    1    0    0    0 -0.30725196135E+02  0.18082782741E+01 -0.50154156637E+02  0.58845110041E+02  0.00000000000E+00 0.  1.
</event>
<event>
 4    1  0.9957587E-003  0.9118800E+02  0.7818608E-02  0.1130116E+00
         25   -1    0    0    0    0  0.00000000000E+00  0.00000000000E+00  0.99999998245E-14  0.12500000000E+03  0.12500000000E+03 0.  0.
        -13    1    1    0    0    0 -0.34150798708E+01  0.29061152993E+02 -0.63071893558E+01  0.29933345711E+02  0.10566000000E+00 0.  1.
         13    1    1    0    0    0 -0.22993105453E+01  0.31822007525E+02 -0.65704757571E+01  0.32574672793E+02  0.10566000000E+00 0.  1.
         22    1    1    0    0    0  0.57143904161E+01 -0.60883160518E+02  0.12877665113E+02  0.62491981496E+02  0.00000000000E+00 0.  1.
</event>
<event>
 4    1  0.9957587E-003  0.9118800E+02  0.7818608E-02  0.1130116E+00
         25   -1    0    0    0    0  0.00000000000E+00  0.00000000000E+00  0.99999998245E-14  0.12500000000E+03  0.12500000000E+03 0.  0.
        -13    1    1    0    0    0 -0.46431716560E+01  0.24910432920E+01 -0.32801276138E+02  0.33221968936E+02  0.10566000000E+00 0.  1.
         13    1    1    0    0    0 -0.43128078637E+01  0.23029225124E+01 -0.28867198409E+02  0.29278491624E+02  0.10566000000E+00 0. -1.
         22    1    1    0    0    0  0.89559795197E+01 -0.47939658044E+01  0.61668474546E+02  0.62499539440E+02  0.00000000000E+00 0.  1.
</event>
<event>
 4    1  0.9957587E-003  0.9118800E+02  0.7818608E-02  0.1130116E+00
         25   -1    0    0    0    0  0.00000000000E+00  0.00000000000E+00  0.99999998245E-14  0.12500000000E+03  0.12500000000E+03 0.  0.
        -13    1    1    0    0    0  0.22533879377E+02  0.37372963418E+02 -0.16567974193E+02  0.46680006933E+02  0.10566000000E+00 0.  1.
         13    1    1    0    0    0  0.78071223733E+01  0.12591341505E+02 -0.55488723402E+01  0.15820688637E+02  0.10566000000E+00 0. -1.
         22    1    1    0    0    0 -0.30341001750E+02 -0.49964304923E+02  0.22116846533E+02  0.62499304430E+02  0.00000000000E+00 0.  1.
</event>
<event>
 4    1  0.9957587E-003  0.9118800E+02  0.7818608E-02  0.1130116E+00
         25   -1    0    0    0    0  0.00000000000E+00  0.00000000000E+00  0.99999998245E-14  0.12500000000E+03  0.12500000000E+03 0.  0.
        -13    1    1    0    0    0 -0.34518267245E+01 -0.13387299439E+02 -0.33177571025E+01  0.14218071959E+02  0.10566000000E+00 0.  1.
         13    1    1    0    0    0 -0.10878615662E+02 -0.44839370786E+02 -0.14261475910E+02  0.48294040112E+02  0.10566000000E+00 0. -1.
         22    1    1    0    0    0  0.14330442386E+02  0.58226670225E+02  0.17579233012E+02  0.62487887929E+02  0.00000000000E+00 0. -1.
</event>
<event>
 4    1  0.9957587E-003  0.9118800E+02  0.7818608E-02  0.1130116E+00
         25   -1    0    0    0    0  0.00000000000E+00  0.00000000000E+00  0.99999998245E-14  0.12500000000E+03  0.12500000000E+03 0.  0.
        -13    1    1    0    0    0 -0.74214088057E+01 -0.17182176830E+01 -0.17467668064E+02  0.19056761853E+02  0.10566000000E+00 0.  1.
         13    1    1    0    0    0 -0.16285439777E+02 -0.31803982497E+01 -0.40151613946E+02  0.43445296043E+02  0.10566000000E+00 0. -1.
         22    1    1    0    0    0  0.23706848583E+02  0.48986159327E+01  0.57619282011E+02  0.62497942104E+02  0.00000000000E+00 0. -1.
</event>
<event>
 4    1  0.9957587E-003  0.9118800E+02  0.7818608E-02  0.1130116E+00
         25   -1    0    0    0    0  0.00000000000E+00  0.00000000000E+00  0.99999998245E-14  0.12500000000E+03  0.12500000000E+03 0.  0.
        -13    1    1    0    0    0 -0.29258328642E+02  0.16567153661E+02 -0.15559205476E+02  0.37048892216E+02  0.10566000000E+00 0. -1.
         13    1    1    0    0    0 -0.26796889639E+02 -0.68634207906E+01 -0.36605106726E+01  0.27903231743E+02  0.10566000000E+00 0.  1.
         22    1    1    0    0    0  0.56055218282E+02 -0.97037328702E+01  0.19219716148E+02  0.60047876041E+02  0.00000000000E+00 0. -1.
</event>
<event>
 4    1  0.9957587E-003  0.9118800E+02  0.7818608E-02  0.1130116E+00
         25   -1    0    0    0    0  0.00000000000E+00  0.00000000000E+00  0.99999998245E-14  0.12500000000E+03  0.12500000000E+03 0.  0.
        -13    1    1    0    0    0  0.19237402070E+01 -0.65009757219E+01  0.35398108831E+01  0.76488487267E+01  0.10566000000E+00 0. -1.
         13    1    1    0    0    0  0.12163307867E+02 -0.49394827694E+02  0.20565598212E+02  0.54870302123E+02  0.10566000000E+00 0.  1.
         22    1    1    0    0    0 -0.14087048074E+02  0.55895803416E+02 -0.24105409095E+02  0.62480849151E+02  0.00000000000E+00 0.  1.
</event>
<event>
 4    1  0.9957587E-003  0.9118800E+02  0.7818608E-02  0.1130116E+00
         25   -1    0    0    0    0  0.00000000000E+00  0.00000000000E+00  0.99999998245E-14  0.12500000000E+03  0.12500000000E+03 0.  0.
        -13    1    1    0    0    0  0.73100558244E+01  0.51330804664E+01  0.20162613645E+01  0.91576145996E+01  0.10566000000E+00 0.  1.
         13    1    1    0    0    0  0.38978590736E+02  0.22260923833E+02  0.29298835668E+02  0.53603285358E+02  0.10566000000E+00 0. -1.
         22    1    1    0    0    0 -0.46288646560E+02 -0.27394004299E+02 -0.31315097032E+02  0.62239100042E+02  0.00000000000E+00 0. -1.
</event>
<event>
 4    1  0.9957587E-003  0.9118800E+02  0.7818608E-02  0.1130116E+00
         25   -1    0    0    0    0  0.00000000000E+00  0.00000000000E+00  0.99999998245E-14  0.12500000000E+03  0.12500000000E+03 0.  0.
        -13    1    1    0    0    0  0.18126592811E+02  0.10817873289E+02 -0.81444191621E+01  0.22626145871E+02  0.10566000000E+00 0.  1.
         13    1    1    0    0    0  0.29658625996E+02  0.23340383500E+02 -0.13041863084E+02  0.39931302942E+02  0.10566000000E+00 0. -1.
         22    1    1    0    0    0 -0.47785218807E+02 -0.34158256789E+02  0.21186282246E+02  0.62442551187E+02  0.00000000000E+00 0. -1.
</event>
<event>
 4    1  0.9957587E-003  0.9118800E+02  0.7818608E-02  0.1130116E+00
         25   -1    0    0    0    0  0.00000000000E+00  0.00000000000E+00  0.99999998245E-14  0.12500000000E+03  0.12500000000E+03 0.  0.
        -13    1    1    0    0    0 -0.25703213374E+02 -0.33427113387E+00  0.15937645178E+02  0.30245439537E+02  0.10566000000E+00 0.  1.
         13    1    1    0    0    0 -0.18723898762E+02 -0.60092465271E+01  0.26493179855E+02  0.32993865665E+02  0.10566000000E+00 0. -1.
         22    1    1    0    0    0  0.44427112135E+02  0.63435176610E+01 -0.42430825033E+02  0.61760694798E+02  0.00000000000E+00 0.  1.
</event>
<event>
 4    1  0.9957587E-003  0.9118800E+02  0.7818608E-02  0.1130116E+00
         25   -1    0    0    0    0  0.00000000000E+00  0.00000000000E+00  0.99999998245E-14  0.12500000000E+03  0.12500000000E+03 0.  0.
        -13    1    1    0    0    0 -0.21063129321E+01 -0.37937960224E+01  0.90434216966E+01  0.10031155589E+02  0.10566000000E+00 0.  1.
         13    1    1    0    0    0 -0.13087148544E+02 -0.20259643015E+02  0.46601221352E+02  0.52472960538E+02  0.10566000000E+00 0. -1.
         22    1    1    0    0    0  0.15193461476E+02  0.24053439037E+02 -0.55644643048E+02  0.62495883873E+02  0.00000000000E+00 0. -1.
</event>
<event>
 4    1  0.9957587E-003  0.9118800E+02  0.7818608E-02  0.1130116E+00
         25   -1    0    0    0    0  0.00000000000E+00  0.00000000000E+00  0.99999998245E-14  0.12500000000E+03  0.12500000000E+03 0.  0.
        -13    1    1    0    0    0  0.42454226241E+01  0.49888929731E+01  0.88529552001E+01  0.11013566460E+02  0.10566000000E+00 0.  1.
         13    1    1    0    0    0  0.45107258412E+02 -0.23031693042E+02 -0.28226214293E+02  0.57981496904E+02  0.10566000000E+00 0. -1.
         22    1    1    0    0    0 -0.49352681036E+02  0.18042800069E+02  0.19373259093E+02  0.56004936636E+02  0.00000000000E+00 0. -1.
</event>
<event>
 4    1  0.9957587E-003  0.9118800E+02  0.7818608E-02  0.1130116E+00
         25   -1    0    0    0    0  0.00000000000E+00  0.00000000000E+00  0.99999998245E-14  0.12500000000E+03  0.12500000000E+03 0.  0.
        -13    1    1    0    0    0  0.25108411754E+02  0.41471754782E+02  0.26683788291E+02  0.55338725203E+02  0.10566000000E+00 0.  1.
         13    1    1    0    0    0  0.18041925663E+01  0.57896325107E+01  0.39523912187E+01  0.72393035443E+01  0.10566000000E+00 0. -1.
         22    1    1    0    0    0 -0.26912604320E+02 -0.47261387293E+02 -0.30636179510E+02  0.62421971253E+02  0.00000000000E+00 0.  1.
</event>
<event>
 4    1  0.9957587E-003  0.9118800E+02  0.7818608E-02  0.1130116E+00
         25   -1    0    0    0    0  0.00000000000E+00  0.00000000000E+00  0.99999998245E-14  0.12500000000E+03  0.12500000000E+03 0.  0.
        -13    1    1    0    0    0  0.21757704885E+02  0.23010432664E+02 -0.46092650890E+02  0.55923352576E+02  0.10566000000E+00 0. -1.
         13    1    1    0    0    0  0.24338886127E+01  0.28245401220E+01 -0.54183744929E+01  0.65781294348E+01  0.10566000000E+00 0.  1.
         22    1    1    0    0    0 -0.24191593498E+02 -0.25834972786E+02  0.51511025383E+02  0.62498517989E+02  0.00000000000E+00 0. -1.
</event>
<event>
 4    1  0.9957587E-003  0.9118800E+02  0.7818608E-02  0.1130116E+00
         25   -1    0    0    0    0  0.00000000000E+00  0.00000000000E+00  0.99999998245E-14  0.12500000000E+03  0.12500000000E+03 0.  0.
        -13    1    1    0    0    0  0.30241832142E+02  0.41723765646E+01  0.24681029557E+01  0.30628088966E+02  0.10566000000E+00 0. -1.
         13    1    1    0    0    0  0.31045793996E+02 -0.21471638413E+01 -0.97697620699E+01  0.32617649400E+02  0.10566000000E+00 0.  1.
         22    1    1    0    0    0 -0.61287626138E+02 -0.20252127232E+01  0.73016591142E+01  0.61754261634E+02  0.00000000000E+00 0. -1.
</event>
<event>
 4    1  0.9957587E-003  0.9118800E+02  0.7818608E-02  0.1130116E+00
         25   -1    0    0    0    0  0.00000000000E+00  0.00000000000E+00  0.99999998245E-14  0.12500000000E+03  0.12500000000E+03 0.  0.
        -13    1    1    0    0    0  0.10916982887E+01 -0.18036005680E+00 -0.12919107412E+02  0.12966835977E+02  0.10566000000E+00 0.  1.
         13    1    1    0    0    0  0.19619796502E+01  0.54949469218E+00 -0.49498141818E+02  0.49540170730E+02  0.10566000000E+00 0. -1.
         22    1    1    0    0    0 -0.30536779390E+01 -0.36913463537E+00  0.62417249229E+02  0.62492993293E+02  0.00000000000E+00 0. -1.
</event>
<event>
 4    1  0.9957587E-003  0.9118800E+02  0.7818608E-02  0.1130116E+00
         25   -1    0    0    0    0  0.00000000000E+00  0.00000000000E+00  0.99999998245E-14  0.12500000000E+03  0.12500000000E+03 0.  0.
        -13    1    1    0    0    0 -0.14464481964E+02  0.10280802996E+02  0.34329335033E+01  0.18075185897E+02  0.10566000000E+00 0. -1.
         13    1    1    0    0    0 -0.35782841283E+02  0.25212929979E+02  0.75882271828E+01  0.44426297665E+02  0.10566000000E+00 0.  1.
         22    1    1    0    0    0  0.50247323248E+02 -0.35493732975E+02 -0.11021160686E+02  0.62498516438E+02  0.00000000000E+00 0.  1.
</event>
<event>
 4    1  0.9957587E-003  0.9118800E+02  0.7818608E-02  0.1130116E+00
         25   -1    0    0    0    0  0.00000000000E+00  0.00000000000E+00  0.99999998245E-14  0.12500000000E+03  0.12500000000E+03 0.  0.
        -13    1    1    0    0    0  0.20675324393E+02  0.26315834345E+02  0.47465655348E+01  0.33801379032E+02  0.10566000000E+00 0. -1.
         13    1    1    0    0    0  0.17553249603E+02  0.22050898339E+02  0.54615606511E+01  0.28708857482E+02  0.10566000000E+00 0.  1.
         22    1    1    0    0    0 -0.38228573996E+02 -0.48366732684E+02 -0.10208126186E+02  0.62489763486E+02  0.00000000000E+00 0. -1.
</event>
<event>
 4    1  0.9957587E-003  0.9118800E+02  0.7818608E-02  0.1130116E+00
         25   -1    0    0    0    0  0.00000000000E+00  0.00000000000E+00  0.99999998245E-14  0.12500000000E+03  0.12500000000E+03 0.  0.
        -13    1    1    0    0    0 -0.32214462269E+01  0.24717376948E+02  0.33594277149E+01  0.25152005042E+02  0.10566000000E+00 0. -1.
         13    1    1    0    0    0 -0.50637496032E+01  0.36700343329E+02  0.47273867545E+01  0.37348575743E+02  0.10566000000E+00 0.  1.
         22    1    1    0    0    0  0.82851958301E+01 -0.61417720277E+02 -0.80868144694E+01  0.62499419215E+02  0.00000000000E+00 0.  1.
</event>
<event>
 4    1  0.9957587E-003  0.9118800E+02  0.7818608E-02  0.1130116E+00
         25   -1    0    0    0    0  0.00000000000E+00  0.00000000000E+00  0.99999998245E-14  0.12500000000E+03  0.12500000000E+03 0.  0.
        -13    1    1    0    0    0 -0.36332127832E+02 -0.14372473207E+02 -0.21062678281E+02  0.44387375224E+02  0.10566000000E+00 0. -1.
         13    1    1    0    0    0 -0.12978763889E+02 -0.69527381350E+01 -0.10699764171E+02  0.18201236140E+02  0.10566000000E+00 0.  1.
         22    1    1    0    0    0  0.49310891720E+02  0.21325211342E+02  0.31762442452E+02  0.62411388637E+02  0.00000000000E+00 0. -1.
</event>
<event>
 4    1  0.9957587E-003  0.9118800E+02  0.7818608E-02  0.1130116E+00
         25   -1    0    0    0    0  0.00000000000E+00  0.00000000000E+00  0.99999998245E-14  0.12500000000E+03  0.12500000000E+03 0.  0.
        -13    1    1    0    0    0 -0.34593552895E+02 -0.61700841139E+01 -0.16653068398E+02  0.38885983220E+02  0.10566000000E+00 0.  1.
         13    1    1    0    0    0 -0.20714240220E+02 -0.42704799715E+01 -0.10510186046E+02  0.23617618886E+02  0.10566000000E+00 0. -1.
         22    1    1    0    0    0  0.55307793115E+02  0.10440564085E+02  0.27163254444E+02  0.62496397894E+02  0.00000000000E+00 0.  1.
</event>
<event>
 4    1  0.9957587E-003  0.9118800E+02  0.7818608E-02  0.1130116E+00
         25   -1    0    0    0    0  0.00000000000E+00  0.00000000000E+00  0.99999998245E-14  0.12500000000E+03  0.12500000000E+03 0.  0.
        -13    1    1    0    0    0 -0.12905422634E+02  0.39487741102E+01  0.18609903745E+02  0.22988745763E+02  0.10566000000E+00 0. -1.
         13    1    1    0    0    0 -0.22135274059E+02  0.68317738865E+01  0.32007820574E+02  0.39511456997E+02  0.10566000000E+00 0. -1.
         22    1    1    0    0    0  0.35040696692E+02 -0.10780547997E+02 -0.50617724319E+02  0.62499797240E+02  0.00000000000E+00 0. -1.
</event>
<event>
 4    1  0.9957587E-003  0.9118800E+02  0.7818608E-02  0.1130116E+00
         25   -1    0    0    0    0  0.00000000000E+00  0.00000000000E+00  0.99999998245E-14  0.12500000000E+03  0.12500000000E+03 0.  0.
        -13    1    1    0    0    0 -0.24354450206E+02  0.95445100182E+01 -0.40567046960E+01  0.26470831746E+02  0.10566000000E+00 0.  1.
         13    1    1    0    0    0 -0.28891281955E+02  0.16782022598E+02 -0.14322232269E+02  0.36352165777E+02  0.10566000000E+00 0. -1.
         22    1    1    0    0    0  0.53245732161E+02 -0.26326532616E+02  0.18378936965E+02  0.62177002476E+02  0.00000000000E+00 0.  1.
</event>
<event>
 4    1  0.9957587E-003  0.9118800E+02  0.7818608E-02  0.1130116E+00
         25   -1    0    0    0    0  0.00000000000E+00  0.00000000000E+00  0.99999998245E-14  0.12500000000E+03  0.12500000000E+03 0.  0.
        -13    1    1    0    0    0 -0.99938771128E+01 -0.17716969679E+02  0.69561022091E+01  0.21498072387E+02  0.10566000000E+00 0.  1.
         13    1    1    0    0    0 -0.19671569842E+02 -0.32849616066E+02  0.14685286545E+02  0.41008983658E+02  0.10566000000E+00 0. -1.
         22    1    1    0    0    0  0.29665446955E+02  0.50566585746E+02 -0.21641388754E+02  0.62492943955E+02  0.00000000000E+00 0. -1.
</event>
<event>
 4    1  0.9957587E-003  0.9118800E+02  0.7818608E-02  0.1130116E+00
         25   -1    0    0    0    0  0.00000000000E+00  0.00000000000E+00  0.99999998245E-14  0.12500000000E+03  0.12500000000E+03 0.  0.
        -13    1    1    0    0    0  0.45691374677E+02  0.20030571821E+02  0.54252202350E+01  0.50183360848E+02  0.10566000000E+00 0. -1.
         13    1    1    0    0    0  0.11151957172E+02  0.50894921777E+01  0.12027399344E+01  0.12317744387E+02  0.10566000000E+00 0.  1.
         22    1    1    0    0    0 -0.56843331848E+02 -0.25120063999E+02 -0.66279601693E+01  0.62498894766E+02  0.00000000000E+00 0. -1.
</event>
<event>
 4    1  0.9957587E-003  0.9118800E+02  0.7818608E-02  0.1130116E+00
         25   -1    0    0    0    0  0.00000000000E+00  0.00000000000E+00  0.99999998245E-14  0.12500000000E+03  0.12500000000E+03 0.  0.
        -13    1    1    0    0    0 -0.33768100568E+02  0.68355289437E+01  0.43811549203E+02  0.55735734314E+02  0.10566000000E+00 0. -1.
         13    1    1    0    0    0  0.30090528005E+00  0.56216943117E+01  0.58348799065E+01  0.81086977056E+01  0.10566000000E+00 0.  1.
         22    1    1    0    0    0  0.33467195288E+02 -0.12457223255E+02 -0.49646429109E+02  0.61155567980E+02  0.00000000000E+00 0. -1.
</event>
<event>
 4    1  0.9957587E-003  0.9118800E+02  0.7818608E-02  0.1130116E+00
         25   -1    0    0    0    0  0.00000000000E+00  0.00000000000E+00  0.99999998245E-14  0.12500000000E+03  0.12500000000E+03 0.  0.
        -13    1    1    0    0    0  0.43001151295E-01 -0.36483578820E+01 -0.43778491526E+00  0.36763003144E+01  0.10566000000E+00 0. -1.
         13    1    1    0    0    0  0.14829770630E+02  0.12102705367E+02  0.58102681020E+02  0.61174588515E+02  0.10566000000E+00 0.  1.
         22    1    1    0    0    0 -0.14872771781E+02 -0.84543474852E+01 -0.57664896105E+02  0.60149111171E+02  0.00000000000E+00 0.  1.
</event>
<event>
 4    1  0.9957587E-003  0.9118800E+02  0.7818608E-02  0.1130116E+00
         25   -1    0    0    0    0  0.00000000000E+00  0.00000000000E+00  0.99999998245E-14  0.12500000000E+03  0.12500000000E+03 0.  0.
        -13    1    1    0    0    0 -0.30822600160E+02 -0.10292676214E+02  0.48479355751E+02  0.58362924553E+02  0.10566000000E+00 0.  1.
         13    1    1    0    0    0 -0.15675526740E+01  0.11729258381E+02 -0.62074157311E+01  0.13363229312E+02  0.10566000000E+00 0. -1.
         22    1    1    0    0    0  0.32390152834E+02 -0.14365821663E+01 -0.42271940020E+02  0.53273846135E+02  0.00000000000E+00 0.  1.
</event>
<event>
 4    1  0.9957587E-003  0.9118800E+02  0.7818608E-02  0.1130116E+00
         25   -1    0    0    0    0  0.00000000000E+00  0.00000000000E+00  0.99999998245E-14  0.12500000000E+03  0.12500000000E+03 0.  0.
        -13    1    1    0    0    0  0.36959075882E+01  0.21309647588E+01  0.50038325427E+01  0.65764920630E+01  0.10566000000E+00 0.  1.
         13    1    1    0    0    0  0.35544376796E+02  0.11667036424E+02  0.41606351366E+02  0.55951962421E+02  0.10566000000E+00 0. -1.
         22    1    1    0    0    0 -0.39240284384E+02 -0.13798001183E+02 -0.46610183908E+02  0.62471545516E+02  0.00000000000E+00 0. -1.
</event>
<event>
 4    1  0.9957587E-003  0.9118800E+02  0.7818608E-02  0.1130116E+00
         25   -1    0    0    0    0  0.00000000000E+00  0.00000000000E+00  0.99999998245E-14  0.12500000000E+03  0.12500000000E+03 0.  0.
        -13    1    1    0    0    0  0.56029503764E+01  0.14439441171E+02 -0.40852742075E+02  0.43690367512E+02  0.10566000000E+00 0. -1.
         13    1    1    0    0    0  0.27051979188E+01  0.49561536408E+01 -0.17959711405E+02  0.18826681930E+02  0.10566000000E+00 0.  1.
         22    1    1    0    0    0 -0.83081482951E+01 -0.19395594812E+02  0.58812453480E+02  0.62482950559E+02  0.00000000000E+00 0. -1.
</event>
<event>
 4    1  0.9957587E-003  0.9118800E+02  0.7818608E-02  0.1130116E+00
         25   -1    0    0    0    0  0.00000000000E+00  0.00000000000E+00  0.99999998245E-14  0.12500000000E+03  0.12500000000E+03 0.  0.
        -13    1    1    0    0    0 -0.14137070679E+02 -0.62575936769E+01  0.48241980732E+01  0.16195625863E+02  0.10566000000E+00 0. -1.
         13    1    1    0    0    0 -0.19648719551E+02  0.24036241282E+02  0.39541887292E+02  0.50273105033E+02  0.10566000000E+00 0.  1.
         22    1    1    0    0    0  0.33785790231E+02 -0.17778647606E+02 -0.44366085366E+02  0.58531269104E+02  0.00000000000E+00 0. -1.
</event>
<event>
 4    1  0.9957587E-003  0.9118800E+02  0.7818608E-02  0.1130116E+00
         25   -1    0    0    0    0  0.00000000000E+00  0.00000000000E+00  0.99999998245E-14  0.12500000000E+03  0.12500000000E+03 0.  0.
        -13    1    1    0    0    0 -0.22599069325E+01 -0.76503167122E+01  0.13959558885E+02  0.16078400836E+02  0.10566000000E+00 0.  1.
         13    1    1    0    0    0 -0.61567740141E+01 -0.21996465118E+02  0.40413427203E+02  0.46422048709E+02  0.10566000000E+00 0. -1.
         22    1    1    0    0    0  0.84166809466E+01  0.29646781830E+02 -0.54372986088E+02  0.62499550456E+02  0.00000000000E+00 0. -1.
</event>
<event>
 4    1  0.9957587E-003  0.9118800E+02  0.7818608E-02  0.1130116E+00
         25   -1    0    0    0    0  0.00000000000E+00  0.00000000000E+00  0.99999998245E-14  0.12500000000E+03  0.12500000000E+03 0.  0.
        -13    1    1    0    0    0 -0.18752333123E+02  0.22658185802E+01  0.95096733429E+01  0.21147789069E+02  0.10566000000E+00 0. -1.
         13    1    1    0    0    0 -0.36199104394E+02  0.42064267041E+01  0.19548426290E+02  0.41354822198E+02  0.10566000000E+00 0.  1.
         22    1    1    0    0    0  0.54951437517E+02 -0.64722452843E+01 -0.29058099633E+02  0.62497388733E+02  0.00000000000E+00 0.  1.
</event>
<event>
 4    1  0.9957587E-003  0.9118800E+02  0.7818608E-02  0.1130116E+00
         25   -1    0    0    0    0  0.00000000000E+00  0.00000000000E+00  0.99999998245E-14  0.12500000000E+03  0.12500000000E+03 0.  0.
        -13    1    1    0    0    0 -0.21597971059E+02  0.11025108883E+02 -0.64428459120E+01  0.25090771356E+02  0.10566000000E+00 0. -1.
         13    1    1    0    0    0 -0.32048279071E+02  0.17240847190E+02 -0.86843965217E+01  0.37413485674E+02  0.10566000000E+00 0.  1.
         22    1    1    0    0    0  0.53646250130E+02 -0.28265956073E+02  0.15127242434E+02  0.62495742971E+02  0.00000000000E+00 0. -1.
</event>
<event>
 4    1  0.9957587E-003  0.9118800E+02  0.7818608E-02  0.1130116E+00
         25   -1    0    0    0    0  0.00000000000E+00  0.00000000000E+00  0.99999998245E-14  0.12500000000E+03  0.12500000000E+03 0.  0.
        -13    1    1    0    0    0 -0.17298698019E+02  0.24444199486E+02 -0.45077285492E+02  0.54117803661E+02  0.10566000000E+00 0. -1.
         13    1    1    0    0    0 -0.47635901523E+01  0.11537333487E+02  0.96503694974E+01  0.15777916548E+02  0.10566000000E+00 0.  1.
         22    1    1    0    0    0  0.22062288172E+02 -0.35981532972E+02  0.35426915995E+02  0.55104279791E+02  0.00000000000E+00 0. -1.
</event>
<event>
 4    1  0.9957587E-003  0.9118800E+02  0.7818608E-02  0.1130116E+00
         25   -1    0    0    0    0  0.00000000000E+00  0.00000000000E+00  0.99999998245E-14  0.12500000000E+03  0.12500000000E+03 0.  0.
        -13    1    1    0    0    0  0.39276755271E+02  0.33932132632E+02  0.24897252435E+02  0.57566808775E+02  0.10566000000E+00 0.  1.
         13    1    1    0    0    0  0.30548688462E+01  0.29818483529E+01  0.24928282073E+01  0.49445929836E+01  0.10566000000E+00 0. -1.
         22    1    1    0    0    0 -0.42331624118E+02 -0.36913980985E+02 -0.27390080643E+02  0.62488598242E+02  0.00000000000E+00 0.  1.
</event>
<event>
 4    1  0.9957587E-003  0.9118800E+02  0.7818608E-02  0.1130116E+00
         25   -1    0    0    0    0  0.00000000000E+00  0.00000000000E+00  0.99999998245E-14  0.12500000000E+03  0.12500000000E+03 0.  0.
        -13    1    1    0    0    0 -0.19602791008E+02  0.46086022474E+01  0.42112757736E+01  0.20573153323E+02  0.10566000000E+00 0. -1.
         13    1    1    0    0    0  0.22311358145E+02  0.27259065272E+02 -0.42067917871E+02  0.54868699819E+02  0.10566000000E+00 0.  1.
         22    1    1    0    0    0 -0.27085671367E+01 -0.31867667520E+02  0.37856642097E+02  0.49558146858E+02  0.00000000000E+00 0.  1.
</event>
<event>
 4    1  0.9957587E-003  0.9118800E+02  0.7818608E-02  0.1130116E+00
         25   -1    0    0    0    0  0.00000000000E+00  0.00000000000E+00  0.99999998245E-14  0.12500000000E+03  0.12500000000E+03 0.  0.
        -13    1    1    0    0    0 -0.20884784418E+02 -0.40380219104E+02  0.33093949330E+02  0.56231280987E+02  0.10566000000E+00 0. -1.
         13    1    1    0    0    0 -0.24226905249E+01 -0.44381498204E+01  0.37055658487E+01  0.62696878314E+01  0.10566000000E+00 0. -1.
         22    1    1    0    0    0  0.23307474943E+02  0.44818368925E+02 -0.36799515179E+02  0.62499031182E+02  0.00000000000E+00 0. -1.
</event>
<event>
 4    1  0.9957587E-003  0.9118800E+02  0.7818608E-02  0.1130116E+00
         25   -1    0    0    0    0  0.00000000000E+00  0.00000000000E+00  0.99999998245E-14  0.12500000000E+03  0.12500000000E+03 0.  0.
        -13    1    1    0    0    0 -0.16225076275E+02 -0.97735110681E+01  0.27649809196E+02  0.33515634133E+02  0.10566000000E+00 0. -1.
         13    1    1    0    0    0 -0.13696254827E+02 -0.84217927781E+01  0.24116807168E+02  0.28985264220E+02  0.10566000000E+00 0.  1.
         22    1    1    0    0    0  0.29921331102E+02  0.18195303846E+02 -0.51766616364E+02  0.62499101647E+02  0.00000000000E+00 0. -1.
</event>
<event>
 4    1  0.9957587E-003  0.9118800E+02  0.7818608E-02  0.1130116E+00
         25   -1    0    0    0    0  0.00000000000E+00  0.00000000000E+00  0.99999998245E-14  0.12500000000E+03  0.12500000000E+03 0.  0.
        -13    1    1    0    0    0 -0.11504311101E+02  0.27847758043E+01  0.39274547256E+01  0.12471576277E+02  0.10566000000E+00 0. -1.
         13    1    1    0    0    0 -0.41510047976E+02  0.15006039209E+02  0.23761617524E+02  0.50128743522E+02  0.10566000000E+00 0.  1.
         22    1    1    0    0    0  0.53014359077E+02 -0.17790815013E+02 -0.27689072250E+02  0.62399680201E+02  0.00000000000E+00 0.  1.
</event>
<event>
 4    1  0.9957587E-003  0.9118800E+02  0.7818608E-02  0.1130116E+00
         25   -1    0    0    0    0  0.00000000000E+00  0.00000000000E+00  0.99999998245E-14  0.12500000000E+03  0.12500000000E+03 0.  0.
        -13    1    1    0    0    0  0.13100317312E+02  0.55321778412E+02  0.58744726588E+01  0.57154510525E+02  0.10566000000E+00 0. -1.
         13    1    1    0    0    0 -0.14499807098E+02 -0.13805738863E+02  0.11191364005E+02  0.22936883480E+02  0.10566000000E+00 0.  1.
         22    1    1    0    0    0  0.13994897853E+01 -0.41516039548E+02 -0.17065836663E+02  0.44908605995E+02  0.00000000000E+00 0. -1.
</event>
<event>
 4    1  0.9957587E-003  0.9118800E+02  0.7818608E-02  0.1130116E+00
         25   -1    0    0    0    0  0.00000000000E+00  0.00000000000E+00  0.99999998245E-14  0.12500000000E+03  0.12500000000E+03 0.  0.
        -13    1    1    0    0    0 -0.16835020095E+02 -0.35681311748E+02 -0.20900580233E+02  0.44647724777E+02  0.10566000000E+00 0. -1.
         13    1    1    0    0    0  0.73808444458E+01 -0.19600294613E+02  0.14629638290E+01  0.20995233765E+02  0.10566000000E+00 0.  1.
         22    1    1    0    0    0  0.94541756490E+01  0.55281606362E+02  0.19437616404E+02  0.59357041457E+02  0.00000000000E+00 0. -1.
</event>
<event>
 4    1  0.9957587E-003  0.9118800E+02  0.7818608E-02  0.1130116E+00
         25   -1    0    0    0    0  0.00000000000E+00  0.00000000000E+00  0.99999998245E-14  0.12500000000E+03  0.12500000000E+03 0.  0.
        -13    1    1    0    0    0  0.58906563498E+02 -0.51290403012E+01  0.80619269780E+01  0.59676595984E+02  0.10566000000E+00 0. -1.
         13    1    1    0    0    0  0.26530077542E+01  0.66406707171E+00  0.10534656943E+01  0.29326420212E+01  0.10566000000E+00 0.  1.
         22    1    1    0    0    0 -0.61559571253E+02  0.44649732295E+01 -0.91153926723E+01  0.62390761995E+02  0.00000000000E+00 0. -1.
</event>
<event>
 4    1  0.9957587E-003  0.9118800E+02  0.7818608E-02  0.1130116E+00
         25   -1    0    0    0    0  0.00000000000E+00  0.00000000000E+00  0.99999998245E-14  0.12500000000E+03  0.12500000000E+03 0.  0.
        -13    1    1    0    0    0 -0.63229857398E+01 -0.48244217749E+00 -0.61234091100E+01  0.88159062089E+01  0.10566000000E+00 0.  1.
         13    1    1    0    0    0 -0.38777828808E+02 -0.26187087098E+01 -0.37033090231E+02  0.53684621433E+02  0.10566000000E+00 0.  1.
         22    1    1    0    0    0  0.45100814548E+02  0.31011508873E+01  0.43156499341E+02  0.62499472358E+02  0.00000000000E+00 0.  1.
</event>
<event>
 4    1  0.9957587E-003  0.9118800E+02  0.7818608E-02  0.1130116E+00
         25   -1    0    0    0    0  0.00000000000E+00  0.00000000000E+00  0.99999998245E-14  0.12500000000E+03  0.12500000000E+03 0.  0.
        -13    1    1    0    0    0 -0.14934584104E+00  0.38953870265E+00  0.19340370331E+00  0.47181946669E+00  0.10566000000E+00 0.  1.
         13    1    1    0    0    0  0.11836309764E+02  0.51182820834E+02 -0.33244471891E+02  0.62169007172E+02  0.10566000000E+00 0. -1.
         22    1    1    0    0    0 -0.11686963923E+02 -0.51572359537E+02  0.33051068188E+02  0.62359173361E+02  0.00000000000E+00 0. -1.
</event>
<event>
 4    1  0.9957587E-003  0.9118800E+02  0.7818608E-02  0.1130116E+00
         25   -1    0    0    0    0  0.00000000000E+00  0.00000000000E+00  0.99999998245E-14  0.12500000000E+03  0.12500000000E+03 0.  0.
        -13    1    1    0    0    0  0.43148984077E+00  0.33660519086E+01 -0.12912353952E+02  0.13351274753E+02  0.10566000000E+00 0. -1.
         13    1    1    0    0    0  0.26039676347E+01  0.15973573241E+02 -0.46425087861E+02  0.49165390637E+02  0.10566000000E+00 0.  1.
         22    1    1    0    0    0 -0.30354574755E+01 -0.19339625149E+02  0.59337441813E+02  0.62483334609E+02  0.00000000000E+00 0.  1.
</event>
<event>
 4    1  0.9957587E-003  0.9118800E+02  0.7818608E-02  0.1130116E+00
         25   -1    0    0    0    0  0.00000000000E+00  0.00000000000E+00  0.99999998245E-14  0.12500000000E+03  0.12500000000E+03 0.  0.
        -13    1    1    0    0    0 -0.13203618642E+02 -0.11758432614E+02  0.25040206977E+02  0.30653212103E+02  0.10566000000E+00 0.  1.
         13    1    1    0    0    0 -0.13327234712E+02 -0.11120183681E+02  0.26709449467E+02  0.31854034674E+02  0.10566000000E+00 0. -1.
         22    1    1    0    0    0  0.26530853354E+02  0.22878616296E+02 -0.51749656443E+02  0.62492753222E+02  0.00000000000E+00 0.  1.
</event>
<event>
 4    1  0.9957587E-003  0.9118800E+02  0.7818608E-02  0.1130116E+00
         25   -1    0    0    0    0  0.00000000000E+00  0.00000000000E+00  0.99999998245E-14  0.12500000000E+03  0.12500000000E+03 0.  0.
        -13    1    1    0    0    0 -0.17162962329E+01 -0.30675060524E+01  0.13513340527E+00  0.35191889994E+01  0.10566000000E+00 0.  1.
         13    1    1    0    0    0 -0.45804956307E+02  0.46461249608E+01  0.38656517887E+02  0.60116703490E+02  0.10566000000E+00 0. -1.
         22    1    1    0    0    0  0.47521252540E+02 -0.15786189084E+01 -0.38791651292E+02  0.61364107510E+02  0.00000000000E+00 0. -1.
</event>
<event>
 4    1  0.9957587E-003  0.9118800E+02  0.7818608E-02  0.1130116E+00
         25   -1    0    0    0    0  0.00000000000E+00  0.00000000000E+00  0.99999998245E-14  0.12500000000E+03  0.12500000000E+03 0.  0.
        -13    1    1    0    0    0 -0.38137438007E+01 -0.39517314605E+00 -0.14318762523E+00  0.38382900261E+01  0.10566000000E+00 0.  1.
         13    1    1    0    0    0 -0.49289580625E+02 -0.27581767451E+02 -0.16558170219E+02  0.58859160876E+02  0.10566000000E+00 0. -1.
         22    1    1    0    0    0  0.53103324426E+02  0.27976940597E+02  0.16701357845E+02  0.62302549098E+02  0.00000000000E+00 0. -1.
</event>
<event>
 4    1  0.9957587E-003  0.9118800E+02  0.7818608E-02  0.1130116E+00
         25   -1    0    0    0    0  0.00000000000E+00  0.00000000000E+00  0.99999998245E-14  0.12500000000E+03  0.12500000000E+03 0.  0.
        -13    1    1    0    0    0 -0.17922534634E+02  0.25365920528E+01 -0.16625998732E+02  0.24578172121E+02  0.10566000000E+00 0.  1.
         13    1    1    0    0    0  0.17717089088E+01  0.43967755573E+02 -0.90117850505E+01  0.44916877857E+02  0.10566000000E+00 0. -1.
         22    1    1    0    0    0  0.16150825725E+02 -0.46504347626E+02  0.25637783783E+02  0.55504950022E+02  0.00000000000E+00 0. -1.
</event>
<event>
 4    1  0.9957587E-003  0.9118800E+02  0.7818608E-02  0.1130116E+00
         25   -1    0    0    0    0  0.00000000000E+00  0.00000000000E+00  0.99999998245E-14  0.12500000000E+03  0.12500000000E+03 0.  0.
        -13    1    1    0    0    0  0.51583667130E+02  0.23211928232E+02 -0.11578875803E+02  0.57738633996E+02  0.10566000000E+00 0. -1.
         13    1    1    0    0    0  0.40639520548E+01  0.23596846428E+01 -0.83471913815E+00  0.47740693326E+01  0.10566000000E+00 0.  1.
         22    1    1    0    0    0 -0.55647619185E+02 -0.25571612875E+02  0.12413594941E+02  0.62487296671E+02  0.00000000000E+00 0. -1.
</event>
<event>
 4    1  0.9957587E-003  0.9118800E+02  0.7818608E-02  0.1130116E+00
         25   -1    0    0    0    0  0.00000000000E+00  0.00000000000E+00  0.99999998245E-14  0.12500000000E+03  0.12500000000E+03 0.  0.
        -13    1    1    0    0    0  0.12289955429E+02  0.64413197389E+01 -0.51600900595E+02  0.53434050105E+02  0.10566000000E+00 0. -1.
         13    1    1    0    0    0  0.70352069912E+01 -0.50565161188E+01 -0.61673084642E+01  0.10635287979E+02  0.10566000000E+00 0.  1.
         22    1    1    0    0    0 -0.19325162421E+02 -0.13848036201E+01  0.57768209059E+02  0.60930661916E+02  0.00000000000E+00 0. -1.
</event>
<event>
 4    1  0.9957587E-003  0.9118800E+02  0.7818608E-02  0.1130116E+00
         25   -1    0    0    0    0  0.00000000000E+00  0.00000000000E+00  0.99999998245E-14  0.12500000000E+03  0.12500000000E+03 0.  0.
        -13    1    1    0    0    0 -0.12136091918E+02  0.66486538942E+01 -0.41046209642E+01  0.14434278747E+02  0.10566000000E+00 0.  1.
         13    1    1    0    0    0 -0.27180521514E+02  0.38962321386E+02 -0.10387692251E+02  0.48628783162E+02  0.10566000000E+00 0. -1.
         22    1    1    0    0    0  0.39316613432E+02 -0.45610975280E+02  0.14492313215E+02  0.61936938091E+02  0.00000000000E+00 0. -1.
</event>
<event>
 4    1  0.9957587E-003  0.9118800E+02  0.7818608E-02  0.1130116E+00
         25   -1    0    0    0    0  0.00000000000E+00  0.00000000000E+00  0.99999998245E-14  0.12500000000E+03  0.12500000000E+03 0.  0.
        -13    1    1    0    0    0 -0.47262927152E+01  0.10072459674E+02 -0.30054694287E+02  0.32048215230E+02  0.10566000000E+00 0. -1.
         13    1    1    0    0    0 -0.12136392277E+02  0.33470373154E+01 -0.28176156033E+02  0.30861004669E+02  0.10566000000E+00 0.  1.
         22    1    1    0    0    0  0.16862684992E+02 -0.13419496990E+02  0.58230850320E+02  0.62090780102E+02  0.00000000000E+00 0.  1.
</event>
<event>
 4    1  0.9957587E-003  0.9118800E+02  0.7818608E-02  0.1130116E+00
         25   -1    0    0    0    0  0.00000000000E+00  0.00000000000E+00  0.99999998245E-14  0.12500000000E+03  0.12500000000E+03 0.  0.
        -13    1    1    0    0    0  0.19092726592E+02 -0.13292576519E+02  0.24476742712E+02  0.33769022744E+02  0.10566000000E+00 0.  1.
         13    1    1    0    0    0  0.21247569323E+02  0.10932732649E+02  0.19983967785E+02  0.31150505257E+02  0.10566000000E+00 0. -1.
         22    1    1    0    0    0 -0.40340295915E+02  0.23598438701E+01 -0.44460710498E+02  0.60080471999E+02  0.00000000000E+00 0.  1.
</event>
<event>
 4    1  0.9957587E-003  0.9118800E+02  0.7818608E-02  0.1130116E+00
         25   -1    0    0    0    0  0.00000000000E+00  0.00000000000E+00  0.99999998245E-14  0.12500000000E+03  0.12500000000E+03 0.  0.
        -13    1    1    0    0    0 -0.32901773544E+02 -0.10847525147E+02  0.39916776294E+02  0.52854098213E+02  0.10566000000E+00 0. -1.
         13    1    1    0    0    0 -0.72141053256E+01 -0.93160813865E+01  0.41813927820E+00  0.11790618836E+02  0.10566000000E+00 0.  1.
         22    1    1    0    0    0  0.40115878869E+02  0.20163606534E+02 -0.40334915572E+02  0.60355282951E+02  0.00000000000E+00 0. -1.
</event>
<event>
 4    1  0.9957587E-003  0.9118800E+02  0.7818608E-02  0.1130116E+00
         25   -1    0    0    0    0  0.00000000000E+00  0.00000000000E+00  0.99999998245E-14  0.12500000000E+03  0.12500000000E+03 0.  0.
        -13    1    1    0    0    0 -0.16057386174E+02 -0.40820199987E+01  0.31016859699E+02  0.35164744953E+02  0.10566000000E+00 0. -1.
         13    1    1    0    0    0 -0.14073639822E+02 -0.27204340962E+01  0.23296008727E+02  0.27352939260E+02  0.10566000000E+00 0.  1.
         22    1    1    0    0    0  0.30131025997E+02  0.68024540948E+01 -0.54312868426E+02  0.62482315786E+02  0.00000000000E+00 0.  1.
</event>
<event>
 4    1  0.9957587E-003  0.9118800E+02  0.7818608E-02  0.1130116E+00
         25   -1    0    0    0    0  0.00000000000E+00  0.00000000000E+00  0.99999998245E-14  0.12500000000E+03  0.12500000000E+03 0.  0.
        -13    1    1    0    0    0 -0.16218320659E+02 -0.39772188929E+02  0.30527512786E+02  0.52695361638E+02  0.10566000000E+00 0.  1.
         13    1    1    0    0    0  0.17153427731E+02 -0.35110554478E+01 -0.22105267590E+02  0.28199673980E+02  0.10566000000E+00 0. -1.
         22    1    1    0    0    0 -0.93510707201E+00  0.43283244377E+02 -0.84222451956E+01  0.44104964382E+02  0.00000000000E+00 0.  1.
</event>
<event>
 4    1  0.9957587E-003  0.9118800E+02  0.7818608E-02  0.1130116E+00
         25   -1    0    0    0    0  0.00000000000E+00  0.00000000000E+00  0.99999998245E-14  0.12500000000E+03  0.12500000000E+03 0.  0.
        -13    1    1    0    0    0 -0.22493726562E+02 -0.71303133678E+01 -0.10608681504E+02  0.25872077432E+02  0.10566000000E+00 0.  1.
         13    1    1    0    0    0 -0.33669670509E+02  0.20747379984E+02 -0.33027719655E+01  0.39686521075E+02  0.10566000000E+00 0. -1.
         22    1    1    0    0    0  0.56163397071E+02 -0.13617066616E+02  0.13911453469E+02  0.59441401493E+02  0.00000000000E+00 0. -1.
</event>
<event>
 4    1  0.9957587E-003  0.9118800E+02  0.7818608E-02  0.1130116E+00
         25   -1    0    0    0    0  0.00000000000E+00  0.00000000000E+00  0.99999998245E-14  0.12500000000E+03  0.12500000000E+03 0.  0.
        -13    1    1    0    0    0 -0.32329694323E+01  0.65123510476E+00 -0.15431466719E+01  0.36426177672E+01  0.10566000000E+00 0.  1.
         13    1    1    0    0    0 -0.89695597808E+01  0.46454768986E+02 -0.36365001156E+02  0.59673470130E+02  0.10566000000E+00 0. -1.
         22    1    1    0    0    0  0.12202529213E+02 -0.47106004091E+02  0.37908147828E+02  0.61683912103E+02  0.00000000000E+00 0. -1.
</event>
<event>
 4    1  0.9957587E-003  0.9118800E+02  0.7818608E-02  0.1130116E+00
         25   -1    0    0    0    0  0.00000000000E+00  0.00000000000E+00  0.99999998245E-14  0.12500000000E+03  0.12500000000E+03 0.  0.
        -13    1    1    0    0    0  0.90194348027E+01  0.33719452900E+02  0.39778871992E+02  0.52921843590E+02  0.10566000000E+00 0. -1.
         13    1    1    0    0    0  0.15250144359E+01  0.57103471299E+01  0.75447574008E+01  0.95847932500E+01  0.10566000000E+00 0.  1.
         22    1    1    0    0    0 -0.10544449239E+02 -0.39429800030E+02 -0.47323629393E+02  0.62493363160E+02  0.00000000000E+00 0. -1.
</event>
<event>
 4    1  0.9957587E-003  0.9118800E+02  0.7818608E-02  0.1130116E+00
         25   -1    0    0    0    0  0.00000000000E+00  0.00000000000E+00  0.99999998245E-14  0.12500000000E+03  0.12500000000E+03 0.  0.
        -13    1    1    0    0    0  0.10061735770E+02  0.17064347635E+01 -0.41119374571E+02  0.42367022264E+02  0.10566000000E+00 0.  1.
         13    1    1    0    0    0  0.62109354625E+01  0.23097816115E+01 -0.19051484641E+02  0.20171292509E+02  0.10566000000E+00 0. -1.
         22    1    1    0    0    0 -0.16272671232E+02 -0.40162163750E+01  0.60170859213E+02  0.62461685227E+02  0.00000000000E+00 0.  1.
</event>
<event>
 4    1  0.9957587E-003  0.9118800E+02  0.7818608E-02  0.1130116E+00
         25   -1    0    0    0    0  0.00000000000E+00  0.00000000000E+00  0.99999998245E-14  0.12500000000E+03  0.12500000000E+03 0.  0.
        -13    1    1    0    0    0  0.46137824580E+02  0.19406520733E+02  0.94659164116E+01  0.50940422470E+02  0.10566000000E+00 0. -1.
         13    1    1    0    0    0  0.10478781075E+02  0.43801286623E+01  0.21516050078E+01  0.11559885296E+02  0.10566000000E+00 0. -1.
         22    1    1    0    0    0 -0.56616605655E+02 -0.23786649395E+02 -0.11617521419E+02  0.62499692233E+02  0.00000000000E+00 0. -1.
</event>
<event>
 4    1  0.9957587E-003  0.9118800E+02  0.7818608E-02  0.1130116E+00
         25   -1    0    0    0    0  0.00000000000E+00  0.00000000000E+00  0.99999998245E-14  0.12500000000E+03  0.12500000000E+03 0.  0.
        -13    1    1    0    0    0  0.10621912626E+02  0.45839900582E+01  0.21704142163E+01  0.11771144999E+02  0.10566000000E+00 0.  1.
         13    1    1    0    0    0  0.38690196230E+02  0.23477249923E+02 -0.25427061420E+02  0.51910106576E+02  0.10566000000E+00 0. -1.
         22    1    1    0    0    0 -0.49312108856E+02 -0.28061239981E+02  0.23256647204E+02  0.61318748424E+02  0.00000000000E+00 0. -1.
</event>
<event>
 4    1  0.9957587E-003  0.9118800E+02  0.7818608E-02  0.1130116E+00
         25   -1    0    0    0    0  0.00000000000E+00  0.00000000000E+00  0.99999998245E-14  0.12500000000E+03  0.12500000000E+03 0.  0.
        -13    1    1    0    0    0  0.12936017824E+01 -0.71642117584E+01  0.40033846592E+01  0.83088861140E+01  0.10566000000E+00 0.  1.
         13    1    1    0    0    0  0.99068416917E+01 -0.45248004136E+02  0.28137915122E+02  0.54196686449E+02  0.10566000000E+00 0. -1.
         22    1    1    0    0    0 -0.11200443474E+02  0.52412215895E+02 -0.32141299781E+02  0.62494427437E+02  0.00000000000E+00 0. -1.
</event>
<event>
 4    1  0.9957587E-003  0.9118800E+02  0.7818608E-02  0.1130116E+00
         25   -1    0    0    0    0  0.00000000000E+00  0.00000000000E+00  0.99999998245E-14  0.12500000000E+03  0.12500000000E+03 0.  0.
        -13    1    1    0    0    0 -0.29106391572E+01  0.16657742967E+02  0.17206526512E+02  0.24125255226E+02  0.10566000000E+00 0.  1.
         13    1    1    0    0    0 -0.48743790766E+01  0.26465202099E+02  0.27358172457E+02  0.38375086420E+02  0.10566000000E+00 0.  1.
         22    1    1    0    0    0  0.77850182338E+01 -0.43122945067E+02 -0.44564698969E+02  0.62499658354E+02  0.00000000000E+00 0.  1.
</event>
<event>
 4    1  0.9957587E-003  0.9118800E+02  0.7818608E-02  0.1130116E+00
         25   -1    0    0    0    0  0.00000000000E+00  0.00000000000E+00  0.99999998245E-14  0.12500000000E+03  0.12500000000E+03 0.  0.
        -13    1    1    0    0    0 -0.12236045346E+02 -0.17306609168E+01 -0.10255717942E+02  0.16059480298E+02  0.10566000000E+00 0. -1.
         13    1    1    0    0    0 -0.32555211155E+02  0.28021757594E+02 -0.21530724414E+02  0.48048349918E+02  0.10566000000E+00 0.  1.
         22    1    1    0    0    0  0.44791256501E+02 -0.26291096677E+02  0.31786442356E+02  0.60892169784E+02  0.00000000000E+00 0.  1.
</event>
<event>
 4    1  0.9957587E-003  0.9118800E+02  0.7818608E-02  0.1130116E+00
         25   -1    0    0    0    0  0.00000000000E+00  0.00000000000E+00  0.99999998245E-14  0.12500000000E+03  0.12500000000E+03 0.  0.
        -13    1    1    0    0    0  0.38792181960E+01 -0.37609523774E+01 -0.18210313118E+01  0.57026674172E+01  0.10566000000E+00 0.  1.
         13    1    1    0    0    0  0.36632595495E+02 -0.42071804215E+02 -0.10843669479E+02  0.56829394634E+02  0.10566000000E+00 0. -1.
         22    1    1    0    0    0 -0.40511813691E+02  0.45832756593E+02  0.12664700791E+02  0.62467937949E+02  0.00000000000E+00 0. -1.
</event>
<event>
 4    1  0.9957587E-003  0.9118800E+02  0.7818608E-02  0.1130116E+00
         25   -1    0    0    0    0  0.00000000000E+00  0.00000000000E+00  0.99999998245E-14  0.12500000000E+03  0.12500000000E+03 0.  0.
        -13    1    1    0    0    0 -0.19379488031E+01 -0.32691286965E+02 -0.43623853782E+02  0.54548397518E+02  0.10566000000E+00 0.  1.
         13    1    1    0    0    0  0.14410545321E+01 -0.48903670673E+01 -0.62086856092E+01  0.80343804520E+01  0.10566000000E+00 0. -1.
         22    1    1    0    0    0  0.49689427097E+00  0.37581654033E+02  0.49832539391E+02  0.62417222030E+02  0.00000000000E+00 0.  1.
</event>
<event>
 4    1  0.9957587E-003  0.9118800E+02  0.7818608E-02  0.1130116E+00
         25   -1    0    0    0    0  0.00000000000E+00  0.00000000000E+00  0.99999998245E-14  0.12500000000E+03  0.12500000000E+03 0.  0.
        -13    1    1    0    0    0  0.35371798694E-02 -0.48598642102E+00 -0.20757988478E+00  0.53893298027E+00  0.10566000000E+00 0. -1.
         13    1    1    0    0    0  0.37250967260E+01 -0.58819703973E+02 -0.19140461872E+02  0.61967752628E+02  0.10566000000E+00 0. -1.
         22    1    1    0    0    0 -0.37286339059E+01  0.59305690394E+02  0.19348041757E+02  0.62493314392E+02  0.00000000000E+00 0. -1.
</event>
<event>
 4    1  0.9957587E-003  0.9118800E+02  0.7818608E-02  0.1130116E+00
         25   -1    0    0    0    0  0.00000000000E+00  0.00000000000E+00  0.99999998245E-14  0.12500000000E+03  0.12500000000E+03 0.  0.
        -13    1    1    0    0    0 -0.20415345812E+02  0.21593357865E+02 -0.10926125799E+02  0.31661504031E+02  0.10566000000E+00 0. -1.
         13    1    1    0    0    0 -0.17438263442E+02  0.21969819063E+02 -0.12935188485E+02  0.30888448435E+02  0.10566000000E+00 0.  1.
         22    1    1    0    0    0  0.37853609254E+02 -0.43563176929E+02  0.23861314284E+02  0.62450047534E+02  0.00000000000E+00 0.  1.
</event>
<event>
 4    1  0.9957587E-003  0.9118800E+02  0.7818608E-02  0.1130116E+00
         25   -1    0    0    0    0  0.00000000000E+00  0.00000000000E+00  0.99999998245E-14  0.12500000000E+03  0.12500000000E+03 0.  0.
        -13    1    1    0    0    0 -0.51016683331E+01  0.35073658709E+01  0.23245180031E+02  0.24055730998E+02  0.10566000000E+00 0.  1.
         13    1    1    0    0    0 -0.13450113965E+02  0.21797464791E+01  0.36058334417E+02  0.38547003844E+02  0.10566000000E+00 0. -1.
         22    1    1    0    0    0  0.18551782298E+02 -0.56871123500E+01 -0.59303514448E+02  0.62397265158E+02  0.00000000000E+00 0. -1.
</event>
<event>
 4    1  0.9957587E-003  0.9118800E+02  0.7818608E-02  0.1130116E+00
         25   -1    0    0    0    0  0.00000000000E+00  0.00000000000E+00  0.99999998245E-14  0.12500000000E+03  0.12500000000E+03 0.  0.
        -13    1    1    0    0    0  0.71984142495E+00  0.21520023735E+00  0.24218460796E+02  0.24230342346E+02  0.10566000000E+00 0. -1.
         13    1    1    0    0    0  0.27036892031E+01 -0.12934582677E+01  0.38165187009E+02  0.38282837317E+02  0.10566000000E+00 0.  1.
         22    1    1    0    0    0 -0.34235306280E+01  0.10782580303E+01 -0.62383647805E+02  0.62486820337E+02  0.00000000000E+00 0.  1.
</event>
<event>
 4    1  0.9957587E-003  0.9118800E+02  0.7818608E-02  0.1130116E+00
         25   -1    0    0    0    0  0.00000000000E+00  0.00000000000E+00  0.99999998245E-14  0.12500000000E+03  0.12500000000E+03 0.  0.
        -13    1    1    0    0    0 -0.11463913458E+02  0.39735660449E+01  0.58663185156E+02  0.59904849516E+02  0.10566000000E+00 0. -1.
         13    1    1    0    0    0 -0.65323624051E+00  0.41070067364E+00  0.24848884583E+01  0.26040789763E+01  0.10566000000E+00 0.  1.
         22    1    1    0    0    0  0.12117149699E+02 -0.43842667186E+01 -0.61148073614E+02  0.62491071508E+02  0.00000000000E+00 0. -1.
</event>
<event>
 4    1  0.9957587E-003  0.9118800E+02  0.7818608E-02  0.1130116E+00
         25   -1    0    0    0    0  0.00000000000E+00  0.00000000000E+00  0.99999998245E-14  0.12500000000E+03  0.12500000000E+03 0.  0.
        -13    1    1    0    0    0 -0.47839436664E+01  0.48647896132E+01 -0.20375733599E+01  0.71214580120E+01  0.10566000000E+00 0.  1.
         13    1    1    0    0    0 -0.23049926539E+02  0.47382623799E+02 -0.17527111997E+02  0.55530378808E+02  0.10566000000E+00 0. -1.
         22    1    1    0    0    0  0.27833870206E+02 -0.52247413412E+02  0.19564685357E+02  0.62348163180E+02  0.00000000000E+00 0. -1.
</event>
<event>
 4    1  0.9957587E-003  0.9118800E+02  0.7818608E-02  0.1130116E+00
         25   -1    0    0    0    0  0.00000000000E+00  0.00000000000E+00  0.99999998245E-14  0.12500000000E+03  0.12500000000E+03 0.  0.
        -13    1    1    0    0    0  0.79956468896E+01  0.35490857781E+02 -0.29405956972E+02  0.46778764677E+02  0.10566000000E+00 0. -1.
         13    1    1    0    0    0  0.32573053219E+01  0.11738917110E+02 -0.99437273414E+01  0.15725809688E+02  0.10566000000E+00 0.  1.
         22    1    1    0    0    0 -0.11252952212E+02 -0.47229774891E+02  0.39349684313E+02  0.62495425635E+02  0.00000000000E+00 0.  1.
</event>
<event>
 4    1  0.9957587E-003  0.9118800E+02  0.7818608E-02  0.1130116E+00
         25   -1    0    0    0    0  0.00000000000E+00  0.00000000000E+00  0.99999998245E-14  0.12500000000E+03  0.12500000000E+03 0.  0.
        -13    1    1    0    0    0 -0.24644594796E+02 -0.42137716035E+01  0.47341728402E+02  0.53538419251E+02  0.10566000000E+00 0.  1.
         13    1    1    0    0    0  0.21344813284E+02  0.15826170368E+01  0.24030071950E+01  0.21538136837E+02  0.10566000000E+00 0. -1.
         22    1    1    0    0    0  0.32997815128E+01  0.26311545667E+01 -0.49744735597E+02  0.49923443912E+02  0.00000000000E+00 0.  1.
</event>
<event>
 4    1  0.9957587E-003  0.9118800E+02  0.7818608E-02  0.1130116E+00
         25   -1    0    0    0    0  0.00000000000E+00  0.00000000000E+00  0.99999998245E-14  0.12500000000E+03  0.12500000000E+03 0.  0.
        -13    1    1    0    0    0 -0.14825476502E+02  0.94902312118E+01  0.94302533961E+01  0.19969979597E+02  0.10566000000E+00 0. -1.
         13    1    1    0    0    0 -0.34404017887E+02  0.25451228271E+02  0.46308614042E+01  0.43044831381E+02  0.10566000000E+00 0.  1.
         22    1    1    0    0    0  0.49229494389E+02 -0.34941459482E+02 -0.14061114800E+02  0.61985189021E+02  0.00000000000E+00 0.  1.
</event>
<event>
 4    1  0.9957587E-003  0.9118800E+02  0.7818608E-02  0.1130116E+00
         25   -1    0    0    0    0  0.00000000000E+00  0.00000000000E+00  0.99999998245E-14  0.12500000000E+03  0.12500000000E+03 0.  0.
        -13    1    1    0    0    0  0.51541676831E+01  0.28598905085E+02 -0.19050176640E+02  0.34747420201E+02  0.10566000000E+00 0. -1.
         13    1    1    0    0    0  0.47368031785E+01  0.22052113090E+02 -0.16186856126E+02  0.27762537192E+02  0.10566000000E+00 0.  1.
         22    1    1    0    0    0 -0.98909708616E+01 -0.50651018175E+02  0.35237032767E+02  0.62490042606E+02  0.00000000000E+00 0.  1.
</event>
<event>
 4    1  0.9957587E-003  0.9118800E+02  0.7818608E-02  0.1130116E+00
         25   -1    0    0    0    0  0.00000000000E+00  0.00000000000E+00  0.99999998245E-14  0.12500000000E+03  0.12500000000E+03 0.  0.
        -13    1    1    0    0    0  0.10552222917E+02 -0.21690860837E+01 -0.18414200029E+01  0.10929608163E+02  0.10566000000E+00 0.  1.
         13    1    1    0    0    0  0.48845487553E+02 -0.58083808151E+01 -0.15683743659E+02  0.51629545042E+02  0.10566000000E+00 0. -1.
         22    1    1    0    0    0 -0.59397710470E+02  0.79774668989E+01  0.17525163662E+02  0.62440846796E+02  0.00000000000E+00 0. -1.
</event>
<event>
 4    1  0.9957587E-003  0.9118800E+02  0.7818608E-02  0.1130116E+00
         25   -1    0    0    0    0  0.00000000000E+00  0.00000000000E+00  0.99999998245E-14  0.12500000000E+03  0.12500000000E+03 0.  0.
        -13    1    1    0    0    0  0.21846859509E+01 -0.37706341175E+01  0.65319023939E+01  0.78528623616E+01  0.10566000000E+00 0.  1.
         13    1    1    0    0    0  0.12466792181E+02 -0.47184900520E+02  0.25640243152E+02  0.55129565365E+02  0.10566000000E+00 0. -1.
         22    1    1    0    0    0 -0.14651478131E+02  0.50955534638E+02 -0.32172145546E+02  0.62017572273E+02  0.00000000000E+00 0. -1.
</event>
<event>
 4    1  0.9957587E-003  0.9118800E+02  0.7818608E-02  0.1130116E+00
         25   -1    0    0    0    0  0.00000000000E+00  0.00000000000E+00  0.99999998245E-14  0.12500000000E+03  0.12500000000E+03 0.  0.
        -13    1    1    0    0    0 -0.10988699012E+01 -0.59431419139E+01  0.14888950058E+02  0.16069239209E+02  0.10566000000E+00 0.  1.
         13    1    1    0    0    0 -0.35013161502E+01 -0.16264058859E+02  0.43349520220E+02  0.46432433628E+02  0.10566000000E+00 0.  1.
         22    1    1    0    0    0  0.46001860514E+01  0.22207200773E+02 -0.58238470278E+02  0.62498327163E+02  0.00000000000E+00 0.  1.
</event>
<event>
 4    1  0.9957587E-003  0.9118800E+02  0.7818608E-02  0.1130116E+00
         25   -1    0    0    0    0  0.00000000000E+00  0.00000000000E+00  0.99999998245E-14  0.12500000000E+03  0.12500000000E+03 0.  0.
        -13    1    1    0    0    0 -0.31889230924E+01  0.36915079472E+01  0.71667878021E+01  0.86700907059E+01  0.10566000000E+00 0.  1.
         13    1    1    0    0    0 -0.21435959842E+02  0.19848199719E+02  0.45222932030E+02  0.53838426350E+02  0.10566000000E+00 0. -1.
         22    1    1    0    0    0  0.24624882935E+02 -0.23539707666E+02 -0.52389719832E+02  0.62491482944E+02  0.00000000000E+00 0. -1.
</event>
<event>
 4    1  0.9957587E-003  0.9118800E+02  0.7818608E-02  0.1130116E+00
         25   -1    0    0    0    0  0.00000000000E+00  0.00000000000E+00  0.99999998245E-14  0.12500000000E+03  0.12500000000E+03 0.  0.
        -13    1    1    0    0    0  0.47968519017E+02 -0.25894524851E+02  0.40809562932E+01  0.54664161955E+02  0.10566000000E+00 0. -1.
         13    1    1    0    0    0 -0.40393347179E+01  0.22669207619E+02  0.84704163885E+01  0.24535042630E+02  0.10566000000E+00 0.  1.
         22    1    1    0    0    0 -0.43929184299E+02  0.32253172325E+01 -0.12551372682E+02  0.45800795415E+02  0.00000000000E+00 0. -1.
</event>
<event>
 4    1  0.9957587E-003  0.9118800E+02  0.7818608E-02  0.1130116E+00
         25   -1    0    0    0    0  0.00000000000E+00  0.00000000000E+00  0.99999998245E-14  0.12500000000E+03  0.12500000000E+03 0.  0.
        -13    1    1    0    0    0  0.29853068283E+01  0.40467695890E+02 -0.15948393454E+02  0.43599413818E+02  0.10566000000E+00 0. -1.
         13    1    1    0    0    0  0.23320365139E+01  0.18196803666E+02 -0.47739713757E+01  0.18956899132E+02  0.10566000000E+00 0.  1.
         22    1    1    0    0    0 -0.53173433421E+01 -0.58664499556E+02  0.20722364829E+02  0.62443687050E+02  0.00000000000E+00 0. -1.
</event>
<event>
 4    1  0.9957587E-003  0.9118800E+02  0.7818608E-02  0.1130116E+00
         25   -1    0    0    0    0  0.00000000000E+00  0.00000000000E+00  0.99999998245E-14  0.12500000000E+03  0.12500000000E+03 0.  0.
        -13    1    1    0    0    0 -0.19311065768E+02  0.15806739229E+02  0.43694261184E+02  0.50318683315E+02  0.10566000000E+00 0. -1.
         13    1    1    0    0    0 -0.46268839434E+01  0.39380408437E+01  0.10557940750E+02  0.12181851158E+02  0.10566000000E+00 0. -1.
         22    1    1    0    0    0  0.23937949711E+02 -0.19744780072E+02 -0.54252201934E+02  0.62499465527E+02  0.00000000000E+00 0. -1.
</event>
<event>
 4    1  0.9957587E-003  0.9118800E+02  0.7818608E-02  0.1130116E+00
         25   -1    0    0    0    0  0.00000000000E+00  0.00000000000E+00  0.99999998245E-14  0.12500000000E+03  0.12500000000E+03 0.  0.
        -13    1    1    0    0    0  0.40494511903E+01  0.18898737717E+02 -0.81666806054E+00  0.19345243679E+02  0.10566000000E+00 0.  1.
         13    1    1    0    0    0  0.90853344872E+01  0.42154294842E+02 -0.16779775683E+01  0.43155007231E+02  0.10566000000E+00 0.  1.
         22    1    1    0    0    0 -0.13134785677E+02 -0.61053032559E+02  0.24946456288E+01  0.62499749090E+02  0.00000000000E+00 0.  1.
</event>
<event>
 4    1  0.9957587E-003  0.9118800E+02  0.7818608E-02  0.1130116E+00
         25   -1    0    0    0    0  0.00000000000E+00  0.00000000000E+00  0.99999998245E-14  0.12500000000E+03  0.12500000000E+03 0.  0.
        -13    1    1    0    0    0  0.43564179016E+01 -0.32854335931E+01 -0.23378336292E+01  0.59370936443E+01  0.10566000000E+00 0.  1.
         13    1    1    0    0    0  0.90957640751E+01 -0.26422962027E+02 -0.50067819095E+02  0.57338499451E+02  0.10566000000E+00 0. -1.
         22    1    1    0    0    0 -0.13452181977E+02  0.29708395620E+02  0.52405652724E+02  0.61724406904E+02  0.00000000000E+00 0. -1.
</event>
<event>
 4    1  0.9957587E-003  0.9118800E+02  0.7818608E-02  0.1130116E+00
         25   -1    0    0    0    0  0.00000000000E+00  0.00000000000E+00  0.99999998245E-14  0.12500000000E+03  0.12500000000E+03 0.  0.
        -13    1    1    0    0    0 -0.13711717802E+02 -0.40067895499E+02  0.14749182730E+02  0.44844141312E+02  0.10566000000E+00 0. -1.
         13    1    1    0    0    0  0.42989199509E+01 -0.14796641837E+02  0.10890331703E+02  0.18868805236E+02  0.10566000000E+00 0.  1.
         22    1    1    0    0    0  0.94127978515E+01  0.54864537336E+02 -0.25639514433E+02  0.61287053452E+02  0.00000000000E+00 0. -1.
</event>
<event>
 4    1  0.9957587E-003  0.9118800E+02  0.7818608E-02  0.1130116E+00
         25   -1    0    0    0    0  0.00000000000E+00  0.00000000000E+00  0.99999998245E-14  0.12500000000E+03  0.12500000000E+03 0.  0.
        -13    1    1    0    0    0 -0.40252533763E+02  0.45417527169E+01 -0.41898024568E+02  0.58278208782E+02  0.10566000000E+00 0. -1.
         13    1    1    0    0    0 -0.57024998389E+01  0.14952019548E-01  0.54781106778E+01  0.79081975575E+01  0.10566000000E+00 0.  1.
         22    1    1    0    0    0  0.45955033602E+02 -0.45567047364E+01  0.36419913890E+02  0.58813593660E+02  0.00000000000E+00 0. -1.
</event>
<event>
 4    1  0.9957587E-003  0.9118800E+02  0.7818608E-02  0.1130116E+00
         25   -1    0    0    0    0  0.00000000000E+00  0.00000000000E+00  0.99999998245E-14  0.12500000000E+03  0.12500000000E+03 0.  0.
        -13    1    1    0    0    0 -0.23984238157E+01  0.13996370845E+01  0.21157907901E+02  0.21339626321E+02  0.10566000000E+00 0. -1.
         13    1    1    0    0    0 -0.15720068427E+02 -0.22835691295E+02  0.32734591239E+02  0.42897015932E+02  0.10566000000E+00 0.  1.
         22    1    1    0    0    0  0.18118492242E+02  0.21436054210E+02 -0.53892499139E+02  0.60763357747E+02  0.00000000000E+00 0.  1.
</event>
<event>
 4    1  0.9957587E-003  0.9118800E+02  0.7818608E-02  0.1130116E+00
         25   -1    0    0    0    0  0.00000000000E+00  0.00000000000E+00  0.99999998245E-14  0.12500000000E+03  0.12500000000E+03 0.  0.
        -13    1    1    0    0    0 -0.28471294628E+01 -0.92870803316E+00 -0.34060267889E+01  0.45366096714E+01  0.10566000000E+00 0. -1.
         13    1    1    0    0    0 -0.35858635551E+02 -0.13529571630E+02 -0.43486084597E+02  0.57965004699E+02  0.10566000000E+00 0.  1.
         22    1    1    0    0    0  0.38705765014E+02  0.14458279663E+02  0.46892111386E+02  0.62498385630E+02  0.00000000000E+00 0.  1.
</event>
<event>
 4    1  0.9957587E-003  0.9118800E+02  0.7818608E-02  0.1130116E+00
         25   -1    0    0    0    0  0.00000000000E+00  0.00000000000E+00  0.99999998245E-14  0.12500000000E+03  0.12500000000E+03 0.  0.
        -13    1    1    0    0    0  0.33741152357E+02 -0.84689472727E+01 -0.41518719623E+02  0.54166444165E+02  0.10566000000E+00 0.  1.
         13    1    1    0    0    0  0.54175561467E+01 -0.25639300718E+01 -0.58611097240E+01  0.83837594936E+01  0.10566000000E+00 0. -1.
         22    1    1    0    0    0 -0.39158708504E+02  0.11032877345E+02  0.47379829347E+02  0.62449796342E+02  0.00000000000E+00 0.  1.
</event>
<event>
 4    1  0.9957587E-003  0.9118800E+02  0.7818608E-02  0.1130116E+00
         25   -1    0    0    0    0  0.00000000000E+00  0.00000000000E+00  0.99999998245E-14  0.12500000000E+03  0.12500000000E+03 0.  0.
        -13    1    1    0    0    0 -0.13233336525E+02 -0.17039384078E+02  0.12435380292E+01  0.21610630630E+02  0.10566000000E+00 0.  1.
         13    1    1    0    0    0 -0.24969274389E+02 -0.32152705307E+02  0.38848840335E+01  0.40894554773E+02  0.10566000000E+00 0. -1.
         22    1    1    0    0    0  0.38202610914E+02  0.49192089385E+02 -0.51284220627E+01  0.62494814598E+02  0.00000000000E+00 0. -1.
</event>
<event>
 4    1  0.9957587E-003  0.9118800E+02  0.7818608E-02  0.1130116E+00
         25   -1    0    0    0    0  0.00000000000E+00  0.00000000000E+00  0.99999998245E-14  0.12500000000E+03  0.12500000000E+03 0.  0.
        -13    1    1    0    0    0 -0.81893829117E-01 -0.15801679952E+00 -0.85566057647E+00  0.88033798390E+00  0.10566000000E+00 0. -1.
         13    1    1    0    0    0  0.45308327460E+00  0.41813051411E+02 -0.45500321671E+02  0.61796658396E+02  0.10566000000E+00 0.  1.
         22    1    1    0    0    0 -0.37118944548E+00 -0.41655034612E+02  0.46355982247E+02  0.62323003620E+02  0.00000000000E+00 0.  1.
</event>
<event>
 4    1  0.9957587E-003  0.9118800E+02  0.7818608E-02  0.1130116E+00
         25   -1    0    0    0    0  0.00000000000E+00  0.00000000000E+00  0.99999998245E-14  0.12500000000E+03  0.12500000000E+03 0.  0.
        -13    1    1    0    0    0 -0.41030572977E+02  0.25147452004E+02 -0.10500005391E+02  0.49256101534E+02  0.10566000000E+00 0.  1.
         13    1    1    0    0    0 -0.77360836978E+01  0.74417626717E+01 -0.89217955614E+01  0.13958381809E+02  0.10566000000E+00 0. -1.
         22    1    1    0    0    0  0.48766656675E+02 -0.32589214675E+02  0.19421800953E+02  0.61785516657E+02  0.00000000000E+00 0.  1.
</event>
<event>
 4    1  0.9957587E-003  0.9118800E+02  0.7818608E-02  0.1130116E+00
         25   -1    0    0    0    0  0.00000000000E+00  0.00000000000E+00  0.99999998245E-14  0.12500000000E+03  0.12500000000E+03 0.  0.
        -13    1    1    0    0    0 -0.35642774132E+01  0.27786207381E+02 -0.80227309713E+01  0.29140225983E+02  0.10566000000E+00 0.  1.
         13    1    1    0    0    0 -0.49081939894E+01  0.33325081664E+02  0.53423922203E+01  0.34105773043E+02  0.10566000000E+00 0. -1.
         22    1    1    0    0    0  0.84724714026E+01 -0.61111289045E+02  0.26803387511E+01  0.61754000974E+02  0.00000000000E+00 0. -1.
</event>
<event>
 4    1  0.9957587E-003  0.9118800E+02  0.7818608E-02  0.1130116E+00
         25   -1    0    0    0    0  0.00000000000E+00  0.00000000000E+00  0.99999998245E-14  0.12500000000E+03  0.12500000000E+03 0.  0.
        -13    1    1    0    0    0  0.61384722341E+01  0.18073710405E+02 -0.17515248575E+02  0.25906272327E+02  0.10566000000E+00 0. -1.
         13    1    1    0    0    0  0.10316223031E+02  0.24582905873E+02 -0.25082477437E+02  0.36604447233E+02  0.10566000000E+00 0.  1.
         22    1    1    0    0    0 -0.16454695265E+02 -0.42656616278E+02  0.42597726012E+02  0.62489280441E+02  0.00000000000E+00 0. -1.
</event>
<event>
 4    1  0.9957587E-003  0.9118800E+02  0.7818608E-02  0.1130116E+00
         25   -1    0    0    0    0  0.00000000000E+00  0.00000000000E+00  0.99999998245E-14  0.12500000000E+03  0.12500000000E+03 0.  0.
        -13    1    1    0    0    0  0.10253237472E+02 -0.90922649699E+01  0.14308095675E+02  0.19812393263E+02  0.10566000000E+00 0. -1.
         13    1    1    0    0    0  0.11469705109E+02 -0.25567340821E+02  0.32574381347E+02  0.42969111419E+02  0.10566000000E+00 0.  1.
         22    1    1    0    0    0 -0.21722942581E+02  0.34659605790E+02 -0.46882477022E+02  0.62218495318E+02  0.00000000000E+00 0.  1.
</event>
<event>
 4    1  0.9957587E-003  0.9118800E+02  0.7818608E-02  0.1130116E+00
         25   -1    0    0    0    0  0.00000000000E+00  0.00000000000E+00  0.99999998245E-14  0.12500000000E+03  0.12500000000E+03 0.  0.
        -13    1    1    0    0    0  0.66650776413E+01 -0.67531375219E-01 -0.24526972664E+01  0.71031477788E+01  0.10566000000E+00 0.  1.
         13    1    1    0    0    0  0.28282119601E+02 -0.10504058201E+01  0.50847002382E+02  0.58192872904E+02  0.10566000000E+00 0. -1.
         22    1    1    0    0    0 -0.34947197242E+02  0.11179371954E+01 -0.48394305116E+02  0.59703979317E+02  0.00000000000E+00 0. -1.
</event>
<event>
 4    1  0.9957587E-003  0.9118800E+02  0.7818608E-02  0.1130116E+00
         25   -1    0    0    0    0  0.00000000000E+00  0.00000000000E+00  0.99999998245E-14  0.12500000000E+03  0.12500000000E+03 0.  0.
        -13    1    1    0    0    0  0.56577457127E+02 -0.67168262209E+00  0.15845675271E+02  0.58758458126E+02  0.10566000000E+00 0.  1.
         13    1    1    0    0    0  0.32227213391E+01  0.27007908401E-01  0.20459817107E+01  0.38188830111E+01  0.10566000000E+00 0. -1.
         22    1    1    0    0    0 -0.59800178466E+02  0.64467471369E+00 -0.17891656982E+02  0.62422658863E+02  0.00000000000E+00 0.  1.
</event>
<event>
 4    1  0.9957587E-003  0.9118800E+02  0.7818608E-02  0.1130116E+00
         25   -1    0    0    0    0  0.00000000000E+00  0.00000000000E+00  0.99999998245E-14  0.12500000000E+03  0.12500000000E+03 0.  0.
        -13    1    1    0    0    0  0.20038084911E+01 -0.10677146475E+00 -0.72002482688E+01  0.74753854604E+01  0.10566000000E+00 0.  1.
         13    1    1    0    0    0  0.12585364451E+02 -0.74393095961E+00 -0.53563963288E+02  0.55027758075E+02  0.10566000000E+00 0. -1.
         22    1    1    0    0    0 -0.14589172942E+02  0.85070242436E+00  0.60764211557E+02  0.62496856464E+02  0.00000000000E+00 0. -1.
</event>
<event>
 4    1  0.9957587E-003  0.9118800E+02  0.7818608E-02  0.1130116E+00
         25   -1    0    0    0    0  0.00000000000E+00  0.00000000000E+00  0.99999998245E-14  0.12500000000E+03  0.12500000000E+03 0.  0.
        -13    1    1    0    0    0  0.22370448603E+01 -0.50424462580E+01 -0.32854209486E+01  0.64215098549E+01  0.10566000000E+00 0. -1.
         13    1    1    0    0    0  0.20311371483E+02 -0.44067654138E+02 -0.28113668493E+02  0.56079403286E+02  0.10566000000E+00 0. -1.
         22    1    1    0    0    0 -0.22548416343E+02  0.49110100396E+02  0.31399089441E+02  0.62499086859E+02  0.00000000000E+00 0. -1.
</event>
<event>
 4    1  0.9957587E-003  0.9118800E+02  0.7818608E-02  0.1130116E+00
         25   -1    0    0    0    0  0.00000000000E+00  0.00000000000E+00  0.99999998245E-14  0.12500000000E+03  0.12500000000E+03 0.  0.
        -13    1    1    0    0    0  0.30737405433E+02  0.35728176188E+02 -0.82581796400E+01  0.47848713269E+02  0.10566000000E+00 0. -1.
         13    1    1    0    0    0  0.47328073281E+01  0.76699646287E+01 -0.14159653024E+02  0.16784956372E+02  0.10566000000E+00 0.  1.
         22    1    1    0    0    0 -0.35470212761E+02 -0.43398140817E+02  0.22417832664E+02  0.60366330359E+02  0.00000000000E+00 0. -1.
</event>
<event>
 4    1  0.9957587E-003  0.9118800E+02  0.7818608E-02  0.1130116E+00
         25   -1    0    0    0    0  0.00000000000E+00  0.00000000000E+00  0.99999998245E-14  0.12500000000E+03  0.12500000000E+03 0.  0.
        -13    1    1    0    0    0 -0.14963240055E+01  0.30323546321E+01 -0.13371733849E+01  0.36377681126E+01  0.10566000000E+00 0.  1.
         13    1    1    0    0    0 -0.24811136499E+02  0.48867203606E+02 -0.21477042311E+02  0.58863151403E+02  0.10566000000E+00 0.  1.
         22    1    1    0    0    0  0.26307460505E+02 -0.51899558238E+02  0.22814215696E+02  0.62499080484E+02  0.00000000000E+00 0.  1.
</event>
<event>
 4    1  0.9957587E-003  0.9118800E+02  0.7818608E-02  0.1130116E+00
         25   -1    0    0    0    0  0.00000000000E+00  0.00000000000E+00  0.99999998245E-14  0.12500000000E+03  0.12500000000E+03 0.  0.
        -13    1    1    0    0    0 -0.96677103561E+01 -0.87055896800E+01  0.42020030798E+01  0.13671865605E+02  0.10566000000E+00 0.  1.
         13    1    1    0    0    0 -0.34885310897E+02 -0.34154643077E+02  0.39019617249E+01  0.48977148033E+02  0.10566000000E+00 0. -1.
         22    1    1    0    0    0  0.44553021253E+02  0.42860232757E+02 -0.81039648047E+01  0.62350986362E+02  0.00000000000E+00 0. -1.
</event>
<event>
 4    1  0.9957587E-003  0.9118800E+02  0.7818608E-02  0.1130116E+00
         25   -1    0    0    0    0  0.00000000000E+00  0.00000000000E+00  0.99999998245E-14  0.12500000000E+03  0.12500000000E+03 0.  0.
        -13    1    1    0    0    0  0.21302648381E+02  0.11243153439E+02  0.47333578410E+02  0.53110169802E+02  0.10566000000E+00 0.  1.
         13    1    1    0    0    0  0.30140160825E+01  0.25772760776E+01  0.85345028732E+01  0.94114583490E+01  0.10566000000E+00 0. -1.
         22    1    1    0    0    0 -0.24316664464E+02 -0.13820429517E+02 -0.55868081283E+02  0.62478371849E+02  0.00000000000E+00 0.  1.
</event>
<event>
 4    1  0.9957587E-003  0.9118800E+02  0.7818608E-02  0.1130116E+00
         25   -1    0    0    0    0  0.00000000000E+00  0.00000000000E+00  0.99999998245E-14  0.12500000000E+03  0.12500000000E+03 0.  0.
        -13    1    1    0    0    0 -0.27655266718E+01  0.38447396599E+02 -0.14012990212E+02  0.41014942420E+02  0.10566000000E+00 0.  1.
         13    1    1    0    0    0 -0.89036881996E+00  0.20279649079E+02 -0.70487392096E+01  0.21488434375E+02  0.10566000000E+00 0. -1.
         22    1    1    0    0    0  0.36558954917E+01 -0.58727045677E+02  0.21061729422E+02  0.62496623205E+02  0.00000000000E+00 0.  1.
</event>
<event>
 4    1  0.9957587E-003  0.9118800E+02  0.7818608E-02  0.1130116E+00
         25   -1    0    0    0    0  0.00000000000E+00  0.00000000000E+00  0.99999998245E-14  0.12500000000E+03  0.12500000000E+03 0.  0.
        -13    1    1    0    0    0  0.51385331994E+01  0.32140438459E+02  0.88307678974E+01  0.33725449344E+02  0.10566000000E+00 0. -1.
         13    1    1    0    0    0 -0.93186945589E+01  0.27190554985E+02 -0.13213999424E+02  0.31635190745E+02  0.10566000000E+00 0.  1.
         22    1    1    0    0    0  0.41801613595E+01 -0.59330993443E+02  0.43832315267E+01  0.59639359911E+02  0.00000000000E+00 0.  1.
</event>
<event>
 4    1  0.9957587E-003  0.9118800E+02  0.7818608E-02  0.1130116E+00
         25   -1    0    0    0    0  0.00000000000E+00  0.00000000000E+00  0.99999998245E-14  0.12500000000E+03  0.12500000000E+03 0.  0.
        -13    1    1    0    0    0 -0.48013082781E+02 -0.24301697603E+02  0.88201950536E+01  0.54531051974E+02  0.10566000000E+00 0.  1.
         13    1    1    0    0    0 -0.69808768718E+01 -0.35183121882E+01  0.15557258941E+01  0.79713618438E+01  0.10566000000E+00 0. -1.
         22    1    1    0    0    0  0.54993959653E+02  0.27820009791E+02 -0.10375920948E+02  0.62497586182E+02  0.00000000000E+00 0.  1.
</event>
<event>
 4    1  0.9957587E-003  0.9118800E+02  0.7818608E-02  0.1130116E+00
         25   -1    0    0    0    0  0.00000000000E+00  0.00000000000E+00  0.99999998245E-14  0.12500000000E+03  0.12500000000E+03 0.  0.
        -13    1    1    0    0    0 -0.23813268096E+00 -0.94541889564E+01  0.89441477096E+01  0.13017193948E+02  0.10566000000E+00 0.  1.
         13    1    1    0    0    0  0.31157419573E+00 -0.35941291339E+02  0.34012415917E+02  0.49484635011E+02  0.10566000000E+00 0. -1.
         22    1    1    0    0    0 -0.73441514768E-01  0.45395480295E+02 -0.42956563627E+02  0.62498171041E+02  0.00000000000E+00 0. -1.
</event>
<event>
 4    1  0.9957587E-003  0.9118800E+02  0.7818608E-02  0.1130116E+00
         25   -1    0    0    0    0  0.00000000000E+00  0.00000000000E+00  0.99999998245E-14  0.12500000000E+03  0.12500000000E+03 0.  0.
        -13    1    1    0    0    0  0.22014594313E+02  0.36841404685E+02 -0.33649477495E+02  0.54536501187E+02  0.10566000000E+00 0.  1.
         13    1    1    0    0    0  0.95577027380E+01  0.29058765483E+01  0.84659932770E+00  0.10026050798E+02  0.10566000000E+00 0. -1.
         22    1    1    0    0    0 -0.31572297051E+02 -0.39747281234E+02  0.32802878167E+02  0.60437448015E+02  0.00000000000E+00 0.  1.
</event>
<event>
 4    1  0.9957587E-003  0.9118800E+02  0.7818608E-02  0.1130116E+00
         25   -1    0    0    0    0  0.00000000000E+00  0.00000000000E+00  0.99999998245E-14  0.12500000000E+03  0.12500000000E+03 0.  0.
        -13    1    1    0    0    0 -0.54576945009E+01 -0.12380470664E+02  0.10430844283E+02  0.17084383501E+02  0.10566000000E+00 0.  1.
         13    1    1    0    0    0 -0.15616564971E+02 -0.31694712125E+02  0.28541480326E+02  0.45420910839E+02  0.10566000000E+00 0. -1.
         22    1    1    0    0    0  0.21074259472E+02  0.44075182789E+02 -0.38972324609E+02  0.62494705660E+02  0.00000000000E+00 0. -1.
</event>
<event>
 4    1  0.9957587E-003  0.9118800E+02  0.7818608E-02  0.1130116E+00
         25   -1    0    0    0    0  0.00000000000E+00  0.00000000000E+00  0.99999998245E-14  0.12500000000E+03  0.12500000000E+03 0.  0.
        -13    1    1    0    0    0  0.30161006367E+02 -0.61249105812E+01 -0.25616483529E+02  0.40042680069E+02  0.10566000000E+00 0. -1.
         13    1    1    0    0    0  0.19715681147E+02  0.44713795077E+00  0.28520305027E+02  0.34674586923E+02  0.10566000000E+00 0.  1.
         22    1    1    0    0    0 -0.49876687514E+02  0.56777726304E+01 -0.29038214980E+01  0.50282733008E+02  0.00000000000E+00 0. -1.
</event>
<event>
 4    1  0.9957587E-003  0.9118800E+02  0.7818608E-02  0.1130116E+00
         25   -1    0    0    0    0  0.00000000000E+00  0.00000000000E+00  0.99999998245E-14  0.12500000000E+03  0.12500000000E+03 0.  0.
        -13    1    1    0    0    0 -0.18793533169E+01 -0.15385838971E+01  0.49767484889E+01  0.55388084329E+01  0.10566000000E+00 0.  1.
         13    1    1    0    0    0 -0.18262403099E+02 -0.19217690893E+02  0.50422025383E+02  0.56966892297E+02  0.10566000000E+00 0. -1.
         22    1    1    0    0    0  0.20141756416E+02  0.20756274791E+02 -0.55398773872E+02  0.62494299270E+02  0.00000000000E+00 0. -1.
</event>
<event>
 4    1  0.9957587E-003  0.9118800E+02  0.7818608E-02  0.1130116E+00
         25   -1    0    0    0    0  0.00000000000E+00  0.00000000000E+00  0.99999998245E-14  0.12500000000E+03  0.12500000000E+03 0.  0.
        -13    1    1    0    0    0 -0.14350095126E+02 -0.19536671740E+02 -0.94771144721E+01  0.26027555313E+02  0.10566000000E+00 0.  1.
         13    1    1    0    0    0 -0.20345206097E+02 -0.27028191210E+02 -0.13632818611E+02  0.36473489531E+02  0.10566000000E+00 0. -1.
         22    1    1    0    0    0  0.34695301223E+02  0.46564862950E+02  0.23109933083E+02  0.62498955157E+02  0.00000000000E+00 0.  1.
</event>
<event>
 4    1  0.9957587E-003  0.9118800E+02  0.7818608E-02  0.1130116E+00
         25   -1    0    0    0    0  0.00000000000E+00  0.00000000000E+00  0.99999998245E-14  0.12500000000E+03  0.12500000000E+03 0.  0.
        -13    1    1    0    0    0  0.25697946659E+02 -0.41707019443E+02  0.11775062176E+02  0.50383759155E+02  0.10566000000E+00 0.  1.
         13    1    1    0    0    0  0.76886430025E+01 -0.93159701718E+01  0.16175813443E+01  0.12187299328E+02  0.10566000000E+00 0. -1.
         22    1    1    0    0    0 -0.33386589661E+02  0.51022989615E+02 -0.13392643520E+02  0.62428941517E+02  0.00000000000E+00 0.  1.
</event>
<event>
 4    1  0.9957587E-003  0.9118800E+02  0.7818608E-02  0.1130116E+00
         25   -1    0    0    0    0  0.00000000000E+00  0.00000000000E+00  0.99999998245E-14  0.12500000000E+03  0.12500000000E+03 0.  0.
        -13    1    1    0    0    0  0.31241831020E+02  0.12179241312E+02  0.48840585435E+02  0.59243563988E+02  0.10566000000E+00 0.  1.
         13    1    1    0    0    0  0.15078371523E+01  0.76876550430E+00  0.27865626197E+01  0.32620037626E+01  0.10566000000E+00 0. -1.
         22    1    1    0    0    0 -0.32749668172E+02 -0.12948006816E+02 -0.51627148054E+02  0.62494432249E+02  0.00000000000E+00 0.  1.
</event>
<event>
 4    1  0.9957587E-003  0.9118800E+02  0.7818608E-02  0.1130116E+00
         25   -1    0    0    0    0  0.00000000000E+00  0.00000000000E+00  0.99999998245E-14  0.12500000000E+03  0.12500000000E+03 0.  0.
        -13    1    1    0    0    0  0.21070308196E+02 -0.11475083428E+02  0.67582400757E+01  0.24926299367E+02  0.10566000000E+00 0.  1.
         13    1    1    0    0    0  0.27205933460E+02 -0.19557695231E+02 -0.22746717981E+02  0.40498032065E+02  0.10566000000E+00 0. -1.
         22    1    1    0    0    0 -0.48276241656E+02  0.31032778659E+02  0.15988477906E+02  0.59575668569E+02  0.00000000000E+00 0. -1.
</event>
<event>
 4    1  0.9957587E-003  0.9118800E+02  0.7818608E-02  0.1130116E+00
         25   -1    0    0    0    0  0.00000000000E+00  0.00000000000E+00  0.99999998245E-14  0.12500000000E+03  0.12500000000E+03 0.  0.
        -13    1    1    0    0    0  0.11917184149E+02 -0.49537035218E+01  0.37035914111E+02  0.39220256943E+02  0.10566000000E+00 0.  1.
         13    1    1    0    0    0  0.14290895875E+02  0.54495578771E+01  0.18717341325E+02  0.24171831050E+02  0.10566000000E+00 0. -1.
         22    1    1    0    0    0 -0.26208080025E+02 -0.49585435532E+00 -0.55753255436E+02  0.61607912007E+02  0.00000000000E+00 0.  1.
</event>
<event>
 4    1  0.9957587E-003  0.9118800E+02  0.7818608E-02  0.1130116E+00
         25   -1    0    0    0    0  0.00000000000E+00  0.00000000000E+00  0.99999998245E-14  0.12500000000E+03  0.12500000000E+03 0.  0.
        -13    1    1    0    0    0 -0.20853761779E+02 -0.12234562724E+02 -0.40837189454E+00  0.24181435793E+02  0.10566000000E+00 0.  1.
         13    1    1    0    0    0 -0.33028471567E+02 -0.19384171665E+02 -0.13345643980E+01  0.38319946129E+02  0.10566000000E+00 0.  1.
         22    1    1    0    0    0  0.53882233346E+02  0.31618734389E+02  0.17429362926E+01  0.62498618078E+02  0.00000000000E+00 0.  1.
</event>
<event>
 4    1  0.9957587E-003  0.9118800E+02  0.7818608E-02  0.1130116E+00
         25   -1    0    0    0    0  0.00000000000E+00  0.00000000000E+00  0.99999998245E-14  0.12500000000E+03  0.12500000000E+03 0.  0.
        -13    1    1    0    0    0  0.37956079510E+01 -0.27492860576E+02  0.21936308329E+02  0.35376218134E+02  0.10566000000E+00 0.  1.
         13    1    1    0    0    0  0.29480304167E+01 -0.21170132096E+02  0.16698494358E+02  0.27124089923E+02  0.10566000000E+00 0.  1.
         22    1    1    0    0    0 -0.67436383677E+01  0.48662992672E+02 -0.38634802687E+02  0.62499691942E+02  0.00000000000E+00 0.  1.
</event>
<event>
 4    1  0.9957587E-003  0.9118800E+02  0.7818608E-02  0.1130116E+00
         25   -1    0    0    0    0  0.00000000000E+00  0.00000000000E+00  0.99999998245E-14  0.12500000000E+03  0.12500000000E+03 0.  0.
        -13    1    1    0    0    0 -0.19542306018E+02 -0.25204887307E+02 -0.20121569271E+02  0.37710433339E+02  0.10566000000E+00 0.  1.
         13    1    1    0    0    0 -0.13377865121E+02 -0.16728394759E+02 -0.12488859492E+02  0.24794943877E+02  0.10566000000E+00 0. -1.
         22    1    1    0    0    0  0.32920171140E+02  0.41933282066E+02  0.32610428764E+02  0.62494622783E+02  0.00000000000E+00 0.  1.
</event>
<event>
 4    1  0.9957587E-003  0.9118800E+02  0.7818608E-02  0.1130116E+00
         25   -1    0    0    0    0  0.00000000000E+00  0.00000000000E+00  0.99999998245E-14  0.12500000000E+03  0.12500000000E+03 0.  0.
        -13    1    1    0    0    0 -0.27200769045E+02  0.19708451310E+02 -0.14672745291E+01  0.33622447089E+02  0.10566000000E+00 0. -1.
         13    1    1    0    0    0 -0.23629738304E+02  0.16573574125E+02 -0.96953574276E+00  0.28879041798E+02  0.10566000000E+00 0. -1.
         22    1    1    0    0    0  0.50830507349E+02 -0.36282025435E+02  0.24368102719E+01  0.62498511113E+02  0.00000000000E+00 0. -1.
</event>
<event>
 4    1  0.9957587E-003  0.9118800E+02  0.7818608E-02  0.1130116E+00
         25   -1    0    0    0    0  0.00000000000E+00  0.00000000000E+00  0.99999998245E-14  0.12500000000E+03  0.12500000000E+03 0.  0.
        -13    1    1    0    0    0 -0.99223445703E+01  0.69759461711E+01 -0.38703200115E+00  0.12135802592E+02  0.10566000000E+00 0.  1.
         13    1    1    0    0    0 -0.40949405382E+02  0.29279413267E+02 -0.15645686612E+01  0.50364639198E+02  0.10566000000E+00 0.  1.
         22    1    1    0    0    0  0.50871749953E+02 -0.36255359438E+02  0.19516006624E+01  0.62499558210E+02  0.00000000000E+00 0.  1.
</event>
<event>
 4    1  0.9957587E-003  0.9118800E+02  0.7818608E-02  0.1130116E+00
         25   -1    0    0    0    0  0.00000000000E+00  0.00000000000E+00  0.99999998245E-14  0.12500000000E+03  0.12500000000E+03 0.  0.
        -13    1    1    0    0    0  0.24944697515E+01  0.90936772583E+01  0.12848349732E+02  0.15937647263E+02  0.10566000000E+00 0.  1.
         13    1    1    0    0    0  0.48465008035E+02  0.16604192607E+02 -0.61293172699E+01  0.51595890439E+02  0.10566000000E+00 0. -1.
         22    1    1    0    0    0 -0.50959477786E+02 -0.25697869866E+02 -0.67190324617E+01  0.57466462298E+02  0.00000000000E+00 0. -1.
</event>
<event>
 4    1  0.9957587E-003  0.9118800E+02  0.7818608E-02  0.1130116E+00
         25   -1    0    0    0    0  0.00000000000E+00  0.00000000000E+00  0.99999998245E-14  0.12500000000E+03  0.12500000000E+03 0.  0.
        -13    1    1    0    0    0 -0.28863920591E+02 -0.17882098411E+02  0.17196208825E+02  0.38060689923E+02  0.10566000000E+00 0. -1.
         13    1    1    0    0    0 -0.19384828512E+02 -0.10476410602E+02  0.10599034000E+02  0.24451532494E+02  0.10566000000E+00 0.  1.
         22    1    1    0    0    0  0.48248749103E+02  0.28358509013E+02 -0.27795242825E+02  0.62487777582E+02  0.00000000000E+00 0. -1.
</event>
<event>
 4    1  0.9957587E-003  0.9118800E+02  0.7818608E-02  0.1130116E+00
         25   -1    0    0    0    0  0.00000000000E+00  0.00000000000E+00  0.99999998245E-14  0.12500000000E+03  0.12500000000E+03 0.  0.
        -13    1    1    0    0    0  0.46488793518E+01 -0.11896776162E+02  0.17153107379E+02  0.21386575674E+02  0.10566000000E+00 0.  1.
         13    1    1    0    0    0 -0.32224151809E+02 -0.19468764642E+02  0.24267932494E+02  0.44792549247E+02  0.10566000000E+00 0. -1.
         22    1    1    0    0    0  0.27575272457E+02  0.31365540804E+02 -0.41421039872E+02  0.58820875079E+02  0.00000000000E+00 0. -1.
</event>
<event>
 4    1  0.9957587E-003  0.9118800E+02  0.7818608E-02  0.1130116E+00
         25   -1    0    0    0    0  0.00000000000E+00  0.00000000000E+00  0.99999998245E-14  0.12500000000E+03  0.12500000000E+03 0.  0.
        -13    1    1    0    0    0  0.25243640073E+02  0.28029211297E+02  0.30848327511E+02  0.48728929029E+02  0.10566000000E+00 0. -1.
         13    1    1    0    0    0  0.62703904287E+01 -0.13037152850E+02  0.13534493627E+02  0.19811078525E+02  0.10566000000E+00 0.  1.
         22    1    1    0    0    0 -0.31514030502E+02 -0.14992058447E+02 -0.44382821137E+02  0.56459992446E+02  0.00000000000E+00 0. -1.
</event>
<event>
 4    1  0.9957587E-003  0.9118800E+02  0.7818608E-02  0.1130116E+00
         25   -1    0    0    0    0  0.00000000000E+00  0.00000000000E+00  0.99999998245E-14  0.12500000000E+03  0.12500000000E+03 0.  0.
        -13    1    1    0    0    0 -0.34423546599E+01  0.43633178687E+02 -0.14382388828E+02  0.46071339902E+02  0.10566000000E+00 0. -1.
         13    1    1    0    0    0 -0.22214113299E+01  0.68016245317E+01 -0.17559563194E+02  0.18961703198E+02  0.10566000000E+00 0.  1.
         22    1    1    0    0    0  0.56637659898E+01 -0.50434803219E+02  0.31941952021E+02  0.59966956900E+02  0.00000000000E+00 0. -1.
</event>
<event>
 4    1  0.9957587E-003  0.9118800E+02  0.7818608E-02  0.1130116E+00
         25   -1    0    0    0    0  0.00000000000E+00  0.00000000000E+00  0.99999998245E-14  0.12500000000E+03  0.12500000000E+03 0.  0.
        -13    1    1    0    0    0  0.36272654323E+01 -0.40641243294E+00 -0.29226805040E+01  0.46771199414E+01  0.10566000000E+00 0. -1.
         13    1    1    0    0    0  0.21338523774E+02 -0.16370864287E+02 -0.51523283040E+02  0.58120544161E+02  0.10566000000E+00 0.  1.
         22    1    1    0    0    0 -0.24965789206E+02  0.16777276720E+02  0.54445963544E+02  0.62202335897E+02  0.00000000000E+00 0.  1.
</event>
<event>
 4    1  0.9957587E-003  0.9118800E+02  0.7818608E-02  0.1130116E+00
         25   -1    0    0    0    0  0.00000000000E+00  0.00000000000E+00  0.99999998245E-14  0.12500000000E+03  0.12500000000E+03 0.  0.
        -13    1    1    0    0    0 -0.90137783875E+01 -0.11429426990E+02 -0.13155075085E+02  0.19620070506E+02  0.10566000000E+00 0. -1.
         13    1    1    0    0    0  0.32222391790E+02 -0.18992697530E+02 -0.29822172105E+02  0.47836996198E+02  0.10566000000E+00 0.  1.
         22    1    1    0    0    0 -0.23208613403E+02  0.30422124520E+02  0.42977247189E+02  0.57542933296E+02  0.00000000000E+00 0.  1.
</event>
<event>
 4    1  0.9957587E-003  0.9118800E+02  0.7818608E-02  0.1130116E+00
         25   -1    0    0    0    0  0.00000000000E+00  0.00000000000E+00  0.99999998245E-14  0.12500000000E+03  0.12500000000E+03 0.  0.
        -13    1    1    0    0    0 -0.98824369678E+01  0.28667428623E+02  0.67256641954E+00  0.30330636886E+02  0.10566000000E+00 0. -1.
         13    1    1    0    0    0 -0.22578930653E+02  0.23706111339E+02  0.34171451813E+01  0.32916194638E+02  0.10566000000E+00 0.  1.
         22    1    1    0    0    0  0.32461367620E+02 -0.52373539962E+02 -0.40897116009E+01  0.61753168476E+02  0.00000000000E+00 0. -1.
</event>
<event>
 4    1  0.9957587E-003  0.9118800E+02  0.7818608E-02  0.1130116E+00
         25   -1    0    0    0    0  0.00000000000E+00  0.00000000000E+00  0.99999998245E-14  0.12500000000E+03  0.12500000000E+03 0.  0.
        -13    1    1    0    0    0 -0.28642933662E+02  0.96797033288E+01  0.35804072471E+02  0.46862107025E+02  0.10566000000E+00 0.  1.
         13    1    1    0    0    0 -0.90462959313E+01  0.33237336711E+01  0.12321163881E+02  0.15643046986E+02  0.10566000000E+00 0.  1.
         22    1    1    0    0    0  0.37689229593E+02 -0.13003437000E+02 -0.48125236352E+02  0.62494845988E+02  0.00000000000E+00 0.  1.
</event>
<event>
 4    1  0.9957587E-003  0.9118800E+02  0.7818608E-02  0.1130116E+00
         25   -1    0    0    0    0  0.00000000000E+00  0.00000000000E+00  0.99999998245E-14  0.12500000000E+03  0.12500000000E+03 0.  0.
        -13    1    1    0    0    0  0.44415150936E+01  0.80502364262E+01  0.62800690839E+01  0.11134801057E+02  0.10566000000E+00 0. -1.
         13    1    1    0    0    0  0.21241599039E+02  0.37148575041E+02  0.28412319207E+02  0.51366265233E+02  0.10566000000E+00 0.  1.
         22    1    1    0    0    0 -0.25683114132E+02 -0.45198811467E+02 -0.34692388290E+02  0.62498933710E+02  0.00000000000E+00 0.  1.
</event>
<event>
 4    1  0.9957587E-003  0.9118800E+02  0.7818608E-02  0.1130116E+00
         25   -1    0    0    0    0  0.00000000000E+00  0.00000000000E+00  0.99999998245E-14  0.12500000000E+03  0.12500000000E+03 0.  0.
        -13    1    1    0    0    0 -0.90050215724E+01 -0.29514458400E+02  0.16776322774E+02  0.35123351749E+02  0.10566000000E+00 0. -1.
         13    1    1    0    0    0 -0.69669414290E+01 -0.23040904600E+02  0.13040688590E+02  0.27376856660E+02  0.10566000000E+00 0. -1.
         22    1    1    0    0    0  0.15971963001E+02  0.52555363000E+02 -0.29817011364E+02  0.62499791591E+02  0.00000000000E+00 0. -1.
</event>
<event>
 4    1  0.9957587E-003  0.9118800E+02  0.7818608E-02  0.1130116E+00
         25   -1    0    0    0    0  0.00000000000E+00  0.00000000000E+00  0.99999998245E-14  0.12500000000E+03  0.12500000000E+03 0.  0.
        -13    1    1    0    0    0  0.18258140321E+01 -0.33871057008E+02 -0.33031227795E+02  0.47346122053E+02  0.10566000000E+00 0. -1.
         13    1    1    0    0    0  0.10070284716E+01 -0.10862636603E+02 -0.10521124923E+02  0.15156391853E+02  0.10566000000E+00 0.  1.
         22    1    1    0    0    0 -0.28328425037E+01  0.44733693611E+02  0.43552352719E+02  0.62497486094E+02  0.00000000000E+00 0. -1.
</event>
<event>
 4    1  0.9957587E-003  0.9118800E+02  0.7818608E-02  0.1130116E+00
         25   -1    0    0    0    0  0.00000000000E+00  0.00000000000E+00  0.99999998245E-14  0.12500000000E+03  0.12500000000E+03 0.  0.
        -13    1    1    0    0    0 -0.55152823294E+01 -0.59979372036E+01 -0.30608801275E+01  0.87048113743E+01  0.10566000000E+00 0. -1.
         13    1    1    0    0    0 -0.34942920078E+02 -0.36314318032E+02 -0.18822998785E+02  0.53796410707E+02  0.10566000000E+00 0.  1.
         22    1    1    0    0    0  0.40458202407E+02  0.42312255235E+02  0.21883878912E+02  0.62498777919E+02  0.00000000000E+00 0.  1.
</event>
<event>
 4    1  0.9957587E-003  0.9118800E+02  0.7818608E-02  0.1130116E+00
         25   -1    0    0    0    0  0.00000000000E+00  0.00000000000E+00  0.99999998245E-14  0.12500000000E+03  0.12500000000E+03 0.  0.
        -13    1    1    0    0    0  0.61367289096E+00  0.10817778765E+01 -0.81868848115E+00  0.14927332836E+01  0.10566000000E+00 0. -1.
         13    1    1    0    0    0  0.48283391008E+01  0.44080735822E+02 -0.41969637212E+02  0.61056414411E+02  0.10566000000E+00 0.  1.
         22    1    1    0    0    0 -0.54420119917E+01 -0.45162513698E+02  0.42788325693E+02  0.62450852305E+02  0.00000000000E+00 0.  1.
</event>
<event>
 4    1  0.9957587E-003  0.9118800E+02  0.7818608E-02  0.1130116E+00
         25   -1    0    0    0    0  0.00000000000E+00  0.00000000000E+00  0.99999998245E-14  0.12500000000E+03  0.12500000000E+03 0.  0.
        -13    1    1    0    0    0 -0.31258295930E+01  0.44233385056E+00 -0.23433823715E+02  0.23645754964E+02  0.10566000000E+00 0. -1.
         13    1    1    0    0    0 -0.36787600417E+02 -0.20425052154E+01 -0.20346504686E+02  0.42089081588E+02  0.10566000000E+00 0.  1.
         22    1    1    0    0    0  0.39913430010E+02  0.16001713649E+01  0.43780328401E+02  0.59265163448E+02  0.00000000000E+00 0.  1.
</event>
<event>
 4    1  0.9957587E-003  0.9118800E+02  0.7818608E-02  0.1130116E+00
         25   -1    0    0    0    0  0.00000000000E+00  0.00000000000E+00  0.99999998245E-14  0.12500000000E+03  0.12500000000E+03 0.  0.
        -13    1    1    0    0    0 -0.15989284953E+01 -0.20069597345E+02  0.46662565009E+02  0.50820777712E+02  0.10566000000E+00 0.  1.
         13    1    1    0    0    0  0.70936859698E+00 -0.17516256215E+02 -0.53696232881E+01  0.18334842619E+02  0.10566000000E+00 0. -1.
         22    1    1    0    0    0  0.88955989835E+00  0.37585853560E+02 -0.41292941721E+02  0.55844379669E+02  0.00000000000E+00 0.  1.
</event>
<event>
 4    1  0.9957587E-003  0.9118800E+02  0.7818608E-02  0.1130116E+00
         25   -1    0    0    0    0  0.00000000000E+00  0.00000000000E+00  0.99999998245E-14  0.12500000000E+03  0.12500000000E+03 0.  0.
        -13    1    1    0    0    0 -0.22766399020E+00  0.52370157163E+00  0.27693966832E+01  0.28296318229E+01  0.10566000000E+00 0.  1.
         13    1    1    0    0    0  0.48769727464E+02 -0.24133690020E+02  0.26763701262E+02  0.60640153200E+02  0.10566000000E+00 0. -1.
         22    1    1    0    0    0 -0.48542063474E+02  0.23609988448E+02 -0.29533097945E+02  0.61530214977E+02  0.00000000000E+00 0. -1.
</event>
<event>
 4    1  0.9957587E-003  0.9118800E+02  0.7818608E-02  0.1130116E+00
         25   -1    0    0    0    0  0.00000000000E+00  0.00000000000E+00  0.99999998245E-14  0.12500000000E+03  0.12500000000E+03 0.  0.
        -13    1    1    0    0    0  0.21214014031E+02 -0.19506916251E+02  0.49618165573E+02  0.57380551512E+02  0.10566000000E+00 0.  1.
         13    1    1    0    0    0  0.18653961050E+01 -0.19452245037E+01  0.43545466613E+01  0.51221910995E+01  0.10566000000E+00 0. -1.
         22    1    1    0    0    0 -0.23079410136E+02  0.21452140755E+02 -0.53972712234E+02  0.62497257389E+02  0.00000000000E+00 0.  1.
</event>
<event>
 4    1  0.9957587E-003  0.9118800E+02  0.7818608E-02  0.1130116E+00
         25   -1    0    0    0    0  0.00000000000E+00  0.00000000000E+00  0.99999998245E-14  0.12500000000E+03  0.12500000000E+03 0.  0.
        -13    1    1    0    0    0 -0.16391428207E+02  0.15668302299E+02  0.43167758387E+02  0.48761061758E+02  0.10566000000E+00 0. -1.
         13    1    1    0    0    0 -0.45784470943E+01  0.45961043231E+01  0.12111257805E+02  0.13739726431E+02  0.10566000000E+00 0.  1.
         22    1    1    0    0    0  0.20969875301E+02 -0.20264406622E+02 -0.55279016192E+02  0.62499211811E+02  0.00000000000E+00 0. -1.
</event>
<event>
 4    1  0.9957587E-003  0.9118800E+02  0.7818608E-02  0.1130116E+00
         25   -1    0    0    0    0  0.00000000000E+00  0.00000000000E+00  0.99999998245E-14  0.12500000000E+03  0.12500000000E+03 0.  0.
        -13    1    1    0    0    0 -0.23082547151E+02 -0.40507908627E+02  0.88579915444E+01  0.47457031329E+02  0.10566000000E+00 0. -1.
         13    1    1    0    0    0 -0.76280672079E+01 -0.12650644004E+02  0.28481499999E+01  0.15044910286E+02  0.10566000000E+00 0. -1.
         22    1    1    0    0    0  0.30710614359E+02  0.53158552631E+02 -0.11706141544E+02  0.62498058386E+02  0.00000000000E+00 0. -1.
</event>
<event>
 4    1  0.9957587E-003  0.9118800E+02  0.7818608E-02  0.1130116E+00
         25   -1    0    0    0    0  0.00000000000E+00  0.00000000000E+00  0.99999998245E-14  0.12500000000E+03  0.12500000000E+03 0.  0.
        -13    1    1    0    0    0 -0.65440998146E+01 -0.19860719229E+01  0.20863119568E+02  0.21955651806E+02  0.10566000000E+00 0. -1.
         13    1    1    0    0    0 -0.13191074967E+02 -0.16924182132E+01  0.38313033694E+02  0.40555745007E+02  0.10566000000E+00 0.  1.
         22    1    1    0    0    0  0.19735174782E+02  0.36784901361E+01 -0.59176153262E+02  0.62488603187E+02  0.00000000000E+00 0.  1.
</event>
<event>
 4    1  0.9957587E-003  0.9118800E+02  0.7818608E-02  0.1130116E+00
         25   -1    0    0    0    0  0.00000000000E+00  0.00000000000E+00  0.99999998245E-14  0.12500000000E+03  0.12500000000E+03 0.  0.
        -13    1    1    0    0    0 -0.14750663419E+01  0.46758129844E+02  0.26952185133E+02  0.53990091449E+02  0.10566000000E+00 0.  1.
         13    1    1    0    0    0  0.19859632750E+00  0.70200089958E+01  0.48348600910E+01  0.85268401497E+01  0.10566000000E+00 0. -1.
         22    1    1    0    0    0  0.12764700144E+01 -0.53778138840E+02 -0.31787045224E+02  0.62483068401E+02  0.00000000000E+00 0.  1.
</event>
<event>
 4    1  0.9957587E-003  0.9118800E+02  0.7818608E-02  0.1130116E+00
         25   -1    0    0    0    0  0.00000000000E+00  0.00000000000E+00  0.99999998245E-14  0.12500000000E+03  0.12500000000E+03 0.  0.
        -13    1    1    0    0    0  0.26857368803E+02 -0.14150230697E+02  0.73219030509E+01  0.31227691495E+02  0.10566000000E+00 0. -1.
         13    1    1    0    0    0  0.26641783669E+02 -0.16641813960E+02  0.13331212558E+01  0.31440785379E+02  0.10566000000E+00 0.  1.
         22    1    1    0    0    0 -0.53499152472E+02  0.30792044657E+02 -0.86550243067E+01  0.62331523125E+02  0.00000000000E+00 0. -1.
</event>
<event>
 4    1  0.9957587E-003  0.9118800E+02  0.7818608E-02  0.1130116E+00
         25   -1    0    0    0    0  0.00000000000E+00  0.00000000000E+00  0.99999998245E-14  0.12500000000E+03  0.12500000000E+03 0.  0.
        -13    1    1    0    0    0  0.19043311535E+02 -0.13194743437E+02 -0.25475136039E+02  0.34434614690E+02  0.10566000000E+00 0.  1.
         13    1    1    0    0    0  0.70207788347E+00  0.14667274842E+02 -0.29053230668E+02  0.32553390621E+02  0.10566000000E+00 0. -1.
         22    1    1    0    0    0 -0.19745389419E+02 -0.14725314059E+01  0.54528366707E+02  0.58011994689E+02  0.00000000000E+00 0. -1.
</event>
<event>
 4    1  0.9957587E-003  0.9118800E+02  0.7818608E-02  0.1130116E+00
         25   -1    0    0    0    0  0.00000000000E+00  0.00000000000E+00  0.99999998245E-14  0.12500000000E+03  0.12500000000E+03 0.  0.
        -13    1    1    0    0    0 -0.97363500014E+01 -0.15613983165E+02  0.10604074565E+02  0.21237950538E+02  0.10566000000E+00 0.  1.
         13    1    1    0    0    0 -0.15475077721E+02 -0.30233711506E+02  0.23504316093E+02  0.41303987470E+02  0.10566000000E+00 0.  1.
         22    1    1    0    0    0  0.25211427723E+02  0.45847694671E+02 -0.34108390658E+02  0.62458061992E+02  0.00000000000E+00 0.  1.
</event>
<event>
 4    1  0.9957587E-003  0.9118800E+02  0.7818608E-02  0.1130116E+00
         25   -1    0    0    0    0  0.00000000000E+00  0.00000000000E+00  0.99999998245E-14  0.12500000000E+03  0.12500000000E+03 0.  0.
        -13    1    1    0    0    0  0.21111518382E+02 -0.11766973317E+02 -0.50008776497E+02  0.55543197245E+02  0.10566000000E+00 0. -1.
         13    1    1    0    0    0  0.15528059399E+00  0.14726852589E+01 -0.73100306431E+01  0.74592644391E+01  0.10566000000E+00 0.  1.
         22    1    1    0    0    0 -0.21266798976E+02  0.10294288058E+02  0.57318807140E+02  0.61997538316E+02  0.00000000000E+00 0. -1.
</event>
<event>
 4    1  0.9957587E-003  0.9118800E+02  0.7818608E-02  0.1130116E+00
         25   -1    0    0    0    0  0.00000000000E+00  0.00000000000E+00  0.99999998245E-14  0.12500000000E+03  0.12500000000E+03 0.  0.
        -13    1    1    0    0    0 -0.26821225820E+01 -0.24235412019E+01  0.45460241578E+01  0.58090303133E+01  0.10566000000E+00 0.  1.
         13    1    1    0    0    0 -0.17243523293E+02 -0.21816379578E+02  0.49453923810E+02  0.56736190018E+02  0.10566000000E+00 0. -1.
         22    1    1    0    0    0  0.19925645875E+02  0.24239920780E+02 -0.53999947968E+02  0.62454779669E+02  0.00000000000E+00 0. -1.
</event>
<event>
 4    1  0.9957587E-003  0.9118800E+02  0.7818608E-02  0.1130116E+00
         25   -1    0    0    0    0  0.00000000000E+00  0.00000000000E+00  0.99999998245E-14  0.12500000000E+03  0.12500000000E+03 0.  0.
        -13    1    1    0    0    0 -0.23439749632E+02 -0.11455756583E+02  0.94646160065E+01  0.27753312269E+02  0.10566000000E+00 0. -1.
         13    1    1    0    0    0 -0.44645191119E+01 -0.19070613640E+02  0.32742695570E+02  0.38153840079E+02  0.10566000000E+00 0.  1.
         22    1    1    0    0    0  0.27904268744E+02  0.30526370223E+02 -0.42207311577E+02  0.59092847652E+02  0.00000000000E+00 0.  1.
</event>
<event>
 4    1  0.9957587E-003  0.9118800E+02  0.7818608E-02  0.1130116E+00
         25   -1    0    0    0    0  0.00000000000E+00  0.00000000000E+00  0.99999998245E-14  0.12500000000E+03  0.12500000000E+03 0.  0.
        -13    1    1    0    0    0  0.54601532325E+02 -0.15450944950E+02  0.23338158373E+02  0.61357475766E+02  0.10566000000E+00 0.  1.
         13    1    1    0    0    0  0.10864928701E+01 -0.16838191857E+00  0.32599438960E+00  0.11516317141E+01  0.10566000000E+00 0.  1.
         22    1    1    0    0    0 -0.55688025195E+02  0.15619326868E+02 -0.23664152762E+02  0.62490892520E+02  0.00000000000E+00 0.  1.
</event>
<event>
 4    1  0.9957587E-003  0.9118800E+02  0.7818608E-02  0.1130116E+00
         25   -1    0    0    0    0  0.00000000000E+00  0.00000000000E+00  0.99999998245E-14  0.12500000000E+03  0.12500000000E+03 0.  0.
        -13    1    1    0    0    0  0.23810387023E+02 -0.11565853327E+02 -0.53149026881E+01  0.26999311991E+02  0.10566000000E+00 0.  1.
         13    1    1    0    0    0  0.31634012779E+02 -0.15508561050E+02 -0.45202885202E+01  0.35520000038E+02  0.10566000000E+00 0. -1.
         22    1    1    0    0    0 -0.55444399802E+02  0.27074414376E+02  0.98351912083E+01  0.62480687971E+02  0.00000000000E+00 0.  1.
</event>
<event>
 4    1  0.9957587E-003  0.9118800E+02  0.7818608E-02  0.1130116E+00
         25   -1    0    0    0    0  0.00000000000E+00  0.00000000000E+00  0.99999998245E-14  0.12500000000E+03  0.12500000000E+03 0.  0.
        -13    1    1    0    0    0  0.40774941305E+02 -0.24162601416E+02 -0.73592120685E+01  0.47964531811E+02  0.10566000000E+00 0. -1.
         13    1    1    0    0    0 -0.37897903809E+01 -0.15155121494E+02 -0.11989907686E+02  0.19692873558E+02  0.10566000000E+00 0.  1.
         22    1    1    0    0    0 -0.36985150924E+02  0.39317722910E+02  0.19349119754E+02  0.57342594630E+02  0.00000000000E+00 0. -1.
</event>
<event>
 4    1  0.9957587E-003  0.9118800E+02  0.7818608E-02  0.1130116E+00
         25   -1    0    0    0    0  0.00000000000E+00  0.00000000000E+00  0.99999998245E-14  0.12500000000E+03  0.12500000000E+03 0.  0.
        -13    1    1    0    0    0 -0.26874557701E+02  0.11849931202E+02 -0.30515708430E+01  0.29529408557E+02  0.10566000000E+00 0.  1.
         13    1    1    0    0    0 -0.29402140264E+02  0.13868021987E+02 -0.56207335573E+01  0.32991085094E+02  0.10566000000E+00 0. -1.
         22    1    1    0    0    0  0.56276697964E+02 -0.25717953189E+02  0.86723044003E+01  0.62479506349E+02  0.00000000000E+00 0. -1.
</event>
<event>
 4    1  0.9957587E-003  0.9118800E+02  0.7818608E-02  0.1130116E+00
         25   -1    0    0    0    0  0.00000000000E+00  0.00000000000E+00  0.99999998245E-14  0.12500000000E+03  0.12500000000E+03 0.  0.
        -13    1    1    0    0    0  0.30497658227E+02 -0.12911875827E+01 -0.13815498507E+02  0.33506021634E+02  0.10566000000E+00 0. -1.
         13    1    1    0    0    0  0.25820089020E+02  0.28136765955E+01 -0.13062107516E+02  0.29072729314E+02  0.10566000000E+00 0.  1.
         22    1    1    0    0    0 -0.56317747247E+02 -0.15224890128E+01  0.26877606023E+02  0.62421249052E+02  0.00000000000E+00 0. -1.
</event>
<event>
 4    1  0.9957587E-003  0.9118800E+02  0.7818608E-02  0.1130116E+00
         25   -1    0    0    0    0  0.00000000000E+00  0.00000000000E+00  0.99999998245E-14  0.12500000000E+03  0.12500000000E+03 0.  0.
        -13    1    1    0    0    0  0.20465466372E+02 -0.15094911042E+02  0.34333495563E+02  0.42725773659E+02  0.10566000000E+00 0. -1.
         13    1    1    0    0    0 -0.12920590156E+02 -0.28081016141E+02 -0.15285161511E+02  0.34483799732E+02  0.10566000000E+00 0.  1.
         22    1    1    0    0    0 -0.75448762165E+01  0.43175927184E+02 -0.19048334052E+02  0.47790426609E+02  0.00000000000E+00 0. -1.
</event>
<event>
 4    1  0.9957587E-003  0.9118800E+02  0.7818608E-02  0.1130116E+00
         25   -1    0    0    0    0  0.00000000000E+00  0.00000000000E+00  0.99999998245E-14  0.12500000000E+03  0.12500000000E+03 0.  0.
        -13    1    1    0    0    0 -0.12730316491E+02 -0.57256220554E+01 -0.43983060269E+01  0.14635571933E+02  0.10566000000E+00 0. -1.
         13    1    1    0    0    0 -0.41602538233E+02 -0.19342313169E+02 -0.13646549514E+02  0.47865809759E+02  0.10566000000E+00 0.  1.
         22    1    1    0    0    0  0.54332854724E+02  0.25067935224E+02  0.18044855541E+02  0.62498618308E+02  0.00000000000E+00 0.  1.
</event>
<event>
 4    1  0.9957587E-003  0.9118800E+02  0.7818608E-02  0.1130116E+00
         25   -1    0    0    0    0  0.00000000000E+00  0.00000000000E+00  0.99999998245E-14  0.12500000000E+03  0.12500000000E+03 0.  0.
        -13    1    1    0    0    0  0.89029731001E+01 -0.50508120985E+02  0.12894038907E+02  0.52882895333E+02  0.10566000000E+00 0. -1.
         13    1    1    0    0    0  0.16827413636E+01 -0.91764841654E+01  0.23337641730E+01  0.96175412339E+01  0.10566000000E+00 0. -1.
         22    1    1    0    0    0 -0.10585714464E+02  0.59684605150E+02 -0.15227803080E+02  0.62499563433E+02  0.00000000000E+00 0. -1.
</event>
<event>
 4    1  0.9957587E-003  0.9118800E+02  0.7818608E-02  0.1130116E+00
         25   -1    0    0    0    0  0.00000000000E+00  0.00000000000E+00  0.99999998245E-14  0.12500000000E+03  0.12500000000E+03 0.  0.
        -13    1    1    0    0    0  0.12890164953E+02  0.37050556081E+01 -0.12275832950E+02  0.18182162364E+02  0.10566000000E+00 0.  1.
         13    1    1    0    0    0  0.40450991261E+02  0.14564746699E+02 -0.13160658568E+02  0.44962524822E+02  0.10566000000E+00 0. -1.
         22    1    1    0    0    0 -0.53341156214E+02 -0.18269802307E+02  0.25436491518E+02  0.61855312814E+02  0.00000000000E+00 0. -1.
</event>
<event>
 4    1  0.9957587E-003  0.9118800E+02  0.7818608E-02  0.1130116E+00
         25   -1    0    0    0    0  0.00000000000E+00  0.00000000000E+00  0.99999998245E-14  0.12500000000E+03  0.12500000000E+03 0.  0.
        -13    1    1    0    0    0 -0.77550943883E+01  0.21573622294E+01 -0.10427507853E+02  0.13173449997E+02  0.10566000000E+00 0. -1.
         13    1    1    0    0    0 -0.28280998600E+02  0.12074109460E+02 -0.38591322001E+02  0.49344708925E+02  0.10566000000E+00 0.  1.
         22    1    1    0    0    0  0.36036092988E+02 -0.14231471689E+02  0.49018829854E+02  0.62481841078E+02  0.00000000000E+00 0.  1.
</event>
<event>
 4    1  0.9957587E-003  0.9118800E+02  0.7818608E-02  0.1130116E+00
         25   -1    0    0    0    0  0.00000000000E+00  0.00000000000E+00  0.99999998245E-14  0.12500000000E+03  0.12500000000E+03 0.  0.
        -13    1    1    0    0    0  0.81401300641E+01 -0.15799900677E+01 -0.83922138651E+01  0.11798241550E+02  0.10566000000E+00 0. -1.
         13    1    1    0    0    0  0.36487753533E+02 -0.91556278663E+00 -0.35242423448E+02  0.50736909520E+02  0.10566000000E+00 0.  1.
         22    1    1    0    0    0 -0.44627883597E+02  0.24955528544E+01  0.43634637313E+02  0.62464848930E+02  0.00000000000E+00 0.  1.
</event>
<event>
 4    1  0.9957587E-003  0.9118800E+02  0.7818608E-02  0.1130116E+00
         25   -1    0    0    0    0  0.00000000000E+00  0.00000000000E+00  0.99999998245E-14  0.12500000000E+03  0.12500000000E+03 0.  0.
        -13    1    1    0    0    0  0.36070123578E+01  0.21136833573E+02  0.42234083236E+02  0.47365654461E+02  0.10566000000E+00 0.  1.
         13    1    1    0    0    0 -0.10722315481E+02 -0.27938681197E+02  0.41546549407E+01  0.30212750255E+02  0.10566000000E+00 0. -1.
         22    1    1    0    0    0  0.71153031231E+01  0.68018476232E+01 -0.46388738177E+02  0.47421595284E+02  0.00000000000E+00 0.  1.
</event>
<event>
 4    1  0.9957587E-003  0.9118800E+02  0.7818608E-02  0.1130116E+00
         25   -1    0    0    0    0  0.00000000000E+00  0.00000000000E+00  0.99999998245E-14  0.12500000000E+03  0.12500000000E+03 0.  0.
        -13    1    1    0    0    0  0.54841611274E+01 -0.19155280128E+02  0.63960935877E+01  0.20926584940E+02  0.10566000000E+00 0. -1.
         13    1    1    0    0    0 -0.44090093630E+02  0.11967124615E+01  0.25432341469E+02  0.50913491666E+02  0.10566000000E+00 0.  1.
         22    1    1    0    0    0  0.38605932503E+02  0.17958567666E+02 -0.31828435056E+02  0.53159923393E+02  0.00000000000E+00 0.  1.
</event>
<event>
 4    1  0.9957587E-003  0.9118800E+02  0.7818608E-02  0.1130116E+00
         25   -1    0    0    0    0  0.00000000000E+00  0.00000000000E+00  0.99999998245E-14  0.12500000000E+03  0.12500000000E+03 0.  0.
        -13    1    1    0    0    0  0.20783376799E+02 -0.55147233165E+02 -0.16984037044E+01  0.58958136131E+02  0.10566000000E+00 0.  1.
         13    1    1    0    0    0  0.87306481241E+00 -0.34239767916E+01  0.59901906296E+00  0.35855051401E+01  0.10566000000E+00 0. -1.
         22    1    1    0    0    0 -0.21656441611E+02  0.58571209957E+02  0.10993846415E+01  0.62456358729E+02  0.00000000000E+00 0.  1.
</event>
<event>
 4    1  0.9957587E-003  0.9118800E+02  0.7818608E-02  0.1130116E+00
         25   -1    0    0    0    0  0.00000000000E+00  0.00000000000E+00  0.99999998245E-14  0.12500000000E+03  0.12500000000E+03 0.  0.
        -13    1    1    0    0    0 -0.88428628404E+01 -0.12017804155E+01  0.76159502761E+01  0.11732619572E+02  0.10566000000E+00 0. -1.
         13    1    1    0    0    0 -0.21156620220E+02 -0.49526727259E+02 -0.71618451498E+01  0.54330493114E+02  0.10566000000E+00 0.  1.
         22    1    1    0    0    0  0.29999483060E+02  0.50728507674E+02 -0.45410512628E+00  0.58936887313E+02  0.00000000000E+00 0.  1.
</event>
<event>
 4    1  0.9957587E-003  0.9118800E+02  0.7818608E-02  0.1130116E+00
         25   -1    0    0    0    0  0.00000000000E+00  0.00000000000E+00  0.99999998245E-14  0.12500000000E+03  0.12500000000E+03 0.  0.
        -13    1    1    0    0    0 -0.26777912868E+02 -0.29405410398E+02  0.43492584789E+02  0.58935141248E+02  0.10566000000E+00 0. -1.
         13    1    1    0    0    0 -0.16335505671E+01 -0.17239470927E+01  0.26578828983E+01  0.35659482007E+01  0.10566000000E+00 0. -1.
         22    1    1    0    0    0  0.28411463435E+02  0.31129357490E+02 -0.46150467688E+02  0.62498910551E+02  0.00000000000E+00 0. -1.
</event>
<event>
 4    1  0.9957587E-003  0.9118800E+02  0.7818608E-02  0.1130116E+00
         25   -1    0    0    0    0  0.00000000000E+00  0.00000000000E+00  0.99999998245E-14  0.12500000000E+03  0.12500000000E+03 0.  0.
        -13    1    1    0    0    0 -0.19335174535E+02 -0.10339113514E+02  0.14584341000E+02  0.26333636456E+02  0.10566000000E+00 0. -1.
         13    1    1    0    0    0 -0.25418426206E+02 -0.13212249837E+02  0.22107347763E+02  0.36185714387E+02  0.10566000000E+00 0.  1.
         22    1    1    0    0    0  0.44753600740E+02  0.23551363351E+02 -0.36691688763E+02  0.62480649158E+02  0.00000000000E+00 0.  1.
</event>
<event>
 4    1  0.9957587E-003  0.9118800E+02  0.7818608E-02  0.1130116E+00
         25   -1    0    0    0    0  0.00000000000E+00  0.00000000000E+00  0.99999998245E-14  0.12500000000E+03  0.12500000000E+03 0.  0.
        -13    1    1    0    0    0 -0.88300882467E+01  0.19860941595E+01  0.14692054152E+02  0.17256379913E+02  0.10566000000E+00 0. -1.
         13    1    1    0    0    0  0.11243209034E+02  0.39474385200E+01 -0.60412543165E+02  0.61576607214E+02  0.10566000000E+00 0.  1.
         22    1    1    0    0    0 -0.24131207874E+01 -0.59335326795E+01  0.45720489013E+02  0.46167012873E+02  0.00000000000E+00 0.  1.
</event>
<event>
 4    1  0.9957587E-003  0.9118800E+02  0.7818608E-02  0.1130116E+00
         25   -1    0    0    0    0  0.00000000000E+00  0.00000000000E+00  0.99999998245E-14  0.12500000000E+03  0.12500000000E+03 0.  0.
        -13    1    1    0    0    0  0.66810135068E-02  0.15939791367E+01  0.32733952607E+00  0.16306836986E+01  0.10566000000E+00 0. -1.
         13    1    1    0    0    0 -0.38739507779E+02  0.27263206239E+02  0.38780897091E+02  0.61220919795E+02  0.10566000000E+00 0.  1.
         22    1    1    0    0    0  0.38732826766E+02 -0.28857185375E+02 -0.39108236617E+02  0.62148396506E+02  0.00000000000E+00 0.  1.
</event>
<event>
 4    1  0.9957587E-003  0.9118800E+02  0.7818608E-02  0.1130116E+00
         25   -1    0    0    0    0  0.00000000000E+00  0.00000000000E+00  0.99999998245E-14  0.12500000000E+03  0.12500000000E+03 0.  0.
        -13    1    1    0    0    0 -0.15847963896E+01  0.39838099664E+02 -0.41614335777E+02  0.57631153647E+02  0.10566000000E+00 0. -1.
         13    1    1    0    0    0 -0.45203321168E+01  0.30228810409E+01 -0.21129919148E+01  0.58349902401E+01  0.10566000000E+00 0.  1.
         22    1    1    0    0    0  0.61051285064E+01 -0.42860980705E+02  0.43727327692E+02  0.61533856113E+02  0.00000000000E+00 0. -1.
</event>
<event>
 4    1  0.9957587E-003  0.9118800E+02  0.7818608E-02  0.1130116E+00
         25   -1    0    0    0    0  0.00000000000E+00  0.00000000000E+00  0.99999998245E-14  0.12500000000E+03  0.12500000000E+03 0.  0.
        -13    1    1    0    0    0 -0.71718546321E+01  0.64877567523E+01 -0.62788995783E+00  0.96918469022E+01  0.10566000000E+00 0.  1.
         13    1    1    0    0    0 -0.37775067852E+02  0.36715846806E+02 -0.37417703452E+01  0.52811184112E+02  0.10566000000E+00 0. -1.
         22    1    1    0    0    0  0.44946922485E+02 -0.43203603558E+02  0.43696603030E+01  0.62496968986E+02  0.00000000000E+00 0. -1.
</event>
<event>
 4    1  0.9957587E-003  0.9118800E+02  0.7818608E-02  0.1130116E+00
         25   -1    0    0    0    0  0.00000000000E+00  0.00000000000E+00  0.99999998245E-14  0.12500000000E+03  0.12500000000E+03 0.  0.
        -13    1    1    0    0    0 -0.90936229452E+01 -0.22450392126E+01  0.19990339975E+01  0.95781772950E+01  0.10566000000E+00 0. -1.
         13    1    1    0    0    0 -0.46047584203E+02 -0.18819173983E+02  0.18295916592E+02  0.53002764535E+02  0.10566000000E+00 0.  1.
         22    1    1    0    0    0  0.55141207149E+02  0.21064213196E+02 -0.20294950589E+02  0.62419058170E+02  0.00000000000E+00 0.  1.
</event>
<event>
 4    1  0.9957587E-003  0.9118800E+02  0.7818608E-02  0.1130116E+00
         25   -1    0    0    0    0  0.00000000000E+00  0.00000000000E+00  0.99999998245E-14  0.12500000000E+03  0.12500000000E+03 0.  0.
        -13    1    1    0    0    0 -0.69829234075E+01 -0.12655947799E+02 -0.16828603781E+02  0.22184393236E+02  0.10566000000E+00 0.  1.
         13    1    1    0    0    0 -0.10403175434E+02 -0.25291663563E+02 -0.29655890609E+02  0.40340764950E+02  0.10566000000E+00 0. -1.
         22    1    1    0    0    0  0.17386098841E+02  0.37947611362E+02  0.46484494390E+02  0.62474841814E+02  0.00000000000E+00 0. -1.
</event>
<event>
 4    1  0.9957587E-003  0.9118800E+02  0.7818608E-02  0.1130116E+00
         25   -1    0    0    0    0  0.00000000000E+00  0.00000000000E+00  0.99999998245E-14  0.12500000000E+03  0.12500000000E+03 0.  0.
        -13    1    1    0    0    0 -0.31085901475E+02  0.29499982551E+02  0.31629224123E+02  0.53263507429E+02  0.10566000000E+00 0. -1.
         13    1    1    0    0    0 -0.10188481294E+02 -0.12885178320E+02  0.11581516216E+01  0.16467709331E+02  0.10566000000E+00 0.  1.
         22    1    1    0    0    0  0.41274382768E+02 -0.16614804232E+02 -0.32787375744E+02  0.55268783239E+02  0.00000000000E+00 0. -1.
</event>
<event>
 4    1  0.9957587E-003  0.9118800E+02  0.7818608E-02  0.1130116E+00
         25   -1    0    0    0    0  0.00000000000E+00  0.00000000000E+00  0.99999998245E-14  0.12500000000E+03  0.12500000000E+03 0.  0.
        -13    1    1    0    0    0 -0.69598600431E+01  0.94835677504E+00 -0.87537128957E+01  0.11223978167E+02  0.10566000000E+00 0. -1.
         13    1    1    0    0    0 -0.27064337807E+02 -0.47993721086E+02  0.26735532852E+00  0.55099530738E+02  0.10566000000E+00 0.  1.
         22    1    1    0    0    0  0.34024197850E+02  0.47045364311E+02  0.84863575672E+01  0.58676491095E+02  0.00000000000E+00 0.  1.
</event>
<event>
 4    1  0.9957587E-003  0.9118800E+02  0.7818608E-02  0.1130116E+00
         25   -1    0    0    0    0  0.00000000000E+00  0.00000000000E+00  0.99999998245E-14  0.12500000000E+03  0.12500000000E+03 0.  0.
        -13    1    1    0    0    0 -0.13946741943E+02 -0.18485587239E+02 -0.49852359918E+01  0.23687386693E+02  0.10566000000E+00 0. -1.
         13    1    1    0    0    0 -0.67696531024E+01 -0.31366835759E+02 -0.23968831116E+02  0.40052747943E+02  0.10566000000E+00 0.  1.
         22    1    1    0    0    0  0.20716395045E+02  0.49852422998E+02  0.28954067107E+02  0.61259865365E+02  0.00000000000E+00 0. -1.
</event>
<event>
 4    1  0.9957587E-003  0.9118800E+02  0.7818608E-02  0.1130116E+00
         25   -1    0    0    0    0  0.00000000000E+00  0.00000000000E+00  0.99999998245E-14  0.12500000000E+03  0.12500000000E+03 0.  0.
        -13    1    1    0    0    0  0.11130963080E+01  0.12484366404E+01 -0.69413850395E+01  0.71408380277E+01  0.10566000000E+00 0.  1.
         13    1    1    0    0    0  0.29783263453E+02  0.21895872453E+02 -0.41722685435E+02  0.55742852962E+02  0.10566000000E+00 0. -1.
         22    1    1    0    0    0 -0.30896359761E+02 -0.23144309093E+02  0.48664070475E+02  0.62116309010E+02  0.00000000000E+00 0. -1.
</event>
<event>
 4    1  0.9957587E-003  0.9118800E+02  0.7818608E-02  0.1130116E+00
         25   -1    0    0    0    0  0.00000000000E+00  0.00000000000E+00  0.99999998245E-14  0.12500000000E+03  0.12500000000E+03 0.  0.
        -13    1    1    0    0    0  0.31238762299E+02 -0.98330251022E+00 -0.51880152792E+02  0.60567223575E+02  0.10566000000E+00 0. -1.
         13    1    1    0    0    0  0.15048900334E+01 -0.43633786889E+00 -0.12498941077E+01  0.20071083839E+01  0.10566000000E+00 0.  1.
         22    1    1    0    0    0 -0.32743652332E+02  0.14196403791E+01  0.53130046900E+02  0.62425668041E+02  0.00000000000E+00 0. -1.
</event>
<event>
 4    1  0.9957587E-003  0.9118800E+02  0.7818608E-02  0.1130116E+00
         25   -1    0    0    0    0  0.00000000000E+00  0.00000000000E+00  0.99999998245E-14  0.12500000000E+03  0.12500000000E+03 0.  0.
        -13    1    1    0    0    0 -0.10192711134E+02 -0.29068880770E+02  0.13041101927E+02  0.33451049206E+02  0.10566000000E+00 0. -1.
         13    1    1    0    0    0 -0.84527593747E+01 -0.24893974976E+02  0.12371335592E+02  0.29055468324E+02  0.10566000000E+00 0. -1.
         22    1    1    0    0    0  0.18645470509E+02  0.53962855745E+02 -0.25412437519E+02  0.62493482471E+02  0.00000000000E+00 0. -1.
</event>
<event>
 4    1  0.9957587E-003  0.9118800E+02  0.7818608E-02  0.1130116E+00
         25   -1    0    0    0    0  0.00000000000E+00  0.00000000000E+00  0.99999998245E-14  0.12500000000E+03  0.12500000000E+03 0.  0.
        -13    1    1    0    0    0  0.51698542542E+02  0.32648034180E+02 -0.79120248619E+01  0.61654235363E+02  0.10566000000E+00 0. -1.
         13    1    1    0    0    0 -0.22366367895E+00  0.85787769565E+00  0.12925855778E+01  0.15709618371E+01  0.10566000000E+00 0.  1.
         22    1    1    0    0    0 -0.51474878863E+02 -0.33505911875E+02  0.66194392841E+01  0.61774802800E+02  0.00000000000E+00 0. -1.
</event>
<event>
 4    1  0.9957587E-003  0.9118800E+02  0.7818608E-02  0.1130116E+00
         25   -1    0    0    0    0  0.00000000000E+00  0.00000000000E+00  0.99999998245E-14  0.12500000000E+03  0.12500000000E+03 0.  0.
        -13    1    1    0    0    0 -0.21496181302E+02 -0.50967670560E+02 -0.35545272622E+01  0.55429550612E+02  0.10566000000E+00 0. -1.
         13    1    1    0    0    0 -0.27847295277E+01 -0.64812685988E+01 -0.47542212359E+00  0.70709795237E+01  0.10566000000E+00 0.  1.
         22    1    1    0    0    0  0.24280910830E+02  0.57448939159E+02  0.40299493858E+01  0.62499469864E+02  0.00000000000E+00 0. -1.
</event>
<event>
 4    1  0.9957587E-003  0.9118800E+02  0.7818608E-02  0.1130116E+00
         25   -1    0    0    0    0  0.00000000000E+00  0.00000000000E+00  0.99999998245E-14  0.12500000000E+03  0.12500000000E+03 0.  0.
        -13    1    1    0    0    0  0.20724964599E+02  0.10378536752E+02 -0.15143719959E+02  0.27687210062E+02  0.10566000000E+00 0. -1.
         13    1    1    0    0    0  0.24457625614E+02  0.86534172343E+01 -0.23408576771E+02  0.34943235554E+02  0.10566000000E+00 0.  1.
         22    1    1    0    0    0 -0.45182590213E+02 -0.19031953986E+02  0.38552296730E+02  0.62369554384E+02  0.00000000000E+00 0. -1.
</event>
<event>
 4    1  0.9957587E-003  0.9118800E+02  0.7818608E-02  0.1130116E+00
         25   -1    0    0    0    0  0.00000000000E+00  0.00000000000E+00  0.99999998245E-14  0.12500000000E+03  0.12500000000E+03 0.  0.
        -13    1    1    0    0    0 -0.20709849384E+01 -0.13189607859E+01  0.24300190499E+01  0.34561239544E+01  0.10566000000E+00 0. -1.
         13    1    1    0    0    0 -0.36549865828E+02 -0.15628828805E+02  0.43676094823E+02  0.59057306109E+02  0.10566000000E+00 0.  1.
         22    1    1    0    0    0  0.38620850767E+02  0.16947789591E+02 -0.46106113873E+02  0.62486569936E+02  0.00000000000E+00 0.  1.
</event>
<event>
 4    1  0.9957587E-003  0.9118800E+02  0.7818608E-02  0.1130116E+00
         25   -1    0    0    0    0  0.00000000000E+00  0.00000000000E+00  0.99999998245E-14  0.12500000000E+03  0.12500000000E+03 0.  0.
        -13    1    1    0    0    0  0.10039179118E+02  0.43664354689E+01  0.46102466196E+01  0.11879242989E+02  0.10566000000E+00 0.  1.
         13    1    1    0    0    0  0.42968521518E+02  0.96013095943E+01  0.25192145128E+02  0.50726071478E+02  0.10566000000E+00 0. -1.
         22    1    1    0    0    0 -0.53007700636E+02 -0.13967745063E+02 -0.29802391747E+02  0.62394685533E+02  0.00000000000E+00 0. -1.
</event>
<event>
 4    1  0.9957587E-003  0.9118800E+02  0.7818608E-02  0.1130116E+00
         25   -1    0    0    0    0  0.00000000000E+00  0.00000000000E+00  0.99999998245E-14  0.12500000000E+03  0.12500000000E+03 0.  0.
        -13    1    1    0    0    0 -0.18083127394E+02  0.16167955601E+02 -0.88739453120E+00  0.24273461183E+02  0.10566000000E+00 0. -1.
         13    1    1    0    0    0 -0.29272618634E+02  0.24480074791E+02 -0.23672050225E+01  0.38233167370E+02  0.10566000000E+00 0.  1.
         22    1    1    0    0    0  0.47355746028E+02 -0.40648030392E+02  0.32545995537E+01  0.62493371448E+02  0.00000000000E+00 0.  1.
</event>
<event>
 4    1  0.9957587E-003  0.9118800E+02  0.7818608E-02  0.1130116E+00
         25   -1    0    0    0    0  0.00000000000E+00  0.00000000000E+00  0.99999998245E-14  0.12500000000E+03  0.12500000000E+03 0.  0.
        -13    1    1    0    0    0  0.23989656371E+02 -0.31703306107E+02  0.44863203732E+02  0.59944319531E+02  0.10566000000E+00 0. -1.
         13    1    1    0    0    0 -0.16118718782E+02  0.21129192276E+01 -0.18722123956E+02  0.24795294157E+02  0.10566000000E+00 0.  1.
         22    1    1    0    0    0 -0.78709375893E+01  0.29590386879E+02 -0.26141079776E+02  0.40260386312E+02  0.00000000000E+00 0. -1.
</event>
<event>
 4    1  0.9957587E-003  0.9118800E+02  0.7818608E-02  0.1130116E+00
         25   -1    0    0    0    0  0.00000000000E+00  0.00000000000E+00  0.99999998245E-14  0.12500000000E+03  0.12500000000E+03 0.  0.
        -13    1    1    0    0    0 -0.18104719051E+02  0.59219473519E+01 -0.98004812468E+01  0.21422205980E+02  0.10566000000E+00 0. -1.
         13    1    1    0    0    0 -0.34718656893E+02  0.56694696143E+01 -0.21366895145E+02  0.41159244336E+02  0.10566000000E+00 0.  1.
         22    1    1    0    0    0  0.52823375944E+02 -0.11591416966E+02  0.31167376392E+02  0.62418549683E+02  0.00000000000E+00 0.  1.
</event>
<event>
 4    1  0.9957587E-003  0.9118800E+02  0.7818608E-02  0.1130116E+00
         25   -1    0    0    0    0  0.00000000000E+00  0.00000000000E+00  0.99999998245E-14  0.12500000000E+03  0.12500000000E+03 0.  0.
        -13    1    1    0    0    0 -0.42493674938E+01  0.19903729678E+02 -0.30547666614E+02  0.36706766117E+02  0.10566000000E+00 0.  1.
         13    1    1    0    0    0 -0.27723719634E+01  0.14583060435E+02 -0.21097284537E+02  0.25796477993E+02  0.10566000000E+00 0. -1.
         22    1    1    0    0    0  0.70217394572E+01 -0.34486790114E+02  0.51644951151E+02  0.62496755890E+02  0.00000000000E+00 0. -1.
</event>
<event>
 4    1  0.9957587E-003  0.9118800E+02  0.7818608E-02  0.1130116E+00
         25   -1    0    0    0    0  0.00000000000E+00  0.00000000000E+00  0.99999998245E-14  0.12500000000E+03  0.12500000000E+03 0.  0.
        -13    1    1    0    0    0  0.26372622127E+00  0.54623232107E+02 -0.86250541309E+01  0.55300721154E+02  0.10566000000E+00 0. -1.
         13    1    1    0    0    0  0.18997256441E+01  0.63546598320E+01  0.54762764195E+01  0.86018269316E+01  0.10566000000E+00 0.  1.
         22    1    1    0    0    0 -0.21634518653E+01 -0.60977891939E+02  0.31487777114E+01  0.61097451914E+02  0.00000000000E+00 0. -1.
</event>
<event>
 4    1  0.9957587E-003  0.9118800E+02  0.7818608E-02  0.1130116E+00
         25   -1    0    0    0    0  0.00000000000E+00  0.00000000000E+00  0.99999998245E-14  0.12500000000E+03  0.12500000000E+03 0.  0.
        -13    1    1    0    0    0 -0.29076900599E+01 -0.27731467530E+02 -0.19254490601E+02  0.33885624167E+02  0.10566000000E+00 0. -1.
         13    1    1    0    0    0 -0.22823701023E+01 -0.24063527011E+02 -0.15325684936E+02  0.28620802370E+02  0.10566000000E+00 0.  1.
         22    1    1    0    0    0  0.51900601622E+01  0.51794994541E+02  0.34580175538E+02  0.62493573463E+02  0.00000000000E+00 0.  1.
</event>
<event>
 4    1  0.9957587E-003  0.9118800E+02  0.7818608E-02  0.1130116E+00
         25   -1    0    0    0    0  0.00000000000E+00  0.00000000000E+00  0.99999998245E-14  0.12500000000E+03  0.12500000000E+03 0.  0.
        -13    1    1    0    0    0 -0.14865319664E+02  0.85808734299E+01  0.13632538022E+02  0.21919543209E+02  0.10566000000E+00 0.  1.
         13    1    1    0    0    0 -0.33548458322E+02  0.20761888980E+02  0.11566206238E+02  0.41113785773E+02  0.10566000000E+00 0. -1.
         22    1    1    0    0    0  0.48413777986E+02 -0.29342762410E+02 -0.25198744260E+02  0.61966671018E+02  0.00000000000E+00 0. -1.
</event>
<event>
 4    1  0.9957587E-003  0.9118800E+02  0.7818608E-02  0.1130116E+00
         25   -1    0    0    0    0  0.00000000000E+00  0.00000000000E+00  0.99999998245E-14  0.12500000000E+03  0.12500000000E+03 0.  0.
        -13    1    1    0    0    0 -0.44078077238E+01 -0.31759057077E+01  0.43884977681E+02  0.44220103754E+02  0.10566000000E+00 0. -1.
         13    1    1    0    0    0 -0.10355290133E+01 -0.16569531538E+01  0.18182269060E+02  0.18287260219E+02  0.10566000000E+00 0.  1.
         22    1    1    0    0    0  0.54433367371E+01  0.48328588615E+01 -0.62067246741E+02  0.62492636027E+02  0.00000000000E+00 0. -1.
</event>
<event>
 4    1  0.9957587E-003  0.9118800E+02  0.7818608E-02  0.1130116E+00
         25   -1    0    0    0    0  0.00000000000E+00  0.00000000000E+00  0.99999998245E-14  0.12500000000E+03  0.12500000000E+03 0.  0.
        -13    1    1    0    0    0  0.80772876785E+01  0.38076057115E+01  0.63336013086E+01  0.10948338096E+02  0.10566000000E+00 0. -1.
         13    1    1    0    0    0  0.38105436683E+02  0.17741207681E+02  0.29846664450E+02  0.51552005757E+02  0.10566000000E+00 0. -1.
         22    1    1    0    0    0 -0.46182724361E+02 -0.21548813393E+02 -0.36180265759E+02  0.62499656147E+02  0.00000000000E+00 0. -1.
</event>
<event>
 4    1  0.9957587E-003  0.9118800E+02  0.7818608E-02  0.1130116E+00
         25   -1    0    0    0    0  0.00000000000E+00  0.00000000000E+00  0.99999998245E-14  0.12500000000E+03  0.12500000000E+03 0.  0.
        -13    1    1    0    0    0 -0.82268200092E+01 -0.80950873413E+01  0.14359488646E+02  0.18423275624E+02  0.10566000000E+00 0.  1.
         13    1    1    0    0    0 -0.13758578815E+02 -0.16024446186E+02  0.38812921990E+02  0.44187503256E+02  0.10566000000E+00 0. -1.
         22    1    1    0    0    0  0.21985398824E+02  0.24119533527E+02 -0.53172410636E+02  0.62389221119E+02  0.00000000000E+00 0.  1.
</event>
<event>
 4    1  0.9957587E-003  0.9118800E+02  0.7818608E-02  0.1130116E+00
         25   -1    0    0    0    0  0.00000000000E+00  0.00000000000E+00  0.99999998245E-14  0.12500000000E+03  0.12500000000E+03 0.  0.
        -13    1    1    0    0    0  0.80473261372E+01 -0.28089124065E+02 -0.55405103736E+01  0.29739986011E+02  0.10566000000E+00 0.  1.
         13    1    1    0    0    0  0.86581271403E+01 -0.31059443938E+02 -0.57967778921E+01  0.32760739022E+02  0.10566000000E+00 0. -1.
         22    1    1    0    0    0 -0.16705453278E+02  0.59148568004E+02  0.11337288266E+02  0.62499274966E+02  0.00000000000E+00 0. -1.
</event>
<event>
 4    1  0.9957587E-003  0.9118800E+02  0.7818608E-02  0.1130116E+00
         25   -1    0    0    0    0  0.00000000000E+00  0.00000000000E+00  0.99999998245E-14  0.12500000000E+03  0.12500000000E+03 0.  0.
        -13    1    1    0    0    0 -0.14162211556E+01  0.38485016968E+01  0.67198934757E+01  0.78730413457E+01  0.10566000000E+00 0.  1.
         13    1    1    0    0    0 -0.99513909268E+01  0.26568857718E+02  0.46681963219E+02  0.54627385402E+02  0.10566000000E+00 0.  1.
         22    1    1    0    0    0  0.11367612082E+02 -0.30417359415E+02 -0.53401856695E+02  0.62499573252E+02  0.00000000000E+00 0.  1.
</event>
<event>
 4    1  0.9957587E-003  0.9118800E+02  0.7818608E-02  0.1130116E+00
         25   -1    0    0    0    0  0.00000000000E+00  0.00000000000E+00  0.99999998245E-14  0.12500000000E+03  0.12500000000E+03 0.  0.
        -13    1    1    0    0    0 -0.36247726274E+02 -0.21280184322E+02  0.36392775309E+01  0.42190039225E+02  0.10566000000E+00 0. -1.
         13    1    1    0    0    0 -0.17500312380E+02 -0.99857650176E+01  0.26046145262E+01  0.20316781665E+02  0.10566000000E+00 0.  1.
         22    1    1    0    0    0  0.53748038654E+02  0.31265949339E+02 -0.62438920570E+01  0.62493179110E+02  0.00000000000E+00 0. -1.
</event>
<event>
 4    1  0.9957587E-003  0.9118800E+02  0.7818608E-02  0.1130116E+00
         25   -1    0    0    0    0  0.00000000000E+00  0.00000000000E+00  0.99999998245E-14  0.12500000000E+03  0.12500000000E+03 0.  0.
        -13    1    1    0    0    0  0.54875303343E+02 -0.29286183215E+02  0.24402426054E+01  0.62249059369E+02  0.10566000000E+00 0. -1.
         13    1    1    0    0    0  0.21972008565E+00 -0.79086860729E-01  0.78143905258E-01  0.26795923777E+00  0.10566000000E+00 0. -1.
         22    1    1    0    0    0 -0.55095023429E+02  0.29365270075E+02 -0.25183865107E+01  0.62482981394E+02  0.00000000000E+00 0. -1.
</event>
<event>
 4    1  0.9957587E-003  0.9118800E+02  0.7818608E-02  0.1130116E+00
         25   -1    0    0    0    0  0.00000000000E+00  0.00000000000E+00  0.99999998245E-14  0.12500000000E+03  0.12500000000E+03 0.  0.
        -13    1    1    0    0    0  0.74901231063E+01 -0.22959833886E+02 -0.14571651403E+02  0.28206384115E+02  0.10566000000E+00 0. -1.
         13    1    1    0    0    0  0.91594387624E+01 -0.27917810549E+02 -0.17684871711E+02  0.34293808709E+02  0.10566000000E+00 0. -1.
         22    1    1    0    0    0 -0.16649561869E+02  0.50877644435E+02  0.32256523113E+02  0.62499807176E+02  0.00000000000E+00 0. -1.
</event>
<event>
 4    1  0.9957587E-003  0.9118800E+02  0.7818608E-02  0.1130116E+00
         25   -1    0    0    0    0  0.00000000000E+00  0.00000000000E+00  0.99999998245E-14  0.12500000000E+03  0.12500000000E+03 0.  0.
        -13    1    1    0    0    0 -0.82995644907E+01  0.13597169258E+02 -0.12290473613E+02  0.20120454473E+02  0.10566000000E+00 0.  1.
         13    1    1    0    0    0 -0.10681882658E+02  0.31418729417E+02 -0.26524556826E+02  0.42482966636E+02  0.10566000000E+00 0. -1.
         22    1    1    0    0    0  0.18981447149E+02 -0.45015898674E+02  0.38815030439E+02  0.62396578891E+02  0.00000000000E+00 0. -1.
</event>
<event>
 4    1  0.9957587E-003  0.9118800E+02  0.7818608E-02  0.1130116E+00
         25   -1    0    0    0    0  0.00000000000E+00  0.00000000000E+00  0.99999998245E-14  0.12500000000E+03  0.12500000000E+03 0.  0.
        -13    1    1    0    0    0  0.83356888480E+01 -0.40071314547E+02 -0.44607049973E+02  0.60539194159E+02  0.10566000000E+00 0. -1.
         13    1    1    0    0    0  0.30529170634E+00 -0.12864481704E+01 -0.14463318713E+01  0.19624453721E+01  0.10566000000E+00 0. -1.
         22    1    1    0    0    0 -0.86409805544E+01  0.41357762718E+02  0.46053381844E+02  0.62498360469E+02  0.00000000000E+00 0. -1.
</event>
<event>
 4    1  0.9957587E-003  0.9118800E+02  0.7818608E-02  0.1130116E+00
         25   -1    0    0    0    0  0.00000000000E+00  0.00000000000E+00  0.99999998245E-14  0.12500000000E+03  0.12500000000E+03 0.  0.
        -13    1    1    0    0    0  0.49807461888E+01  0.11134215589E+02 -0.10684914868E+02  0.16215953847E+02  0.10566000000E+00 0.  1.
         13    1    1    0    0    0  0.97884939398E+01  0.31639790163E+02 -0.32378047809E+02  0.46316736490E+02  0.10566000000E+00 0. -1.
         22    1    1    0    0    0 -0.14769240129E+02 -0.42774005753E+02  0.43062962676E+02  0.62467309663E+02  0.00000000000E+00 0. -1.
</event>
<event>
 4    1  0.9957587E-003  0.9118800E+02  0.7818608E-02  0.1130116E+00
         25   -1    0    0    0    0  0.00000000000E+00  0.00000000000E+00  0.99999998245E-14  0.12500000000E+03  0.12500000000E+03 0.  0.
        -13    1    1    0    0    0 -0.13399453504E+02 -0.47589769524E+01  0.45503122036E+02  0.47673247161E+02  0.10566000000E+00 0.  1.
         13    1    1    0    0    0 -0.16139136232E+01 -0.23663120622E+01  0.14646153479E+02  0.14923978213E+02  0.10566000000E+00 0. -1.
         22    1    1    0    0    0  0.15013367127E+02  0.71252890147E+01 -0.60149275514E+02  0.62402774625E+02  0.00000000000E+00 0.  1.
</event>
<event>
 4    1  0.9957587E-003  0.9118800E+02  0.7818608E-02  0.1130116E+00
         25   -1    0    0    0    0  0.00000000000E+00  0.00000000000E+00  0.99999998245E-14  0.12500000000E+03  0.12500000000E+03 0.  0.
        -13    1    1    0    0    0  0.11032421697E+02  0.47356717914E+02  0.21965785307E+01  0.48674522919E+02  0.10566000000E+00 0. -1.
         13    1    1    0    0    0  0.29538203315E+01  0.13488692960E+02  0.69650528219E+00  0.13826285690E+02  0.10566000000E+00 0.  1.
         22    1    1    0    0    0 -0.13986242028E+02 -0.60845410875E+02 -0.28930838129E+01  0.62499191391E+02  0.00000000000E+00 0. -1.
</event>
<event>
 4    1  0.9957587E-003  0.9118800E+02  0.7818608E-02  0.1130116E+00
         25   -1    0    0    0    0  0.00000000000E+00  0.00000000000E+00  0.99999998245E-14  0.12500000000E+03  0.12500000000E+03 0.  0.
        -13    1    1    0    0    0 -0.50919534839E+02 -0.26757753681E+02 -0.19732052951E+02  0.60812346509E+02  0.10566000000E+00 0. -1.
         13    1    1    0    0    0  0.50194151577E+01 -0.54993887257E-01 -0.35559611444E+01  0.61525260300E+01  0.10566000000E+00 0.  1.
         22    1    1    0    0    0  0.45900119681E+02  0.26812747568E+02  0.23288014095E+02  0.58035127461E+02  0.00000000000E+00 0. -1.
</event>
<event>
 4    1  0.9957587E-003  0.9118800E+02  0.7818608E-02  0.1130116E+00
         25   -1    0    0    0    0  0.00000000000E+00  0.00000000000E+00  0.99999998245E-14  0.12500000000E+03  0.12500000000E+03 0.  0.
        -13    1    1    0    0    0  0.48036508800E+02 -0.23441957039E+02 -0.18492720076E+02  0.56559909719E+02  0.10566000000E+00 0.  1.
         13    1    1    0    0    0  0.54120882293E+01 -0.26151324434E+01 -0.46373942375E+00  0.60295800008E+01  0.10566000000E+00 0. -1.
         22    1    1    0    0    0 -0.53448597029E+02  0.26057089483E+02  0.18956459500E+02  0.62410510281E+02  0.00000000000E+00 0.  1.
</event>
<event>
 4    1  0.9957587E-003  0.9118800E+02  0.7818608E-02  0.1130116E+00
         25   -1    0    0    0    0  0.00000000000E+00  0.00000000000E+00  0.99999998245E-14  0.12500000000E+03  0.12500000000E+03 0.  0.
        -13    1    1    0    0    0  0.10826500737E+02 -0.31076575502E+02  0.42135473677E+02  0.53463781845E+02  0.10566000000E+00 0. -1.
         13    1    1    0    0    0  0.39963766894E+01 -0.24357525043E+01  0.81002260958E+01  0.93556797586E+01  0.10566000000E+00 0.  1.
         22    1    1    0    0    0 -0.14822877426E+02  0.33512328006E+02 -0.50235699773E+02  0.62180538396E+02  0.00000000000E+00 0. -1.
</event>
<event>
 4    1  0.9957587E-003  0.9118800E+02  0.7818608E-02  0.1130116E+00
         25   -1    0    0    0    0  0.00000000000E+00  0.00000000000E+00  0.99999998245E-14  0.12500000000E+03  0.12500000000E+03 0.  0.
        -13    1    1    0    0    0  0.25955738417E+02  0.21259519421E+02  0.13003150177E+01  0.33576323592E+02  0.10566000000E+00 0.  1.
         13    1    1    0    0    0  0.25103805627E+02  0.14578786833E+02 -0.89599341728E-01  0.29030350920E+02  0.10566000000E+00 0. -1.
         22    1    1    0    0    0 -0.51059544043E+02 -0.35838306254E+02 -0.12107156760E+01  0.62393325488E+02  0.00000000000E+00 0. -1.
</event>
<event>
 4    1  0.9957587E-003  0.9118800E+02  0.7818608E-02  0.1130116E+00
         25   -1    0    0    0    0  0.00000000000E+00  0.00000000000E+00  0.99999998245E-14  0.12500000000E+03  0.12500000000E+03 0.  0.
        -13    1    1    0    0    0 -0.69246284537E+01 -0.23862123940E+00  0.51466419755E+02  0.51930828471E+02  0.10566000000E+00 0. -1.
         13    1    1    0    0    0 -0.15157067040E+01 -0.53700774947E-01  0.10459803744E+02  0.10569716599E+02  0.10566000000E+00 0.  1.
         22    1    1    0    0    0  0.84403351577E+01  0.29232201435E+00 -0.61926223498E+02  0.62499454930E+02  0.00000000000E+00 0. -1.
</event>
<event>
 4    1  0.9957587E-003  0.9118800E+02  0.7818608E-02  0.1130116E+00
         25   -1    0    0    0    0  0.00000000000E+00  0.00000000000E+00  0.99999998245E-14  0.12500000000E+03  0.12500000000E+03 0.  0.
        -13    1    1    0    0    0 -0.36990239314E+02 -0.28275832342E+02  0.19093662290E+02  0.50322754324E+02  0.10566000000E+00 0.  1.
         13    1    1    0    0    0 -0.89634064473E+01 -0.64166643816E+01  0.51932667940E+01  0.12185951787E+02  0.10566000000E+00 0. -1.
         22    1    1    0    0    0  0.45953645761E+02  0.34692496723E+02 -0.24286929084E+02  0.62491293889E+02  0.00000000000E+00 0.  1.
</event>
<event>
 4    1  0.9957587E-003  0.9118800E+02  0.7818608E-02  0.1130116E+00
         25   -1    0    0    0    0  0.00000000000E+00  0.00000000000E+00  0.99999998245E-14  0.12500000000E+03  0.12500000000E+03 0.  0.
        -13    1    1    0    0    0 -0.21824291033E+02  0.30830516753E+02 -0.37590018657E+02  0.53290159589E+02  0.10566000000E+00 0. -1.
         13    1    1    0    0    0 -0.36231633982E+01  0.57690672968E+01 -0.62076515275E+01  0.92171336112E+01  0.10566000000E+00 0.  1.
         22    1    1    0    0    0  0.25447454431E+02 -0.36599584050E+02  0.43797670184E+02  0.62492706800E+02  0.00000000000E+00 0. -1.
</event>
<event>
 4    1  0.9957587E-003  0.9118800E+02  0.7818608E-02  0.1130116E+00
         25   -1    0    0    0    0  0.00000000000E+00  0.00000000000E+00  0.99999998245E-14  0.12500000000E+03  0.12500000000E+03 0.  0.
        -13    1    1    0    0    0 -0.12101792165E+01  0.44958741022E+01 -0.22938763884E+02  0.23406739846E+02  0.10566000000E+00 0. -1.
         13    1    1    0    0    0  0.60594787574E+01  0.12608043064E+02 -0.36745112851E+02  0.39317865089E+02  0.10566000000E+00 0.  1.
         22    1    1    0    0    0 -0.48492995410E+01 -0.17103917166E+02  0.59683876734E+02  0.62275395065E+02  0.00000000000E+00 0.  1.
</event>
<event>
 4    1  0.9957587E-003  0.9118800E+02  0.7818608E-02  0.1130116E+00
         25   -1    0    0    0    0  0.00000000000E+00  0.00000000000E+00  0.99999998245E-14  0.12500000000E+03  0.12500000000E+03 0.  0.
        -13    1    1    0    0    0  0.19984691647E+02 -0.10682021396E+02 -0.10201305325E+02  0.24850981383E+02  0.10566000000E+00 0.  1.
         13    1    1    0    0    0  0.30063057244E+02 -0.16169391554E+02 -0.15882705610E+02  0.37649809238E+02  0.10566000000E+00 0.  1.
         22    1    1    0    0    0 -0.50047748892E+02  0.26851412951E+02  0.26084010935E+02  0.62499209379E+02  0.00000000000E+00 0.  1.
</event>
<event>
 4    1  0.9957587E-003  0.9118800E+02  0.7818608E-02  0.1130116E+00
         25   -1    0    0    0    0  0.00000000000E+00  0.00000000000E+00  0.99999998245E-14  0.12500000000E+03  0.12500000000E+03 0.  0.
        -13    1    1    0    0    0  0.19435686015E+02 -0.14838449171E+02 -0.27510714998E+02  0.36807282817E+02  0.10566000000E+00 0.  1.
         13    1    1    0    0    0  0.17712648424E+02 -0.13670983934E+02 -0.13341064152E+02  0.26050506188E+02  0.10566000000E+00 0. -1.
         22    1    1    0    0    0 -0.37148334439E+02  0.28509433105E+02  0.40851779150E+02  0.62142210994E+02  0.00000000000E+00 0.  1.
</event>
<event>
 4    1  0.9957587E-003  0.9118800E+02  0.7818608E-02  0.1130116E+00
         25   -1    0    0    0    0  0.00000000000E+00  0.00000000000E+00  0.99999998245E-14  0.12500000000E+03  0.12500000000E+03 0.  0.
        -13    1    1    0    0    0  0.24065936439E+01  0.23488738428E+02 -0.21211977737E+02  0.31740694533E+02  0.10566000000E+00 0. -1.
         13    1    1    0    0    0  0.21520602041E+01  0.22857603632E+02 -0.20470605418E+02  0.30759685583E+02  0.10566000000E+00 0. -1.
         22    1    1    0    0    0 -0.45586538480E+01 -0.46346342060E+02  0.41682583155E+02  0.62499619884E+02  0.00000000000E+00 0. -1.
</event>
<event>
 4    1  0.9957587E-003  0.9118800E+02  0.7818608E-02  0.1130116E+00
         25   -1    0    0    0    0  0.00000000000E+00  0.00000000000E+00  0.99999998245E-14  0.12500000000E+03  0.12500000000E+03 0.  0.
        -13    1    1    0    0    0 -0.15329033542E+02 -0.68251187509E+01 -0.47055412473E+02  0.49957827438E+02  0.10566000000E+00 0. -1.
         13    1    1    0    0    0 -0.28912659417E+01 -0.28188464476E+01 -0.11910312171E+02  0.12576645582E+02  0.10566000000E+00 0.  1.
         22    1    1    0    0    0  0.18220299484E+02  0.96439651985E+01  0.58965724644E+02  0.62465526980E+02  0.00000000000E+00 0. -1.
</event>
<event>
 4    1  0.9957587E-003  0.9118800E+02  0.7818608E-02  0.1130116E+00
         25   -1    0    0    0    0  0.00000000000E+00  0.00000000000E+00  0.99999998245E-14  0.12500000000E+03  0.12500000000E+03 0.  0.
        -13    1    1    0    0    0  0.43020433421E+01 -0.15351258641E+02  0.24168960637E+02  0.28953731039E+02  0.10566000000E+00 0.  1.
         13    1    1    0    0    0  0.42733857546E+01 -0.16585357829E+02  0.28855446956E+02  0.33555683620E+02  0.10566000000E+00 0. -1.
         22    1    1    0    0    0 -0.85754290966E+01  0.31936616470E+02 -0.53024407593E+02  0.62490585341E+02  0.00000000000E+00 0. -1.
</event>
<event>
 4    1  0.9957587E-003  0.9118800E+02  0.7818608E-02  0.1130116E+00
         25   -1    0    0    0    0  0.00000000000E+00  0.00000000000E+00  0.99999998245E-14  0.12500000000E+03  0.12500000000E+03 0.  0.
        -13    1    1    0    0    0 -0.37365710969E+02 -0.32793154592E+02  0.47546707455E+01  0.49942020406E+02  0.10566000000E+00 0. -1.
         13    1    1    0    0    0 -0.92787459006E+01 -0.83639089748E+01  0.12896263053E+01  0.12558837481E+02  0.10566000000E+00 0.  1.
         22    1    1    0    0    0  0.46644456870E+02  0.41157063566E+02 -0.60442970508E+01  0.62499142113E+02  0.00000000000E+00 0. -1.
</event>
<event>
 4    1  0.9957587E-003  0.9118800E+02  0.7818608E-02  0.1130116E+00
         25   -1    0    0    0    0  0.00000000000E+00  0.00000000000E+00  0.99999998245E-14  0.12500000000E+03  0.12500000000E+03 0.  0.
        -13    1    1    0    0    0 -0.94866127016E+00  0.33026592288E+02  0.45878238023E+02  0.56537418092E+02  0.10566000000E+00 0. -1.
         13    1    1    0    0    0 -0.16890869015E+00  0.32886233872E+01  0.49730536194E+01  0.59654002603E+01  0.10566000000E+00 0.  1.
         22    1    1    0    0    0  0.11175699603E+01 -0.36315215676E+02 -0.50851291642E+02  0.62497181648E+02  0.00000000000E+00 0. -1.
</event>
<event>
 4    1  0.9957587E-003  0.9118800E+02  0.7818608E-02  0.1130116E+00
         25   -1    0    0    0    0  0.00000000000E+00  0.00000000000E+00  0.99999998245E-14  0.12500000000E+03  0.12500000000E+03 0.  0.
        -13    1    1    0    0    0 -0.19399532705E+01 -0.73210961353E+01  0.41007022341E+01  0.86132914825E+01  0.10566000000E+00 0.  1.
         13    1    1    0    0    0  0.13148561910E+01 -0.52201082245E+02  0.14195450668E+02  0.54112880335E+02  0.10566000000E+00 0. -1.
         22    1    1    0    0    0  0.62509707953E+00  0.59522178381E+02 -0.18296152902E+02  0.62273828183E+02  0.00000000000E+00 0. -1.
</event>
<event>
 4    1  0.9957587E-003  0.9118800E+02  0.7818608E-02  0.1130116E+00
         25   -1    0    0    0    0  0.00000000000E+00  0.00000000000E+00  0.99999998245E-14  0.12500000000E+03  0.12500000000E+03 0.  0.
        -13    1    1    0    0    0  0.20650266390E+02 -0.37586948766E+01  0.23350427643E+02  0.31397689792E+02  0.10566000000E+00 0. -1.
         13    1    1    0    0    0  0.20682366959E+02 -0.41713476814E+01  0.22853354704E+02  0.31103816965E+02  0.10566000000E+00 0. -1.
         22    1    1    0    0    0 -0.41332633349E+02  0.79300425580E+01 -0.46203782347E+02  0.62498493243E+02  0.00000000000E+00 0. -1.
</event>
<event>
 4    1  0.9957587E-003  0.9118800E+02  0.7818608E-02  0.1130116E+00
         25   -1    0    0    0    0  0.00000000000E+00  0.00000000000E+00  0.99999998245E-14  0.12500000000E+03  0.12500000000E+03 0.  0.
        -13    1    1    0    0    0  0.51255547472E+01 -0.60340834211E+02  0.12251101884E+02  0.61785016356E+02  0.10566000000E+00 0.  1.
         13    1    1    0    0    0  0.48224496189E-02 -0.68604832253E+00  0.19480343866E+00  0.72097016039E+00  0.10566000000E+00 0.  1.
         22    1    1    0    0    0 -0.51303771968E+01  0.61026882533E+02 -0.12445905323E+02  0.62494013483E+02  0.00000000000E+00 0.  1.
</event>
<event>
 4    1  0.9957587E-003  0.9118800E+02  0.7818608E-02  0.1130116E+00
         25   -1    0    0    0    0  0.00000000000E+00  0.00000000000E+00  0.99999998245E-14  0.12500000000E+03  0.12500000000E+03 0.  0.
        -13    1    1    0    0    0 -0.11267635606E+02 -0.49059710678E+00 -0.80853606919E+01  0.13877482453E+02  0.10566000000E+00 0. -1.
         13    1    1    0    0    0 -0.39502683931E+02 -0.17319893660E+01 -0.28296670504E+02  0.48622778104E+02  0.10566000000E+00 0. -1.
         22    1    1    0    0    0  0.50770319537E+02  0.22225864728E+01  0.36382031196E+02  0.62499739443E+02  0.00000000000E+00 0. -1.
</event>
<event>
 4    1  0.9957587E-003  0.9118800E+02  0.7818608E-02  0.1130116E+00
         25   -1    0    0    0    0  0.00000000000E+00  0.00000000000E+00  0.99999998245E-14  0.12500000000E+03  0.12500000000E+03 0.  0.
        -13    1    1    0    0    0  0.28346171411E+02 -0.22515164237E+02  0.81730293646E+01  0.37111287061E+02  0.10566000000E+00 0.  1.
         13    1    1    0    0    0  0.14241910846E+02  0.10911887444E+02  0.26331006841E+02  0.31862743094E+02  0.10566000000E+00 0. -1.
         22    1    1    0    0    0 -0.42588082257E+02  0.11603276793E+02 -0.34504036206E+02  0.56025969846E+02  0.00000000000E+00 0. -1.
</event>
<event>
 4    1  0.9957587E-003  0.9118800E+02  0.7818608E-02  0.1130116E+00
         25   -1    0    0    0    0  0.00000000000E+00  0.00000000000E+00  0.99999998245E-14  0.12500000000E+03  0.12500000000E+03 0.  0.
        -13    1    1    0    0    0  0.77506742938E+00  0.15082177720E+01 -0.23528013508E+01  0.29021179507E+01  0.10566000000E+00 0. -1.
         13    1    1    0    0    0  0.19556897281E+02  0.32114059345E+02 -0.46245746490E+02  0.59602560946E+02  0.10566000000E+00 0.  1.
         22    1    1    0    0    0 -0.20331964710E+02 -0.33622277117E+02  0.48598547841E+02  0.62495321103E+02  0.00000000000E+00 0.  1.
</event>
<event>
 4    1  0.9957587E-003  0.9118800E+02  0.7818608E-02  0.1130116E+00
         25   -1    0    0    0    0  0.00000000000E+00  0.00000000000E+00  0.99999998245E-14  0.12500000000E+03  0.12500000000E+03 0.  0.
        -13    1    1    0    0    0  0.27829680213E+02 -0.12804027448E+02  0.21682462408E+02  0.37530981332E+02  0.10566000000E+00 0.  1.
         13    1    1    0    0    0  0.16998126107E+02 -0.14567238578E+02  0.11675211338E+02  0.25248018828E+02  0.10566000000E+00 0. -1.
         22    1    1    0    0    0 -0.44827806320E+02  0.27371266026E+02 -0.33357673746E+02  0.62220999840E+02  0.00000000000E+00 0.  1.
</event>
<event>
 4    1  0.9957587E-003  0.9118800E+02  0.7818608E-02  0.1130116E+00
         25   -1    0    0    0    0  0.00000000000E+00  0.00000000000E+00  0.99999998245E-14  0.12500000000E+03  0.12500000000E+03 0.  0.
        -13    1    1    0    0    0  0.18586248691E+02  0.38339623453E+01 -0.41710089367E+01  0.19430810258E+02  0.10566000000E+00 0.  1.
         13    1    1    0    0    0  0.42046434332E+02  0.49763122773E+01 -0.80351679495E+01  0.43095723825E+02  0.10566000000E+00 0. -1.
         22    1    1    0    0    0 -0.60632683024E+02 -0.88102746226E+01  0.12206176886E+02  0.62473465918E+02  0.00000000000E+00 0. -1.
</event>
<event>
 4    1  0.9957587E-003  0.9118800E+02  0.7818608E-02  0.1130116E+00
         25   -1    0    0    0    0  0.00000000000E+00  0.00000000000E+00  0.99999998245E-14  0.12500000000E+03  0.12500000000E+03 0.  0.
        -13    1    1    0    0    0 -0.13208149820E+02  0.86439958307E+01  0.58054811069E+01  0.16819294293E+02  0.10566000000E+00 0.  1.
         13    1    1    0    0    0 -0.36072658995E+02  0.23696088034E+02  0.14969723241E+02  0.45681999661E+02  0.10566000000E+00 0. -1.
         22    1    1    0    0    0  0.49280808815E+02 -0.32340083865E+02 -0.20775204347E+02  0.62498706047E+02  0.00000000000E+00 0. -1.
</event>
<event>
 4    1  0.9957587E-003  0.9118800E+02  0.7818608E-02  0.1130116E+00
         25   -1    0    0    0    0  0.00000000000E+00  0.00000000000E+00  0.99999998245E-14  0.12500000000E+03  0.12500000000E+03 0.  0.
        -13    1    1    0    0    0 -0.30855648683E+02 -0.39172078809E+02 -0.26334818216E+02  0.56391990817E+02  0.10566000000E+00 0. -1.
         13    1    1    0    0    0 -0.33761183306E+01 -0.41049533422E+01 -0.30124136828E+01  0.61102059831E+01  0.10566000000E+00 0.  1.
         22    1    1    0    0    0  0.34231767013E+02  0.43277032151E+02  0.29347231898E+02  0.62497803200E+02  0.00000000000E+00 0. -1.
</event>
<event>
 4    1  0.9957587E-003  0.9118800E+02  0.7818608E-02  0.1130116E+00
         25   -1    0    0    0    0  0.00000000000E+00  0.00000000000E+00  0.99999998245E-14  0.12500000000E+03  0.12500000000E+03 0.  0.
        -13    1    1    0    0    0  0.17939944630E+01  0.18248553952E+01  0.57234752276E+01  0.62703944105E+01  0.10566000000E+00 0. -1.
         13    1    1    0    0    0  0.17748149263E+02  0.17362850331E+02  0.50453682520E+02  0.56232113759E+02  0.10566000000E+00 0. -1.
         22    1    1    0    0    0 -0.19542143726E+02 -0.19187705726E+02 -0.56177157748E+02  0.62497491831E+02  0.00000000000E+00 0. -1.
</event>
<event>
 4    1  0.9957587E-003  0.9118800E+02  0.7818608E-02  0.1130116E+00
         25   -1    0    0    0    0  0.00000000000E+00  0.00000000000E+00  0.99999998245E-14  0.12500000000E+03  0.12500000000E+03 0.  0.
        -13    1    1    0    0    0 -0.13066089333E+02  0.10903456958E+02 -0.50646280795E+02  0.53429064998E+02  0.10566000000E+00 0. -1.
         13    1    1    0    0    0 -0.27575574853E+01  0.27179655197E+01 -0.82333868894E+01  0.90989715659E+01  0.10566000000E+00 0.  1.
         22    1    1    0    0    0  0.15823646818E+02 -0.13621422478E+02  0.58879667685E+02  0.62471963436E+02  0.00000000000E+00 0. -1.
</event>
<event>
 4    1  0.9957587E-003  0.9118800E+02  0.7818608E-02  0.1130116E+00
         25   -1    0    0    0    0  0.00000000000E+00  0.00000000000E+00  0.99999998245E-14  0.12500000000E+03  0.12500000000E+03 0.  0.
        -13    1    1    0    0    0  0.89628262404E+01  0.28203842343E+02  0.24694080715E+02  0.38543452927E+02  0.10566000000E+00 0. -1.
         13    1    1    0    0    0 -0.13840640173E+02  0.24265865181E+02  0.73592108777E+00  0.27945451817E+02  0.10566000000E+00 0.  1.
         22    1    1    0    0    0  0.48778139325E+01 -0.52469707524E+02 -0.25430001803E+02  0.58511095256E+02  0.00000000000E+00 0. -1.
</event>
<event>
 4    1  0.9957587E-003  0.9118800E+02  0.7818608E-02  0.1130116E+00
         25   -1    0    0    0    0  0.00000000000E+00  0.00000000000E+00  0.99999998245E-14  0.12500000000E+03  0.12500000000E+03 0.  0.
        -13    1    1    0    0    0 -0.15291812410E+02  0.11824005472E+02  0.47387449571E+02  0.51178395569E+02  0.10566000000E+00 0. -1.
         13    1    1    0    0    0 -0.14503656226E+02 -0.20634471117E+02 -0.17411905256E+02  0.30648377622E+02  0.10566000000E+00 0.  1.
         22    1    1    0    0    0  0.29795468636E+02  0.88104656452E+01 -0.29975544315E+02  0.43173226809E+02  0.00000000000E+00 0. -1.
</event>
<event>
 4    1  0.9957587E-003  0.9118800E+02  0.7818608E-02  0.1130116E+00
         25   -1    0    0    0    0  0.00000000000E+00  0.00000000000E+00  0.99999998245E-14  0.12500000000E+03  0.12500000000E+03 0.  0.
        -13    1    1    0    0    0  0.50188329197E+02 -0.62797533866E+01 -0.31904658598E+02  0.59801522510E+02  0.10566000000E+00 0. -1.
         13    1    1    0    0    0  0.23080424826E+01 -0.38389740995E+00 -0.13460836681E+01  0.27013964167E+01  0.10566000000E+00 0.  1.
         22    1    1    0    0    0 -0.52496371680E+02  0.66636507966E+01  0.33250742266E+02  0.62497081074E+02  0.00000000000E+00 0. -1.
</event>
<event>
 4    1  0.9957587E-003  0.9118800E+02  0.7818608E-02  0.1130116E+00
         25   -1    0    0    0    0  0.00000000000E+00  0.00000000000E+00  0.99999998245E-14  0.12500000000E+03  0.12500000000E+03 0.  0.
        -13    1    1    0    0    0 -0.32507588122E+01  0.42248970147E+01 -0.95403494434E+01  0.10929163700E+02  0.10566000000E+00 0. -1.
         13    1    1    0    0    0 -0.15477969950E+02  0.18779577561E+02 -0.45469421063E+02  0.51572468460E+02  0.10566000000E+00 0.  1.
         22    1    1    0    0    0  0.18728728762E+02 -0.23004474575E+02  0.55009770507E+02  0.62498367841E+02  0.00000000000E+00 0.  1.
</event>
<event>
 4    1  0.9957587E-003  0.9118800E+02  0.7818608E-02  0.1130116E+00
         25   -1    0    0    0    0  0.00000000000E+00  0.00000000000E+00  0.99999998245E-14  0.12500000000E+03  0.12500000000E+03 0.  0.
        -13    1    1    0    0    0 -0.58754702827E-01  0.94262623395E+00 -0.62306006088E+01  0.63026616848E+01  0.10566000000E+00 0.  1.
         13    1    1    0    0    0  0.16294742685E+02  0.22511270830E+02 -0.49115659891E+02  0.56432571837E+02  0.10566000000E+00 0. -1.
         22    1    1    0    0    0 -0.16235987982E+02 -0.23453897064E+02  0.55346260500E+02  0.62264766478E+02  0.00000000000E+00 0. -1.
</event>
<event>
 4    1  0.9957587E-003  0.9118800E+02  0.7818608E-02  0.1130116E+00
         25   -1    0    0    0    0  0.00000000000E+00  0.00000000000E+00  0.99999998245E-14  0.12500000000E+03  0.12500000000E+03 0.  0.
        -13    1    1    0    0    0 -0.10053327120E+01 -0.49168016447E+01  0.31454205437E+01  0.59237206811E+01  0.10566000000E+00 0.  1.
         13    1    1    0    0    0 -0.10213713849E+02 -0.48100161101E+02  0.27986731370E+02  0.56579269572E+02  0.10566000000E+00 0.  1.
         22    1    1    0    0    0  0.11219046561E+02  0.53016962746E+02 -0.31132151914E+02  0.62497009747E+02  0.00000000000E+00 0.  1.
</event>
<event>
 4    1  0.9957587E-003  0.9118800E+02  0.7818608E-02  0.1130116E+00
         25   -1    0    0    0    0  0.00000000000E+00  0.00000000000E+00  0.99999998245E-14  0.12500000000E+03  0.12500000000E+03 0.  0.
        -13    1    1    0    0    0 -0.23435867777E+01  0.11293643179E+02  0.83919705514E+01  0.14264470162E+02  0.10566000000E+00 0.  1.
         13    1    1    0    0    0 -0.43964357182E+02  0.22161246472E+02  0.10921232519E+02  0.50430844048E+02  0.10566000000E+00 0. -1.
         22    1    1    0    0    0  0.46307943960E+02 -0.33454889651E+02 -0.19313203070E+02  0.60304685790E+02  0.00000000000E+00 0. -1.
</event>
<event>
 4    1  0.9957587E-003  0.9118800E+02  0.7818608E-02  0.1130116E+00
         25   -1    0    0    0    0  0.00000000000E+00  0.00000000000E+00  0.99999998245E-14  0.12500000000E+03  0.12500000000E+03 0.  0.
        -13    1    1    0    0    0 -0.29625418411E+02 -0.10488373380E+02  0.21084040218E+02  0.37844673445E+02  0.10566000000E+00 0.  1.
         13    1    1    0    0    0 -0.23691017849E+02 -0.12089530142E+02 -0.82790072868E+01  0.27856313314E+02  0.10566000000E+00 0. -1.
         22    1    1    0    0    0  0.53316436261E+02  0.22577903521E+02 -0.12805032931E+02  0.59299013241E+02  0.00000000000E+00 0. -1.
</event>
<event>
 4    1  0.9957587E-003  0.9118800E+02  0.7818608E-02  0.1130116E+00
         25   -1    0    0    0    0  0.00000000000E+00  0.00000000000E+00  0.99999998245E-14  0.12500000000E+03  0.12500000000E+03 0.  0.
        -13    1    1    0    0    0 -0.27910677256E+01 -0.97588762714E+00  0.17722386149E+02  0.17967652895E+02  0.10566000000E+00 0.  1.
         13    1    1    0    0    0 -0.13693337787E+02 -0.14866820699E+02  0.40071421876E+02  0.44880506600E+02  0.10566000000E+00 0. -1.
         22    1    1    0    0    0  0.16484405513E+02  0.15842708326E+02 -0.57793808025E+02  0.62151840505E+02  0.00000000000E+00 0. -1.
</event>
<event>
 4    1  0.9957587E-003  0.9118800E+02  0.7818608E-02  0.1130116E+00
         25   -1    0    0    0    0  0.00000000000E+00  0.00000000000E+00  0.99999998245E-14  0.12500000000E+03  0.12500000000E+03 0.  0.
        -13    1    1    0    0    0 -0.14788015640E+01 -0.13898995748E+02  0.50723486837E+01  0.14869728379E+02  0.10566000000E+00 0. -1.
         13    1    1    0    0    0 -0.41009386664E+02  0.42263446364E+01  0.32576072269E+02  0.52543728760E+02  0.10566000000E+00 0.  1.
         22    1    1    0    0    0  0.42488188228E+02  0.96726511118E+01 -0.37648420953E+02  0.57586542860E+02  0.00000000000E+00 0.  1.
</event>
<event>
 4    1  0.9957587E-003  0.9118800E+02  0.7818608E-02  0.1130116E+00
         25   -1    0    0    0    0  0.00000000000E+00  0.00000000000E+00  0.99999998245E-14  0.12500000000E+03  0.12500000000E+03 0.  0.
        -13    1    1    0    0    0 -0.21673974384E+02  0.91097479740E+01  0.49326909617E+02  0.54643424583E+02  0.10566000000E+00 0.  1.
         13    1    1    0    0    0 -0.34081841334E+01  0.18412074762E+01  0.68485020149E+01  0.78688568382E+01  0.10566000000E+00 0. -1.
         22    1    1    0    0    0  0.25082158517E+02 -0.10950955450E+02 -0.56175411632E+02  0.62487718579E+02  0.00000000000E+00 0.  1.
</event>
<event>
 4    1  0.9957587E-003  0.9118800E+02  0.7818608E-02  0.1130116E+00
         25   -1    0    0    0    0  0.00000000000E+00  0.00000000000E+00  0.99999998245E-14  0.12500000000E+03  0.12500000000E+03 0.  0.
        -13    1    1    0    0    0 -0.29731013200E+02 -0.48713849228E+02 -0.12940766710E+02  0.58518773565E+02  0.10566000000E+00 0. -1.
         13    1    1    0    0    0 -0.41584140394E+01 -0.14276084033E+01 -0.67278178576E+00  0.44490754593E+01  0.10566000000E+00 0.  1.
         22    1    1    0    0    0  0.33889427240E+02  0.50141457631E+02  0.13613548496E+02  0.62032150975E+02  0.00000000000E+00 0. -1.
</event>
<event>
 4    1  0.9957587E-003  0.9118800E+02  0.7818608E-02  0.1130116E+00
         25   -1    0    0    0    0  0.00000000000E+00  0.00000000000E+00  0.99999998245E-14  0.12500000000E+03  0.12500000000E+03 0.  0.
        -13    1    1    0    0    0  0.66790006876E+01  0.36432554532E+01  0.20038388900E+02  0.21434331206E+02  0.10566000000E+00 0.  1.
         13    1    1    0    0    0 -0.18210745007E+01  0.16970064745E+02  0.38068599712E+02  0.41719645946E+02  0.10566000000E+00 0. -1.
         22    1    1    0    0    0 -0.48579261869E+01 -0.20613320198E+02 -0.58106988613E+02  0.61846022848E+02  0.00000000000E+00 0.  1.
</event>
<event>
 4    1  0.9957587E-003  0.9118800E+02  0.7818608E-02  0.1130116E+00
         25   -1    0    0    0    0  0.00000000000E+00  0.00000000000E+00  0.99999998245E-14  0.12500000000E+03  0.12500000000E+03 0.  0.
        -13    1    1    0    0    0  0.65608536221E+01 -0.14257626895E+02  0.29625920809E+02  0.33526572636E+02  0.10566000000E+00 0.  1.
         13    1    1    0    0    0  0.58168394520E+01 -0.12061203837E+02  0.25693903210E+02  0.28974058835E+02  0.10566000000E+00 0. -1.
         22    1    1    0    0    0 -0.12377693074E+02  0.26318830732E+02 -0.55319824019E+02  0.62499368528E+02  0.00000000000E+00 0. -1.
</event>
<event>
 4    1  0.9957587E-003  0.9118800E+02  0.7818608E-02  0.1130116E+00
         25   -1    0    0    0    0  0.00000000000E+00  0.00000000000E+00  0.99999998245E-14  0.12500000000E+03  0.12500000000E+03 0.  0.
        -13    1    1    0    0    0 -0.31316404784E+02 -0.47040166672E+02 -0.21968529090E+02  0.60631031028E+02  0.10566000000E+00 0.  1.
         13    1    1    0    0    0 -0.74331515570E+00 -0.18496071643E+01  0.29966629974E+00  0.20185460138E+01  0.10566000000E+00 0. -1.
         22    1    1    0    0    0  0.32059719940E+02  0.48889773836E+02  0.21668862790E+02  0.62350422958E+02  0.00000000000E+00 0.  1.
</event>
<event>
 4    1  0.9957587E-003  0.9118800E+02  0.7818608E-02  0.1130116E+00
         25   -1    0    0    0    0  0.00000000000E+00  0.00000000000E+00  0.99999998245E-14  0.12500000000E+03  0.12500000000E+03 0.  0.
        -13    1    1    0    0    0 -0.32478661465E+02  0.23806065719E+02  0.92828546938E+01  0.41325231650E+02  0.10566000000E+00 0.  1.
         13    1    1    0    0    0 -0.16192138345E+02  0.12596767724E+02  0.52639101043E+01  0.21179797329E+02  0.10566000000E+00 0. -1.
         22    1    1    0    0    0  0.48670799810E+02 -0.36402833443E+02 -0.14546764798E+02  0.62494971021E+02  0.00000000000E+00 0. -1.
</event>
<event>
 4    1  0.9957587E-003  0.9118800E+02  0.7818608E-02  0.1130116E+00
         25   -1    0    0    0    0  0.00000000000E+00  0.00000000000E+00  0.99999998245E-14  0.12500000000E+03  0.12500000000E+03 0.  0.
        -13    1    1    0    0    0 -0.15920107730E+01  0.24260946238E+01 -0.23430948074E+01  0.37311781969E+01  0.10566000000E+00 0.  1.
         13    1    1    0    0    0 -0.10296932458E+02  0.42973998417E+02 -0.38837823348E+02  0.58831786004E+02  0.10566000000E+00 0. -1.
         22    1    1    0    0    0  0.11888943231E+02 -0.45400093041E+02  0.41180918155E+02  0.62437035799E+02  0.00000000000E+00 0. -1.
</event>
<event>
 4    1  0.9957587E-003  0.9118800E+02  0.7818608E-02  0.1130116E+00
         25   -1    0    0    0    0  0.00000000000E+00  0.00000000000E+00  0.99999998245E-14  0.12500000000E+03  0.12500000000E+03 0.  0.
        -13    1    1    0    0    0 -0.34412201843E+02  0.21382918558E+02  0.24350245936E+02  0.47269170533E+02  0.10566000000E+00 0.  1.
         13    1    1    0    0    0 -0.11075214998E+02  0.67869877491E+01  0.79535674523E+01  0.15231348896E+02  0.10566000000E+00 0.  1.
         22    1    1    0    0    0  0.45487416840E+02 -0.28169906307E+02 -0.32303813388E+02  0.62499480570E+02  0.00000000000E+00 0.  1.
</event>
<event>
 4    1  0.9957587E-003  0.9118800E+02  0.7818608E-02  0.1130116E+00
         25   -1    0    0    0    0  0.00000000000E+00  0.00000000000E+00  0.99999998245E-14  0.12500000000E+03  0.12500000000E+03 0.  0.
        -13    1    1    0    0    0 -0.27725224220E+02 -0.34716452792E+02 -0.42805489441E+02  0.61694742425E+02  0.10566000000E+00 0.  1.
         13    1    1    0    0    0  0.79488895678E+00 -0.93483461790E+00 -0.24986000814E+00  0.12567252189E+01  0.10566000000E+00 0. -1.
         22    1    1    0    0    0  0.26930335263E+02  0.35651287410E+02  0.43055349450E+02  0.62048532356E+02  0.00000000000E+00 0.  1.
</event>
<event>
 4    1  0.9957587E-003  0.9118800E+02  0.7818608E-02  0.1130116E+00
         25   -1    0    0    0    0  0.00000000000E+00  0.00000000000E+00  0.99999998245E-14  0.12500000000E+03  0.12500000000E+03 0.  0.
        -13    1    1    0    0    0  0.41307592535E+02  0.27916608890E+02 -0.28997290485E+02  0.57675889872E+02  0.10566000000E+00 0.  1.
         13    1    1    0    0    0 -0.92929182403E+01  0.44605699560E+01 -0.40364838588E+01  0.11070653988E+02  0.10566000000E+00 0. -1.
         22    1    1    0    0    0 -0.32014674295E+02 -0.32377178846E+02  0.33033774344E+02  0.56253456140E+02  0.00000000000E+00 0.  1.
</event>
<event>
 4    1  0.9957587E-003  0.9118800E+02  0.7818608E-02  0.1130116E+00
         25   -1    0    0    0    0  0.00000000000E+00  0.00000000000E+00  0.99999998245E-14  0.12500000000E+03  0.12500000000E+03 0.  0.
        -13    1    1    0    0    0  0.20331055436E+01  0.19994948569E+01  0.59267663804E+01  0.65779344476E+01  0.10566000000E+00 0. -1.
         13    1    1    0    0    0  0.15133880281E+02  0.17576141351E+02  0.50888489970E+02  0.55924991306E+02  0.10566000000E+00 0.  1.
         22    1    1    0    0    0 -0.17166985824E+02 -0.19575636208E+02 -0.56815256350E+02  0.62497074246E+02  0.00000000000E+00 0.  1.
</event>
<event>
 4    1  0.9957587E-003  0.9118800E+02  0.7818608E-02  0.1130116E+00
         25   -1    0    0    0    0  0.00000000000E+00  0.00000000000E+00  0.99999998245E-14  0.12500000000E+03  0.12500000000E+03 0.  0.
        -13    1    1    0    0    0 -0.17530579056E+01 -0.43327130426E+01  0.13421039725E+02  0.14212004984E+02  0.10566000000E+00 0.  1.
         13    1    1    0    0    0 -0.48269802977E+02 -0.86781295214E+01 -0.28783113820E+02  0.56866181660E+02  0.10566000000E+00 0. -1.
         22    1    1    0    0    0  0.50022860882E+02  0.13010842564E+02  0.15362074096E+02  0.53921813356E+02  0.00000000000E+00 0. -1.
</event>
<event>
 4    1  0.9957587E-003  0.9118800E+02  0.7818608E-02  0.1130116E+00
         25   -1    0    0    0    0  0.00000000000E+00  0.00000000000E+00  0.99999998245E-14  0.12500000000E+03  0.12500000000E+03 0.  0.
        -13    1    1    0    0    0 -0.77711673118E+01  0.41233747723E+02  0.37392399393E+02  0.56203342330E+02  0.10566000000E+00 0. -1.
         13    1    1    0    0    0 -0.45371412891E+01  0.60914832652E+01 -0.63548175337E+00  0.76227829919E+01  0.10566000000E+00 0.  1.
         22    1    1    0    0    0  0.12308308601E+02 -0.47325230989E+02 -0.36756917639E+02  0.61173874678E+02  0.00000000000E+00 0. -1.
</event>
<event>
 4    1  0.9957587E-003  0.9118800E+02  0.7818608E-02  0.1130116E+00
         25   -1    0    0    0    0  0.00000000000E+00  0.00000000000E+00  0.99999998245E-14  0.12500000000E+03  0.12500000000E+03 0.  0.
        -13    1    1    0    0    0 -0.18702888788E+01 -0.85553777627E+01  0.32579833726E+02  0.33736466898E+02  0.10566000000E+00 0.  1.
         13    1    1    0    0    0 -0.94699684639E+00 -0.61245753015E+01  0.28097026041E+02  0.28772578300E+02  0.10566000000E+00 0. -1.
         22    1    1    0    0    0  0.28172857252E+01  0.14679953064E+02 -0.60676859767E+02  0.62490954801E+02  0.00000000000E+00 0.  1.
</event>
<event>
 4    1  0.9957587E-003  0.9118800E+02  0.7818608E-02  0.1130116E+00
         25   -1    0    0    0    0  0.00000000000E+00  0.00000000000E+00  0.99999998245E-14  0.12500000000E+03  0.12500000000E+03 0.  0.
        -13    1    1    0    0    0 -0.25685961126E+02  0.95793849631E+01 -0.37100640901E+02  0.46130271347E+02  0.10566000000E+00 0.  1.
         13    1    1    0    0    0 -0.11199394050E+02  0.54441557471E+01 -0.10863546043E+02  0.16525527391E+02  0.10566000000E+00 0. -1.
         22    1    1    0    0    0  0.36885355176E+02 -0.15023540710E+02  0.47964186944E+02  0.62344201263E+02  0.00000000000E+00 0.  1.
</event>
<event>
 4    1  0.9957587E-003  0.9118800E+02  0.7818608E-02  0.1130116E+00
         25   -1    0    0    0    0  0.00000000000E+00  0.00000000000E+00  0.99999998245E-14  0.12500000000E+03  0.12500000000E+03 0.  0.
        -13    1    1    0    0    0  0.24273753988E+02  0.13305403900E+02 -0.16365363683E+02  0.32157195122E+02  0.10566000000E+00 0. -1.
         13    1    1    0    0    0  0.24333729662E+02  0.11985401008E+02 -0.13650652118E+02  0.30366621542E+02  0.10566000000E+00 0.  1.
         22    1    1    0    0    0 -0.48607483650E+02 -0.25290804908E+02  0.30016015801E+02  0.62476183336E+02  0.00000000000E+00 0.  1.
</event>
<event>
 4    1  0.9957587E-003  0.9118800E+02  0.7818608E-02  0.1130116E+00
         25   -1    0    0    0    0  0.00000000000E+00  0.00000000000E+00  0.99999998245E-14  0.12500000000E+03  0.12500000000E+03 0.  0.
        -13    1    1    0    0    0  0.10800473607E+02  0.18455525892E+01 -0.91509801473E+01  0.14276130295E+02  0.10566000000E+00 0.  1.
         13    1    1    0    0    0  0.35627677373E+02  0.69021510245E+01 -0.31761626765E+02  0.48226374346E+02  0.10566000000E+00 0. -1.
         22    1    1    0    0    0 -0.46428150980E+02 -0.87477036137E+01  0.40912606912E+02  0.62497495360E+02  0.00000000000E+00 0. -1.
</event>
<event>
 4    1  0.9957587E-003  0.9118800E+02  0.7818608E-02  0.1130116E+00
         25   -1    0    0    0    0  0.00000000000E+00  0.00000000000E+00  0.99999998245E-14  0.12500000000E+03  0.12500000000E+03 0.  0.
        -13    1    1    0    0    0  0.14474500103E+02 -0.18231777900E+02  0.48720885990E+02  0.53996710773E+02  0.10566000000E+00 0. -1.
         13    1    1    0    0    0  0.21995914473E+01 -0.29585110350E+01  0.76626581061E+01  0.85040274791E+01  0.10566000000E+00 0. -1.
         22    1    1    0    0    0 -0.16674091551E+02  0.21190288935E+02 -0.56383544096E+02  0.62499261748E+02  0.00000000000E+00 0. -1.
</event>
<event>
 4    1  0.9957587E-003  0.9118800E+02  0.7818608E-02  0.1130116E+00
         25   -1    0    0    0    0  0.00000000000E+00  0.00000000000E+00  0.99999998245E-14  0.12500000000E+03  0.12500000000E+03 0.  0.
        -13    1    1    0    0    0 -0.20311646137E+02  0.46074944182E+01  0.34321021689E+01  0.21108824290E+02  0.10566000000E+00 0. -1.
         13    1    1    0    0    0 -0.41600693719E+02 -0.17856492903E+01 -0.46852273054E+01  0.41901894709E+02  0.10566000000E+00 0.  1.
         22    1    1    0    0    0  0.61912339856E+02 -0.28218451279E+01  0.12531251364E+01  0.61989281000E+02  0.00000000000E+00 0.  1.
</event>
<event>
 4    1  0.9957587E-003  0.9118800E+02  0.7818608E-02  0.1130116E+00
         25   -1    0    0    0    0  0.00000000000E+00  0.00000000000E+00  0.99999998245E-14  0.12500000000E+03  0.12500000000E+03 0.  0.
        -13    1    1    0    0    0 -0.17806294052E+02  0.32987688431E+01 -0.14931384125E+02  0.23471331016E+02  0.10566000000E+00 0.  1.
         13    1    1    0    0    0 -0.25310151160E+02  0.10243899571E+02 -0.28060565798E+02  0.39152876614E+02  0.10566000000E+00 0. -1.
         22    1    1    0    0    0  0.43116445213E+02 -0.13542668414E+02  0.42991949923E+02  0.62375792370E+02  0.00000000000E+00 0. -1.
</event>
<event>
 4    1  0.9957587E-003  0.9118800E+02  0.7818608E-02  0.1130116E+00
         25   -1    0    0    0    0  0.00000000000E+00  0.00000000000E+00  0.99999998245E-14  0.12500000000E+03  0.12500000000E+03 0.  0.
        -13    1    1    0    0    0 -0.77427718103E+01 -0.20355019485E+02 -0.38967594585E+02  0.44640362065E+02  0.10566000000E+00 0. -1.
         13    1    1    0    0    0 -0.18449428196E+01 -0.90795217768E+01 -0.15297908270E+02  0.17885152814E+02  0.10566000000E+00 0.  1.
         22    1    1    0    0    0  0.95877146299E+01  0.29434541262E+02  0.54265502855E+02  0.62474485121E+02  0.00000000000E+00 0.  1.
</event>
<event>
 4    1  0.9957587E-003  0.9118800E+02  0.7818608E-02  0.1130116E+00
         25   -1    0    0    0    0  0.00000000000E+00  0.00000000000E+00  0.99999998245E-14  0.12500000000E+03  0.12500000000E+03 0.  0.
        -13    1    1    0    0    0  0.97106641316E+01 -0.16637186348E+02 -0.32857907812E+02  0.38088662845E+02  0.10566000000E+00 0.  1.
         13    1    1    0    0    0  0.59932055544E+01 -0.10724065996E+02 -0.21095141470E+02  0.24411887719E+02  0.10566000000E+00 0.  1.
         22    1    1    0    0    0 -0.15703869686E+02  0.27361252344E+02  0.53953049283E+02  0.62499449436E+02  0.00000000000E+00 0.  1.
</event>
<event>
 4    1  0.9957587E-003  0.9118800E+02  0.7818608E-02  0.1130116E+00
         25   -1    0    0    0    0  0.00000000000E+00  0.00000000000E+00  0.99999998245E-14  0.12500000000E+03  0.12500000000E+03 0.  0.
        -13    1    1    0    0    0 -0.13293433043E+02 -0.39852854531E+02  0.40453653878E+02  0.58322162618E+02  0.10566000000E+00 0. -1.
         13    1    1    0    0    0  0.11930885112E+00 -0.23359590254E+01  0.35870843115E+01  0.42836056149E+01  0.10566000000E+00 0.  1.
         22    1    1    0    0    0  0.13174124192E+02  0.42188813556E+02 -0.44040738190E+02  0.62394231767E+02  0.00000000000E+00 0. -1.
</event>
<event>
 4    1  0.9957587E-003  0.9118800E+02  0.7818608E-02  0.1130116E+00
         25   -1    0    0    0    0  0.00000000000E+00  0.00000000000E+00  0.99999998245E-14  0.12500000000E+03  0.12500000000E+03 0.  0.
        -13    1    1    0    0    0 -0.14059578530E+01 -0.41538276187E+01  0.74135050521E+01  0.86140711956E+01  0.10566000000E+00 0. -1.
         13    1    1    0    0    0 -0.11732552214E+02 -0.28594833448E+02  0.44156642284E+02  0.53899327483E+02  0.10566000000E+00 0.  1.
         22    1    1    0    0    0  0.13138510067E+02  0.32748661066E+02 -0.51570147336E+02  0.62486601321E+02  0.00000000000E+00 0.  1.
</event>
<event>
 4    1  0.9957587E-003  0.9118800E+02  0.7818608E-02  0.1130116E+00
         25   -1    0    0    0    0  0.00000000000E+00  0.00000000000E+00  0.99999998245E-14  0.12500000000E+03  0.12500000000E+03 0.  0.
        -13    1    1    0    0    0  0.12904047091E+02  0.12187592144E+02 -0.27896674203E+02  0.33064897235E+02  0.10566000000E+00 0.  1.
         13    1    1    0    0    0  0.80002336797E+01  0.10868585109E+02 -0.26230329406E+02  0.29498664817E+02  0.10566000000E+00 0. -1.
         22    1    1    0    0    0 -0.20904280770E+02 -0.23056177253E+02  0.54127003608E+02  0.62436437948E+02  0.00000000000E+00 0.  1.
</event>
<event>
 4    1  0.9957587E-003  0.9118800E+02  0.7818608E-02  0.1130116E+00
         25   -1    0    0    0    0  0.00000000000E+00  0.00000000000E+00  0.99999998245E-14  0.12500000000E+03  0.12500000000E+03 0.  0.
        -13    1    1    0    0    0 -0.13771903695E+02 -0.30816215345E+01  0.19709022623E+01  0.14249819032E+02  0.10566000000E+00 0.  1.
         13    1    1    0    0    0 -0.42053543420E+02 -0.24205801118E+02  0.11242992724E+01  0.48535518281E+02  0.10566000000E+00 0. -1.
         22    1    1    0    0    0  0.55825447116E+02  0.27287422652E+02 -0.30952015347E+01  0.62214662687E+02  0.00000000000E+00 0. -1.
</event>
<event>
 4    1  0.9957587E-003  0.9118800E+02  0.7818608E-02  0.1130116E+00
         25   -1    0    0    0    0  0.00000000000E+00  0.00000000000E+00  0.99999998245E-14  0.12500000000E+03  0.12500000000E+03 0.  0.
        -13    1    1    0    0    0  0.67368523494E+01 -0.18198029022E+01  0.12412527892E+00  0.69802172818E+01  0.10566000000E+00 0.  1.
         13    1    1    0    0    0  0.53642191675E+02 -0.13905119112E+02  0.34654392040E+01  0.55523486005E+02  0.10566000000E+00 0. -1.
         22    1    1    0    0    0 -0.60379044025E+02  0.15724922015E+02 -0.35895644829E+01  0.62496296713E+02  0.00000000000E+00 0. -1.
</event>
<event>
 4    1  0.9957587E-003  0.9118800E+02  0.7818608E-02  0.1130116E+00
         25   -1    0    0    0    0  0.00000000000E+00  0.00000000000E+00  0.99999998245E-14  0.12500000000E+03  0.12500000000E+03 0.  0.
        -13    1    1    0    0    0  0.61958715957E+01 -0.57294923060E+01 -0.13130379523E+02  0.15608777575E+02  0.10566000000E+00 0. -1.
         13    1    1    0    0    0  0.15122502337E+02 -0.12491867885E+02 -0.42657430421E+02  0.46951084912E+02  0.10566000000E+00 0.  1.
         22    1    1    0    0    0 -0.21318373933E+02  0.18221360191E+02  0.55787809944E+02  0.62440137514E+02  0.00000000000E+00 0.  1.
</event>
<event>
 4    1  0.9957587E-003  0.9118800E+02  0.7818608E-02  0.1130116E+00
         25   -1    0    0    0    0  0.00000000000E+00  0.00000000000E+00  0.99999998245E-14  0.12500000000E+03  0.12500000000E+03 0.  0.
        -13    1    1    0    0    0 -0.49647322163E+01 -0.50930598136E+01  0.16263845784E+02  0.17751384959E+02  0.10566000000E+00 0. -1.
         13    1    1    0    0    0 -0.10419549361E+02 -0.19719856008E+02  0.38897160733E+02  0.44837930450E+02  0.10566000000E+00 0.  1.
         22    1    1    0    0    0  0.15384281578E+02  0.24812915822E+02 -0.55161006517E+02  0.62410684592E+02  0.00000000000E+00 0.  1.
</event>
<event>
 4    1  0.9957587E-003  0.9118800E+02  0.7818608E-02  0.1130116E+00
         25   -1    0    0    0    0  0.00000000000E+00  0.00000000000E+00  0.99999998245E-14  0.12500000000E+03  0.12500000000E+03 0.  0.
        -13    1    1    0    0    0 -0.17469544023E+02  0.24091621884E+02  0.10465249726E+02  0.31545583355E+02  0.10566000000E+00 0. -1.
         13    1    1    0    0    0 -0.29490967132E+02  0.43306439633E+01  0.14505737880E+02  0.33149648792E+02  0.10566000000E+00 0.  1.
         22    1    1    0    0    0  0.46960511155E+02 -0.28422265847E+02 -0.24970987607E+02  0.60304767853E+02  0.00000000000E+00 0. -1.
</event>
<event>
 4    1  0.9957587E-003  0.9118800E+02  0.7818608E-02  0.1130116E+00
         25   -1    0    0    0    0  0.00000000000E+00  0.00000000000E+00  0.99999998245E-14  0.12500000000E+03  0.12500000000E+03 0.  0.
        -13    1    1    0    0    0 -0.44208244019E+02 -0.33055095835E+01  0.33101684137E+02  0.55326556820E+02  0.10566000000E+00 0. -1.
         13    1    1    0    0    0 -0.57122892296E+01 -0.44803342184E+00  0.43154409445E+01  0.71739233876E+01  0.10566000000E+00 0. -1.
         22    1    1    0    0    0  0.49920533248E+02  0.37535430053E+01 -0.37417125082E+02  0.62499519792E+02  0.00000000000E+00 0. -1.
</event>
<event>
 4    1  0.9957587E-003  0.9118800E+02  0.7818608E-02  0.1130116E+00
         25   -1    0    0    0    0  0.00000000000E+00  0.00000000000E+00  0.99999998245E-14  0.12500000000E+03  0.12500000000E+03 0.  0.
        -13    1    1    0    0    0  0.95689781358E+01  0.10745889947E+02  0.15911297065E+02  0.21452739490E+02  0.10566000000E+00 0.  1.
         13    1    1    0    0    0  0.40041710999E+02  0.68260026846E+01  0.14056315010E+02  0.42982834808E+02  0.10566000000E+00 0. -1.
         22    1    1    0    0    0 -0.49610689135E+02 -0.17571892631E+02 -0.29967612075E+02  0.60564425702E+02  0.00000000000E+00 0. -1.
</event>
<event>
 4    1  0.9957587E-003  0.9118800E+02  0.7818608E-02  0.1130116E+00
         25   -1    0    0    0    0  0.00000000000E+00  0.00000000000E+00  0.99999998245E-14  0.12500000000E+03  0.12500000000E+03 0.  0.
        -13    1    1    0    0    0 -0.95063149254E+01  0.55680865304E+01  0.14999034645E+02  0.18610637157E+02  0.10566000000E+00 0.  1.
         13    1    1    0    0    0 -0.22005613823E+02  0.13284974078E+02  0.35575008507E+02  0.43889975738E+02  0.10566000000E+00 0.  1.
         22    1    1    0    0    0  0.31511928748E+02 -0.18853060609E+02 -0.50574043152E+02  0.62499387105E+02  0.00000000000E+00 0.  1.
</event>
<event>
 4    1  0.9957587E-003  0.9118800E+02  0.7818608E-02  0.1130116E+00
         25   -1    0    0    0    0  0.00000000000E+00  0.00000000000E+00  0.99999998245E-14  0.12500000000E+03  0.12500000000E+03 0.  0.
        -13    1    1    0    0    0  0.46930088171E+00 -0.14805232807E+01 -0.97850287135E+01  0.99080847525E+01  0.10566000000E+00 0. -1.
         13    1    1    0    0    0 -0.79338075636E+01 -0.17688370978E+02 -0.49061828501E+02  0.52753179527E+02  0.10566000000E+00 0.  1.
         22    1    1    0    0    0  0.74645066819E+01  0.19168894259E+02  0.58846857215E+02  0.62338735720E+02  0.00000000000E+00 0.  1.
</event>
<event>
 4    1  0.9957587E-003  0.9118800E+02  0.7818608E-02  0.1130116E+00
         25   -1    0    0    0    0  0.00000000000E+00  0.00000000000E+00  0.99999998245E-14  0.12500000000E+03  0.12500000000E+03 0.  0.
        -13    1    1    0    0    0 -0.11032632334E+02 -0.25659653993E+02  0.25999406252E+02  0.38159102567E+02  0.10566000000E+00 0. -1.
         13    1    1    0    0    0 -0.33555816416E+01 -0.15302019275E+02  0.18789502867E+02  0.24463611836E+02  0.10566000000E+00 0.  1.
         22    1    1    0    0    0  0.14388213976E+02  0.40961673268E+02 -0.44788909119E+02  0.62377285596E+02  0.00000000000E+00 0. -1.
</event>
<event>
 4    1  0.9957587E-003  0.9118800E+02  0.7818608E-02  0.1130116E+00
         25   -1    0    0    0    0  0.00000000000E+00  0.00000000000E+00  0.99999998245E-14  0.12500000000E+03  0.12500000000E+03 0.  0.
        -13    1    1    0    0    0  0.55344774033E+02 -0.61438182507E+01  0.22966714023E+02  0.60235136196E+02  0.10566000000E+00 0. -1.
         13    1    1    0    0    0 -0.15544896062E+01 -0.24478569397E+01  0.32120599945E+01  0.43286181371E+01  0.10566000000E+00 0.  1.
         22    1    1    0    0    0 -0.53790284427E+02  0.85916751904E+01 -0.26178774017E+02  0.60436245667E+02  0.00000000000E+00 0. -1.
</event>
<event>
 4    1  0.9957587E-003  0.9118800E+02  0.7818608E-02  0.1130116E+00
         25   -1    0    0    0    0  0.00000000000E+00  0.00000000000E+00  0.99999998245E-14  0.12500000000E+03  0.12500000000E+03 0.  0.
        -13    1    1    0    0    0 -0.96819574254E+01  0.25305131650E+01 -0.52789264822E+01  0.11314681847E+02  0.10566000000E+00 0.  1.
         13    1    1    0    0    0 -0.20594883790E+02  0.50758372966E+01 -0.47694012658E+02  0.52198116537E+02  0.10566000000E+00 0. -1.
         22    1    1    0    0    0  0.30276841216E+02 -0.76063504616E+01  0.52972939140E+02  0.61487201615E+02  0.00000000000E+00 0. -1.
</event>
<event>
 4    1  0.9957587E-003  0.9118800E+02  0.7818608E-02  0.1130116E+00
         25   -1    0    0    0    0  0.00000000000E+00  0.00000000000E+00  0.99999998245E-14  0.12500000000E+03  0.12500000000E+03 0.  0.
        -13    1    1    0    0    0 -0.31141961984E+02 -0.48799665435E+01 -0.10512304378E+02  0.33228836528E+02  0.10566000000E+00 0. -1.
         13    1    1    0    0    0 -0.26121303087E+02 -0.13524367818E+02 -0.45522866028E+01  0.29765172218E+02  0.10566000000E+00 0.  1.
         22    1    1    0    0    0  0.57263265071E+02  0.18404334361E+02  0.15064590981E+02  0.62005991253E+02  0.00000000000E+00 0. -1.
</event>
<event>
 4    1  0.9957587E-003  0.9118800E+02  0.7818608E-02  0.1130116E+00
         25   -1    0    0    0    0  0.00000000000E+00  0.00000000000E+00  0.99999998245E-14  0.12500000000E+03  0.12500000000E+03 0.  0.
        -13    1    1    0    0    0 -0.87464415064E+01  0.19963920666E+01 -0.21752545769E+01  0.92319400355E+01  0.10566000000E+00 0. -1.
         13    1    1    0    0    0  0.21022949836E+02  0.47975198338E+02  0.26669721571E+02  0.58778136139E+02  0.10566000000E+00 0.  1.
         22    1    1    0    0    0 -0.12276508329E+02 -0.49971590404E+02 -0.24494466994E+02  0.56989923825E+02  0.00000000000E+00 0.  1.
</event>
<event>
 4    1  0.9957587E-003  0.9118800E+02  0.7818608E-02  0.1130116E+00
         25   -1    0    0    0    0  0.00000000000E+00  0.00000000000E+00  0.99999998245E-14  0.12500000000E+03  0.12500000000E+03 0.  0.
        -13    1    1    0    0    0  0.59594688292E+01  0.25030313968E+01  0.13785115263E+01  0.66099843391E+01  0.10566000000E+00 0.  1.
         13    1    1    0    0    0  0.13844117188E+01  0.19600960036E+02  0.54455539390E+02  0.57892410249E+02  0.10566000000E+00 0. -1.
         22    1    1    0    0    0 -0.73438805480E+01 -0.22103991433E+02 -0.55834050917E+02  0.60497605412E+02  0.00000000000E+00 0. -1.
</event>
<event>
 4    1  0.9957587E-003  0.9118800E+02  0.7818608E-02  0.1130116E+00
         25   -1    0    0    0    0  0.00000000000E+00  0.00000000000E+00  0.99999998245E-14  0.12500000000E+03  0.12500000000E+03 0.  0.
        -13    1    1    0    0    0 -0.23955298031E+01 -0.18091743333E+01  0.13144959639E+01  0.32788318775E+01  0.10566000000E+00 0. -1.
         13    1    1    0    0    0 -0.49049368364E+02 -0.29583489492E+02  0.15142230734E+02  0.59247967924E+02  0.10566000000E+00 0.  1.
         22    1    1    0    0    0  0.51444898167E+02  0.31392663826E+02 -0.16456726698E+02  0.62473200199E+02  0.00000000000E+00 0.  1.
</event>
<event>
 4    1  0.9957587E-003  0.9118800E+02  0.7818608E-02  0.1130116E+00
         25   -1    0    0    0    0  0.00000000000E+00  0.00000000000E+00  0.99999998245E-14  0.12500000000E+03  0.12500000000E+03 0.  0.
        -13    1    1    0    0    0  0.49154886191E+01  0.43562030052E+02  0.29714169655E+02  0.52959942720E+02  0.10566000000E+00 0.  1.
         13    1    1    0    0    0  0.27619594336E+01  0.78705866675E+01  0.48019106637E+01  0.96251786716E+01  0.10566000000E+00 0. -1.
         22    1    1    0    0    0 -0.76774480527E+01 -0.51432616719E+02 -0.34516080318E+02  0.62414878609E+02  0.00000000000E+00 0.  1.
</event>
<event>
 4    1  0.9957587E-003  0.9118800E+02  0.7818608E-02  0.1130116E+00
         25   -1    0    0    0    0  0.00000000000E+00  0.00000000000E+00  0.99999998245E-14  0.12500000000E+03  0.12500000000E+03 0.  0.
        -13    1    1    0    0    0  0.50080729205E+01 -0.12563784109E+02 -0.18548719779E+01  0.13652149267E+02  0.10566000000E+00 0. -1.
         13    1    1    0    0    0  0.17552013370E+02 -0.45200684446E+02 -0.59185793889E+01  0.48848907805E+02  0.10566000000E+00 0. -1.
         22    1    1    0    0    0 -0.22560086291E+02  0.57764468555E+02  0.77734513667E+01  0.62498942928E+02  0.00000000000E+00 0. -1.
</event>
<event>
 4    1  0.9957587E-003  0.9118800E+02  0.7818608E-02  0.1130116E+00
         25   -1    0    0    0    0  0.00000000000E+00  0.00000000000E+00  0.99999998245E-14  0.12500000000E+03  0.12500000000E+03 0.  0.
        -13    1    1    0    0    0  0.27226837620E+02  0.21317641149E+01  0.35525266813E+02  0.44809606684E+02  0.10566000000E+00 0.  1.
         13    1    1    0    0    0  0.10628321025E+02  0.51603220873E+00  0.14133881173E+02  0.17691954615E+02  0.10566000000E+00 0.  1.
         22    1    1    0    0    0 -0.37855158645E+02 -0.26477963236E+01 -0.49659147986E+02  0.62498438701E+02  0.00000000000E+00 0.  1.
</event>
<event>
 4    1  0.9957587E-003  0.9118800E+02  0.7818608E-02  0.1130116E+00
         25   -1    0    0    0    0  0.00000000000E+00  0.00000000000E+00  0.99999998245E-14  0.12500000000E+03  0.12500000000E+03 0.  0.
        -13    1    1    0    0    0  0.29586504617E+01  0.17496554094E+01 -0.34290685466E+01  0.48563959620E+01  0.10566000000E+00 0. -1.
         13    1    1    0    0    0  0.28329513532E+02  0.51186834228E+02  0.41157373539E+01  0.58648135463E+02  0.10566000000E+00 0.  1.
         22    1    1    0    0    0 -0.31288163993E+02 -0.52936489638E+02 -0.68666880727E+00  0.61495468575E+02  0.00000000000E+00 0.  1.
</event>
<event>
 4    1  0.9957587E-003  0.9118800E+02  0.7818608E-02  0.1130116E+00
         25   -1    0    0    0    0  0.00000000000E+00  0.00000000000E+00  0.99999998245E-14  0.12500000000E+03  0.12500000000E+03 0.  0.
        -13    1    1    0    0    0  0.10381334553E+02  0.83772815836E+01 -0.19628072783E+01  0.13483869262E+02  0.10566000000E+00 0. -1.
         13    1    1    0    0    0  0.39192066811E+02  0.28057920567E+02 -0.89745586777E+01  0.49028755592E+02  0.10566000000E+00 0.  1.
         22    1    1    0    0    0 -0.49573401364E+02 -0.36435202150E+02  0.10937365956E+02  0.62487375146E+02  0.00000000000E+00 0.  1.
</event>
<event>
 4    1  0.9957587E-003  0.9118800E+02  0.7818608E-02  0.1130116E+00
         25   -1    0    0    0    0  0.00000000000E+00  0.00000000000E+00  0.99999998245E-14  0.12500000000E+03  0.12500000000E+03 0.  0.
        -13    1    1    0    0    0 -0.30771455492E+01  0.45837737776E+01 -0.47426324503E+02  0.47746698595E+02  0.10566000000E+00 0.  1.
         13    1    1    0    0    0 -0.21937629102E+01 -0.36085902672E+01 -0.14496205069E+02  0.15099193517E+02  0.10566000000E+00 0. -1.
         22    1    1    0    0    0  0.52709084593E+01 -0.97518351038E+00  0.61922529572E+02  0.62154107889E+02  0.00000000000E+00 0.  1.
</event>
<event>
 4    1  0.9957587E-003  0.9118800E+02  0.7818608E-02  0.1130116E+00
         25   -1    0    0    0    0  0.00000000000E+00  0.00000000000E+00  0.99999998245E-14  0.12500000000E+03  0.12500000000E+03 0.  0.
        -13    1    1    0    0    0 -0.11188487421E+02 -0.46443685170E+01  0.24368772246E+00  0.12117052341E+02  0.10566000000E+00 0.  1.
         13    1    1    0    0    0 -0.50201173289E+02  0.38353404815E+01 -0.80731826861E+01  0.50990735226E+02  0.10566000000E+00 0. -1.
         22    1    1    0    0    0  0.61389660710E+02  0.80902803551E+00  0.78294949636E+01  0.61892212433E+02  0.00000000000E+00 0. -1.
</event>
<event>
 4    1  0.9957587E-003  0.9118800E+02  0.7818608E-02  0.1130116E+00
         25   -1    0    0    0    0  0.00000000000E+00  0.00000000000E+00  0.99999998245E-14  0.12500000000E+03  0.12500000000E+03 0.  0.
        -13    1    1    0    0    0  0.10521023631E+00  0.27095100303E+01  0.17000617783E+01  0.32021692466E+01  0.10566000000E+00 0. -1.
         13    1    1    0    0    0  0.25469291582E+01  0.50953321762E+02  0.30226936991E+02  0.59299297893E+02  0.10566000000E+00 0.  1.
         22    1    1    0    0    0 -0.26521393945E+01 -0.53662831792E+02 -0.31926998769E+02  0.62498532861E+02  0.00000000000E+00 0.  1.
</event>
<event>
 4    1  0.9957587E-003  0.9118800E+02  0.7818608E-02  0.1130116E+00
         25   -1    0    0    0    0  0.00000000000E+00  0.00000000000E+00  0.99999998245E-14  0.12500000000E+03  0.12500000000E+03 0.  0.
        -13    1    1    0    0    0 -0.29790852971E+02  0.88187902881E+01  0.10137193287E+02  0.32680878731E+02  0.10566000000E+00 0.  1.
         13    1    1    0    0    0 -0.26196784861E+02  0.97782178823E+01  0.10425658046E+02  0.29842764479E+02  0.10566000000E+00 0. -1.
         22    1    1    0    0    0  0.55987637831E+02 -0.18597008170E+02 -0.20562851333E+02  0.62476356790E+02  0.00000000000E+00 0. -1.
</event>
<event>
 4    1  0.9957587E-003  0.9118800E+02  0.7818608E-02  0.1130116E+00
         25   -1    0    0    0    0  0.00000000000E+00  0.00000000000E+00  0.99999998245E-14  0.12500000000E+03  0.12500000000E+03 0.  0.
        -13    1    1    0    0    0 -0.42446060926E+02 -0.68168874641E+00  0.26376448541E+02  0.49978605316E+02  0.10566000000E+00 0.  1.
         13    1    1    0    0    0 -0.66725175339E+01  0.15236744590E+02  0.14942988474E+01  0.16701046944E+02  0.10566000000E+00 0. -1.
         22    1    1    0    0    0  0.49118578460E+02 -0.14555055843E+02 -0.27870747389E+02  0.58320347740E+02  0.00000000000E+00 0.  1.
</event>
<event>
 4    1  0.9957587E-003  0.9118800E+02  0.7818608E-02  0.1130116E+00
         25   -1    0    0    0    0  0.00000000000E+00  0.00000000000E+00  0.99999998245E-14  0.12500000000E+03  0.12500000000E+03 0.  0.
        -13    1    1    0    0    0  0.38901359132E+02 -0.33507319093E+02 -0.26393504556E+02  0.57729406907E+02  0.10566000000E+00 0.  1.
         13    1    1    0    0    0  0.35541481692E+01 -0.25329690876E+01 -0.19516290473E+01  0.47820415705E+01  0.10566000000E+00 0.  1.
         22    1    1    0    0    0 -0.42455507301E+02  0.36040288180E+02  0.28345133604E+02  0.62488551522E+02  0.00000000000E+00 0.  1.
</event>
<event>
 4    1  0.9957587E-003  0.9118800E+02  0.7818608E-02  0.1130116E+00
         25   -1    0    0    0    0  0.00000000000E+00  0.00000000000E+00  0.99999998245E-14  0.12500000000E+03  0.12500000000E+03 0.  0.
        -13    1    1    0    0    0  0.21531888744E+02  0.23418008991E+02  0.10159319616E+02  0.33395333762E+02  0.10566000000E+00 0. -1.
         13    1    1    0    0    0  0.10943989934E+02  0.21710694761E+02  0.17058616238E+02  0.29700719430E+02  0.10566000000E+00 0.  1.
         22    1    1    0    0    0 -0.32475878678E+02 -0.45128703752E+02 -0.27217935853E+02  0.61903946808E+02  0.00000000000E+00 0. -1.
</event>
<event>
 4    1  0.9957587E-003  0.9118800E+02  0.7818608E-02  0.1130116E+00
         25   -1    0    0    0    0  0.00000000000E+00  0.00000000000E+00  0.99999998245E-14  0.12500000000E+03  0.12500000000E+03 0.  0.
        -13    1    1    0    0    0  0.38291818042E+02  0.57016297685E+00 -0.31923537753E+02  0.49856913678E+02  0.10566000000E+00 0.  1.
         13    1    1    0    0    0  0.76586843096E+01  0.29351121160E+01 -0.99371016156E+01  0.12885165154E+02  0.10566000000E+00 0. -1.
         22    1    1    0    0    0 -0.45950502352E+02 -0.35052750928E+01  0.41860639369E+02  0.62257921168E+02  0.00000000000E+00 0.  1.
</event>
<event>
 4    1  0.9957587E-003  0.9118800E+02  0.7818608E-02  0.1130116E+00
         25   -1    0    0    0    0  0.00000000000E+00  0.00000000000E+00  0.99999998245E-14  0.12500000000E+03  0.12500000000E+03 0.  0.
        -13    1    1    0    0    0 -0.17415964299E+02  0.13716521205E+02  0.37267692365E+02  0.43363012172E+02  0.10566000000E+00 0.  1.
         13    1    1    0    0    0 -0.96159702995E+01  0.92865508856E+01  0.13950522341E+02  0.19321882666E+02  0.10566000000E+00 0. -1.
         22    1    1    0    0    0  0.27031934599E+02 -0.23003072090E+02 -0.51218214705E+02  0.62315105162E+02  0.00000000000E+00 0. -1.
</event>
<event>
 4    1  0.9957587E-003  0.9118800E+02  0.7818608E-02  0.1130116E+00
         25   -1    0    0    0    0  0.00000000000E+00  0.00000000000E+00  0.99999998245E-14  0.12500000000E+03  0.12500000000E+03 0.  0.
        -13    1    1    0    0    0 -0.10853328021E+02  0.16995112380E+01 -0.27638379549E+01  0.11328417006E+02  0.10566000000E+00 0.  1.
         13    1    1    0    0    0 -0.37609435641E+02 -0.36877559350E+02 -0.65090269217E+01  0.53073558655E+02  0.10566000000E+00 0. -1.
         22    1    1    0    0    0  0.48462763662E+02  0.35178048112E+02  0.92728648766E+01  0.60598024339E+02  0.00000000000E+00 0. -1.
</event>
<event>
 4    1  0.9957587E-003  0.9118800E+02  0.7818608E-02  0.1130116E+00
         25   -1    0    0    0    0  0.00000000000E+00  0.00000000000E+00  0.99999998245E-14  0.12500000000E+03  0.12500000000E+03 0.  0.
        -13    1    1    0    0    0 -0.12359122389E+02 -0.26984621705E+02  0.31896931676E+02  0.43569979678E+02  0.10566000000E+00 0. -1.
         13    1    1    0    0    0 -0.57044946595E+01 -0.12613026992E+02  0.12935393531E+02  0.18946379049E+02  0.10566000000E+00 0.  1.
         22    1    1    0    0    0  0.18063617048E+02  0.39597648697E+02 -0.44832325208E+02  0.62483641273E+02  0.00000000000E+00 0.  1.
</event>
<event>
 4    1  0.9957587E-003  0.9118800E+02  0.7818608E-02  0.1130116E+00
         25   -1    0    0    0    0  0.00000000000E+00  0.00000000000E+00  0.99999998245E-14  0.12500000000E+03  0.12500000000E+03 0.  0.
        -13    1    1    0    0    0 -0.29457534984E+02 -0.23476188945E+02 -0.33213077847E+01  0.37814283864E+02  0.10566000000E+00 0.  1.
         13    1    1    0    0    0 -0.17637764195E+02 -0.17181297000E+02 -0.22148440711E+01  0.24722548224E+02  0.10566000000E+00 0. -1.
         22    1    1    0    0    0  0.47095299179E+02  0.40657485945E+02  0.55361518557E+01  0.62463167911E+02  0.00000000000E+00 0. -1.
</event>
<event>
 4    1  0.9957587E-003  0.9118800E+02  0.7818608E-02  0.1130116E+00
         25   -1    0    0    0    0  0.00000000000E+00  0.00000000000E+00  0.99999998245E-14  0.12500000000E+03  0.12500000000E+03 0.  0.
        -13    1    1    0    0    0  0.21180994602E+01 -0.33587313682E+01 -0.87781473766E+01  0.96350639400E+01  0.10566000000E+00 0. -1.
         13    1    1    0    0    0 -0.35500951254E+02 -0.95391752433E+01 -0.40349673933E+02  0.54584070522E+02  0.10566000000E+00 0.  1.
         22    1    1    0    0    0  0.33382851794E+02  0.12897906612E+02  0.49127821310E+02  0.60780865537E+02  0.00000000000E+00 0.  1.
</event>
<event>
 4    1  0.9957587E-003  0.9118800E+02  0.7818608E-02  0.1130116E+00
         25   -1    0    0    0    0  0.00000000000E+00  0.00000000000E+00  0.99999998245E-14  0.12500000000E+03  0.12500000000E+03 0.  0.
        -13    1    1    0    0    0 -0.55776075924E+01  0.45201126267E+00 -0.23374775486E+01  0.60653924821E+01  0.10566000000E+00 0.  1.
         13    1    1    0    0    0 -0.49480175953E+02  0.28395001899E+01 -0.27023784528E+02  0.56450391212E+02  0.10566000000E+00 0. -1.
         22    1    1    0    0    0  0.55057783546E+02 -0.32915114525E+01  0.29361262077E+02  0.62484216306E+02  0.00000000000E+00 0. -1.
</event>
<event>
 4    1  0.9957587E-003  0.9118800E+02  0.7818608E-02  0.1130116E+00
         25   -1    0    0    0    0  0.00000000000E+00  0.00000000000E+00  0.99999998245E-14  0.12500000000E+03  0.12500000000E+03 0.  0.
        -13    1    1    0    0    0  0.85931665821E+01  0.10491790293E+02 -0.13267619269E+02  0.18972639789E+02  0.10566000000E+00 0. -1.
         13    1    1    0    0    0  0.19432376569E+02  0.22174885068E+02 -0.32034977670E+02  0.43538416889E+02  0.10566000000E+00 0.  1.
         22    1    1    0    0    0 -0.28025543151E+02 -0.32666675361E+02  0.45302596939E+02  0.62488943322E+02  0.00000000000E+00 0.  1.
</event>
<event>
 4    1  0.9957587E-003  0.9118800E+02  0.7818608E-02  0.1130116E+00
         25   -1    0    0    0    0  0.00000000000E+00  0.00000000000E+00  0.99999998245E-14  0.12500000000E+03  0.12500000000E+03 0.  0.
        -13    1    1    0    0    0  0.31181712577E+02 -0.16501810162E+02 -0.14795548625E+02  0.38256089202E+02  0.10566000000E+00 0.  1.
         13    1    1    0    0    0  0.19829588685E+02 -0.10290889444E+02 -0.94159766951E+01  0.24244314264E+02  0.10566000000E+00 0. -1.
         22    1    1    0    0    0 -0.51011301262E+02  0.26792699606E+02  0.24211525320E+02  0.62499596534E+02  0.00000000000E+00 0. -1.
</event>
<event>
 4    1  0.9957587E-003  0.9118800E+02  0.7818608E-02  0.1130116E+00
         25   -1    0    0    0    0  0.00000000000E+00  0.00000000000E+00  0.99999998245E-14  0.12500000000E+03  0.12500000000E+03 0.  0.
        -13    1    1    0    0    0  0.23711445772E+02 -0.24542476644E+00  0.40283254339E+02  0.46744461042E+02  0.10566000000E+00 0. -1.
         13    1    1    0    0    0 -0.16133144502E+01 -0.46134678104E+01  0.16458422170E+02  0.17169091214E+02  0.10566000000E+00 0.  1.
         22    1    1    0    0    0 -0.22098131321E+02  0.48588925769E+01 -0.56741676509E+02  0.61086447744E+02  0.00000000000E+00 0. -1.
</event>
<event>
 4    1  0.9957587E-003  0.9118800E+02  0.7818608E-02  0.1130116E+00
         25   -1    0    0    0    0  0.00000000000E+00  0.00000000000E+00  0.99999998245E-14  0.12500000000E+03  0.12500000000E+03 0.  0.
        -13    1    1    0    0    0 -0.20021663240E+02  0.38731113442E+02  0.70480521568E+01  0.44166190130E+02  0.10566000000E+00 0. -1.
         13    1    1    0    0    0 -0.83304109662E+01  0.16136229558E+02  0.25313932716E+01  0.18335560180E+02  0.10566000000E+00 0.  1.
         22    1    1    0    0    0  0.28352074206E+02 -0.54867342999E+02 -0.95794454284E+01  0.62498249690E+02  0.00000000000E+00 0. -1.
</event>
<event>
 4    1  0.9957587E-003  0.9118800E+02  0.7818608E-02  0.1130116E+00
         25   -1    0    0    0    0  0.00000000000E+00  0.00000000000E+00  0.99999998245E-14  0.12500000000E+03  0.12500000000E+03 0.  0.
        -13    1    1    0    0    0  0.35760207437E+02 -0.10924702022E+02 -0.93225929916E+01  0.38536521046E+02  0.10566000000E+00 0. -1.
         13    1    1    0    0    0 -0.10364679198E+02 -0.22974611537E+02 -0.22260994026E+02  0.33627702408E+02  0.10566000000E+00 0.  1.
         22    1    1    0    0    0 -0.25395528239E+02  0.33899313559E+02  0.31583587018E+02  0.52835776546E+02  0.00000000000E+00 0. -1.
</event>
<event>
 4    1  0.9957587E-003  0.9118800E+02  0.7818608E-02  0.1130116E+00
         25   -1    0    0    0    0  0.00000000000E+00  0.00000000000E+00  0.99999998245E-14  0.12500000000E+03  0.12500000000E+03 0.  0.
        -13    1    1    0    0    0  0.82617311324E+00  0.92879079078E+01  0.20132372677E+02  0.22187189749E+02  0.10566000000E+00 0.  1.
         13    1    1    0    0    0 -0.17912356758E+01  0.15125134874E+02  0.37359412646E+02  0.40344951449E+02  0.10566000000E+00 0. -1.
         22    1    1    0    0    0  0.96506256254E+00 -0.24413042781E+02 -0.57491785323E+02  0.62467858801E+02  0.00000000000E+00 0. -1.
</event>
<event>
 4    1  0.9957587E-003  0.9118800E+02  0.7818608E-02  0.1130116E+00
         25   -1    0    0    0    0  0.00000000000E+00  0.00000000000E+00  0.99999998245E-14  0.12500000000E+03  0.12500000000E+03 0.  0.
        -13    1    1    0    0    0  0.83490163498E+01 -0.43012931496E+02 -0.43829849978E+02  0.61974876063E+02  0.10566000000E+00 0.  1.
         13    1    1    0    0    0 -0.12462783879E+01 -0.37024804603E+00  0.94015073995E+00  0.16078995259E+01  0.10566000000E+00 0. -1.
         22    1    1    0    0    0 -0.71027379619E+01  0.43383179542E+02  0.42889699238E+02  0.61417224412E+02  0.00000000000E+00 0.  1.
</event>
<event>
 4    1  0.9957587E-003  0.9118800E+02  0.7818608E-02  0.1130116E+00
         25   -1    0    0    0    0  0.00000000000E+00  0.00000000000E+00  0.99999998245E-14  0.12500000000E+03  0.12500000000E+03 0.  0.
        -13    1    1    0    0    0 -0.11442651410E+02 -0.30457391101E+01  0.70073993063E+01  0.13759564204E+02  0.10566000000E+00 0. -1.
         13    1    1    0    0    0 -0.41478780484E+02 -0.17090361846E+02  0.19260197088E+02  0.48821471244E+02  0.10566000000E+00 0.  1.
         22    1    1    0    0    0  0.52921431894E+02  0.20136100956E+02 -0.26267596394E+02  0.62418964552E+02  0.00000000000E+00 0.  1.
</event>
<event>
 4    1  0.9957587E-003  0.9118800E+02  0.7818608E-02  0.1130116E+00
         25   -1    0    0    0    0  0.00000000000E+00  0.00000000000E+00  0.99999998245E-14  0.12500000000E+03  0.12500000000E+03 0.  0.
        -13    1    1    0    0    0 -0.14920994763E+01  0.19835809055E+01  0.31598180880E+01  0.40195234096E+01  0.10566000000E+00 0.  1.
         13    1    1    0    0    0 -0.23129540363E+02  0.32480497068E+02  0.42788970340E+02  0.58488165248E+02  0.10566000000E+00 0. -1.
         22    1    1    0    0    0  0.24621639839E+02 -0.34464077974E+02 -0.45948788428E+02  0.62492311343E+02  0.00000000000E+00 0. -1.
</event>
<event>
 4    1  0.9957587E-003  0.9118800E+02  0.7818608E-02  0.1130116E+00
         25   -1    0    0    0    0  0.00000000000E+00  0.00000000000E+00  0.99999998245E-14  0.12500000000E+03  0.12500000000E+03 0.  0.
        -13    1    1    0    0    0  0.74862650128E+01 -0.57998048275E+01 -0.11334376014E+02  0.14770279061E+02  0.10566000000E+00 0. -1.
         13    1    1    0    0    0  0.25526889897E+02  0.98079395301E+01  0.51362931435E+02  0.58189171461E+02  0.10566000000E+00 0.  1.
         22    1    1    0    0    0 -0.33013154910E+02 -0.40081347025E+01 -0.40028555421E+02  0.52040549478E+02  0.00000000000E+00 0.  1.
</event>
<event>
 4    1  0.9957587E-003  0.9118800E+02  0.7818608E-02  0.1130116E+00
         25   -1    0    0    0    0  0.00000000000E+00  0.00000000000E+00  0.99999998245E-14  0.12500000000E+03  0.12500000000E+03 0.  0.
        -13    1    1    0    0    0 -0.62558980828E+01  0.30381784581E+02  0.28435795158E+02  0.42080811606E+02  0.10566000000E+00 0. -1.
         13    1    1    0    0    0 -0.32127075413E+01  0.14770655129E+02  0.13728041408E+02  0.20419697050E+02  0.10566000000E+00 0. -1.
         22    1    1    0    0    0  0.94686056241E+01 -0.45152439710E+02 -0.42163836566E+02  0.62499491343E+02  0.00000000000E+00 0. -1.
</event>
<event>
 4    1  0.9957587E-003  0.9118800E+02  0.7818608E-02  0.1130116E+00
         25   -1    0    0    0    0  0.00000000000E+00  0.00000000000E+00  0.99999998245E-14  0.12500000000E+03  0.12500000000E+03 0.  0.
        -13    1    1    0    0    0  0.62448245136E+01 -0.15420385250E+01 -0.35994995426E+02  0.36565374000E+02  0.10566000000E+00 0.  1.
         13    1    1    0    0    0  0.26132347203E+02  0.28348206301E+02  0.20238431030E+02  0.43544524632E+02  0.10566000000E+00 0. -1.
         22    1    1    0    0    0 -0.32377171717E+02 -0.26806167776E+02  0.15756564396E+02  0.44890101368E+02  0.00000000000E+00 0.  1.
</event>
<event>
 4    1  0.9957587E-003  0.9118800E+02  0.7818608E-02  0.1130116E+00
         25   -1    0    0    0    0  0.00000000000E+00  0.00000000000E+00  0.99999998245E-14  0.12500000000E+03  0.12500000000E+03 0.  0.
        -13    1    1    0    0    0  0.26958129523E+02  0.16825045876E+02 -0.73029903877E+01  0.32606253215E+02  0.10566000000E+00 0. -1.
         13    1    1    0    0    0 -0.23054328346E+02 -0.14732030357E+02  0.45958225004E+02  0.53485553035E+02  0.10566000000E+00 0.  1.
         22    1    1    0    0    0 -0.39038011766E+01 -0.20930155188E+01 -0.38655234616E+02  0.38908193749E+02  0.00000000000E+00 0.  1.
</event>
<event>
 4    1  0.9957587E-003  0.9118800E+02  0.7818608E-02  0.1130116E+00
         25   -1    0    0    0    0  0.00000000000E+00  0.00000000000E+00  0.99999998245E-14  0.12500000000E+03  0.12500000000E+03 0.  0.
        -13    1    1    0    0    0  0.32601946952E+02  0.24163831700E+02 -0.33935755873E+02  0.52900136088E+02  0.10566000000E+00 0.  1.
         13    1    1    0    0    0  0.32920968214E+01  0.76879465965E+01 -0.54798132339E+01  0.99990970325E+01  0.10566000000E+00 0. -1.
         22    1    1    0    0    0 -0.35894043773E+02 -0.31851778296E+02  0.39415569106E+02  0.62100766879E+02  0.00000000000E+00 0.  1.
</event>
<event>
 4    1  0.9957587E-003  0.9118800E+02  0.7818608E-02  0.1130116E+00
         25   -1    0    0    0    0  0.00000000000E+00  0.00000000000E+00  0.99999998245E-14  0.12500000000E+03  0.12500000000E+03 0.  0.
        -13    1    1    0    0    0  0.46054819662E+02  0.22356408797E+02  0.30500130968E+02  0.59591312970E+02  0.10566000000E+00 0.  1.
         13    1    1    0    0    0  0.22092650697E+01  0.10262661131E+01  0.15901927221E+01  0.29110051893E+01  0.10566000000E+00 0.  1.
         22    1    1    0    0    0 -0.48264084731E+02 -0.23382674910E+02 -0.32090323690E+02  0.62497681841E+02  0.00000000000E+00 0.  1.
</event>
<event>
 4    1  0.9957587E-003  0.9118800E+02  0.7818608E-02  0.1130116E+00
         25   -1    0    0    0    0  0.00000000000E+00  0.00000000000E+00  0.99999998245E-14  0.12500000000E+03  0.12500000000E+03 0.  0.
        -13    1    1    0    0    0  0.95654070648E+01 -0.25020831313E+01  0.36650902881E+02  0.37961260231E+02  0.10566000000E+00 0. -1.
         13    1    1    0    0    0  0.61095065804E+01 -0.17791364438E+01  0.23699493521E+02  0.24539122933E+02  0.10566000000E+00 0. -1.
         22    1    1    0    0    0 -0.15674913645E+02  0.42812195751E+01 -0.60350396402E+02  0.62499616836E+02  0.00000000000E+00 0. -1.
</event>
<event>
 4    1  0.9957587E-003  0.9118800E+02  0.7818608E-02  0.1130116E+00
         25   -1    0    0    0    0  0.00000000000E+00  0.00000000000E+00  0.99999998245E-14  0.12500000000E+03  0.12500000000E+03 0.  0.
        -13    1    1    0    0    0 -0.25261240843E+02 -0.13091789872E+02  0.15124731595E+02  0.32222568501E+02  0.10566000000E+00 0. -1.
         13    1    1    0    0    0 -0.23913868013E+02 -0.12802311434E+02  0.13459894448E+02  0.30281218338E+02  0.10566000000E+00 0.  1.
         22    1    1    0    0    0  0.49175108856E+02  0.25894101306E+02 -0.28584626042E+02  0.62496213161E+02  0.00000000000E+00 0.  1.
</event>
<event>
 4    1  0.9957587E-003  0.9118800E+02  0.7818608E-02  0.1130116E+00
         25   -1    0    0    0    0  0.00000000000E+00  0.00000000000E+00  0.99999998245E-14  0.12500000000E+03  0.12500000000E+03 0.  0.
        -13    1    1    0    0    0  0.21978952700E+02 -0.20925682307E+02  0.87666801148E+01  0.31588358395E+02  0.10566000000E+00 0.  1.
         13    1    1    0    0    0  0.21302504955E+02 -0.20657790167E+02  0.86607768799E+01  0.30912153470E+02  0.10566000000E+00 0. -1.
         22    1    1    0    0    0 -0.43281457655E+02  0.41583472475E+02 -0.17427456995E+02  0.62499488135E+02  0.00000000000E+00 0. -1.
</event>
<event>
 4    1  0.9957587E-003  0.9118800E+02  0.7818608E-02  0.1130116E+00
         25   -1    0    0    0    0  0.00000000000E+00  0.00000000000E+00  0.99999998245E-14  0.12500000000E+03  0.12500000000E+03 0.  0.
        -13    1    1    0    0    0  0.10765938627E+02 -0.78837173185E+01  0.82661493665E+00  0.13369850020E+02  0.10566000000E+00 0.  1.
         13    1    1    0    0    0  0.39584374961E+02 -0.28940743096E+02  0.30491603104E+01  0.49130417204E+02  0.10566000000E+00 0.  1.
         22    1    1    0    0    0 -0.50350313588E+02  0.36824460415E+02 -0.38757752471E+01  0.62499732776E+02  0.00000000000E+00 0.  1.
</event>
<event>
 4    1  0.9957587E-003  0.9118800E+02  0.7818608E-02  0.1130116E+00
         25   -1    0    0    0    0  0.00000000000E+00  0.00000000000E+00  0.99999998245E-14  0.12500000000E+03  0.12500000000E+03 0.  0.
        -13    1    1    0    0    0  0.21948285021E+02 -0.32373720035E+02 -0.89360581998E+01  0.40120434500E+02  0.10566000000E+00 0. -1.
         13    1    1    0    0    0  0.50168776191E+01 -0.22266361886E+02 -0.22294030002E+01  0.22933410878E+02  0.10566000000E+00 0.  1.
         22    1    1    0    0    0 -0.26965162641E+02  0.54640081922E+02  0.11165461200E+02  0.61946154622E+02  0.00000000000E+00 0. -1.
</event>
<event>
 4    1  0.9957587E-003  0.9118800E+02  0.7818608E-02  0.1130116E+00
         25   -1    0    0    0    0  0.00000000000E+00  0.00000000000E+00  0.99999998245E-14  0.12500000000E+03  0.12500000000E+03 0.  0.
        -13    1    1    0    0    0 -0.41147758089E+02  0.97637989083E+01 -0.37593627058E+01  0.42457198882E+02  0.10566000000E+00 0.  1.
         13    1    1    0    0    0 -0.20249004153E+02 -0.87185525160E+00 -0.12288685739E+01  0.20305259978E+02  0.10566000000E+00 0. -1.
         22    1    1    0    0    0  0.61396762242E+02 -0.88919436567E+01  0.49882312797E+01  0.62237541140E+02  0.00000000000E+00 0.  1.
</event>
<event>
 4    1  0.9957587E-003  0.9118800E+02  0.7818608E-02  0.1130116E+00
         25   -1    0    0    0    0  0.00000000000E+00  0.00000000000E+00  0.99999998245E-14  0.12500000000E+03  0.12500000000E+03 0.  0.
        -13    1    1    0    0    0 -0.60327283571E+00  0.43676322616E+01  0.58348393384E+00  0.44487939066E+01  0.10566000000E+00 0. -1.
         13    1    1    0    0    0 -0.30521663475E+02  0.41607929031E+02  0.27347340269E+02  0.58401026390E+02  0.10566000000E+00 0.  1.
         22    1    1    0    0    0  0.31124936311E+02 -0.45975561293E+02 -0.27930824203E+02  0.62150179704E+02  0.00000000000E+00 0.  1.
</event>
<event>
 4    1  0.9957587E-003  0.9118800E+02  0.7818608E-02  0.1130116E+00
         25   -1    0    0    0    0  0.00000000000E+00  0.00000000000E+00  0.99999998245E-14  0.12500000000E+03  0.12500000000E+03 0.  0.
        -13    1    1    0    0    0 -0.20042195379E+01 -0.18140787911E+01 -0.35218866296E+00  0.27281823082E+01  0.10566000000E+00 0. -1.
         13    1    1    0    0    0 -0.52733719564E+02 -0.20990326134E+02  0.19412125371E+02  0.59985671170E+02  0.10566000000E+00 0.  1.
         22    1    1    0    0    0  0.54737939102E+02  0.22804404925E+02 -0.19059936708E+02  0.62286146521E+02  0.00000000000E+00 0.  1.
</event>
<event>
 4    1  0.9957587E-003  0.9118800E+02  0.7818608E-02  0.1130116E+00
         25   -1    0    0    0    0  0.00000000000E+00  0.00000000000E+00  0.99999998245E-14  0.12500000000E+03  0.12500000000E+03 0.  0.
        -13    1    1    0    0    0  0.25662606723E+02 -0.27706223992E+02 -0.95910752316E+01  0.38964138895E+02  0.10566000000E+00 0. -1.
         13    1    1    0    0    0  0.14951813786E+02 -0.17050647751E+02 -0.63136869833E+01  0.23540499816E+02  0.10566000000E+00 0.  1.
         22    1    1    0    0    0 -0.40614420509E+02  0.44756871743E+02  0.15904762215E+02  0.62495361289E+02  0.00000000000E+00 0.  1.
</event>
<event>
 4    1  0.9957587E-003  0.9118800E+02  0.7818608E-02  0.1130116E+00
         25   -1    0    0    0    0  0.00000000000E+00  0.00000000000E+00  0.99999998245E-14  0.12500000000E+03  0.12500000000E+03 0.  0.
        -13    1    1    0    0    0  0.24148864930E+02 -0.84261429961E+01 -0.17427196332E+02  0.30949731812E+02  0.10566000000E+00 0. -1.
         13    1    1    0    0    0  0.22408156959E+02 -0.13756621708E+02 -0.17660195692E+02  0.31674340009E+02  0.10566000000E+00 0.  1.
         22    1    1    0    0    0 -0.46557021889E+02  0.22182764704E+02  0.35087392024E+02  0.62375928179E+02  0.00000000000E+00 0. -1.
</event>
<event>
 4    1  0.9957587E-003  0.9118800E+02  0.7818608E-02  0.1130116E+00
         25   -1    0    0    0    0  0.00000000000E+00  0.00000000000E+00  0.99999998245E-14  0.12500000000E+03  0.12500000000E+03 0.  0.
        -13    1    1    0    0    0  0.57828043824E+01  0.26697039315E+02 -0.17732831710E+02  0.32567425738E+02  0.10566000000E+00 0. -1.
         13    1    1    0    0    0  0.49202287114E+01  0.14112838118E+02 -0.27050953815E+02  0.30905438302E+02  0.10566000000E+00 0.  1.
         22    1    1    0    0    0 -0.10703033094E+02 -0.40809877433E+02  0.44783785525E+02  0.61527135960E+02  0.00000000000E+00 0. -1.
</event>
<event>
 4    1  0.9957587E-003  0.9118800E+02  0.7818608E-02  0.1130116E+00
         25   -1    0    0    0    0  0.00000000000E+00  0.00000000000E+00  0.99999998245E-14  0.12500000000E+03  0.12500000000E+03 0.  0.
        -13    1    1    0    0    0 -0.61465871489E+01  0.12619488275E+02 -0.83738369471E+01  0.16345162194E+02  0.10566000000E+00 0. -1.
         13    1    1    0    0    0 -0.21525070664E+02  0.38671572126E+02 -0.13707015836E+02  0.46332630024E+02  0.10566000000E+00 0.  1.
         22    1    1    0    0    0  0.27671657813E+02 -0.51291060401E+02  0.22080852783E+02  0.62322207782E+02  0.00000000000E+00 0.  1.
</event>
<event>
 4    1  0.9957587E-003  0.9118800E+02  0.7818608E-02  0.1130116E+00
         25   -1    0    0    0    0  0.00000000000E+00  0.00000000000E+00  0.99999998245E-14  0.12500000000E+03  0.12500000000E+03 0.  0.
        -13    1    1    0    0    0 -0.49714438447E+01 -0.32099536862E+02 -0.61508931230E+01  0.33059645656E+02  0.10566000000E+00 0.  1.
         13    1    1    0    0    0 -0.24954947280E+02 -0.18692961747E+02 -0.59900262796E+01  0.31750083330E+02  0.10566000000E+00 0. -1.
         22    1    1    0    0    0  0.29926391125E+02  0.50792498609E+02  0.12140919403E+02  0.60190271013E+02  0.00000000000E+00 0. -1.
</event>
<event>
 4    1  0.9957587E-003  0.9118800E+02  0.7818608E-02  0.1130116E+00
         25   -1    0    0    0    0  0.00000000000E+00  0.00000000000E+00  0.99999998245E-14  0.12500000000E+03  0.12500000000E+03 0.  0.
        -13    1    1    0    0    0 -0.74137914470E+01  0.16434096219E+02 -0.67740359638E+01  0.19259868884E+02  0.10566000000E+00 0. -1.
         13    1    1    0    0    0 -0.16764102372E+02  0.36846137888E+02 -0.15200180145E+02  0.43240370559E+02  0.10566000000E+00 0. -1.
         22    1    1    0    0    0  0.24177893819E+02 -0.53280234107E+02  0.21974216109E+02  0.62499760557E+02  0.00000000000E+00 0. -1.
</event>
<event>
 4    1  0.9957587E-003  0.9118800E+02  0.7818608E-02  0.1130116E+00
         25   -1    0    0    0    0  0.00000000000E+00  0.00000000000E+00  0.99999998245E-14  0.12500000000E+03  0.12500000000E+03 0.  0.
        -13    1    1    0    0    0  0.24803298956E+02 -0.19814692799E+02  0.47898108404E+02  0.57463602763E+02  0.10566000000E+00 0.  1.
         13    1    1    0    0    0  0.20476139679E+01 -0.13428377563E+01  0.44117981822E+01  0.50468865093E+01  0.10566000000E+00 0. -1.
         22    1    1    0    0    0 -0.26850912924E+02  0.21157530555E+02 -0.52309906586E+02  0.62489510728E+02  0.00000000000E+00 0.  1.
</event>
<event>
 4    1  0.9957587E-003  0.9118800E+02  0.7818608E-02  0.1130116E+00
         25   -1    0    0    0    0  0.00000000000E+00  0.00000000000E+00  0.99999998245E-14  0.12500000000E+03  0.12500000000E+03 0.  0.
        -13    1    1    0    0    0  0.15139158178E+02  0.97242569967E+01  0.34307107730E+02  0.38739438422E+02  0.10566000000E+00 0.  1.
         13    1    1    0    0    0  0.91848863312E+01  0.58639390104E+01  0.21114499698E+02  0.23760917052E+02  0.10566000000E+00 0.  1.
         22    1    1    0    0    0 -0.24324044509E+02 -0.15588196007E+02 -0.55421607427E+02  0.62499644526E+02  0.00000000000E+00 0.  1.
</event>
<event>
 4    1  0.9957587E-003  0.9118800E+02  0.7818608E-02  0.1130116E+00
         25   -1    0    0    0    0  0.00000000000E+00  0.00000000000E+00  0.99999998245E-14  0.12500000000E+03  0.12500000000E+03 0.  0.
        -13    1    1    0    0    0  0.43888853607E+02 -0.31251229051E+02  0.69221271143E+01  0.54321246267E+02  0.10566000000E+00 0. -1.
         13    1    1    0    0    0  0.65494174996E+01 -0.47056166999E+01  0.13784817384E+01  0.81822413830E+01  0.10566000000E+00 0.  1.
         22    1    1    0    0    0 -0.50438271107E+02  0.35956845751E+02 -0.83006088527E+01  0.62496512350E+02  0.00000000000E+00 0. -1.
</event>
<event>
 4    1  0.9957587E-003  0.9118800E+02  0.7818608E-02  0.1130116E+00
         25   -1    0    0    0    0  0.00000000000E+00  0.00000000000E+00  0.99999998245E-14  0.12500000000E+03  0.12500000000E+03 0.  0.
        -13    1    1    0    0    0 -0.33516484652E+02  0.78929925787E+01  0.27411888994E+02  0.44012235771E+02  0.10566000000E+00 0.  1.
         13    1    1    0    0    0 -0.13926875276E+02  0.40649920616E+01  0.11468167579E+02  0.18493567722E+02  0.10566000000E+00 0. -1.
         22    1    1    0    0    0  0.47443359928E+02 -0.11957984640E+02 -0.38880056573E+02  0.62494196507E+02  0.00000000000E+00 0.  1.
</event>
<event>
 4    1  0.9957587E-003  0.9118800E+02  0.7818608E-02  0.1130116E+00
         25   -1    0    0    0    0  0.00000000000E+00  0.00000000000E+00  0.99999998245E-14  0.12500000000E+03  0.12500000000E+03 0.  0.
        -13    1    1    0    0    0  0.52069238884E+01  0.58664382474E+01  0.62903936958E+01  0.10055216108E+02  0.10566000000E+00 0.  1.
         13    1    1    0    0    0  0.27406862779E+02  0.29730131545E+02  0.33399935216E+02  0.52446007337E+02  0.10566000000E+00 0. -1.
         22    1    1    0    0    0 -0.32613786668E+02 -0.35596569792E+02 -0.39690328912E+02  0.62498776555E+02  0.00000000000E+00 0. -1.
</event>
<event>
 4    1  0.9957587E-003  0.9118800E+02  0.7818608E-02  0.1130116E+00
         25   -1    0    0    0    0  0.00000000000E+00  0.00000000000E+00  0.99999998245E-14  0.12500000000E+03  0.12500000000E+03 0.  0.
        -13    1    1    0    0    0  0.33730298655E+00  0.30810572171E+01 -0.58795070294E+00  0.31565070797E+01  0.10566000000E+00 0.  1.
         13    1    1    0    0    0  0.39095589187E+02  0.36447783640E+02 -0.26643196782E+02  0.59722500993E+02  0.10566000000E+00 0. -1.
         22    1    1    0    0    0 -0.39432892173E+02 -0.39528840857E+02  0.27231147485E+02  0.62120991927E+02  0.00000000000E+00 0. -1.
</event>
<event>
 4    1  0.9957587E-003  0.9118800E+02  0.7818608E-02  0.1130116E+00
         25   -1    0    0    0    0  0.00000000000E+00  0.00000000000E+00  0.99999998245E-14  0.12500000000E+03  0.12500000000E+03 0.  0.
        -13    1    1    0    0    0  0.34638150003E+02 -0.11580268232E+01 -0.51881148296E+02  0.62392364711E+02  0.10566000000E+00 0.  1.
         13    1    1    0    0    0  0.98085351976E-01  0.22025501602E-01 -0.17320291945E-01  0.14686690269E+00  0.10566000000E+00 0. -1.
         22    1    1    0    0    0 -0.34736235355E+02  0.11360013216E+01  0.51898468587E+02  0.62460768386E+02  0.00000000000E+00 0.  1.
</event>
<event>
 4    1  0.9957587E-003  0.9118800E+02  0.7818608E-02  0.1130116E+00
         25   -1    0    0    0    0  0.00000000000E+00  0.00000000000E+00  0.99999998245E-14  0.12500000000E+03  0.12500000000E+03 0.  0.
        -13    1    1    0    0    0 -0.77727891263E+01  0.45790119320E+02 -0.20610687611E+02  0.50813018863E+02  0.10566000000E+00 0.  1.
         13    1    1    0    0    0 -0.29458605532E+01  0.10663492519E+02 -0.38791386928E+01  0.11723781307E+02  0.10566000000E+00 0. -1.
         22    1    1    0    0    0  0.10718649679E+02 -0.56453611839E+02  0.24489826303E+02  0.62463199830E+02  0.00000000000E+00 0.  1.
</event>
<event>
 4    1  0.9957587E-003  0.9118800E+02  0.7818608E-02  0.1130116E+00
         25   -1    0    0    0    0  0.00000000000E+00  0.00000000000E+00  0.99999998245E-14  0.12500000000E+03  0.12500000000E+03 0.  0.
        -13    1    1    0    0    0  0.28500821368E+01  0.16872359640E+02  0.72183883988E+01  0.18571908440E+02  0.10566000000E+00 0.  1.
         13    1    1    0    0    0  0.46763641769E+01  0.40270756314E+02  0.16933359865E+02  0.43935771717E+02  0.10566000000E+00 0. -1.
         22    1    1    0    0    0 -0.75264463137E+01 -0.57143115954E+02 -0.24151748264E+02  0.62492319842E+02  0.00000000000E+00 0. -1.
</event>
<event>
 4    1  0.9957587E-003  0.9118800E+02  0.7818608E-02  0.1130116E+00
         25   -1    0    0    0    0  0.00000000000E+00  0.00000000000E+00  0.99999998245E-14  0.12500000000E+03  0.12500000000E+03 0.  0.
        -13    1    1    0    0    0  0.39678036149E+01  0.34202374113E+01  0.34495088010E+01  0.62730984752E+01  0.10566000000E+00 0.  1.
         13    1    1    0    0    0 -0.29174624935E+02  0.45053291047E+02 -0.25975475968E+02  0.59629642713E+02  0.10566000000E+00 0. -1.
         22    1    1    0    0    0  0.25206821320E+02 -0.48473528458E+02  0.22525967167E+02  0.59097258812E+02  0.00000000000E+00 0. -1.
</event>
<event>
 4    1  0.9957587E-003  0.9118800E+02  0.7818608E-02  0.1130116E+00
         25   -1    0    0    0    0  0.00000000000E+00  0.00000000000E+00  0.99999998245E-14  0.12500000000E+03  0.12500000000E+03 0.  0.
        -13    1    1    0    0    0 -0.24621759125E+02  0.80732137026E+01 -0.18669166688E+02  0.31936761746E+02  0.10566000000E+00 0. -1.
         13    1    1    0    0    0 -0.25137912907E+02  0.11904966465E+02 -0.13092385146E+02  0.30741903075E+02  0.10566000000E+00 0.  1.
         22    1    1    0    0    0  0.49759672032E+02 -0.19978180168E+02  0.31761551834E+02  0.62321335179E+02  0.00000000000E+00 0. -1.
</event>
<event>
 4    1  0.9957587E-003  0.9118800E+02  0.7818608E-02  0.1130116E+00
         25   -1    0    0    0    0  0.00000000000E+00  0.00000000000E+00  0.99999998245E-14  0.12500000000E+03  0.12500000000E+03 0.  0.
        -13    1    1    0    0    0 -0.83863013532E+01  0.35173572571E+02 -0.14756701485E+02  0.39054854507E+02  0.10566000000E+00 0. -1.
         13    1    1    0    0    0 -0.53352617912E+01  0.21144127009E+02 -0.86128341429E+01  0.23446347293E+02  0.10566000000E+00 0. -1.
         22    1    1    0    0    0  0.13721563144E+02 -0.56317699580E+02  0.23369535627E+02  0.62498798201E+02  0.00000000000E+00 0. -1.
</event>
<event>
 4    1  0.9957587E-003  0.9118800E+02  0.7818608E-02  0.1130116E+00
         25   -1    0    0    0    0  0.00000000000E+00  0.00000000000E+00  0.99999998245E-14  0.12500000000E+03  0.12500000000E+03 0.  0.
        -13    1    1    0    0    0  0.76477491603E+01 -0.74934173839E+01 -0.10454312703E+02  0.14964731519E+02  0.10566000000E+00 0. -1.
         13    1    1    0    0    0 -0.24769714932E+02 -0.31378659555E+01 -0.44762663130E+02  0.51255167107E+02  0.10566000000E+00 0.  1.
         22    1    1    0    0    0  0.17121965772E+02  0.10631283339E+02  0.55216975834E+02  0.58780101374E+02  0.00000000000E+00 0.  1.
</event>
<event>
 4    1  0.9957587E-003  0.9118800E+02  0.7818608E-02  0.1130116E+00
         25   -1    0    0    0    0  0.00000000000E+00  0.00000000000E+00  0.99999998245E-14  0.12500000000E+03  0.12500000000E+03 0.  0.
        -13    1    1    0    0    0  0.23057016598E+02 -0.16153765985E+02 -0.12394795210E+00  0.28153093916E+02  0.10566000000E+00 0.  1.
         13    1    1    0    0    0  0.29361930141E+02 -0.17847125307E+02 -0.46012419834E+00  0.34363726539E+02  0.10566000000E+00 0. -1.
         22    1    1    0    0    0 -0.52418946739E+02  0.34000891292E+02  0.58407215044E+00  0.62483179546E+02  0.00000000000E+00 0.  1.
</event>
<event>
 4    1  0.9957587E-003  0.9118800E+02  0.7818608E-02  0.1130116E+00
         25   -1    0    0    0    0  0.00000000000E+00  0.00000000000E+00  0.99999998245E-14  0.12500000000E+03  0.12500000000E+03 0.  0.
        -13    1    1    0    0    0  0.11823673769E+01 -0.36040545066E+01  0.54561787672E+02  0.54693574024E+02  0.10566000000E+00 0.  1.
         13    1    1    0    0    0 -0.12772937244E+00 -0.95589464772E+00  0.77543356786E+01  0.78147895187E+01  0.10566000000E+00 0. -1.
         22    1    1    0    0    0 -0.10546380044E+01  0.45599491544E+01 -0.62316123351E+02  0.62491636457E+02  0.00000000000E+00 0.  1.
</event>
<event>
 4    1  0.9957587E-003  0.9118800E+02  0.7818608E-02  0.1130116E+00
         25   -1    0    0    0    0  0.00000000000E+00  0.00000000000E+00  0.99999998245E-14  0.12500000000E+03  0.12500000000E+03 0.  0.
        -13    1    1    0    0    0  0.21660971270E+02 -0.42483018228E+02 -0.64438659400E+01  0.48120048695E+02  0.10566000000E+00 0. -1.
         13    1    1    0    0    0  0.14738472306E+02 -0.57903017726E+01  0.41855787331E+01  0.16379267197E+02  0.10566000000E+00 0.  1.
         22    1    1    0    0    0 -0.36399443576E+02  0.48273320000E+02  0.22582872069E+01  0.60500684109E+02  0.00000000000E+00 0. -1.
</event>
<event>
 4    1  0.9957587E-003  0.9118800E+02  0.7818608E-02  0.1130116E+00
         25   -1    0    0    0    0  0.00000000000E+00  0.00000000000E+00  0.99999998245E-14  0.12500000000E+03  0.12500000000E+03 0.  0.
        -13    1    1    0    0    0 -0.10612873207E+02 -0.44889962829E+02  0.32813082879E+02  0.56607874121E+02  0.10566000000E+00 0. -1.
         13    1    1    0    0    0 -0.72618809144E+01 -0.24760682173E+01  0.65820358835E+00  0.77013131497E+01  0.10566000000E+00 0.  1.
         22    1    1    0    0    0  0.17874754121E+02  0.47366031046E+02 -0.33471286467E+02  0.60690812729E+02  0.00000000000E+00 0. -1.
</event>
<event>
 4    1  0.9957587E-003  0.9118800E+02  0.7818608E-02  0.1130116E+00
         25   -1    0    0    0    0  0.00000000000E+00  0.00000000000E+00  0.99999998245E-14  0.12500000000E+03  0.12500000000E+03 0.  0.
        -13    1    1    0    0    0 -0.53050974640E+01  0.78174208812E+01 -0.31262142540E+02  0.32658671874E+02  0.10566000000E+00 0.  1.
         13    1    1    0    0    0 -0.30796628534E+02  0.23779663712E+02  0.13605013142E+02  0.41219076675E+02  0.10566000000E+00 0. -1.
         22    1    1    0    0    0  0.36101725998E+02 -0.31597084593E+02  0.17657129398E+02  0.51122251451E+02  0.00000000000E+00 0. -1.
</event>
<event>
 4    1  0.9957587E-003  0.9118800E+02  0.7818608E-02  0.1130116E+00
         25   -1    0    0    0    0  0.00000000000E+00  0.00000000000E+00  0.99999998245E-14  0.12500000000E+03  0.12500000000E+03 0.  0.
        -13    1    1    0    0    0 -0.18934367409E+02 -0.22619516915E+02  0.39460198026E+02  0.49267344224E+02  0.10566000000E+00 0. -1.
         13    1    1    0    0    0  0.15843316158E+02 -0.76140326768E+01  0.80498877159E+01  0.19333805026E+02  0.10566000000E+00 0.  1.
         22    1    1    0    0    0  0.30910512512E+01  0.30233549591E+02 -0.47510085742E+02  0.56398850750E+02  0.00000000000E+00 0. -1.
</event>
<event>
 4    1  0.9957587E-003  0.9118800E+02  0.7818608E-02  0.1130116E+00
         25   -1    0    0    0    0  0.00000000000E+00  0.00000000000E+00  0.99999998245E-14  0.12500000000E+03  0.12500000000E+03 0.  0.
        -13    1    1    0    0    0  0.73771296314E+01  0.81884471485E+01  0.30220458077E+02  0.32167685008E+02  0.10566000000E+00 0. -1.
         13    1    1    0    0    0  0.72867702497E+01  0.72684667376E+01  0.28534236183E+02  0.30333833057E+02  0.10566000000E+00 0. -1.
         22    1    1    0    0    0 -0.14663899881E+02 -0.15456913886E+02 -0.58754694260E+02  0.62498481935E+02  0.00000000000E+00 0. -1.
</event>
<event>
 4    1  0.9957587E-003  0.9118800E+02  0.7818608E-02  0.1130116E+00
         25   -1    0    0    0    0  0.00000000000E+00  0.00000000000E+00  0.99999998245E-14  0.12500000000E+03  0.12500000000E+03 0.  0.
        -13    1    1    0    0    0  0.17821139243E+02 -0.11605225161E+02  0.22160455164E+02  0.30714348309E+02  0.10566000000E+00 0. -1.
         13    1    1    0    0    0  0.15256125545E+02 -0.13557599966E+02  0.24442081087E+02  0.31843121319E+02  0.10566000000E+00 0.  1.
         22    1    1    0    0    0 -0.33077264788E+02  0.25162825127E+02 -0.46602536251E+02  0.62442530371E+02  0.00000000000E+00 0. -1.
</event>
<event>
 4    1  0.9957587E-003  0.9118800E+02  0.7818608E-02  0.1130116E+00
         25   -1    0    0    0    0  0.00000000000E+00  0.00000000000E+00  0.99999998245E-14  0.12500000000E+03  0.12500000000E+03 0.  0.
        -13    1    1    0    0    0 -0.10027609131E+02  0.41647234701E+02 -0.42262221173E+02  0.60176005232E+02  0.10566000000E+00 0.  1.
         13    1    1    0    0    0 -0.38835647656E+00 -0.25197863902E+01 -0.31029071324E+01  0.40173798567E+01  0.10566000000E+00 0. -1.
         22    1    1    0    0    0  0.10415965608E+02 -0.39127448310E+02  0.45365128306E+02  0.60806614912E+02  0.00000000000E+00 0.  1.
</event>
<event>
 4    1  0.9957587E-003  0.9118800E+02  0.7818608E-02  0.1130116E+00
         25   -1    0    0    0    0  0.00000000000E+00  0.00000000000E+00  0.99999998245E-14  0.12500000000E+03  0.12500000000E+03 0.  0.
        -13    1    1    0    0    0  0.29467936308E+01 -0.12065492391E+02  0.28783170896E+01  0.12749728336E+02  0.10566000000E+00 0. -1.
         13    1    1    0    0    0  0.12229265158E+02 -0.46554270147E+02  0.12590546085E+02  0.49753271349E+02  0.10566000000E+00 0.  1.
         22    1    1    0    0    0 -0.15176058788E+02  0.58619762538E+02 -0.15468863174E+02  0.62497000314E+02  0.00000000000E+00 0.  1.
</event>
<event>
 4    1  0.9957587E-003  0.9118800E+02  0.7818608E-02  0.1130116E+00
         25   -1    0    0    0    0  0.00000000000E+00  0.00000000000E+00  0.99999998245E-14  0.12500000000E+03  0.12500000000E+03 0.  0.
        -13    1    1    0    0    0 -0.19917061457E+01 -0.66041360643E+00  0.13774555338E+02  0.13933864442E+02  0.10566000000E+00 0.  1.
         13    1    1    0    0    0 -0.63807374489E+01 -0.32767749557E+01  0.48035127465E+02  0.48567846351E+02  0.10566000000E+00 0.  1.
         22    1    1    0    0    0  0.83724435946E+01  0.39371885621E+01 -0.61809682803E+02  0.62498289207E+02  0.00000000000E+00 0.  1.
</event>
<event>
 4    1  0.9957587E-003  0.9118800E+02  0.7818608E-02  0.1130116E+00
         25   -1    0    0    0    0  0.00000000000E+00  0.00000000000E+00  0.99999998245E-14  0.12500000000E+03  0.12500000000E+03 0.  0.
        -13    1    1    0    0    0  0.29818917529E+02  0.29854866286E+02 -0.22169839328E+02  0.47665436361E+02  0.10566000000E+00 0. -1.
         13    1    1    0    0    0  0.12658528632E+02  0.73718257644E+01 -0.38519817254E+01  0.15146982851E+02  0.10566000000E+00 0.  1.
         22    1    1    0    0    0 -0.42477446161E+02 -0.37226692051E+02  0.26021821054E+02  0.62187580789E+02  0.00000000000E+00 0. -1.
</event>
<event>
 4    1  0.9957587E-003  0.9118800E+02  0.7818608E-02  0.1130116E+00
         25   -1    0    0    0    0  0.00000000000E+00  0.00000000000E+00  0.99999998245E-14  0.12500000000E+03  0.12500000000E+03 0.  0.
        -13    1    1    0    0    0 -0.25703633851E+02 -0.12490804648E+01 -0.37879788246E+02  0.45794393944E+02  0.10566000000E+00 0. -1.
         13    1    1    0    0    0 -0.93270251742E+01 -0.47588672259E+00 -0.13851184237E+02  0.16705877276E+02  0.10566000000E+00 0. -1.
         22    1    1    0    0    0  0.35030659025E+02  0.17249671873E+01  0.51730972483E+02  0.62499728779E+02  0.00000000000E+00 0. -1.
</event>
<event>
 4    1  0.9957587E-003  0.9118800E+02  0.7818608E-02  0.1130116E+00
         25   -1    0    0    0    0  0.00000000000E+00  0.00000000000E+00  0.99999998245E-14  0.12500000000E+03  0.12500000000E+03 0.  0.
        -13    1    1    0    0    0  0.24344508458E+02  0.21816270490E+02 -0.42876081834E+02  0.53916364006E+02  0.10566000000E+00 0.  1.
         13    1    1    0    0    0  0.58697824803E+01 -0.41905689982E+01 -0.70744057473E+01  0.10103147807E+02  0.10566000000E+00 0. -1.
         22    1    1    0    0    0 -0.30214290938E+02 -0.17625701492E+02  0.49950487581E+02  0.60980488187E+02  0.00000000000E+00 0.  1.
</event>
<event>
 4    1  0.9957587E-003  0.9118800E+02  0.7818608E-02  0.1130116E+00
         25   -1    0    0    0    0  0.00000000000E+00  0.00000000000E+00  0.99999998245E-14  0.12500000000E+03  0.12500000000E+03 0.  0.
        -13    1    1    0    0    0 -0.14986263194E+02  0.58319493377E+02 -0.32405477822E+01  0.60301440333E+02  0.10566000000E+00 0. -1.
         13    1    1    0    0    0 -0.35923075467E+00  0.21417778646E+01 -0.41396736667E+00  0.22133215250E+01  0.10566000000E+00 0.  1.
         22    1    1    0    0    0  0.15345493949E+02 -0.60461271242E+02  0.36545151488E+01  0.62485238142E+02  0.00000000000E+00 0. -1.
</event>
<event>
 4    1  0.9957587E-003  0.9118800E+02  0.7818608E-02  0.1130116E+00
         25   -1    0    0    0    0  0.00000000000E+00  0.00000000000E+00  0.99999998245E-14  0.12500000000E+03  0.12500000000E+03 0.  0.
        -13    1    1    0    0    0  0.37626191587E+01  0.20852147816E+02  0.94173795987E+01  0.23187659951E+02  0.10566000000E+00 0.  1.
         13    1    1    0    0    0 -0.12756739241E+02  0.36823180424E+02  0.10109689204E+02  0.40260377450E+02  0.10566000000E+00 0. -1.
         22    1    1    0    0    0  0.89941200819E+01 -0.57675328240E+02 -0.19527068803E+02  0.61551962598E+02  0.00000000000E+00 0. -1.
</event>
<event>
 4    1  0.9957587E-003  0.9118800E+02  0.7818608E-02  0.1130116E+00
         25   -1    0    0    0    0  0.00000000000E+00  0.00000000000E+00  0.99999998245E-14  0.12500000000E+03  0.12500000000E+03 0.  0.
        -13    1    1    0    0    0 -0.11231699998E+02 -0.99672472417E+01 -0.48718536683E+02  0.50980428431E+02  0.10566000000E+00 0. -1.
         13    1    1    0    0    0 -0.19524259422E+01 -0.19224008541E+01 -0.11197653000E+02  0.11528494648E+02  0.10566000000E+00 0.  1.
         22    1    1    0    0    0  0.13184125940E+02  0.11889648096E+02  0.59916189683E+02  0.62491076921E+02  0.00000000000E+00 0. -1.
</event>
<event>
 4    1  0.9957587E-003  0.9118800E+02  0.7818608E-02  0.1130116E+00
         25   -1    0    0    0    0  0.00000000000E+00  0.00000000000E+00  0.99999998245E-14  0.12500000000E+03  0.12500000000E+03 0.  0.
        -13    1    1    0    0    0  0.21635373427E+02  0.31425728529E+02  0.47606135783E+02  0.61008369304E+02  0.10566000000E+00 0. -1.
         13    1    1    0    0    0 -0.18585400061E+00  0.10199639345E+01  0.11958333146E+01  0.15862060046E+01  0.10566000000E+00 0.  1.
         22    1    1    0    0    0 -0.21449519426E+02 -0.32445692464E+02 -0.48801969098E+02  0.62405424691E+02  0.00000000000E+00 0. -1.
</event>
<event>
 4    1  0.9957587E-003  0.9118800E+02  0.7818608E-02  0.1130116E+00
         25   -1    0    0    0    0  0.00000000000E+00  0.00000000000E+00  0.99999998245E-14  0.12500000000E+03  0.12500000000E+03 0.  0.
        -13    1    1    0    0    0 -0.16488818257E+02 -0.38075572060E+01  0.38603021518E-01  0.16923098818E+02  0.10566000000E+00 0.  1.
         13    1    1    0    0    0 -0.44444397899E+02 -0.10088077096E+02  0.45886077305E+00  0.45577357551E+02  0.10566000000E+00 0. -1.
         22    1    1    0    0    0  0.60933216156E+02  0.13895634302E+02 -0.49746379457E+00  0.62499543630E+02  0.00000000000E+00 0.  1.
</event>
<event>
 4    1  0.9957587E-003  0.9118800E+02  0.7818608E-02  0.1130116E+00
         25   -1    0    0    0    0  0.00000000000E+00  0.00000000000E+00  0.99999998245E-14  0.12500000000E+03  0.12500000000E+03 0.  0.
        -13    1    1    0    0    0 -0.13786924695E+02 -0.18950583581E+02  0.29819832380E+02  0.37926738296E+02  0.10566000000E+00 0.  1.
         13    1    1    0    0    0 -0.20283717773E+02 -0.11283166501E+02  0.11202537792E+02  0.25772991095E+02  0.10566000000E+00 0. -1.
         22    1    1    0    0    0  0.34070642468E+02  0.30233750082E+02 -0.41022370172E+02  0.61300270609E+02  0.00000000000E+00 0. -1.
</event>
<event>
 4    1  0.9957587E-003  0.9118800E+02  0.7818608E-02  0.1130116E+00
         25   -1    0    0    0    0  0.00000000000E+00  0.00000000000E+00  0.99999998245E-14  0.12500000000E+03  0.12500000000E+03 0.  0.
        -13    1    1    0    0    0 -0.54600142358E+01  0.18545120677E+02  0.41937827454E+02  0.46179278816E+02  0.10566000000E+00 0.  1.
         13    1    1    0    0    0 -0.21010402793E+01  0.67748177659E+01  0.14699799978E+02  0.16322003843E+02  0.10566000000E+00 0. -1.
         22    1    1    0    0    0  0.75610545152E+01 -0.25319938443E+02 -0.56637627432E+02  0.62498717341E+02  0.00000000000E+00 0.  1.
</event>
<event>
 4    1  0.9957587E-003  0.9118800E+02  0.7818608E-02  0.1130116E+00
         25   -1    0    0    0    0  0.00000000000E+00  0.00000000000E+00  0.99999998245E-14  0.12500000000E+03  0.12500000000E+03 0.  0.
        -13    1    1    0    0    0 -0.16904865100E+02 -0.34187181230E+01  0.35171436325E+02  0.39172735350E+02  0.10566000000E+00 0. -1.
         13    1    1    0    0    0 -0.98211050226E+01 -0.22020452602E+01  0.21044872153E+02  0.23328114265E+02  0.10566000000E+00 0. -1.
         22    1    1    0    0    0  0.26725970123E+02  0.56207633832E+01 -0.56216308477E+02  0.62499150385E+02  0.00000000000E+00 0. -1.
</event>
<event>
 4    1  0.9957587E-003  0.9118800E+02  0.7818608E-02  0.1130116E+00
         25   -1    0    0    0    0  0.00000000000E+00  0.00000000000E+00  0.99999998245E-14  0.12500000000E+03  0.12500000000E+03 0.  0.
        -13    1    1    0    0    0 -0.19534771644E+02  0.20618807858E+02 -0.46850786733E+02  0.54788227953E+02  0.10566000000E+00 0. -1.
         13    1    1    0    0    0 -0.28459840214E+01  0.30375104848E+01 -0.64928545585E+01  0.77132625619E+01  0.10566000000E+00 0. -1.
         22    1    1    0    0    0  0.22380755666E+02 -0.23656318343E+02  0.53343641291E+02  0.62498509485E+02  0.00000000000E+00 0. -1.
</event>
<event>
 4    1  0.9957587E-003  0.9118800E+02  0.7818608E-02  0.1130116E+00
         25   -1    0    0    0    0  0.00000000000E+00  0.00000000000E+00  0.99999998245E-14  0.12500000000E+03  0.12500000000E+03 0.  0.
        -13    1    1    0    0    0  0.37370242100E+01 -0.16837992621E+01 -0.18820726786E+01  0.45115287325E+01  0.10566000000E+00 0.  1.
         13    1    1    0    0    0 -0.46400837113E+02 -0.85274071078E-01 -0.39566124462E+02  0.60979786203E+02  0.10566000000E+00 0. -1.
         22    1    1    0    0    0  0.42663812903E+02  0.17690733332E+01  0.41448197140E+02  0.59508685064E+02  0.00000000000E+00 0. -1.
</event>
<event>
 4    1  0.9957587E-003  0.9118800E+02  0.7818608E-02  0.1130116E+00
         25   -1    0    0    0    0  0.00000000000E+00  0.00000000000E+00  0.99999998245E-14  0.12500000000E+03  0.12500000000E+03 0.  0.
        -13    1    1    0    0    0  0.24152517105E+01 -0.85490498738E+01 -0.17283697543E+02  0.19433400612E+02  0.10566000000E+00 0. -1.
         13    1    1    0    0    0 -0.88565742883E+01  0.68127636751E+00 -0.43266256361E+02  0.44168802895E+02  0.10566000000E+00 0.  1.
         22    1    1    0    0    0  0.64413225777E+01  0.78677735063E+01  0.60549953904E+02  0.61397796493E+02  0.00000000000E+00 0. -1.
</event>
<event>
 4    1  0.9957587E-003  0.9118800E+02  0.7818608E-02  0.1130116E+00
         25   -1    0    0    0    0  0.00000000000E+00  0.00000000000E+00  0.99999998245E-14  0.12500000000E+03  0.12500000000E+03 0.  0.
        -13    1    1    0    0    0  0.18355921679E+01 -0.12955705017E+01 -0.49862220935E+01  0.54700526810E+01  0.10566000000E+00 0. -1.
         13    1    1    0    0    0  0.23937634999E+02 -0.16242647892E+02 -0.49166220535E+02  0.57045266111E+02  0.10566000000E+00 0.  1.
         22    1    1    0    0    0 -0.25773227167E+02  0.17538218394E+02  0.54152442629E+02  0.62484681208E+02  0.00000000000E+00 0.  1.
</event>
<event>
 4    1  0.9957587E-003  0.9118800E+02  0.7818608E-02  0.1130116E+00
         25   -1    0    0    0    0  0.00000000000E+00  0.00000000000E+00  0.99999998245E-14  0.12500000000E+03  0.12500000000E+03 0.  0.
        -13    1    1    0    0    0 -0.18816420623E+02  0.30010645698E+02 -0.25469964916E+02  0.43628280016E+02  0.10566000000E+00 0.  1.
         13    1    1    0    0    0 -0.20129067352E+02  0.87999783581E+01  0.39119183980E+01  0.22314417786E+02  0.10566000000E+00 0. -1.
         22    1    1    0    0    0  0.38945487974E+02 -0.38810624056E+02  0.21558046518E+02  0.59057302198E+02  0.00000000000E+00 0. -1.
</event>
<event>
 4    1  0.9957587E-003  0.9118800E+02  0.7818608E-02  0.1130116E+00
         25   -1    0    0    0    0  0.00000000000E+00  0.00000000000E+00  0.99999998245E-14  0.12500000000E+03  0.12500000000E+03 0.  0.
        -13    1    1    0    0    0 -0.19509484129E+01  0.15874435528E+02  0.30916778471E+01  0.16290289714E+02  0.10566000000E+00 0. -1.
         13    1    1    0    0    0 -0.57985185721E+01  0.45023279681E+02  0.86394664755E+01  0.46210064660E+02  0.10566000000E+00 0. -1.
         22    1    1    0    0    0  0.77494669850E+01 -0.60897715209E+02 -0.11731144323E+02  0.62499645626E+02  0.00000000000E+00 0. -1.
</event>
<event>
 4    1  0.9957587E-003  0.9118800E+02  0.7818608E-02  0.1130116E+00
         25   -1    0    0    0    0  0.00000000000E+00  0.00000000000E+00  0.99999998245E-14  0.12500000000E+03  0.12500000000E+03 0.  0.
        -13    1    1    0    0    0 -0.31661307864E-01 -0.13494524231E+02 -0.58534009598E+01  0.14709746888E+02  0.10566000000E+00 0. -1.
         13    1    1    0    0    0 -0.18012522680E+02 -0.34930449278E+02 -0.28226226296E+02  0.48387170563E+02  0.10566000000E+00 0.  1.
         22    1    1    0    0    0  0.18044183988E+02  0.48424973510E+02  0.34079627256E+02  0.61903082550E+02  0.00000000000E+00 0.  1.
</event>
<event>
 4    1  0.9957587E-003  0.9118800E+02  0.7818608E-02  0.1130116E+00
         25   -1    0    0    0    0  0.00000000000E+00  0.00000000000E+00  0.99999998245E-14  0.12500000000E+03  0.12500000000E+03 0.  0.
        -13    1    1    0    0    0  0.18608575490E+00 -0.17923430025E+02  0.91042526455E+01  0.20104291881E+02  0.10566000000E+00 0.  1.
         13    1    1    0    0    0  0.81992760039E+01 -0.37945758704E+02 -0.25039604680E+02  0.46196338569E+02  0.10566000000E+00 0. -1.
         22    1    1    0    0    0 -0.83853617588E+01  0.55869188729E+02  0.15935352034E+02  0.58699369550E+02  0.00000000000E+00 0. -1.
</event>
<event>
 4    1  0.9957587E-003  0.9118800E+02  0.7818608E-02  0.1130116E+00
         25   -1    0    0    0    0  0.00000000000E+00  0.00000000000E+00  0.99999998245E-14  0.12500000000E+03  0.12500000000E+03 0.  0.
        -13    1    1    0    0    0  0.23502723918E+02 -0.42193258404E+02 -0.28656428119E+02  0.56159158851E+02  0.10566000000E+00 0.  1.
         13    1    1    0    0    0  0.24430723024E+01 -0.46942705544E+01 -0.35000108673E+01  0.63455510730E+01  0.10566000000E+00 0. -1.
         22    1    1    0    0    0 -0.25945796220E+02  0.46887528959E+02  0.32156438986E+02  0.62495290076E+02  0.00000000000E+00 0.  1.
</event>
<event>
 4    1  0.9957587E-003  0.9118800E+02  0.7818608E-02  0.1130116E+00
         25   -1    0    0    0    0  0.00000000000E+00  0.00000000000E+00  0.99999998245E-14  0.12500000000E+03  0.12500000000E+03 0.  0.
        -13    1    1    0    0    0  0.61576502719E+01  0.18443165678E+02 -0.33042788868E+02  0.38339328076E+02  0.10566000000E+00 0.  1.
         13    1    1    0    0    0 -0.45441046322E+01  0.14545074453E+02 -0.19409112317E+02  0.24676565457E+02  0.10566000000E+00 0. -1.
         22    1    1    0    0    0 -0.16135456397E+01 -0.32988240132E+02  0.52451901186E+02  0.61984106467E+02  0.00000000000E+00 0.  1.
</event>
<event>
 4    1  0.9957587E-003  0.9118800E+02  0.7818608E-02  0.1130116E+00
         25   -1    0    0    0    0  0.00000000000E+00  0.00000000000E+00  0.99999998245E-14  0.12500000000E+03  0.12500000000E+03 0.  0.
        -13    1    1    0    0    0 -0.10031493475E+02 -0.32411602034E+02 -0.25728289697E+02  0.42580498617E+02  0.10566000000E+00 0.  1.
         13    1    1    0    0    0  0.30518371424E+02 -0.86086305839E+01  0.50041865883E+01  0.32101909014E+02  0.10566000000E+00 0. -1.
         22    1    1    0    0    0 -0.20486877949E+02  0.41020232618E+02  0.20724103109E+02  0.50317592369E+02  0.00000000000E+00 0.  1.
</event>
<event>
 4    1  0.9957587E-003  0.9118800E+02  0.7818608E-02  0.1130116E+00
         25   -1    0    0    0    0  0.00000000000E+00  0.00000000000E+00  0.99999998245E-14  0.12500000000E+03  0.12500000000E+03 0.  0.
        -13    1    1    0    0    0 -0.16182964838E+02  0.30608727322E+02  0.24109342932E+02  0.42190687597E+02  0.10566000000E+00 0.  1.
         13    1    1    0    0    0 -0.18599560183E+02 -0.10558460802E+02  0.15498093562E+02  0.26412625799E+02  0.10566000000E+00 0. -1.
         22    1    1    0    0    0  0.34782525021E+02 -0.20050266520E+02 -0.39607436493E+02  0.56396686605E+02  0.00000000000E+00 0. -1.
</event>
<event>
 4    1  0.9957587E-003  0.9118800E+02  0.7818608E-02  0.1130116E+00
         25   -1    0    0    0    0  0.00000000000E+00  0.00000000000E+00  0.99999998245E-14  0.12500000000E+03  0.12500000000E+03 0.  0.
        -13    1    1    0    0    0 -0.99957473553E+01  0.81991897865E+00 -0.57973825220E+02  0.58835047438E+02  0.10566000000E+00 0. -1.
         13    1    1    0    0    0 -0.24822392305E+01 -0.32992978170E+00 -0.30093587470E+01  0.39163464303E+01  0.10566000000E+00 0.  1.
         22    1    1    0    0    0  0.12477986586E+02 -0.48998919695E+00  0.60983183967E+02  0.62248606132E+02  0.00000000000E+00 0. -1.
</event>
<event>
 4    1  0.9957587E-003  0.9118800E+02  0.7818608E-02  0.1130116E+00
         25   -1    0    0    0    0  0.00000000000E+00  0.00000000000E+00  0.99999998245E-14  0.12500000000E+03  0.12500000000E+03 0.  0.
        -13    1    1    0    0    0  0.31828645513E+02 -0.95480117162E+01  0.35572864729E+02  0.48679226287E+02  0.10566000000E+00 0. -1.
         13    1    1    0    0    0  0.99620943359E+01 -0.61684422720E+00  0.96696779601E+01  0.13897397463E+02  0.10566000000E+00 0.  1.
         22    1    1    0    0    0 -0.41790739849E+02  0.10164855943E+02 -0.45242542689E+02  0.62423376250E+02  0.00000000000E+00 0. -1.
</event>
<event>
 4    1  0.9957587E-003  0.9118800E+02  0.7818608E-02  0.1130116E+00
         25   -1    0    0    0    0  0.00000000000E+00  0.00000000000E+00  0.99999998245E-14  0.12500000000E+03  0.12500000000E+03 0.  0.
        -13    1    1    0    0    0  0.26049680117E+02 -0.17648813255E+02 -0.23284414124E+01  0.31551533195E+02  0.10566000000E+00 0.  1.
         13    1    1    0    0    0  0.25750200858E+02 -0.17090625326E+02 -0.16627739940E+01  0.30950578341E+02  0.10566000000E+00 0. -1.
         22    1    1    0    0    0 -0.51799880975E+02  0.34739438581E+02  0.39912154064E+01  0.62497888464E+02  0.00000000000E+00 0.  1.
</event>
<event>
 4    1  0.9957587E-003  0.9118800E+02  0.7818608E-02  0.1130116E+00
         25   -1    0    0    0    0  0.00000000000E+00  0.00000000000E+00  0.99999998245E-14  0.12500000000E+03  0.12500000000E+03 0.  0.
        -13    1    1    0    0    0  0.13082325554E+02  0.15586214185E+02 -0.16990989822E+02  0.26510039866E+02  0.10566000000E+00 0.  1.
         13    1    1    0    0    0  0.29150207195E+02  0.20827194281E+01 -0.23400427312E+02  0.37438796217E+02  0.10566000000E+00 0. -1.
         22    1    1    0    0    0 -0.42232532749E+02 -0.17668933613E+02  0.40391417135E+02  0.61051163917E+02  0.00000000000E+00 0. -1.
</event>
<event>
 4    1  0.9957587E-003  0.9118800E+02  0.7818608E-02  0.1130116E+00
         25   -1    0    0    0    0  0.00000000000E+00  0.00000000000E+00  0.99999998245E-14  0.12500000000E+03  0.12500000000E+03 0.  0.
        -13    1    1    0    0    0  0.14795918306E+02  0.29454424143E+01 -0.68878960489E+01  0.16584604474E+02  0.10566000000E+00 0.  1.
         13    1    1    0    0    0  0.41041290915E+02  0.85083702245E+01 -0.18747923264E+02  0.45915963614E+02  0.10566000000E+00 0.  1.
         22    1    1    0    0    0 -0.55837209221E+02 -0.11453812639E+02  0.25635819313E+02  0.62499431912E+02  0.00000000000E+00 0.  1.
</event>
<event>
 4    1  0.9957587E-003  0.9118800E+02  0.7818608E-02  0.1130116E+00
         25   -1    0    0    0    0  0.00000000000E+00  0.00000000000E+00  0.99999998245E-14  0.12500000000E+03  0.12500000000E+03 0.  0.
        -13    1    1    0    0    0 -0.25060903027E+01  0.55247751192E+01  0.22954919429E+01  0.64872240611E+01  0.10566000000E+00 0.  1.
         13    1    1    0    0    0 -0.35903612957E+02  0.38889856964E+02  0.18725743875E+02  0.56144056192E+02  0.10566000000E+00 0. -1.
         22    1    1    0    0    0  0.38409703260E+02 -0.44414632083E+02 -0.21021235818E+02  0.62368719747E+02  0.00000000000E+00 0. -1.
</event>
<event>
 4    1  0.9957587E-003  0.9118800E+02  0.7818608E-02  0.1130116E+00
         25   -1    0    0    0    0  0.00000000000E+00  0.00000000000E+00  0.99999998245E-14  0.12500000000E+03  0.12500000000E+03 0.  0.
        -13    1    1    0    0    0  0.22254314981E+02  0.21654747452E+02 -0.28954987000E+02  0.42456861150E+02  0.10566000000E+00 0. -1.
         13    1    1    0    0    0 -0.23130087752E+02 -0.80679875360E+01 -0.20066231509E+02  0.31666357436E+02  0.10566000000E+00 0.  1.
         22    1    1    0    0    0  0.87577277025E+00 -0.13586759916E+02  0.49021218509E+02  0.50876781414E+02  0.00000000000E+00 0.  1.
</event>
<event>
 4    1  0.9957587E-003  0.9118800E+02  0.7818608E-02  0.1130116E+00
         25   -1    0    0    0    0  0.00000000000E+00  0.00000000000E+00  0.99999998245E-14  0.12500000000E+03  0.12500000000E+03 0.  0.
        -13    1    1    0    0    0  0.23743911427E+02 -0.16209523034E+01 -0.31898338196E+02  0.39798441677E+02  0.10566000000E+00 0. -1.
         13    1    1    0    0    0  0.14582519784E+02  0.16954571580E+01 -0.17394529442E+02  0.22761926034E+02  0.10566000000E+00 0.  1.
         22    1    1    0    0    0 -0.38326431211E+02 -0.74504854607E-01  0.49292867638E+02  0.62439632289E+02  0.00000000000E+00 0. -1.
</event>
<event>
 4    1  0.9957587E-003  0.9118800E+02  0.7818608E-02  0.1130116E+00
         25   -1    0    0    0    0  0.00000000000E+00  0.00000000000E+00  0.99999998245E-14  0.12500000000E+03  0.12500000000E+03 0.  0.
        -13    1    1    0    0    0 -0.14121634387E+02 -0.12212799933E+02 -0.17245474169E+01  0.18749887141E+02  0.10566000000E+00 0. -1.
         13    1    1    0    0    0 -0.28903290069E+02 -0.32021517868E+02 -0.77254475844E+01  0.43823184364E+02  0.10566000000E+00 0.  1.
         22    1    1    0    0    0  0.43024924457E+02  0.44234317800E+02  0.94499950012E+01  0.62426928495E+02  0.00000000000E+00 0.  1.
</event>
<event>
 4    1  0.9957587E-003  0.9118800E+02  0.7818608E-02  0.1130116E+00
         25   -1    0    0    0    0  0.00000000000E+00  0.00000000000E+00  0.99999998245E-14  0.12500000000E+03  0.12500000000E+03 0.  0.
        -13    1    1    0    0    0 -0.10114468229E+02 -0.13601877178E+02 -0.87366197319E+01  0.19069693723E+02  0.10566000000E+00 0. -1.
         13    1    1    0    0    0 -0.23159872453E+02 -0.30661482775E+02 -0.20241742537E+02  0.43430928184E+02  0.10566000000E+00 0. -1.
         22    1    1    0    0    0  0.33274340682E+02  0.44263359953E+02  0.28978362269E+02  0.62499378092E+02  0.00000000000E+00 0. -1.
</event>
<event>
 4    1  0.9957587E-003  0.9118800E+02  0.7818608E-02  0.1130116E+00
         25   -1    0    0    0    0  0.00000000000E+00  0.00000000000E+00  0.99999998245E-14  0.12500000000E+03  0.12500000000E+03 0.  0.
        -13    1    1    0    0    0  0.27069224792E+00 -0.83942707906E+00 -0.16403503821E+02  0.16427538274E+02  0.10566000000E+00 0.  1.
         13    1    1    0    0    0 -0.48044533223E+02 -0.17979436998E+02 -0.76588541120E+01  0.51867200982E+02  0.10566000000E+00 0. -1.
         22    1    1    0    0    0  0.47773840975E+02  0.18818864077E+02  0.24062357933E+02  0.56705260743E+02  0.00000000000E+00 0. -1.
</event>
<event>
 4    1  0.9957587E-003  0.9118800E+02  0.7818608E-02  0.1130116E+00
         25   -1    0    0    0    0  0.00000000000E+00  0.00000000000E+00  0.99999998245E-14  0.12500000000E+03  0.12500000000E+03 0.  0.
        -13    1    1    0    0    0  0.19337906035E+01 -0.33221215061E+01 -0.11734434576E+01  0.40204690004E+01  0.10566000000E+00 0.  1.
         13    1    1    0    0    0  0.25179428091E+02 -0.49913369220E+02 -0.17173950903E+02  0.58483363272E+02  0.10566000000E+00 0. -1.
         22    1    1    0    0    0 -0.27113218694E+02  0.53235490726E+02  0.18347394360E+02  0.62496167728E+02  0.00000000000E+00 0. -1.
</event>
<event>
 4    1  0.9957587E-003  0.9118800E+02  0.7818608E-02  0.1130116E+00
         25   -1    0    0    0    0  0.00000000000E+00  0.00000000000E+00  0.99999998245E-14  0.12500000000E+03  0.12500000000E+03 0.  0.
        -13    1    1    0    0    0 -0.80731698382E+01 -0.40990920597E+01  0.12010011845E+02  0.15040949953E+02  0.10566000000E+00 0. -1.
         13    1    1    0    0    0 -0.24350932719E+02  0.10614651414E+01  0.41027308990E+02  0.47721545234E+02  0.10566000000E+00 0.  1.
         22    1    1    0    0    0  0.32424102557E+02  0.30376269183E+01 -0.53037320835E+02  0.62237504812E+02  0.00000000000E+00 0.  1.
</event>
<event>
 4    1  0.9957587E-003  0.9118800E+02  0.7818608E-02  0.1130116E+00
         25   -1    0    0    0    0  0.00000000000E+00  0.00000000000E+00  0.99999998245E-14  0.12500000000E+03  0.12500000000E+03 0.  0.
        -13    1    1    0    0    0  0.85385878570E+01  0.48091183062E+01 -0.48303608243E+01  0.10926053780E+02  0.10566000000E+00 0.  1.
         13    1    1    0    0    0 -0.31329530147E+02  0.47252498392E+02 -0.26215005013E+01  0.56755805803E+02  0.10566000000E+00 0. -1.
         22    1    1    0    0    0  0.22790942290E+02 -0.52061616698E+02  0.74518613256E+01  0.57318140417E+02  0.00000000000E+00 0. -1.
</event>
<event>
 4    1  0.9957587E-003  0.9118800E+02  0.7818608E-02  0.1130116E+00
         25   -1    0    0    0    0  0.00000000000E+00  0.00000000000E+00  0.99999998245E-14  0.12500000000E+03  0.12500000000E+03 0.  0.
        -13    1    1    0    0    0 -0.25628315006E+02  0.58100837636E+01  0.14713512013E+02  0.30117539793E+02  0.10566000000E+00 0. -1.
         13    1    1    0    0    0 -0.27352629451E+02  0.52577619133E+01  0.16528167648E+02  0.32388298628E+02  0.10566000000E+00 0. -1.
         22    1    1    0    0    0  0.52980944457E+02 -0.11067845677E+02 -0.31241679661E+02  0.62494161579E+02  0.00000000000E+00 0. -1.
</event>
<event>
 4    1  0.9957587E-003  0.9118800E+02  0.7818608E-02  0.1130116E+00
         25   -1    0    0    0    0  0.00000000000E+00  0.00000000000E+00  0.99999998245E-14  0.12500000000E+03  0.12500000000E+03 0.  0.
        -13    1    1    0    0    0 -0.52006172630E+01  0.84294138821E+00  0.16350009411E+02  0.17178211253E+02  0.10566000000E+00 0.  1.
         13    1    1    0    0    0 -0.13182512158E+02  0.24088370164E+01  0.43295964957E+02  0.45322542605E+02  0.10566000000E+00 0.  1.
         22    1    1    0    0    0  0.18383129421E+02 -0.32517784046E+01 -0.59645974367E+02  0.62499246142E+02  0.00000000000E+00 0.  1.
</event>
<event>
 4    1  0.9957587E-003  0.9118800E+02  0.7818608E-02  0.1130116E+00
         25   -1    0    0    0    0  0.00000000000E+00  0.00000000000E+00  0.99999998245E-14  0.12500000000E+03  0.12500000000E+03 0.  0.
        -13    1    1    0    0    0  0.27908438289E+02 -0.32723496420E+02  0.19481665347E+02  0.47214982732E+02  0.10566000000E+00 0. -1.
         13    1    1    0    0    0  0.88237909419E+01 -0.10797310686E+02  0.62625880170E+01  0.15286346108E+02  0.10566000000E+00 0.  1.
         22    1    1    0    0    0 -0.36732229231E+02  0.43520807106E+02 -0.25744253364E+02  0.62498671159E+02  0.00000000000E+00 0. -1.
</event>
<event>
 4    1  0.9957587E-003  0.9118800E+02  0.7818608E-02  0.1130116E+00
         25   -1    0    0    0    0  0.00000000000E+00  0.00000000000E+00  0.99999998245E-14  0.12500000000E+03  0.12500000000E+03 0.  0.
        -13    1    1    0    0    0 -0.13259535989E+01  0.52226692855E+01 -0.71517241797E+01  0.89550404907E+01  0.10566000000E+00 0.  1.
         13    1    1    0    0    0 -0.11297234355E+02  0.17723850227E+02 -0.49420697130E+02  0.53704551388E+02  0.10566000000E+00 0. -1.
         22    1    1    0    0    0  0.12623187954E+02 -0.22946519513E+02  0.56572421310E+02  0.62340408121E+02  0.00000000000E+00 0. -1.
</event>
<event>
 4    1  0.9957587E-003  0.9118800E+02  0.7818608E-02  0.1130116E+00
         25   -1    0    0    0    0  0.00000000000E+00  0.00000000000E+00  0.99999998245E-14  0.12500000000E+03  0.12500000000E+03 0.  0.
        -13    1    1    0    0    0  0.23638365710E+02  0.18573089254E+02 -0.13711113083E+02  0.33041455233E+02  0.10566000000E+00 0. -1.
         13    1    1    0    0    0  0.24855707560E+02  0.87782741938E+01 -0.13912752610E+02  0.29806713092E+02  0.10566000000E+00 0.  1.
         22    1    1    0    0    0 -0.48494073270E+02 -0.27351363448E+02  0.27623865693E+02  0.62151831675E+02  0.00000000000E+00 0. -1.
</event>
<event>
 4    1  0.9957587E-003  0.9118800E+02  0.7818608E-02  0.1130116E+00
         25   -1    0    0    0    0  0.00000000000E+00  0.00000000000E+00  0.99999998245E-14  0.12500000000E+03  0.12500000000E+03 0.  0.
        -13    1    1    0    0    0 -0.37166987601E+01 -0.18081892981E+02  0.14056513001E+02  0.23202702972E+02  0.10566000000E+00 0. -1.
         13    1    1    0    0    0 -0.61757902102E+01 -0.31013065792E+02  0.23332450145E+02  0.39298409998E+02  0.10566000000E+00 0.  1.
         22    1    1    0    0    0  0.98924889704E+01  0.49094958772E+02 -0.37388963146E+02  0.62498887030E+02  0.00000000000E+00 0.  1.
</event>
<event>
 4    1  0.9957587E-003  0.9118800E+02  0.7818608E-02  0.1130116E+00
         25   -1    0    0    0    0  0.00000000000E+00  0.00000000000E+00  0.99999998245E-14  0.12500000000E+03  0.12500000000E+03 0.  0.
        -13    1    1    0    0    0  0.76889798447E+01 -0.79528573627E+01 -0.92828522701E+00  0.11101406613E+02  0.10566000000E+00 0.  1.
         13    1    1    0    0    0  0.36197584222E+02 -0.36203485187E+02 -0.45772055010E+01  0.51399605226E+02  0.10566000000E+00 0. -1.
         22    1    1    0    0    0 -0.43886564067E+02  0.44156342550E+02  0.55054907280E+01  0.62498988161E+02  0.00000000000E+00 0. -1.
</event>
<event>
 4    1  0.9957587E-003  0.9118800E+02  0.7818608E-02  0.1130116E+00
         25   -1    0    0    0    0  0.00000000000E+00  0.00000000000E+00  0.99999998245E-14  0.12500000000E+03  0.12500000000E+03 0.  0.
        -13    1    1    0    0    0 -0.18553813803E+02  0.12814160402E+02  0.48862928062E+02  0.53814901434E+02  0.10566000000E+00 0.  1.
         13    1    1    0    0    0 -0.15687849031E+01  0.36876889680E+01  0.78344838739E+01  0.88005930256E+01  0.10566000000E+00 0. -1.
         22    1    1    0    0    0  0.20122598707E+02 -0.16501849370E+02 -0.56697411936E+02  0.62384505541E+02  0.00000000000E+00 0.  1.
</event>
<event>
 4    1  0.9957587E-003  0.9118800E+02  0.7818608E-02  0.1130116E+00
         25   -1    0    0    0    0  0.00000000000E+00  0.00000000000E+00  0.99999998245E-14  0.12500000000E+03  0.12500000000E+03 0.  0.
        -13    1    1    0    0    0  0.49240346813E+02 -0.31255876414E+02 -0.11266827979E+02  0.59401129126E+02  0.10566000000E+00 0. -1.
         13    1    1    0    0    0 -0.21879358234E+02  0.15915331742E+02 -0.86940433445E+01  0.28418333077E+02  0.10566000000E+00 0.  1.
         22    1    1    0    0    0 -0.27360988580E+02  0.15340544671E+02  0.19960871324E+02  0.37180537797E+02  0.00000000000E+00 0. -1.
</event>
<event>
 4    1  0.9957587E-003  0.9118800E+02  0.7818608E-02  0.1130116E+00
         25   -1    0    0    0    0  0.00000000000E+00  0.00000000000E+00  0.99999998245E-14  0.12500000000E+03  0.12500000000E+03 0.  0.
        -13    1    1    0    0    0 -0.24321123804E+01  0.27216092166E+01  0.24410523105E+02  0.24682121660E+02  0.10566000000E+00 0. -1.
         13    1    1    0    0    0  0.13157511372E+02  0.21519020259E+02  0.30359692277E+02  0.39470373923E+02  0.10566000000E+00 0.  1.
         22    1    1    0    0    0 -0.10725398992E+02 -0.24240629476E+02 -0.54770215381E+02  0.60847504417E+02  0.00000000000E+00 0.  1.
</event>
<event>
 4    1  0.9957587E-003  0.9118800E+02  0.7818608E-02  0.1130116E+00
         25   -1    0    0    0    0  0.00000000000E+00  0.00000000000E+00  0.99999998245E-14  0.12500000000E+03  0.12500000000E+03 0.  0.
        -13    1    1    0    0    0  0.17458515841E+02  0.13774030703E+01  0.23309667292E+01  0.17667529100E+02  0.10566000000E+00 0.  1.
         13    1    1    0    0    0 -0.41515620758E+02  0.40356348334E+02  0.68249742765E+01  0.58298997038E+02  0.10566000000E+00 0. -1.
         22    1    1    0    0    0  0.24057104917E+02 -0.41733751404E+02 -0.91559410057E+01  0.49033473862E+02  0.00000000000E+00 0. -1.
</event>
<event>
 4    1  0.9957587E-003  0.9118800E+02  0.7818608E-02  0.1130116E+00
         25   -1    0    0    0    0  0.00000000000E+00  0.00000000000E+00  0.99999998245E-14  0.12500000000E+03  0.12500000000E+03 0.  0.
        -13    1    1    0    0    0  0.33693325201E+01  0.54876690915E+01 -0.91300027356E+01  0.11172959665E+02  0.10566000000E+00 0.  1.
         13    1    1    0    0    0  0.16105268058E+02  0.24661360246E+02 -0.42035527497E+02  0.51327956168E+02  0.10566000000E+00 0.  1.
         22    1    1    0    0    0 -0.19474600578E+02 -0.30149029337E+02  0.51165530233E+02  0.62499084167E+02  0.00000000000E+00 0.  1.
</event>
<event>
 4    1  0.9957587E-003  0.9118800E+02  0.7818608E-02  0.1130116E+00
         25   -1    0    0    0    0  0.00000000000E+00  0.00000000000E+00  0.99999998245E-14  0.12500000000E+03  0.12500000000E+03 0.  0.
        -13    1    1    0    0    0 -0.81454789096E+01  0.40978054974E+01 -0.76844815493E+01  0.11924900724E+02  0.10566000000E+00 0. -1.
         13    1    1    0    0    0 -0.35476660903E+02  0.19763013010E+02 -0.30164138157E+02  0.50587118389E+02  0.10566000000E+00 0.  1.
         22    1    1    0    0    0  0.43622139812E+02 -0.23860818508E+02  0.37848619707E+02  0.62487980887E+02  0.00000000000E+00 0.  1.
</event>
<event>
 4    1  0.9957587E-003  0.9118800E+02  0.7818608E-02  0.1130116E+00
         25   -1    0    0    0    0  0.00000000000E+00  0.00000000000E+00  0.99999998245E-14  0.12500000000E+03  0.12500000000E+03 0.  0.
        -13    1    1    0    0    0 -0.69461358600E+01 -0.16184602289E+01  0.52511539324E+01  0.88574261812E+01  0.10566000000E+00 0.  1.
         13    1    1    0    0    0 -0.44376379013E+02  0.28403248335E+02  0.15049056501E+02  0.54795007034E+02  0.10566000000E+00 0. -1.
         22    1    1    0    0    0  0.51322514873E+02 -0.26784788106E+02 -0.20300210433E+02  0.61347566785E+02  0.00000000000E+00 0. -1.
</event>
<event>
 4    1  0.9957587E-003  0.9118800E+02  0.7818608E-02  0.1130116E+00
         25   -1    0    0    0    0  0.00000000000E+00  0.00000000000E+00  0.99999998245E-14  0.12500000000E+03  0.12500000000E+03 0.  0.
        -13    1    1    0    0    0  0.35880991490E+02 -0.25768006453E+02  0.30882805270E+02  0.53899856514E+02  0.10566000000E+00 0.  1.
         13    1    1    0    0    0  0.56706023075E+01 -0.42426724076E+01  0.48796995406E+01  0.86010831486E+01  0.10566000000E+00 0.  1.
         22    1    1    0    0    0 -0.41551593797E+02  0.30010678860E+02 -0.35762504811E+02  0.62499060338E+02  0.00000000000E+00 0.  1.
</event>
<event>
 4    1  0.9957587E-003  0.9118800E+02  0.7818608E-02  0.1130116E+00
         25   -1    0    0    0    0  0.00000000000E+00  0.00000000000E+00  0.99999998245E-14  0.12500000000E+03  0.12500000000E+03 0.  0.
        -13    1    1    0    0    0 -0.10314340535E+02  0.22844604074E+01 -0.19239572834E+00  0.10566577506E+02  0.10566000000E+00 0. -1.
         13    1    1    0    0    0 -0.50252659179E+02  0.12236030864E+02 -0.48412199257E+01  0.51947076725E+02  0.10566000000E+00 0.  1.
         22    1    1    0    0    0  0.60566999714E+02 -0.14520491272E+02  0.50336156540E+01  0.62486345770E+02  0.00000000000E+00 0.  1.
</event>
<event>
 4    1  0.9957587E-003  0.9118800E+02  0.7818608E-02  0.1130116E+00
         25   -1    0    0    0    0  0.00000000000E+00  0.00000000000E+00  0.99999998245E-14  0.12500000000E+03  0.12500000000E+03 0.  0.
        -13    1    1    0    0    0  0.67282364872E+01  0.55099085150E+02 -0.10181903574E+02  0.56434569858E+02  0.10566000000E+00 0.  1.
         13    1    1    0    0    0  0.40845097030E+00  0.57872429449E+01 -0.18546475975E+01  0.60917891333E+01  0.10566000000E+00 0. -1.
         22    1    1    0    0    0 -0.71366874575E+01 -0.60886328095E+02  0.12036551171E+02  0.62473641009E+02  0.00000000000E+00 0.  1.
</event>
<event>
 4    1  0.9957587E-003  0.9118800E+02  0.7818608E-02  0.1130116E+00
         25   -1    0    0    0    0  0.00000000000E+00  0.00000000000E+00  0.99999998245E-14  0.12500000000E+03  0.12500000000E+03 0.  0.
        -13    1    1    0    0    0  0.41014138574E+02  0.22345850585E+02  0.75049244161E+01  0.47305725402E+02  0.10566000000E+00 0. -1.
         13    1    1    0    0    0  0.13203955428E+02  0.70571175309E+01  0.25949048592E+01  0.15195132183E+02  0.10566000000E+00 0. -1.
         22    1    1    0    0    0 -0.54218094002E+02 -0.29402968116E+02 -0.10099829275E+02  0.62499142415E+02  0.00000000000E+00 0. -1.
</event>
<event>
 4    1  0.9957587E-003  0.9118800E+02  0.7818608E-02  0.1130116E+00
         25   -1    0    0    0    0  0.00000000000E+00  0.00000000000E+00  0.99999998245E-14  0.12500000000E+03  0.12500000000E+03 0.  0.
        -13    1    1    0    0    0  0.10142743836E+02 -0.26066780674E+02 -0.44584234911E+02  0.52631905475E+02  0.10566000000E+00 0.  1.
         13    1    1    0    0    0  0.19916274285E+01 -0.43780471015E+01 -0.86245679526E+01  0.98756373284E+01  0.10566000000E+00 0. -1.
         22    1    1    0    0    0 -0.12134371265E+02  0.30444827776E+02  0.53208802864E+02  0.62492457197E+02  0.00000000000E+00 0.  1.
</event>
<event>
 4    1  0.9957587E-003  0.9118800E+02  0.7818608E-02  0.1130116E+00
         25   -1    0    0    0    0  0.00000000000E+00  0.00000000000E+00  0.99999998245E-14  0.12500000000E+03  0.12500000000E+03 0.  0.
        -13    1    1    0    0    0 -0.75841315682E+01  0.57164982041E+01 -0.92107682846E+01  0.13230526059E+02  0.10566000000E+00 0.  1.
         13    1    1    0    0    0 -0.28307568312E+02  0.21435107385E+02 -0.34157267443E+02  0.49269791308E+02  0.10566000000E+00 0.  1.
         22    1    1    0    0    0  0.35891699880E+02 -0.27151605589E+02  0.43368035728E+02  0.62499682633E+02  0.00000000000E+00 0.  1.
</event>
<event>
 4    1  0.9957587E-003  0.9118800E+02  0.7818608E-02  0.1130116E+00
         25   -1    0    0    0    0  0.00000000000E+00  0.00000000000E+00  0.99999998245E-14  0.12500000000E+03  0.12500000000E+03 0.  0.
        -13    1    1    0    0    0  0.55141943407E+02 -0.65831089744E+01  0.18588608486E+02  0.58562093337E+02  0.10566000000E+00 0.  1.
         13    1    1    0    0    0  0.36880076915E+01 -0.26781869143E+00  0.13597564495E+01  0.39412217929E+01  0.10566000000E+00 0.  1.
         22    1    1    0    0    0 -0.58829951099E+02  0.68509276659E+01 -0.19948364935E+02  0.62496684870E+02  0.00000000000E+00 0.  1.
</event>
<event>
 4    1  0.9957587E-003  0.9118800E+02  0.7818608E-02  0.1130116E+00
         25   -1    0    0    0    0  0.00000000000E+00  0.00000000000E+00  0.99999998245E-14  0.12500000000E+03  0.12500000000E+03 0.  0.
        -13    1    1    0    0    0 -0.14479508724E+02  0.40218467011E+02 -0.25357177242E+02  0.49700893989E+02  0.10566000000E+00 0.  1.
         13    1    1    0    0    0 -0.35497327139E+01  0.10462876781E+02 -0.64621670255E+01  0.12800123420E+02  0.10566000000E+00 0. -1.
         22    1    1    0    0    0  0.18029241438E+02 -0.50681343791E+02  0.31819344267E+02  0.62498982591E+02  0.00000000000E+00 0.  1.
</event>
<event>
 4    1  0.9957587E-003  0.9118800E+02  0.7818608E-02  0.1130116E+00
         25   -1    0    0    0    0  0.00000000000E+00  0.00000000000E+00  0.99999998245E-14  0.12500000000E+03  0.12500000000E+03 0.  0.
        -13    1    1    0    0    0 -0.16609367277E+02  0.45370037574E+01 -0.40394033773E+01  0.17685684270E+02  0.10566000000E+00 0. -1.
         13    1    1    0    0    0  0.83985781930E+01 -0.46276443093E+02  0.31568112784E+02  0.56644524976E+02  0.10566000000E+00 0.  1.
         22    1    1    0    0    0  0.82107890837E+01  0.41739439336E+02 -0.27528709406E+02  0.50669790754E+02  0.00000000000E+00 0.  1.
</event>
<event>
 4    1  0.9957587E-003  0.9118800E+02  0.7818608E-02  0.1130116E+00
         25   -1    0    0    0    0  0.00000000000E+00  0.00000000000E+00  0.99999998245E-14  0.12500000000E+03  0.12500000000E+03 0.  0.
        -13    1    1    0    0    0  0.16228388631E+01 -0.65751233258E+01  0.29620397425E+02  0.30384946279E+02  0.10566000000E+00 0. -1.
         13    1    1    0    0    0  0.25154861288E+01 -0.66741768015E+01  0.31315791624E+02  0.32117943201E+02  0.10566000000E+00 0.  1.
         22    1    1    0    0    0 -0.41383249919E+01  0.13249300127E+02 -0.60936189048E+02  0.62497110520E+02  0.00000000000E+00 0.  1.
</event>
<event>
 4    1  0.9957587E-003  0.9118800E+02  0.7818608E-02  0.1130116E+00
         25   -1    0    0    0    0  0.00000000000E+00  0.00000000000E+00  0.99999998245E-14  0.12500000000E+03  0.12500000000E+03 0.  0.
        -13    1    1    0    0    0 -0.19851762847E+02  0.20133380864E+02  0.91258347501E+01  0.29710899298E+02  0.10566000000E+00 0.  1.
         13    1    1    0    0    0 -0.21776515398E+02  0.22417572458E+02  0.99186968282E+01  0.32789569814E+02  0.10566000000E+00 0. -1.
         22    1    1    0    0    0  0.41628278245E+02 -0.42550953321E+02 -0.19044531578E+02  0.62499530888E+02  0.00000000000E+00 0. -1.
</event>
<event>
 4    1  0.9957587E-003  0.9118800E+02  0.7818608E-02  0.1130116E+00
         25   -1    0    0    0    0  0.00000000000E+00  0.00000000000E+00  0.99999998245E-14  0.12500000000E+03  0.12500000000E+03 0.  0.
        -13    1    1    0    0    0  0.27313796937E-01 -0.66586970745E+01 -0.30626329454E+02  0.31342019919E+02  0.10566000000E+00 0.  1.
         13    1    1    0    0    0  0.15633965403E+00 -0.66495397821E+01 -0.30439830634E+02  0.31158229643E+02  0.10566000000E+00 0.  1.
         22    1    1    0    0    0 -0.18365345097E+00  0.13308236857E+02  0.61066160088E+02  0.62499750438E+02  0.00000000000E+00 0.  1.
</event>
<event>
 4    1  0.9957587E-003  0.9118800E+02  0.7818608E-02  0.1130116E+00
         25   -1    0    0    0    0  0.00000000000E+00  0.00000000000E+00  0.99999998245E-14  0.12500000000E+03  0.12500000000E+03 0.  0.
        -13    1    1    0    0    0 -0.13730135982E+00 -0.45562258385E+02  0.14464382871E+02  0.47803428503E+02  0.10566000000E+00 0.  1.
         13    1    1    0    0    0  0.76862559996E+01 -0.11278465608E+02  0.77596951316E+01  0.15700520703E+02  0.10566000000E+00 0. -1.
         22    1    1    0    0    0 -0.75489546398E+01  0.56840723993E+02 -0.22224078003E+02  0.61496050794E+02  0.00000000000E+00 0.  1.
</event>
<event>
 4    1  0.9957587E-003  0.9118800E+02  0.7818608E-02  0.1130116E+00
         25   -1    0    0    0    0  0.00000000000E+00  0.00000000000E+00  0.99999998245E-14  0.12500000000E+03  0.12500000000E+03 0.  0.
        -13    1    1    0    0    0  0.89496896251E+00 -0.57240292599E+02 -0.19694444839E+02  0.60540353384E+02  0.10566000000E+00 0. -1.
         13    1    1    0    0    0 -0.20608192453E+01  0.19089471446E+00 -0.24882500704E+01  0.32382046263E+01  0.10566000000E+00 0.  1.
         22    1    1    0    0    0  0.11658502828E+01  0.57049397885E+02  0.22182694910E+02  0.61221441990E+02  0.00000000000E+00 0. -1.
</event>
<event>
 4    1  0.9957587E-003  0.9118800E+02  0.7818608E-02  0.1130116E+00
         25   -1    0    0    0    0  0.00000000000E+00  0.00000000000E+00  0.99999998245E-14  0.12500000000E+03  0.12500000000E+03 0.  0.
        -13    1    1    0    0    0 -0.12441940162E+01 -0.23332975071E+01 -0.11549981093E+02  0.11849283661E+02  0.10566000000E+00 0.  1.
         13    1    1    0    0    0 -0.30396147582E+02  0.71858146607E+01 -0.41046669749E+02  0.51579084731E+02  0.10566000000E+00 0. -1.
         22    1    1    0    0    0  0.31640341598E+02 -0.48525171536E+01  0.52596650841E+02  0.61571631608E+02  0.00000000000E+00 0. -1.
</event>
<event>
 4    1  0.9957587E-003  0.9118800E+02  0.7818608E-02  0.1130116E+00
         25   -1    0    0    0    0  0.00000000000E+00  0.00000000000E+00  0.99999998245E-14  0.12500000000E+03  0.12500000000E+03 0.  0.
        -13    1    1    0    0    0 -0.47445220930E+01 -0.29567326411E+01 -0.19823179861E+01  0.59324115194E+01  0.10566000000E+00 0.  1.
         13    1    1    0    0    0 -0.44483775335E+02 -0.30209383671E+02 -0.17573571436E+02  0.56570793763E+02  0.10566000000E+00 0. -1.
         22    1    1    0    0    0  0.49228297428E+02  0.33166116312E+02  0.19555889422E+02  0.62496794718E+02  0.00000000000E+00 0. -1.
</event>
<event>
 4    1  0.9957587E-003  0.9118800E+02  0.7818608E-02  0.1130116E+00
         25   -1    0    0    0    0  0.00000000000E+00  0.00000000000E+00  0.99999998245E-14  0.12500000000E+03  0.12500000000E+03 0.  0.
        -13    1    1    0    0    0 -0.21556499621E+01  0.20785577965E+01 -0.77700263029E+01  0.83277669309E+01  0.10566000000E+00 0. -1.
         13    1    1    0    0    0 -0.32665589915E+01  0.54477583276E+02 -0.13133144898E+02  0.56133485071E+02  0.10566000000E+00 0.  1.
         22    1    1    0    0    0  0.54222089536E+01 -0.56556141072E+02  0.20903171201E+02  0.60538747998E+02  0.00000000000E+00 0.  1.
</event>
<event>
 4    1  0.9957587E-003  0.9118800E+02  0.7818608E-02  0.1130116E+00
         25   -1    0    0    0    0  0.00000000000E+00  0.00000000000E+00  0.99999998245E-14  0.12500000000E+03  0.12500000000E+03 0.  0.
        -13    1    1    0    0    0  0.39339852012E+02 -0.31660495633E+02 -0.17836738793E+02  0.53555311173E+02  0.10566000000E+00 0. -1.
         13    1    1    0    0    0 -0.87646224111E+01  0.12111517065E+02  0.29711277312E+02  0.33260766906E+02  0.10566000000E+00 0.  1.
         22    1    1    0    0    0 -0.30575229601E+02  0.19548978568E+02 -0.11874538519E+02  0.38183921921E+02  0.00000000000E+00 0. -1.
</event>
<event>
 4    1  0.9957587E-003  0.9118800E+02  0.7818608E-02  0.1130116E+00
         25   -1    0    0    0    0  0.00000000000E+00  0.00000000000E+00  0.99999998245E-14  0.12500000000E+03  0.12500000000E+03 0.  0.
        -13    1    1    0    0    0 -0.45948745347E+02  0.37524725153E+02  0.13486386561E+02  0.60838195102E+02  0.10566000000E+00 0.  1.
         13    1    1    0    0    0 -0.11150620107E+01  0.28606379781E+00 -0.25614936311E+01  0.28102685711E+01  0.10566000000E+00 0. -1.
         22    1    1    0    0    0  0.47063807358E+02 -0.37810788951E+02 -0.10924892930E+02  0.61351536327E+02  0.00000000000E+00 0.  1.
</event>
<event>
 4    1  0.9957587E-003  0.9118800E+02  0.7818608E-02  0.1130116E+00
         25   -1    0    0    0    0  0.00000000000E+00  0.00000000000E+00  0.99999998245E-14  0.12500000000E+03  0.12500000000E+03 0.  0.
        -13    1    1    0    0    0 -0.48578549303E+01 -0.10886031319E+02 -0.82540313324E-01  0.11921510363E+02  0.10566000000E+00 0. -1.
         13    1    1    0    0    0 -0.53506457127E+02 -0.75790468162E+00 -0.16736766423E+01  0.53538096075E+02  0.10566000000E+00 0.  1.
         22    1    1    0    0    0  0.58364312057E+02  0.11643936001E+02  0.17562169556E+01  0.59540393562E+02  0.00000000000E+00 0.  1.
</event>
<event>
 4    1  0.9957587E-003  0.9118800E+02  0.7818608E-02  0.1130116E+00
         25   -1    0    0    0    0  0.00000000000E+00  0.00000000000E+00  0.99999998245E-14  0.12500000000E+03  0.12500000000E+03 0.  0.
        -13    1    1    0    0    0 -0.19607633407E+01 -0.71640394060E+01  0.67894322368E+00  0.74592346407E+01  0.10566000000E+00 0.  1.
         13    1    1    0    0    0  0.61930179951E+01 -0.48971966304E+02 -0.26025258484E+02  0.55802618207E+02  0.10566000000E+00 0. -1.
         22    1    1    0    0    0 -0.42322546544E+01  0.56136005710E+02  0.25346315261E+02  0.61738147152E+02  0.00000000000E+00 0. -1.
</event>
<event>
 4    1  0.9957587E-003  0.9118800E+02  0.7818608E-02  0.1130116E+00
         25   -1    0    0    0    0  0.00000000000E+00  0.00000000000E+00  0.99999998245E-14  0.12500000000E+03  0.12500000000E+03 0.  0.
        -13    1    1    0    0    0 -0.46125569002E+02 -0.33378730200E+02 -0.10303766686E+02  0.57860923925E+02  0.10566000000E+00 0.  1.
         13    1    1    0    0    0  0.80920689284E+01 -0.63852901911E+01 -0.25793037944E+01  0.10626263806E+02  0.10566000000E+00 0. -1.
         22    1    1    0    0    0  0.38033500074E+02  0.39764020391E+02  0.12883070481E+02  0.56512812269E+02  0.00000000000E+00 0.  1.
</event>
<event>
 4    1  0.9957587E-003  0.9118800E+02  0.7818608E-02  0.1130116E+00
         25   -1    0    0    0    0  0.00000000000E+00  0.00000000000E+00  0.99999998245E-14  0.12500000000E+03  0.12500000000E+03 0.  0.
        -13    1    1    0    0    0  0.13563989381E+02 -0.14782457355E+02 -0.16767750725E+02  0.26147112303E+02  0.10566000000E+00 0. -1.
         13    1    1    0    0    0  0.11048226644E+02 -0.24327578645E+02 -0.24980035471E+02  0.36577421052E+02  0.10566000000E+00 0.  1.
         22    1    1    0    0    0 -0.24612216025E+02  0.39110036000E+02  0.41747786196E+02  0.62275466645E+02  0.00000000000E+00 0.  1.
</event>
<event>
 4    1  0.9957587E-003  0.9118800E+02  0.7818608E-02  0.1130116E+00
         25   -1    0    0    0    0  0.00000000000E+00  0.00000000000E+00  0.99999998245E-14  0.12500000000E+03  0.12500000000E+03 0.  0.
        -13    1    1    0    0    0 -0.32451237343E+01  0.14927742754E+02  0.15034727071E+02  0.21434143648E+02  0.10566000000E+00 0. -1.
         13    1    1    0    0    0 -0.11569345851E+02  0.33600082164E+02  0.21051111866E+02  0.41303459416E+02  0.10566000000E+00 0.  1.
         22    1    1    0    0    0  0.14814469586E+02 -0.48527824918E+02 -0.36085838937E+02  0.62262396936E+02  0.00000000000E+00 0.  1.
</event>
<event>
 4    1  0.9957587E-003  0.9118800E+02  0.7818608E-02  0.1130116E+00
         25   -1    0    0    0    0  0.00000000000E+00  0.00000000000E+00  0.99999998245E-14  0.12500000000E+03  0.12500000000E+03 0.  0.
        -13    1    1    0    0    0 -0.19727815571E+02  0.44728192964E+00 -0.94557716096E+00  0.19755810500E+02  0.10566000000E+00 0. -1.
         13    1    1    0    0    0  0.14899589266E+02 -0.40985188384E+02  0.31883067255E+02  0.54021519497E+02  0.10566000000E+00 0.  1.
         22    1    1    0    0    0  0.48282263053E+01  0.40537906454E+02 -0.30937490094E+02  0.51222670003E+02  0.00000000000E+00 0.  1.
</event>
<event>
 4    1  0.9957587E-003  0.9118800E+02  0.7818608E-02  0.1130116E+00
         25   -1    0    0    0    0  0.00000000000E+00  0.00000000000E+00  0.99999998245E-14  0.12500000000E+03  0.12500000000E+03 0.  0.
        -13    1    1    0    0    0  0.12399987582E+02 -0.28482928734E+02 -0.63176130904E+01  0.31701109137E+02  0.10566000000E+00 0.  1.
         13    1    1    0    0    0  0.12596301197E+02 -0.27505081603E+02 -0.57870542710E+01  0.30800933087E+02  0.10566000000E+00 0. -1.
         22    1    1    0    0    0 -0.24996288779E+02  0.55988010337E+02  0.12104667361E+02  0.62497957776E+02  0.00000000000E+00 0.  1.
</event>
<event>
 4    1  0.9957587E-003  0.9118800E+02  0.7818608E-02  0.1130116E+00
         25   -1    0    0    0    0  0.00000000000E+00  0.00000000000E+00  0.99999998245E-14  0.12500000000E+03  0.12500000000E+03 0.  0.
        -13    1    1    0    0    0  0.97348731788E+01 -0.10657257901E+02 -0.16971597745E+02  0.22279838326E+02  0.10566000000E+00 0.  1.
         13    1    1    0    0    0  0.17923741713E+02 -0.30879019061E+02  0.34674578958E+02  0.49770592975E+02  0.10566000000E+00 0. -1.
         22    1    1    0    0    0 -0.27658614891E+02  0.41536276962E+02 -0.17702981212E+02  0.52949568699E+02  0.00000000000E+00 0. -1.
</event>
<event>
 4    1  0.9957587E-003  0.9118800E+02  0.7818608E-02  0.1130116E+00
         25   -1    0    0    0    0  0.00000000000E+00  0.00000000000E+00  0.99999998245E-14  0.12500000000E+03  0.12500000000E+03 0.  0.
        -13    1    1    0    0    0  0.11230281099E+02 -0.22990729157E+02  0.13105433421E+01  0.25620724592E+02  0.10566000000E+00 0. -1.
         13    1    1    0    0    0  0.30987837386E+02 -0.17066515094E+02 -0.16788978993E+02  0.39158562065E+02  0.10566000000E+00 0.  1.
         22    1    1    0    0    0 -0.42218118485E+02  0.40057244250E+02  0.15478435651E+02  0.60220713343E+02  0.00000000000E+00 0.  1.
</event>
<event>
 4    1  0.9957587E-003  0.9118800E+02  0.7818608E-02  0.1130116E+00
         25   -1    0    0    0    0  0.00000000000E+00  0.00000000000E+00  0.99999998245E-14  0.12500000000E+03  0.12500000000E+03 0.  0.
        -13    1    1    0    0    0  0.62027207956E+01 -0.90161737532E+01  0.94520806505E+01  0.14460917228E+02  0.10566000000E+00 0.  1.
         13    1    1    0    0    0  0.57022317215E+01 -0.26709231243E+02  0.39967373600E+02  0.48407650188E+02  0.10566000000E+00 0. -1.
         22    1    1    0    0    0 -0.11904952517E+02  0.35725404996E+02 -0.49419454251E+02  0.62131432584E+02  0.00000000000E+00 0. -1.
</event>
<event>
 4    1  0.9957587E-003  0.9118800E+02  0.7818608E-02  0.1130116E+00
         25   -1    0    0    0    0  0.00000000000E+00  0.00000000000E+00  0.99999998245E-14  0.12500000000E+03  0.12500000000E+03 0.  0.
        -13    1    1    0    0    0  0.35951643087E+02  0.21092342208E+02  0.32188100804E+02  0.52663958624E+02  0.10566000000E+00 0. -1.
         13    1    1    0    0    0  0.11503085892E+02 -0.64184450941E+01 -0.48132730843E-01  0.13173112892E+02  0.10566000000E+00 0.  1.
         22    1    1    0    0    0 -0.47454728980E+02 -0.14673897114E+02 -0.32139968073E+02  0.59162928484E+02  0.00000000000E+00 0. -1.
</event>
<event>
 4    1  0.9957587E-003  0.9118800E+02  0.7818608E-02  0.1130116E+00
         25   -1    0    0    0    0  0.00000000000E+00  0.00000000000E+00  0.99999998245E-14  0.12500000000E+03  0.12500000000E+03 0.  0.
        -13    1    1    0    0    0 -0.75357451766E+00  0.24731832419E+01  0.56523455893E+00  0.26486154957E+01  0.10566000000E+00 0. -1.
         13    1    1    0    0    0 -0.39657331781E+01  0.52925371972E+02  0.27822521956E+02  0.59924335040E+02  0.10566000000E+00 0.  1.
         22    1    1    0    0    0  0.47193076957E+01 -0.55398555213E+02 -0.28387756515E+02  0.62427049464E+02  0.00000000000E+00 0.  1.
</event>
<event>
 4    1  0.9957587E-003  0.9118800E+02  0.7818608E-02  0.1130116E+00
         25   -1    0    0    0    0  0.00000000000E+00  0.00000000000E+00  0.99999998245E-14  0.12500000000E+03  0.12500000000E+03 0.  0.
        -13    1    1    0    0    0  0.36007726651E+01  0.24704820037E+02 -0.34326518037E+02  0.42445432044E+02  0.10566000000E+00 0. -1.
         13    1    1    0    0    0  0.18722092815E+01  0.11742530389E+02 -0.16149420171E+02  0.20055102179E+02  0.10566000000E+00 0. -1.
         22    1    1    0    0    0 -0.54729819466E+01 -0.36447350425E+02  0.50475938208E+02  0.62499465777E+02  0.00000000000E+00 0. -1.
</event>
<event>
 4    1  0.9957587E-003  0.9118800E+02  0.7818608E-02  0.1130116E+00
         25   -1    0    0    0    0  0.00000000000E+00  0.00000000000E+00  0.99999998245E-14  0.12500000000E+03  0.12500000000E+03 0.  0.
        -13    1    1    0    0    0  0.58361210514E+01  0.10642669709E+01  0.31226528059E+01  0.67048562768E+01  0.10566000000E+00 0. -1.
         13    1    1    0    0    0  0.42963501566E+02  0.31032806686E+02  0.18317538425E+02  0.56075314851E+02  0.10566000000E+00 0.  1.
         22    1    1    0    0    0 -0.48799622617E+02 -0.32097073657E+02 -0.21440191231E+02  0.62219828873E+02  0.00000000000E+00 0.  1.
</event>
<event>
 4    1  0.9957587E-003  0.9118800E+02  0.7818608E-02  0.1130116E+00
         25   -1    0    0    0    0  0.00000000000E+00  0.00000000000E+00  0.99999998245E-14  0.12500000000E+03  0.12500000000E+03 0.  0.
        -13    1    1    0    0    0 -0.48646576380E+02 -0.14953596132E+02 -0.18572027884E+02  0.54175924677E+02  0.10566000000E+00 0.  1.
         13    1    1    0    0    0 -0.74061974234E+01 -0.28643464096E+01 -0.25328169984E+01  0.83356203496E+01  0.10566000000E+00 0. -1.
         22    1    1    0    0    0  0.56052773804E+02  0.17817942542E+02  0.21104844882E+02  0.62488454974E+02  0.00000000000E+00 0.  1.
</event>
<event>
 4    1  0.9957587E-003  0.9118800E+02  0.7818608E-02  0.1130116E+00
         25   -1    0    0    0    0  0.00000000000E+00  0.00000000000E+00  0.99999998245E-14  0.12500000000E+03  0.12500000000E+03 0.  0.
        -13    1    1    0    0    0  0.62922924315E+01  0.19646677251E+01  0.36616657421E+01  0.75413409521E+01  0.10566000000E+00 0. -1.
         13    1    1    0    0    0  0.45996130780E+02  0.13783317591E+02  0.26737314696E+02  0.54959249010E+02  0.10566000000E+00 0. -1.
         22    1    1    0    0    0 -0.52288423211E+02 -0.15747985316E+02 -0.30398980439E+02  0.62499410038E+02  0.00000000000E+00 0. -1.
</event>
<event>
 4    1  0.9957587E-003  0.9118800E+02  0.7818608E-02  0.1130116E+00
         25   -1    0    0    0    0  0.00000000000E+00  0.00000000000E+00  0.99999998245E-14  0.12500000000E+03  0.12500000000E+03 0.  0.
        -13    1    1    0    0    0  0.41441022961E+02 -0.19556094085E+01  0.42694458814E+02  0.59531594717E+02  0.10566000000E+00 0.  1.
         13    1    1    0    0    0 -0.10441354031E+00  0.14037098544E+01  0.33219786965E+01  0.36094334788E+01  0.10566000000E+00 0. -1.
         22    1    1    0    0    0 -0.41336609420E+02  0.55189955403E+00 -0.46016437510E+02  0.61858971804E+02  0.00000000000E+00 0.  1.
</event>
<event>
 4    1  0.9957587E-003  0.9118800E+02  0.7818608E-02  0.1130116E+00
         25   -1    0    0    0    0  0.00000000000E+00  0.00000000000E+00  0.99999998245E-14  0.12500000000E+03  0.12500000000E+03 0.  0.
        -13    1    1    0    0    0  0.31522385793E+01  0.98430670254E+01 -0.20218033786E+01  0.10531924300E+02  0.10566000000E+00 0.  1.
         13    1    1    0    0    0  0.15105384183E+02  0.48437802970E+02 -0.11245605694E+02  0.51969877807E+02  0.10566000000E+00 0. -1.
         22    1    1    0    0    0 -0.18257622762E+02 -0.58280869995E+02  0.13267409073E+02  0.62498197893E+02  0.00000000000E+00 0. -1.
</event>
<event>
 4    1  0.9957587E-003  0.9118800E+02  0.7818608E-02  0.1130116E+00
         25   -1    0    0    0    0  0.00000000000E+00  0.00000000000E+00  0.99999998245E-14  0.12500000000E+03  0.12500000000E+03 0.  0.
        -13    1    1    0    0    0 -0.64747773436E+01  0.32382936540E+00 -0.11718554519E+02  0.13392658107E+02  0.10566000000E+00 0.  1.
         13    1    1    0    0    0 -0.26464634710E+02  0.39997039415E+01 -0.41196484435E+02  0.49127751992E+02  0.10566000000E+00 0. -1.
         22    1    1    0    0    0  0.32939412054E+02 -0.43235333069E+01  0.52915038954E+02  0.62479589901E+02  0.00000000000E+00 0. -1.
</event>
<event>
 4    1  0.9957587E-003  0.9118800E+02  0.7818608E-02  0.1130116E+00
         25   -1    0    0    0    0  0.00000000000E+00  0.00000000000E+00  0.99999998245E-14  0.12500000000E+03  0.12500000000E+03 0.  0.
        -13    1    1    0    0    0  0.39974927073E+01  0.38238964634E+01  0.54750968866E+01  0.77839567099E+01  0.10566000000E+00 0. -1.
         13    1    1    0    0    0 -0.32638649383E+02  0.81285486889E+01  0.46074091431E+02  0.57045488888E+02  0.10566000000E+00 0.  1.
         22    1    1    0    0    0  0.28641156675E+02 -0.11952445152E+02 -0.51549188317E+02  0.60170554402E+02  0.00000000000E+00 0.  1.
</event>
<event>
 4    1  0.9957587E-003  0.9118800E+02  0.7818608E-02  0.1130116E+00
         25   -1    0    0    0    0  0.00000000000E+00  0.00000000000E+00  0.99999998245E-14  0.12500000000E+03  0.12500000000E+03 0.  0.
        -13    1    1    0    0    0 -0.40899849848E+02  0.72365770646E+01  0.37024467485E+02  0.55641604234E+02  0.10566000000E+00 0. -1.
         13    1    1    0    0    0 -0.55016816401E+01  0.17961333942E+01  0.37779279001E+01  0.69121993094E+01  0.10566000000E+00 0.  1.
         22    1    1    0    0    0  0.46401531488E+02 -0.90327104588E+01 -0.40802395386E+02  0.62446196456E+02  0.00000000000E+00 0. -1.
</event>
<event>
 4    1  0.9957587E-003  0.9118800E+02  0.7818608E-02  0.1130116E+00
         25   -1    0    0    0    0  0.00000000000E+00  0.00000000000E+00  0.99999998245E-14  0.12500000000E+03  0.12500000000E+03 0.  0.
        -13    1    1    0    0    0 -0.18830691947E+00 -0.15925532550E+01 -0.52407580727E+00  0.16904155859E+01  0.10566000000E+00 0. -1.
         13    1    1    0    0    0  0.44090893131E+02 -0.27242703972E+02 -0.32584384795E+02  0.61220299519E+02  0.10566000000E+00 0.  1.
         22    1    1    0    0    0 -0.43902586211E+02  0.28835257226E+02  0.33108460602E+02  0.62089284895E+02  0.00000000000E+00 0.  1.
</event>
<event>
 4    1  0.9957587E-003  0.9118800E+02  0.7818608E-02  0.1130116E+00
         25   -1    0    0    0    0  0.00000000000E+00  0.00000000000E+00  0.99999998245E-14  0.12500000000E+03  0.12500000000E+03 0.  0.
        -13    1    1    0    0    0 -0.12945156304E+02 -0.11281339003E+02 -0.72324302584E+01  0.18632361442E+02  0.10566000000E+00 0. -1.
         13    1    1    0    0    0 -0.27562769965E+02 -0.30722377274E+02 -0.15008824880E+02  0.43918637750E+02  0.10566000000E+00 0.  1.
         22    1    1    0    0    0  0.40507926269E+02  0.42003716277E+02  0.22241255139E+02  0.62449000808E+02  0.00000000000E+00 0.  1.
</event>
<event>
 4    1  0.9957587E-003  0.9118800E+02  0.7818608E-02  0.1130116E+00
         25   -1    0    0    0    0  0.00000000000E+00  0.00000000000E+00  0.99999998245E-14  0.12500000000E+03  0.12500000000E+03 0.  0.
        -13    1    1    0    0    0 -0.40100706417E+02 -0.11061311064E+01  0.11472509355E+02  0.41724331225E+02  0.10566000000E+00 0.  1.
         13    1    1    0    0    0 -0.20113436594E+02  0.35598801940E+01  0.45310357713E+01  0.20922823132E+02  0.10566000000E+00 0. -1.
         22    1    1    0    0    0  0.60214143011E+02 -0.24537490875E+01 -0.16003545127E+02  0.62352845643E+02  0.00000000000E+00 0.  1.
</event>
<event>
 4    1  0.9957587E-003  0.9118800E+02  0.7818608E-02  0.1130116E+00
         25   -1    0    0    0    0  0.00000000000E+00  0.00000000000E+00  0.99999998245E-14  0.12500000000E+03  0.12500000000E+03 0.  0.
        -13    1    1    0    0    0 -0.99152388168E+01 -0.15938849284E+01  0.17591072051E+02  0.20256095623E+02  0.10566000000E+00 0. -1.
         13    1    1    0    0    0 -0.20870069568E+02 -0.16681146016E+02  0.33192474661E+02  0.42609529149E+02  0.10566000000E+00 0.  1.
         22    1    1    0    0    0  0.30785308385E+02  0.18275030945E+02 -0.50783546711E+02  0.62134375228E+02  0.00000000000E+00 0.  1.
</event>
<event>
 4    1  0.9957587E-003  0.9118800E+02  0.7818608E-02  0.1130116E+00
         25   -1    0    0    0    0  0.00000000000E+00  0.00000000000E+00  0.99999998245E-14  0.12500000000E+03  0.12500000000E+03 0.  0.
        -13    1    1    0    0    0  0.99659948341E+01  0.33305570843E+02  0.18577182907E+02  0.39417064718E+02  0.10566000000E+00 0.  1.
         13    1    1    0    0    0  0.68900085897E+01  0.18718274638E+02  0.11649281315E+02  0.23098981427E+02  0.10566000000E+00 0. -1.
         22    1    1    0    0    0 -0.16856003424E+02 -0.52023845480E+02 -0.30226464222E+02  0.62483953855E+02  0.00000000000E+00 0.  1.
</event>
<event>
 4    1  0.9957587E-003  0.9118800E+02  0.7818608E-02  0.1130116E+00
         25   -1    0    0    0    0  0.00000000000E+00  0.00000000000E+00  0.99999998245E-14  0.12500000000E+03  0.12500000000E+03 0.  0.
        -13    1    1    0    0    0 -0.51580307551E+01 -0.69749232987E+01 -0.94963674622E+01  0.12862620079E+02  0.10566000000E+00 0. -1.
         13    1    1    0    0    0 -0.17568794786E+02 -0.30084608929E+02 -0.35382177960E+02  0.49655371571E+02  0.10566000000E+00 0.  1.
         22    1    1    0    0    0  0.22726825542E+02  0.37059532227E+02  0.44878545423E+02  0.62482008349E+02  0.00000000000E+00 0.  1.
</event>
<event>
 4    1  0.9957587E-003  0.9118800E+02  0.7818608E-02  0.1130116E+00
         25   -1    0    0    0    0  0.00000000000E+00  0.00000000000E+00  0.99999998245E-14  0.12500000000E+03  0.12500000000E+03 0.  0.
        -13    1    1    0    0    0  0.12010379972E+02  0.26484838258E+02  0.63034657469E+01  0.29756356112E+02  0.10566000000E+00 0.  1.
         13    1    1    0    0    0  0.13567253022E+02  0.28994219407E+02  0.68881697144E+01  0.32744360731E+02  0.10566000000E+00 0.  1.
         22    1    1    0    0    0 -0.25577632994E+02 -0.55479057666E+02 -0.13191635461E+02  0.62499283157E+02  0.00000000000E+00 0.  1.
</event>
<event>
 4    1  0.9957587E-003  0.9118800E+02  0.7818608E-02  0.1130116E+00
         25   -1    0    0    0    0  0.00000000000E+00  0.00000000000E+00  0.99999998245E-14  0.12500000000E+03  0.12500000000E+03 0.  0.
        -13    1    1    0    0    0  0.26094122463E+02  0.75629404045E+01  0.30667760050E+02  0.40971013719E+02  0.10566000000E+00 0. -1.
         13    1    1    0    0    0  0.13471989922E+02  0.39460039393E+01  0.16323679323E+02  0.21529958900E+02  0.10566000000E+00 0. -1.
         22    1    1    0    0    0 -0.39566112386E+02 -0.11508944344E+02 -0.46991439373E+02  0.62499027381E+02  0.00000000000E+00 0. -1.
</event>
<event>
 4    1  0.9957587E-003  0.9118800E+02  0.7818608E-02  0.1130116E+00
         25   -1    0    0    0    0  0.00000000000E+00  0.00000000000E+00  0.99999998245E-14  0.12500000000E+03  0.12500000000E+03 0.  0.
        -13    1    1    0    0    0 -0.34534000313E+01  0.39664429402E+00  0.17581039688E+01  0.38968438605E+01  0.10566000000E+00 0. -1.
         13    1    1    0    0    0 -0.51416121219E+02  0.72577042655E+01  0.27169718029E+02  0.58604577758E+02  0.10566000000E+00 0. -1.
         22    1    1    0    0    0  0.54869521250E+02 -0.76543485595E+01 -0.28927821998E+02  0.62498578381E+02  0.00000000000E+00 0. -1.
</event>
<event>
 4    1  0.9957587E-003  0.9118800E+02  0.7818608E-02  0.1130116E+00
         25   -1    0    0    0    0  0.00000000000E+00  0.00000000000E+00  0.99999998245E-14  0.12500000000E+03  0.12500000000E+03 0.  0.
        -13    1    1    0    0    0 -0.15726914042E+02  0.33257866555E+02  0.58729504168E+01  0.37254855036E+02  0.10566000000E+00 0. -1.
         13    1    1    0    0    0  0.40698409898E+02 -0.53085835030E+01  0.16341150395E+02  0.44176758452E+02  0.10566000000E+00 0.  1.
         22    1    1    0    0    0 -0.24971495856E+02 -0.27949283052E+02 -0.22214100812E+02  0.43568386512E+02  0.00000000000E+00 0. -1.
</event>
<event>
 4    1  0.9957587E-003  0.9118800E+02  0.7818608E-02  0.1130116E+00
         25   -1    0    0    0    0  0.00000000000E+00  0.00000000000E+00  0.99999998245E-14  0.12500000000E+03  0.12500000000E+03 0.  0.
        -13    1    1    0    0    0 -0.13282794348E+01 -0.14737267311E+01 -0.15006864688E+01  0.24898635802E+01  0.10566000000E+00 0.  1.
         13    1    1    0    0    0 -0.34401599839E+02 -0.34249736806E+02 -0.35284446375E+02  0.60012647524E+02  0.10566000000E+00 0. -1.
         22    1    1    0    0    0  0.35729879274E+02  0.35723463537E+02  0.36785132843E+02  0.62497488896E+02  0.00000000000E+00 0. -1.
</event>
<event>
 4    1  0.9957587E-003  0.9118800E+02  0.7818608E-02  0.1130116E+00
         25   -1    0    0    0    0  0.00000000000E+00  0.00000000000E+00  0.99999998245E-14  0.12500000000E+03  0.12500000000E+03 0.  0.
        -13    1    1    0    0    0  0.22191181814E+00  0.45171290474E+00  0.37154152786E+00  0.63442615478E+00  0.10566000000E+00 0. -1.
         13    1    1    0    0    0 -0.30258111831E+02  0.34062651172E+02  0.42028936942E+02  0.61985968097E+02  0.10566000000E+00 0.  1.
         22    1    1    0    0    0  0.30036200013E+02 -0.34514364077E+02 -0.42400478470E+02  0.62379605748E+02  0.00000000000E+00 0.  1.
</event>
<event>
 4    1  0.9957587E-003  0.9118800E+02  0.7818608E-02  0.1130116E+00
         25   -1    0    0    0    0  0.00000000000E+00  0.00000000000E+00  0.99999998245E-14  0.12500000000E+03  0.12500000000E+03 0.  0.
        -13    1    1    0    0    0 -0.27226442588E+02  0.34230918271E+02  0.20802004524E+02  0.48433144621E+02  0.10566000000E+00 0. -1.
         13    1    1    0    0    0 -0.34174873255E+01  0.13271748810E+02  0.47851102471E+01  0.14516438276E+02  0.10566000000E+00 0.  1.
         22    1    1    0    0    0  0.30643929913E+02 -0.47502667081E+02 -0.25587114771E+02  0.62050417103E+02  0.00000000000E+00 0. -1.
</event>
<event>
 4    1  0.9957587E-003  0.9118800E+02  0.7818608E-02  0.1130116E+00
         25   -1    0    0    0    0  0.00000000000E+00  0.00000000000E+00  0.99999998245E-14  0.12500000000E+03  0.12500000000E+03 0.  0.
        -13    1    1    0    0    0  0.42665360394E+01 -0.27830629171E+00  0.25510370800E+01  0.49799335726E+01  0.10566000000E+00 0.  1.
         13    1    1    0    0    0  0.45065672961E+02  0.12137052328E+02  0.33782268731E+02  0.57614891854E+02  0.10566000000E+00 0. -1.
         22    1    1    0    0    0 -0.49332209001E+02 -0.11858746037E+02 -0.36333305811E+02  0.62405174574E+02  0.00000000000E+00 0. -1.
</event>
<event>
 4    1  0.9957587E-003  0.9118800E+02  0.7818608E-02  0.1130116E+00
         25   -1    0    0    0    0  0.00000000000E+00  0.00000000000E+00  0.99999998245E-14  0.12500000000E+03  0.12500000000E+03 0.  0.
        -13    1    1    0    0    0 -0.50360407368E+01  0.10595964678E+02 -0.49385808717E+02  0.50760274235E+02  0.10566000000E+00 0. -1.
         13    1    1    0    0    0 -0.13479614604E+01  0.23992986283E+01 -0.11413061446E+02  0.11740646047E+02  0.10566000000E+00 0.  1.
         22    1    1    0    0    0  0.63840021972E+01 -0.12995263306E+02  0.60798870163E+02  0.62499079718E+02  0.00000000000E+00 0. -1.
</event>
<event>
 4    1  0.9957587E-003  0.9118800E+02  0.7818608E-02  0.1130116E+00
         25   -1    0    0    0    0  0.00000000000E+00  0.00000000000E+00  0.99999998245E-14  0.12500000000E+03  0.12500000000E+03 0.  0.
        -13    1    1    0    0    0  0.15244009744E+01 -0.25538420016E+02  0.94986717198E+01  0.27290485957E+02  0.10566000000E+00 0.  1.
         13    1    1    0    0    0 -0.21862979893E+02  0.53751331391E+02  0.83365899837E+01  0.58623420343E+02  0.10566000000E+00 0. -1.
         22    1    1    0    0    0  0.20338578919E+02 -0.28212911375E+02 -0.17835261704E+02  0.39086093700E+02  0.00000000000E+00 0. -1.
</event>
<event>
 4    1  0.9957587E-003  0.9118800E+02  0.7818608E-02  0.1130116E+00
         25   -1    0    0    0    0  0.00000000000E+00  0.00000000000E+00  0.99999998245E-14  0.12500000000E+03  0.12500000000E+03 0.  0.
        -13    1    1    0    0    0 -0.23311071336E+02 -0.51284775900E+02 -0.67364994675E+01  0.56735578564E+02  0.10566000000E+00 0. -1.
         13    1    1    0    0    0 -0.61884552580E+01  0.40837574580E+00  0.71332744534E+01  0.94529634345E+01  0.10566000000E+00 0.  1.
         22    1    1    0    0    0  0.29499526594E+02  0.50876400154E+02 -0.39677498587E+00  0.58811458001E+02  0.00000000000E+00 0. -1.
</event>
<event>
 4    1  0.9957587E-003  0.9118800E+02  0.7818608E-02  0.1130116E+00
         25   -1    0    0    0    0  0.00000000000E+00  0.00000000000E+00  0.99999998245E-14  0.12500000000E+03  0.12500000000E+03 0.  0.
        -13    1    1    0    0    0 -0.30237523699E+02 -0.35126793832E+02 -0.20186935046E+02  0.50554159027E+02  0.10566000000E+00 0. -1.
         13    1    1    0    0    0 -0.72563932051E+01 -0.85365845822E+01 -0.41648658363E+01  0.11953484435E+02  0.10566000000E+00 0.  1.
         22    1    1    0    0    0  0.37493916904E+02  0.43663378414E+02  0.24351800883E+02  0.62492356537E+02  0.00000000000E+00 0. -1.
</event>
<event>
 4    1  0.9957587E-003  0.9118800E+02  0.7818608E-02  0.1130116E+00
         25   -1    0    0    0    0  0.00000000000E+00  0.00000000000E+00  0.99999998245E-14  0.12500000000E+03  0.12500000000E+03 0.  0.
        -13    1    1    0    0    0  0.25829771486E+01  0.55408396926E+00 -0.46222225982E+01  0.53249305890E+01  0.10566000000E+00 0. -1.
         13    1    1    0    0    0  0.37441875533E+02  0.44595538405E+02  0.10068093280E+02  0.59093432422E+02  0.10566000000E+00 0.  1.
         22    1    1    0    0    0 -0.40024852682E+02 -0.45149622374E+02 -0.54458706822E+01  0.60581636989E+02  0.00000000000E+00 0.  1.
</event>
<event>
 4    1  0.9957587E-003  0.9118800E+02  0.7818608E-02  0.1130116E+00
         25   -1    0    0    0    0  0.00000000000E+00  0.00000000000E+00  0.99999998245E-14  0.12500000000E+03  0.12500000000E+03 0.  0.
        -13    1    1    0    0    0 -0.19975582910E+02  0.21442406807E+02  0.34171983477E+02  0.45017067219E+02  0.10566000000E+00 0.  1.
         13    1    1    0    0    0 -0.73533354558E+01  0.84927877309E+01  0.13398699852E+02  0.17485288317E+02  0.10566000000E+00 0. -1.
         22    1    1    0    0    0  0.27328918366E+02 -0.29935194538E+02 -0.47570683329E+02  0.62497644463E+02  0.00000000000E+00 0.  1.
</event>
<event>
 4    1  0.9957587E-003  0.9118800E+02  0.7818608E-02  0.1130116E+00
         25   -1    0    0    0    0  0.00000000000E+00  0.00000000000E+00  0.99999998245E-14  0.12500000000E+03  0.12500000000E+03 0.  0.
        -13    1    1    0    0    0 -0.42349988338E+01  0.55460523310E+01 -0.21414703936E+01  0.73000665109E+01  0.10566000000E+00 0.  1.
         13    1    1    0    0    0 -0.49949974941E+02  0.24584344018E+02  0.27133099633E+00  0.55672926561E+02  0.10566000000E+00 0. -1.
         22    1    1    0    0    0  0.54184973774E+02 -0.30130396349E+02  0.18701393973E+01  0.62027006928E+02  0.00000000000E+00 0. -1.
</event>
<event>
 4    1  0.9957587E-003  0.9118800E+02  0.7818608E-02  0.1130116E+00
         25   -1    0    0    0    0  0.00000000000E+00  0.00000000000E+00  0.99999998245E-14  0.12500000000E+03  0.12500000000E+03 0.  0.
        -13    1    1    0    0    0 -0.31797246351E+02  0.38408831562E+02  0.86889648583E+00  0.49870525991E+02  0.10566000000E+00 0.  1.
         13    1    1    0    0    0 -0.80387197242E+01  0.97354973017E+01  0.32038302338E+00  0.12629914166E+02  0.10566000000E+00 0.  1.
         22    1    1    0    0    0  0.39835966075E+02 -0.48144328863E+02 -0.11892795092E+01  0.62499559843E+02  0.00000000000E+00 0.  1.
</event>
<event>
 4    1  0.9957587E-003  0.9118800E+02  0.7818608E-02  0.1130116E+00
         25   -1    0    0    0    0  0.00000000000E+00  0.00000000000E+00  0.99999998245E-14  0.12500000000E+03  0.12500000000E+03 0.  0.
        -13    1    1    0    0    0  0.26965950474E+02 -0.16481028484E+01 -0.24092705313E+02  0.36198733974E+02  0.10566000000E+00 0.  1.
         13    1    1    0    0    0  0.15153529527E+02  0.48997994753E+01 -0.21427997935E+02  0.26698459723E+02  0.10566000000E+00 0. -1.
         22    1    1    0    0    0 -0.42119480002E+02 -0.32516966269E+01  0.45520703248E+02  0.62102806303E+02  0.00000000000E+00 0.  1.
</event>
<event>
 4    1  0.9957587E-003  0.9118800E+02  0.7818608E-02  0.1130116E+00
         25   -1    0    0    0    0  0.00000000000E+00  0.00000000000E+00  0.99999998245E-14  0.12500000000E+03  0.12500000000E+03 0.  0.
        -13    1    1    0    0    0 -0.15986216017E+02 -0.19290077939E+02 -0.10962971657E+01  0.25077464803E+02  0.10566000000E+00 0. -1.
         13    1    1    0    0    0 -0.23430913758E+02 -0.29141453566E+02 -0.15104864733E+01  0.37423585730E+02  0.10566000000E+00 0. -1.
         22    1    1    0    0    0  0.39417129774E+02  0.48431531505E+02  0.26067836390E+01  0.62498949467E+02  0.00000000000E+00 0. -1.
</event>
<event>
 4    1  0.9957587E-003  0.9118800E+02  0.7818608E-02  0.1130116E+00
         25   -1    0    0    0    0  0.00000000000E+00  0.00000000000E+00  0.99999998245E-14  0.12500000000E+03  0.12500000000E+03 0.  0.
        -13    1    1    0    0    0 -0.75163076291E+00  0.20144755936E+01  0.27446744637E+01  0.34881890241E+01  0.10566000000E+00 0. -1.
         13    1    1    0    0    0 -0.13470993018E+02  0.39423464401E+02  0.41811653442E+02  0.59024594246E+02  0.10566000000E+00 0.  1.
         22    1    1    0    0    0  0.14222623781E+02 -0.41437939995E+02 -0.44556327905E+02  0.62487216730E+02  0.00000000000E+00 0.  1.
</event>
<event>
 4    1  0.9957587E-003  0.9118800E+02  0.7818608E-02  0.1130116E+00
         25   -1    0    0    0    0  0.00000000000E+00  0.00000000000E+00  0.99999998245E-14  0.12500000000E+03  0.12500000000E+03 0.  0.
        -13    1    1    0    0    0  0.21806368596E+02 -0.31687786072E+02 -0.20486805215E+02  0.43581576950E+02  0.10566000000E+00 0. -1.
         13    1    1    0    0    0 -0.10632420017E+02 -0.20758360316E+02  0.14497448422E+02  0.27461701572E+02  0.10566000000E+00 0.  1.
         22    1    1    0    0    0 -0.11173948580E+02  0.52446146388E+02  0.59893567925E+01  0.53956721478E+02  0.00000000000E+00 0. -1.
</event>
<event>
 4    1  0.9957587E-003  0.9118800E+02  0.7818608E-02  0.1130116E+00
         25   -1    0    0    0    0  0.00000000000E+00  0.00000000000E+00  0.99999998245E-14  0.12500000000E+03  0.12500000000E+03 0.  0.
        -13    1    1    0    0    0  0.31748265134E+02 -0.36485791941E+02 -0.14394035629E+02  0.50461517797E+02  0.10566000000E+00 0.  1.
         13    1    1    0    0    0  0.64770882030E+01 -0.87272931219E+01 -0.53666085413E+01  0.12121467242E+02  0.10566000000E+00 0. -1.
         22    1    1    0    0    0 -0.38225353337E+02  0.45213085063E+02  0.19760644170E+02  0.62417014962E+02  0.00000000000E+00 0.  1.
</event>
<event>
 4    1  0.9957587E-003  0.9118800E+02  0.7818608E-02  0.1130116E+00
         25   -1    0    0    0    0  0.00000000000E+00  0.00000000000E+00  0.99999998245E-14  0.12500000000E+03  0.12500000000E+03 0.  0.
        -13    1    1    0    0    0 -0.19208393925E+02 -0.15435167248E+02 -0.13584343048E+02  0.28138093845E+02  0.10566000000E+00 0. -1.
         13    1    1    0    0    0 -0.23623914083E+02 -0.18472731166E+02 -0.16776674872E+02  0.34362757414E+02  0.10566000000E+00 0.  1.
         22    1    1    0    0    0  0.42832308008E+02  0.33907898414E+02  0.30361017920E+02  0.62499148740E+02  0.00000000000E+00 0. -1.
</event>
<event>
 4    1  0.9957587E-003  0.9118800E+02  0.7818608E-02  0.1130116E+00
         25   -1    0    0    0    0  0.00000000000E+00  0.00000000000E+00  0.99999998245E-14  0.12500000000E+03  0.12500000000E+03 0.  0.
        -13    1    1    0    0    0  0.60407432485E+01 -0.15316782557E+02 -0.65998709589E+01  0.17738767364E+02  0.10566000000E+00 0.  1.
         13    1    1    0    0    0  0.95125980314E+01 -0.36432107108E+02 -0.24492598768E+02  0.44918665475E+02  0.10566000000E+00 0. -1.
         22    1    1    0    0    0 -0.15553341280E+02  0.51748889665E+02  0.31092469727E+02  0.62342567161E+02  0.00000000000E+00 0.  1.
</event>
<event>
 4    1  0.9957587E-003  0.9118800E+02  0.7818608E-02  0.1130116E+00
         25   -1    0    0    0    0  0.00000000000E+00  0.00000000000E+00  0.99999998245E-14  0.12500000000E+03  0.12500000000E+03 0.  0.
        -13    1    1    0    0    0  0.34681156666E+02  0.27149689371E+02 -0.28002393824E+01  0.44133216122E+02  0.10566000000E+00 0. -1.
         13    1    1    0    0    0 -0.69658451765E+00  0.17852207907E+02  0.14813805598E+02  0.23208760361E+02  0.10566000000E+00 0.  1.
         22    1    1    0    0    0 -0.33984572148E+02 -0.45001897278E+02 -0.12013566215E+02  0.57658023518E+02  0.00000000000E+00 0. -1.
</event>
<event>
 4    1  0.9957587E-003  0.9118800E+02  0.7818608E-02  0.1130116E+00
         25   -1    0    0    0    0  0.00000000000E+00  0.00000000000E+00  0.99999998245E-14  0.12500000000E+03  0.12500000000E+03 0.  0.
        -13    1    1    0    0    0 -0.30785676902E+01  0.60089494112E+01 -0.81156872045E+01  0.10557489990E+02  0.10566000000E+00 0.  1.
         13    1    1    0    0    0 -0.49909103044E+02  0.40941145576E+01 -0.19625160239E+02  0.53785113360E+02  0.10566000000E+00 0. -1.
         22    1    1    0    0    0  0.52987670735E+02 -0.10103063969E+02  0.27740847444E+02  0.60657396650E+02  0.00000000000E+00 0. -1.
</event>
<event>
 4    1  0.9957587E-003  0.9118800E+02  0.7818608E-02  0.1130116E+00
         25   -1    0    0    0    0  0.00000000000E+00  0.00000000000E+00  0.99999998245E-14  0.12500000000E+03  0.12500000000E+03 0.  0.
        -13    1    1    0    0    0 -0.47627491653E+02  0.29864284052E+02  0.22562866702E+02  0.60575139628E+02  0.10566000000E+00 0.  1.
         13    1    1    0    0    0 -0.15598298293E+01  0.11342935138E+01  0.29235584163E+00  0.19535421279E+01  0.10566000000E+00 0. -1.
         22    1    1    0    0    0  0.49187321482E+02 -0.30998577566E+02 -0.22855222544E+02  0.62471318244E+02  0.00000000000E+00 0.  1.
</event>
<event>
 4    1  0.9957587E-003  0.9118800E+02  0.7818608E-02  0.1130116E+00
         25   -1    0    0    0    0  0.00000000000E+00  0.00000000000E+00  0.99999998245E-14  0.12500000000E+03  0.12500000000E+03 0.  0.
        -13    1    1    0    0    0 -0.40201502627E+02  0.10942360602E+02 -0.17448783147E+02  0.45170424687E+02  0.10566000000E+00 0.  1.
         13    1    1    0    0    0 -0.15121942723E+02  0.10553031289E+02  0.23756293065E+01  0.18592858837E+02  0.10566000000E+00 0. -1.
         22    1    1    0    0    0  0.55323445350E+02 -0.21495391891E+02  0.15073153841E+02  0.61236716476E+02  0.00000000000E+00 0.  1.
</event>
<event>
 4    1  0.9957587E-003  0.9118800E+02  0.7818608E-02  0.1130116E+00
         25   -1    0    0    0    0  0.00000000000E+00  0.00000000000E+00  0.99999998245E-14  0.12500000000E+03  0.12500000000E+03 0.  0.
        -13    1    1    0    0    0 -0.62275628402E+01  0.57757395683E+01 -0.77953530535E+01  0.11529110970E+02  0.10566000000E+00 0. -1.
         13    1    1    0    0    0 -0.44411020391E+02  0.22239923263E+02 -0.14043257563E+02  0.51615667834E+02  0.10566000000E+00 0.  1.
         22    1    1    0    0    0  0.50638583231E+02 -0.28015662832E+02  0.21838610616E+02  0.61855221196E+02  0.00000000000E+00 0.  1.
</event>
<event>
 4    1  0.9957587E-003  0.9118800E+02  0.7818608E-02  0.1130116E+00
         25   -1    0    0    0    0  0.00000000000E+00  0.00000000000E+00  0.99999998245E-14  0.12500000000E+03  0.12500000000E+03 0.  0.
        -13    1    1    0    0    0  0.43706160426E+02 -0.15118179695E+02  0.26957569738E+02  0.53530454386E+02  0.10566000000E+00 0.  1.
         13    1    1    0    0    0  0.27587078080E+01  0.90095983168E+01  0.85097410568E+01  0.12696857386E+02  0.10566000000E+00 0. -1.
         22    1    1    0    0    0 -0.46464868234E+02  0.61085813779E+01 -0.35467310795E+02  0.58772688228E+02  0.00000000000E+00 0.  1.
</event>
<event>
 4    1  0.9957587E-003  0.9118800E+02  0.7818608E-02  0.1130116E+00
         25   -1    0    0    0    0  0.00000000000E+00  0.00000000000E+00  0.99999998245E-14  0.12500000000E+03  0.12500000000E+03 0.  0.
        -13    1    1    0    0    0 -0.14596441609E+01  0.40863049831E+00 -0.15537336665E+00  0.15273653392E+01  0.10566000000E+00 0. -1.
         13    1    1    0    0    0 -0.32537983960E+02 -0.30669582940E+02 -0.42065245703E+02  0.61390876993E+02  0.10566000000E+00 0.  1.
         22    1    1    0    0    0  0.33997628121E+02  0.30260952441E+02  0.42220619070E+02  0.62081757668E+02  0.00000000000E+00 0.  1.
</event>
<event>
 4    1  0.9957587E-003  0.9118800E+02  0.7818608E-02  0.1130116E+00
         25   -1    0    0    0    0  0.00000000000E+00  0.00000000000E+00  0.99999998245E-14  0.12500000000E+03  0.12500000000E+03 0.  0.
        -13    1    1    0    0    0 -0.60251284682E+00 -0.50010776768E+02 -0.11984859643E+02  0.51430427175E+02  0.10566000000E+00 0.  1.
         13    1    1    0    0    0 -0.80871297038E+01 -0.94686891276E+01  0.13566924846E+01  0.12526352988E+02  0.10566000000E+00 0. -1.
         22    1    1    0    0    0  0.86896425506E+01  0.59479465896E+02  0.10628167159E+02  0.61043219837E+02  0.00000000000E+00 0.  1.
</event>
<event>
 4    1  0.9957587E-003  0.9118800E+02  0.7818608E-02  0.1130116E+00
         25   -1    0    0    0    0  0.00000000000E+00  0.00000000000E+00  0.99999998245E-14  0.12500000000E+03  0.12500000000E+03 0.  0.
        -13    1    1    0    0    0  0.50252179384E+02 -0.16186691350E+02 -0.15662488389E+02  0.55069185724E+02  0.10566000000E+00 0.  1.
         13    1    1    0    0    0  0.55434043630E+01 -0.21081973060E+01 -0.49230361374E+01  0.77085197450E+01  0.10566000000E+00 0. -1.
         22    1    1    0    0    0 -0.55795583747E+02  0.18294888656E+02  0.20585524526E+02  0.62222294531E+02  0.00000000000E+00 0.  1.
</event>
<event>
 4    1  0.9957587E-003  0.9118800E+02  0.7818608E-02  0.1130116E+00
         25   -1    0    0    0    0  0.00000000000E+00  0.00000000000E+00  0.99999998245E-14  0.12500000000E+03  0.12500000000E+03 0.  0.
        -13    1    1    0    0    0  0.71538305917E+01  0.10835081698E+02 -0.11157561358E+02  0.17119539335E+02  0.10566000000E+00 0. -1.
         13    1    1    0    0    0 -0.57859574306E+01  0.96937206200E+01 -0.45878426341E+02  0.47247081290E+02  0.10566000000E+00 0.  1.
         22    1    1    0    0    0 -0.13678731611E+01 -0.20528802318E+02  0.57035987699E+02  0.60633379375E+02  0.00000000000E+00 0.  1.
</event>
<event>
 4    1  0.9957587E-003  0.9118800E+02  0.7818608E-02  0.1130116E+00
         25   -1    0    0    0    0  0.00000000000E+00  0.00000000000E+00  0.99999998245E-14  0.12500000000E+03  0.12500000000E+03 0.  0.
        -13    1    1    0    0    0 -0.39727599937E+01 -0.53316827398E+01 -0.64106314384E+00  0.66807027172E+01  0.10566000000E+00 0. -1.
         13    1    1    0    0    0 -0.47731456101E+02 -0.24582653168E+02 -0.16510688055E+02  0.56171280227E+02  0.10566000000E+00 0.  1.
         22    1    1    0    0    0  0.51704216094E+02  0.29914335908E+02  0.17151751199E+02  0.62148017056E+02  0.00000000000E+00 0.  1.
</event>
<event>
 4    1  0.9957587E-003  0.9118800E+02  0.7818608E-02  0.1130116E+00
         25   -1    0    0    0    0  0.00000000000E+00  0.00000000000E+00  0.99999998245E-14  0.12500000000E+03  0.12500000000E+03 0.  0.
        -13    1    1    0    0    0  0.75172786739E+01 -0.41763006155E+02  0.32178693187E+02  0.53255399923E+02  0.10566000000E+00 0.  1.
         13    1    1    0    0    0  0.15430255305E+01 -0.71294250981E+01  0.56817794096E+01  0.92468054653E+01  0.10566000000E+00 0.  1.
         22    1    1    0    0    0 -0.90603042044E+01  0.48892431253E+02 -0.37860472596E+02  0.62497794612E+02  0.00000000000E+00 0.  1.
</event>
<event>
 4    1  0.9957587E-003  0.9118800E+02  0.7818608E-02  0.1130116E+00
         25   -1    0    0    0    0  0.00000000000E+00  0.00000000000E+00  0.99999998245E-14  0.12500000000E+03  0.12500000000E+03 0.  0.
        -13    1    1    0    0    0 -0.17617899577E+02  0.32210278700E+00  0.28493919764E+01  0.17850051384E+02  0.10566000000E+00 0. -1.
         13    1    1    0    0    0 -0.44209322220E+02 -0.20681257378E+01  0.60201692824E+01  0.44665365972E+02  0.10566000000E+00 0.  1.
         22    1    1    0    0    0  0.61827221797E+02  0.17460229508E+01 -0.88695612588E+01  0.62484582644E+02  0.00000000000E+00 0.  1.
</event>
<event>
 4    1  0.9957587E-003  0.9118800E+02  0.7818608E-02  0.1130116E+00
         25   -1    0    0    0    0  0.00000000000E+00  0.00000000000E+00  0.99999998245E-14  0.12500000000E+03  0.12500000000E+03 0.  0.
        -13    1    1    0    0    0  0.11407088461E+02 -0.13686565530E+02 -0.27457185553E+02  0.32731513037E+02  0.10566000000E+00 0.  1.
         13    1    1    0    0    0  0.10364260462E+02 -0.12474562047E+02 -0.24962571118E+02  0.29768670008E+02  0.10566000000E+00 0.  1.
         22    1    1    0    0    0 -0.21771348923E+02  0.26161127577E+02  0.52419756671E+02  0.62499816955E+02  0.00000000000E+00 0.  1.
</event>
<event>
 4    1  0.9957587E-003  0.9118800E+02  0.7818608E-02  0.1130116E+00
         25   -1    0    0    0    0  0.00000000000E+00  0.00000000000E+00  0.99999998245E-14  0.12500000000E+03  0.12500000000E+03 0.  0.
        -13    1    1    0    0    0  0.40059336649E+01 -0.56108884156E+00 -0.83893743249E+01  0.93142412904E+01  0.10566000000E+00 0.  1.
         13    1    1    0    0    0  0.22814461954E+02 -0.31511780786E+01 -0.47940819743E+02  0.53186116226E+02  0.10566000000E+00 0.  1.
         22    1    1    0    0    0 -0.26820395619E+02  0.37122669202E+01  0.56330194068E+02  0.62499642484E+02  0.00000000000E+00 0.  1.
</event>
<event>
 4    1  0.9957587E-003  0.9118800E+02  0.7818608E-02  0.1130116E+00
         25   -1    0    0    0    0  0.00000000000E+00  0.00000000000E+00  0.99999998245E-14  0.12500000000E+03  0.12500000000E+03 0.  0.
        -13    1    1    0    0    0 -0.77457124288E+01  0.41155941703E+01 -0.16982449143E+02  0.19114102629E+02  0.10566000000E+00 0. -1.
         13    1    1    0    0    0 -0.17510055530E+02  0.93476072662E+01 -0.38579324962E+02  0.43386118573E+02  0.10566000000E+00 0. -1.
         22    1    1    0    0    0  0.25255767959E+02 -0.13463201437E+02  0.55561774105E+02  0.62499778798E+02  0.00000000000E+00 0. -1.
</event>
<event>
 4    1  0.9957587E-003  0.9118800E+02  0.7818608E-02  0.1130116E+00
         25   -1    0    0    0    0  0.00000000000E+00  0.00000000000E+00  0.99999998245E-14  0.12500000000E+03  0.12500000000E+03 0.  0.
        -13    1    1    0    0    0  0.59904159481E+01  0.10123148475E+02 -0.26976582128E+02  0.29429753067E+02  0.10566000000E+00 0.  1.
         13    1    1    0    0    0  0.67066815074E+01  0.11610348791E+02 -0.30230397266E+02  0.33070649506E+02  0.10566000000E+00 0.  1.
         22    1    1    0    0    0 -0.12697097456E+02 -0.21733497266E+02  0.57206979393E+02  0.62499597427E+02  0.00000000000E+00 0.  1.
</event>
<event>
 4    1  0.9957587E-003  0.9118800E+02  0.7818608E-02  0.1130116E+00
         25   -1    0    0    0    0  0.00000000000E+00  0.00000000000E+00  0.99999998245E-14  0.12500000000E+03  0.12500000000E+03 0.  0.
        -13    1    1    0    0    0 -0.43567832055E+02 -0.35522535881E+02 -0.18660278674E+02  0.59230260084E+02  0.10566000000E+00 0. -1.
         13    1    1    0    0    0 -0.17265364815E+01 -0.28942778746E+01 -0.39675981801E+00  0.33950486044E+01  0.10566000000E+00 0.  1.
         22    1    1    0    0    0  0.45294368536E+02  0.38416813755E+02  0.19057038492E+02  0.62374691312E+02  0.00000000000E+00 0. -1.
</event>
<event>
 4    1  0.9957587E-003  0.9118800E+02  0.7818608E-02  0.1130116E+00
         25   -1    0    0    0    0  0.00000000000E+00  0.00000000000E+00  0.99999998245E-14  0.12500000000E+03  0.12500000000E+03 0.  0.
        -13    1    1    0    0    0 -0.10666322411E+02  0.39579258585E+01  0.64907754440E+01  0.13098738136E+02  0.10566000000E+00 0. -1.
         13    1    1    0    0    0 -0.40153983238E+02  0.15785039916E+02  0.24064207232E+02  0.49402500835E+02  0.10566000000E+00 0. -1.
         22    1    1    0    0    0  0.50820305649E+02 -0.19742965774E+02 -0.30554982676E+02  0.62498761029E+02  0.00000000000E+00 0. -1.
</event>
<event>
 4    1  0.9957587E-003  0.9118800E+02  0.7818608E-02  0.1130116E+00
         25   -1    0    0    0    0  0.00000000000E+00  0.00000000000E+00  0.99999998245E-14  0.12500000000E+03  0.12500000000E+03 0.  0.
        -13    1    1    0    0    0 -0.26070224513E+00  0.12136709950E+02 -0.77431028314E+01  0.14399114541E+02  0.10566000000E+00 0.  1.
         13    1    1    0    0    0  0.48002071867E+01  0.40967542022E+02 -0.24822954234E+02  0.48141164395E+02  0.10566000000E+00 0. -1.
         22    1    1    0    0    0 -0.45395049416E+01 -0.53104251972E+02  0.32566057066E+02  0.62459721064E+02  0.00000000000E+00 0.  1.
</event>
<event>
 4    1  0.9957587E-003  0.9118800E+02  0.7818608E-02  0.1130116E+00
         25   -1    0    0    0    0  0.00000000000E+00  0.00000000000E+00  0.99999998245E-14  0.12500000000E+03  0.12500000000E+03 0.  0.
        -13    1    1    0    0    0 -0.34003458446E+02  0.23321674753E+02 -0.40287053679E+02  0.57647147004E+02  0.10566000000E+00 0.  1.
         13    1    1    0    0    0 -0.24997149421E+01  0.40792443130E+01 -0.19482068965E+01  0.51667671811E+01  0.10566000000E+00 0. -1.
         22    1    1    0    0    0  0.36503173389E+02 -0.27400919066E+02  0.42235260575E+02  0.62186085815E+02  0.00000000000E+00 0.  1.
</event>
<event>
 4    1  0.9957587E-003  0.9118800E+02  0.7818608E-02  0.1130116E+00
         25   -1    0    0    0    0  0.00000000000E+00  0.00000000000E+00  0.99999998245E-14  0.12500000000E+03  0.12500000000E+03 0.  0.
        -13    1    1    0    0    0 -0.26842201645E+02  0.17953350834E+02  0.15589961743E+02  0.35859234048E+02  0.10566000000E+00 0.  1.
         13    1    1    0    0    0 -0.21981738076E+02  0.98694444618E+01  0.11566197701E+02  0.26728090768E+02  0.10566000000E+00 0. -1.
         22    1    1    0    0    0  0.48823939721E+02 -0.27822795296E+02 -0.27156159443E+02  0.62412675184E+02  0.00000000000E+00 0.  1.
</event>
<event>
 4    1  0.9957587E-003  0.9118800E+02  0.7818608E-02  0.1130116E+00
         25   -1    0    0    0    0  0.00000000000E+00  0.00000000000E+00  0.99999998245E-14  0.12500000000E+03  0.12500000000E+03 0.  0.
        -13    1    1    0    0    0  0.34117552287E+02 -0.39407188926E+02 -0.34085446201E+02  0.62279713550E+02  0.10566000000E+00 0. -1.
         13    1    1    0    0    0 -0.62050886119E+01  0.79573370181E+01  0.33415693882E+01  0.10630126392E+02  0.10566000000E+00 0.  1.
         22    1    1    0    0    0 -0.27912463675E+02  0.31449851907E+02  0.30743876813E+02  0.52090160058E+02  0.00000000000E+00 0. -1.
</event>
<event>
 4    1  0.9957587E-003  0.9118800E+02  0.7818608E-02  0.1130116E+00
         25   -1    0    0    0    0  0.00000000000E+00  0.00000000000E+00  0.99999998245E-14  0.12500000000E+03  0.12500000000E+03 0.  0.
        -13    1    1    0    0    0  0.16469129665E+02  0.16601041878E+02 -0.15871667051E+01  0.23438367808E+02  0.10566000000E+00 0. -1.
         13    1    1    0    0    0  0.31784697574E+02  0.17364773912E+02 -0.16559520890E+02  0.39825008085E+02  0.10566000000E+00 0.  1.
         22    1    1    0    0    0 -0.48253827238E+02 -0.33965815790E+02  0.18146687595E+02  0.61736624106E+02  0.00000000000E+00 0. -1.
</event>
<event>
 4    1  0.9957587E-003  0.9118800E+02  0.7818608E-02  0.1130116E+00
         25   -1    0    0    0    0  0.00000000000E+00  0.00000000000E+00  0.99999998245E-14  0.12500000000E+03  0.12500000000E+03 0.  0.
        -13    1    1    0    0    0  0.29945363098E+01 -0.26178515024E+01 -0.13992814380E+02  0.14547522556E+02  0.10566000000E+00 0.  1.
         13    1    1    0    0    0  0.11477698075E+01  0.52384020404E+00 -0.48134937656E+02  0.48151585345E+02  0.10566000000E+00 0. -1.
         22    1    1    0    0    0 -0.41423061173E+01  0.20940112984E+01  0.62127752036E+02  0.62300892099E+02  0.00000000000E+00 0. -1.
</event>
<event>
 4    1  0.9957587E-003  0.9118800E+02  0.7818608E-02  0.1130116E+00
         25   -1    0    0    0    0  0.00000000000E+00  0.00000000000E+00  0.99999998245E-14  0.12500000000E+03  0.12500000000E+03 0.  0.
        -13    1    1    0    0    0  0.35651539716E+02 -0.14823671100E+02  0.44175830784E+02  0.58671020943E+02  0.10566000000E+00 0. -1.
         13    1    1    0    0    0  0.23131659445E+01 -0.15579423846E+01  0.26581516933E+01  0.38541997380E+01  0.10566000000E+00 0.  1.
         22    1    1    0    0    0 -0.37964705660E+02  0.16381613484E+02 -0.46833982478E+02  0.62474779319E+02  0.00000000000E+00 0. -1.
</event>
<event>
 4    1  0.9957587E-003  0.9118800E+02  0.7818608E-02  0.1130116E+00
         25   -1    0    0    0    0  0.00000000000E+00  0.00000000000E+00  0.99999998245E-14  0.12500000000E+03  0.12500000000E+03 0.  0.
        -13    1    1    0    0    0 -0.24997928015E+02  0.59991864769E+01  0.12271819875E+00  0.25708225672E+02  0.10566000000E+00 0. -1.
         13    1    1    0    0    0 -0.33348416384E+02  0.14981612710E+02  0.57567635104E+01  0.37009689067E+02  0.10566000000E+00 0.  1.
         22    1    1    0    0    0  0.58346344399E+02 -0.20980799187E+02 -0.58794817092E+01  0.62282085260E+02  0.00000000000E+00 0. -1.
</event>
<event>
 4    1  0.9957587E-003  0.9118800E+02  0.7818608E-02  0.1130116E+00
         25   -1    0    0    0    0  0.00000000000E+00  0.00000000000E+00  0.99999998245E-14  0.12500000000E+03  0.12500000000E+03 0.  0.
        -13    1    1    0    0    0  0.33739559761E+02  0.31857487584E+02 -0.79532888500E+01  0.47079967880E+02  0.10566000000E+00 0. -1.
         13    1    1    0    0    0  0.12544388546E+02 -0.88021789252E+01  0.19636058526E+02  0.24908351939E+02  0.10566000000E+00 0.  1.
         22    1    1    0    0    0 -0.46283948308E+02 -0.23055308658E+02 -0.11682769676E+02  0.53011680181E+02  0.00000000000E+00 0. -1.
</event>
<event>
 4    1  0.9957587E-003  0.9118800E+02  0.7818608E-02  0.1130116E+00
         25   -1    0    0    0    0  0.00000000000E+00  0.00000000000E+00  0.99999998245E-14  0.12500000000E+03  0.12500000000E+03 0.  0.
        -13    1    1    0    0    0 -0.97285041621E+01 -0.85818593075E+01  0.30222631784E+01  0.13320560843E+02  0.10566000000E+00 0.  1.
         13    1    1    0    0    0 -0.28715503802E+02 -0.36459321308E+02  0.16610439863E+02  0.49292800137E+02  0.10566000000E+00 0. -1.
         22    1    1    0    0    0  0.38444007964E+02  0.45041180616E+02 -0.19632703041E+02  0.62386639021E+02  0.00000000000E+00 0. -1.
</event>
<event>
 4    1  0.9957587E-003  0.9118800E+02  0.7818608E-02  0.1130116E+00
         25   -1    0    0    0    0  0.00000000000E+00  0.00000000000E+00  0.99999998245E-14  0.12500000000E+03  0.12500000000E+03 0.  0.
        -13    1    1    0    0    0 -0.53678802854E+00 -0.12436849055E+02 -0.20727301416E+02  0.24178410697E+02  0.10566000000E+00 0. -1.
         13    1    1    0    0    0  0.13810962256E+01 -0.17551070122E+02 -0.34069842964E+02  0.38349874222E+02  0.10566000000E+00 0.  1.
         22    1    1    0    0    0 -0.84430819709E+00  0.29987919177E+02  0.54797144380E+02  0.62471715081E+02  0.00000000000E+00 0.  1.
</event>
<event>
 4    1  0.9957587E-003  0.9118800E+02  0.7818608E-02  0.1130116E+00
         25   -1    0    0    0    0  0.00000000000E+00  0.00000000000E+00  0.99999998245E-14  0.12500000000E+03  0.12500000000E+03 0.  0.
        -13    1    1    0    0    0 -0.23568472002E+01 -0.21101384339E+02  0.91842824153E+01  0.23134073512E+02  0.10566000000E+00 0. -1.
         13    1    1    0    0    0 -0.43172925172E+01 -0.39816969792E+02 -0.12337868678E+01  0.40069483303E+02  0.10566000000E+00 0.  1.
         22    1    1    0    0    0  0.66741397174E+01  0.60918354130E+02 -0.79504955476E+01  0.61796443185E+02  0.00000000000E+00 0.  1.
</event>
<event>
 4    1  0.9957587E-003  0.9118800E+02  0.7818608E-02  0.1130116E+00
         25   -1    0    0    0    0  0.00000000000E+00  0.00000000000E+00  0.99999998245E-14  0.12500000000E+03  0.12500000000E+03 0.  0.
        -13    1    1    0    0    0 -0.27592315277E+02 -0.23164994770E+02 -0.12292885980E+02  0.38066771006E+02  0.10566000000E+00 0. -1.
         13    1    1    0    0    0 -0.17667416750E+02 -0.14972575159E+02 -0.77892246100E+01  0.24433559003E+02  0.10566000000E+00 0. -1.
         22    1    1    0    0    0  0.45259732028E+02  0.38137569929E+02  0.20082110590E+02  0.62499669991E+02  0.00000000000E+00 0. -1.
</event>
<event>
 4    1  0.9957587E-003  0.9118800E+02  0.7818608E-02  0.1130116E+00
         25   -1    0    0    0    0  0.00000000000E+00  0.00000000000E+00  0.99999998245E-14  0.12500000000E+03  0.12500000000E+03 0.  0.
        -13    1    1    0    0    0  0.39796251424E+01  0.48530014363E+01 -0.30111293505E+01  0.69618318865E+01  0.10566000000E+00 0.  1.
         13    1    1    0    0    0  0.32494137074E+02  0.36274712235E+02 -0.26712722327E+02  0.55545516381E+02  0.10566000000E+00 0. -1.
         22    1    1    0    0    0 -0.36473762216E+02 -0.41127713671E+02  0.29723851677E+02  0.62492651732E+02  0.00000000000E+00 0. -1.
</event>
<event>
 4    1  0.9957587E-003  0.9118800E+02  0.7818608E-02  0.1130116E+00
         25   -1    0    0    0    0  0.00000000000E+00  0.00000000000E+00  0.99999998245E-14  0.12500000000E+03  0.12500000000E+03 0.  0.
        -13    1    1    0    0    0  0.94249506271E+00 -0.12600580602E+02  0.20049055443E+02  0.23698918048E+02  0.10566000000E+00 0.  1.
         13    1    1    0    0    0 -0.16824116904E+02 -0.21281595033E+02  0.28932400401E+02  0.39661721518E+02  0.10566000000E+00 0. -1.
         22    1    1    0    0    0  0.15881621842E+02  0.33882175634E+02 -0.48981455845E+02  0.61639360434E+02  0.00000000000E+00 0.  1.
</event>
<event>
 4    1  0.9957587E-003  0.9118800E+02  0.7818608E-02  0.1130116E+00
         25   -1    0    0    0    0  0.00000000000E+00  0.00000000000E+00  0.99999998245E-14  0.12500000000E+03  0.12500000000E+03 0.  0.
        -13    1    1    0    0    0  0.43969438520E+01 -0.40186228614E+02 -0.43183648994E+02  0.59153231441E+02  0.10566000000E+00 0.  1.
         13    1    1    0    0    0  0.11937171484E+01  0.16886402313E+00 -0.37357327869E+01  0.39268739703E+01  0.10566000000E+00 0. -1.
         22    1    1    0    0    0 -0.55906610004E+01  0.40017364591E+02  0.46919381780E+02  0.61919894589E+02  0.00000000000E+00 0.  1.
</event>
<event>
 4    1  0.9957587E-003  0.9118800E+02  0.7818608E-02  0.1130116E+00
         25   -1    0    0    0    0  0.00000000000E+00  0.00000000000E+00  0.99999998245E-14  0.12500000000E+03  0.12500000000E+03 0.  0.
        -13    1    1    0    0    0 -0.38130240488E+01  0.26582770272E+01 -0.13466732304E+02  0.14246741106E+02  0.10566000000E+00 0. -1.
         13    1    1    0    0    0  0.17928100079E+02  0.41922627393E+02 -0.23359909204E+02  0.51231045100E+02  0.10566000000E+00 0.  1.
         22    1    1    0    0    0 -0.14115076031E+02 -0.44580904420E+02  0.36826641507E+02  0.59522213794E+02  0.00000000000E+00 0.  1.
</event>
<event>
 4    1  0.9957587E-003  0.9118800E+02  0.7818608E-02  0.1130116E+00
         25   -1    0    0    0    0  0.00000000000E+00  0.00000000000E+00  0.99999998245E-14  0.12500000000E+03  0.12500000000E+03 0.  0.
        -13    1    1    0    0    0  0.56250903736E+01 -0.36260490392E+01 -0.70096168022E+01  0.96920464865E+01  0.10566000000E+00 0.  1.
         13    1    1    0    0    0  0.29905875812E+02 -0.20471976590E+02 -0.38409994393E+02  0.52809109696E+02  0.10566000000E+00 0.  1.
         22    1    1    0    0    0 -0.35530966186E+02  0.24098025629E+02  0.45419611196E+02  0.62498843817E+02  0.00000000000E+00 0.  1.
</event>
<event>
 4    1  0.9957587E-003  0.9118800E+02  0.7818608E-02  0.1130116E+00
         25   -1    0    0    0    0  0.00000000000E+00  0.00000000000E+00  0.99999998245E-14  0.12500000000E+03  0.12500000000E+03 0.  0.
        -13    1    1    0    0    0  0.15971282553E+02 -0.14527316758E+02  0.23242778184E+02  0.31723220207E+02  0.10566000000E+00 0. -1.
         13    1    1    0    0    0  0.13154993484E+02 -0.16786199836E+02  0.22262783425E+02  0.30829742917E+02  0.10566000000E+00 0.  1.
         22    1    1    0    0    0 -0.29126276037E+02  0.31313516595E+02 -0.45505561608E+02  0.62447036876E+02  0.00000000000E+00 0. -1.
</event>
<event>
 4    1  0.9957587E-003  0.9118800E+02  0.7818608E-02  0.1130116E+00
         25   -1    0    0    0    0  0.00000000000E+00  0.00000000000E+00  0.99999998245E-14  0.12500000000E+03  0.12500000000E+03 0.  0.
        -13    1    1    0    0    0 -0.66319123320E+01 -0.59460533393E+01 -0.41825778125E+02  0.42763824564E+02  0.10566000000E+00 0. -1.
         13    1    1    0    0    0 -0.26360116404E+01 -0.42588645871E+01 -0.19112469448E+02  0.19758141040E+02  0.10566000000E+00 0.  1.
         22    1    1    0    0    0  0.92679239724E+01  0.10204917926E+02  0.60938247573E+02  0.62478034396E+02  0.00000000000E+00 0. -1.
</event>
<event>
 4    1  0.9957587E-003  0.9118800E+02  0.7818608E-02  0.1130116E+00
         25   -1    0    0    0    0  0.00000000000E+00  0.00000000000E+00  0.99999998245E-14  0.12500000000E+03  0.12500000000E+03 0.  0.
        -13    1    1    0    0    0 -0.11667949510E+01  0.38278222379E+02  0.22656810353E+02  0.44496358709E+02  0.10566000000E+00 0.  1.
         13    1    1    0    0    0  0.71540601532E+01  0.10103353221E+02  0.14603058489E+02  0.19144680835E+02  0.10566000000E+00 0. -1.
         22    1    1    0    0    0 -0.59872652023E+01 -0.48381575600E+02 -0.37259868843E+02  0.61358960456E+02  0.00000000000E+00 0.  1.
</event>
<event>
 4    1  0.9957587E-003  0.9118800E+02  0.7818608E-02  0.1130116E+00
         25   -1    0    0    0    0  0.00000000000E+00  0.00000000000E+00  0.99999998245E-14  0.12500000000E+03  0.12500000000E+03 0.  0.
        -13    1    1    0    0    0  0.14784001557E+02 -0.49618860350E+02  0.11321032358E+02  0.52997876771E+02  0.10566000000E+00 0. -1.
         13    1    1    0    0    0  0.20117468553E+01 -0.89435659365E+01  0.25580788343E+01  0.95178478885E+01  0.10566000000E+00 0.  1.
         22    1    1    0    0    0 -0.16795748413E+02  0.58562426287E+02 -0.13879111192E+02  0.62484275341E+02  0.00000000000E+00 0. -1.
</event>
<event>
 4    1  0.9957587E-003  0.9118800E+02  0.7818608E-02  0.1130116E+00
         25   -1    0    0    0    0  0.00000000000E+00  0.00000000000E+00  0.99999998245E-14  0.12500000000E+03  0.12500000000E+03 0.  0.
        -13    1    1    0    0    0 -0.33709670919E+00 -0.30573056077E+01  0.47830660981E+01  0.56876741384E+01  0.10566000000E+00 0.  1.
         13    1    1    0    0    0  0.17518840081E+02 -0.32440818368E+02  0.43465681826E+02  0.56996430720E+02  0.10566000000E+00 0. -1.
         22    1    1    0    0    0 -0.17181743372E+02  0.35498123975E+02 -0.48248747924E+02  0.62315895142E+02  0.00000000000E+00 0. -1.
</event>
<event>
 4    1  0.9957587E-003  0.9118800E+02  0.7818608E-02  0.1130116E+00
         25   -1    0    0    0    0  0.00000000000E+00  0.00000000000E+00  0.99999998245E-14  0.12500000000E+03  0.12500000000E+03 0.  0.
        -13    1    1    0    0    0  0.22407633170E+02 -0.10063472375E+02  0.56045631903E+01  0.25195193849E+02  0.10566000000E+00 0.  1.
         13    1    1    0    0    0  0.33480087722E+02 -0.12835174596E+02  0.10380042365E+02  0.37328466675E+02  0.10566000000E+00 0. -1.
         22    1    1    0    0    0 -0.55887720892E+02  0.22898646971E+02 -0.15984605555E+02  0.62476339476E+02  0.00000000000E+00 0. -1.
</event>
<event>
 4    1  0.9957587E-003  0.9118800E+02  0.7818608E-02  0.1130116E+00
         25   -1    0    0    0    0  0.00000000000E+00  0.00000000000E+00  0.99999998245E-14  0.12500000000E+03  0.12500000000E+03 0.  0.
        -13    1    1    0    0    0  0.80952897998E+01 -0.46720018506E+02  0.19123368890E+01  0.47454842140E+02  0.10566000000E+00 0. -1.
         13    1    1    0    0    0  0.26660301429E+01 -0.14798620764E+02  0.50386489553E+00  0.15045661737E+02  0.10566000000E+00 0. -1.
         22    1    1    0    0    0 -0.10761319943E+02  0.61518639270E+02 -0.24162017845E+01  0.62499496123E+02  0.00000000000E+00 0. -1.
</event>
<event>
 4    1  0.9957587E-003  0.9118800E+02  0.7818608E-02  0.1130116E+00
         25   -1    0    0    0    0  0.00000000000E+00  0.00000000000E+00  0.99999998245E-14  0.12500000000E+03  0.12500000000E+03 0.  0.
        -13    1    1    0    0    0 -0.17220125018E+02 -0.39104256216E+02  0.38142176554E+02  0.57275757142E+02  0.10566000000E+00 0. -1.
         13    1    1    0    0    0 -0.35903372639E+01 -0.43819449798E+01  0.83805050957E+00  0.57276047496E+01  0.10566000000E+00 0.  1.
         22    1    1    0    0    0  0.20810462282E+02  0.43486201196E+02 -0.38980227064E+02  0.61996638109E+02  0.00000000000E+00 0. -1.
</event>
<event>
 4    1  0.9957587E-003  0.9118800E+02  0.7818608E-02  0.1130116E+00
         25   -1    0    0    0    0  0.00000000000E+00  0.00000000000E+00  0.99999998245E-14  0.12500000000E+03  0.12500000000E+03 0.  0.
        -13    1    1    0    0    0  0.46243560109E+01  0.87865530922E+01  0.18574438406E+02  0.21062030051E+02  0.10566000000E+00 0. -1.
         13    1    1    0    0    0  0.90755247443E+01  0.17478255143E+02  0.36459068393E+02  0.41438259910E+02  0.10566000000E+00 0. -1.
         22    1    1    0    0    0 -0.13699880755E+02 -0.26264808235E+02 -0.55033506799E+02  0.62499710039E+02  0.00000000000E+00 0. -1.
</event>
<event>
 4    1  0.9957587E-003  0.9118800E+02  0.7818608E-02  0.1130116E+00
         25   -1    0    0    0    0  0.00000000000E+00  0.00000000000E+00  0.99999998245E-14  0.12500000000E+03  0.12500000000E+03 0.  0.
        -13    1    1    0    0    0 -0.25029859786E+02 -0.29645924031E+01 -0.11506674120E+02  0.27707352857E+02  0.10566000000E+00 0.  1.
         13    1    1    0    0    0 -0.30445198840E+02 -0.58271979666E+01 -0.15852353814E+02  0.34816298683E+02  0.10566000000E+00 0. -1.
         22    1    1    0    0    0  0.55475058625E+02  0.87917903697E+01  0.27359027934E+02  0.62476348460E+02  0.00000000000E+00 0.  1.
</event>
<event>
 4    1  0.9957587E-003  0.9118800E+02  0.7818608E-02  0.1130116E+00
         25   -1    0    0    0    0  0.00000000000E+00  0.00000000000E+00  0.99999998245E-14  0.12500000000E+03  0.12500000000E+03 0.  0.
        -13    1    1    0    0    0 -0.24255470080E+01  0.67439866059E+01 -0.20896549907E+02  0.22091663489E+02  0.10566000000E+00 0.  1.
         13    1    1    0    0    0  0.36481693778E+01  0.28757469077E+02 -0.29429272272E+02  0.41308526941E+02  0.10566000000E+00 0. -1.
         22    1    1    0    0    0 -0.12226223697E+01 -0.35501455683E+02  0.50325822179E+02  0.61599809570E+02  0.00000000000E+00 0.  1.
</event>
<event>
 4    1  0.9957587E-003  0.9118800E+02  0.7818608E-02  0.1130116E+00
         25   -1    0    0    0    0  0.00000000000E+00  0.00000000000E+00  0.99999998245E-14  0.12500000000E+03  0.12500000000E+03 0.  0.
        -13    1    1    0    0    0 -0.20629029165E+02  0.11600106849E+02 -0.11870981341E+02  0.26477361750E+02  0.10566000000E+00 0. -1.
         13    1    1    0    0    0 -0.21795958814E+02  0.20868197334E+02 -0.20106026921E+02  0.36260294582E+02  0.10566000000E+00 0.  1.
         22    1    1    0    0    0  0.42424987980E+02 -0.32468304182E+02  0.31977008263E+02  0.62262343668E+02  0.00000000000E+00 0.  1.
</event>
<event>
 4    1  0.9957587E-003  0.9118800E+02  0.7818608E-02  0.1130116E+00
         25   -1    0    0    0    0  0.00000000000E+00  0.00000000000E+00  0.99999998245E-14  0.12500000000E+03  0.12500000000E+03 0.  0.
        -13    1    1    0    0    0 -0.34792621603E+02 -0.23123014880E+02 -0.19252918378E+02  0.45998764824E+02  0.10566000000E+00 0.  1.
         13    1    1    0    0    0 -0.13098775201E+02 -0.93241934155E+01 -0.41383008522E+01  0.16602866999E+02  0.10566000000E+00 0. -1.
         22    1    1    0    0    0  0.47891396805E+02  0.32447208295E+02  0.23391219231E+02  0.62398368177E+02  0.00000000000E+00 0.  1.
</event>
<event>
 4    1  0.9957587E-003  0.9118800E+02  0.7818608E-02  0.1130116E+00
         25   -1    0    0    0    0  0.00000000000E+00  0.00000000000E+00  0.99999998245E-14  0.12500000000E+03  0.12500000000E+03 0.  0.
        -13    1    1    0    0    0 -0.59242873301E+00 -0.55535124683E+01  0.25455187761E+02  0.26060894469E+02  0.10566000000E+00 0. -1.
         13    1    1    0    0    0 -0.76722226609E+00 -0.75943704198E+01  0.35630811229E+02  0.36439387549E+02  0.10566000000E+00 0.  1.
         22    1    1    0    0    0  0.13596509991E+01  0.13147882888E+02 -0.61085998990E+02  0.62499717982E+02  0.00000000000E+00 0. -1.
</event>
<event>
 4    1  0.9957587E-003  0.9118800E+02  0.7818608E-02  0.1130116E+00
         25   -1    0    0    0    0  0.00000000000E+00  0.00000000000E+00  0.99999998245E-14  0.12500000000E+03  0.12500000000E+03 0.  0.
        -13    1    1    0    0    0 -0.65588470728E+01  0.20190655436E+02  0.23362698288E+02  0.31567513002E+02  0.10566000000E+00 0.  1.
         13    1    1    0    0    0 -0.68389666284E+01  0.20046185032E+02  0.22545250241E+02  0.30934131172E+02  0.10566000000E+00 0. -1.
         22    1    1    0    0    0  0.13397813701E+02 -0.40236840468E+02 -0.45907948528E+02  0.62498355826E+02  0.00000000000E+00 0. -1.
</event>
<event>
 4    1  0.9957587E-003  0.9118800E+02  0.7818608E-02  0.1130116E+00
         25   -1    0    0    0    0  0.00000000000E+00  0.00000000000E+00  0.99999998245E-14  0.12500000000E+03  0.12500000000E+03 0.  0.
        -13    1    1    0    0    0 -0.78775087098E+01 -0.78312320637E+01 -0.10504670838E+02  0.15288643254E+02  0.10566000000E+00 0.  1.
         13    1    1    0    0    0 -0.24193002895E+02 -0.24089302754E+02 -0.32608813859E+02  0.47211670184E+02  0.10566000000E+00 0.  1.
         22    1    1    0    0    0  0.32070511605E+02  0.31920534817E+02  0.43113484696E+02  0.62499686562E+02  0.00000000000E+00 0.  1.
</event>
<event>
 4    1  0.9957587E-003  0.9118800E+02  0.7818608E-02  0.1130116E+00
         25   -1    0    0    0    0  0.00000000000E+00  0.00000000000E+00  0.99999998245E-14  0.12500000000E+03  0.12500000000E+03 0.  0.
        -13    1    1    0    0    0  0.11645649698E+01 -0.20027979640E+01  0.19443209502E+02  0.19581036005E+02  0.10566000000E+00 0. -1.
         13    1    1    0    0    0 -0.15698851739E+02  0.93890174327E+01  0.39891234933E+02  0.43885411959E+02  0.10566000000E+00 0.  1.
         22    1    1    0    0    0  0.14534286770E+02 -0.73862194686E+01 -0.59334444434E+02  0.61533552037E+02  0.00000000000E+00 0.  1.
</event>
<event>
 4    1  0.9957587E-003  0.9118800E+02  0.7818608E-02  0.1130116E+00
         25   -1    0    0    0    0  0.00000000000E+00  0.00000000000E+00  0.99999998245E-14  0.12500000000E+03  0.12500000000E+03 0.  0.
        -13    1    1    0    0    0 -0.11390386389E+01 -0.80942156761E+00 -0.70582591114E+00  0.15690527549E+01  0.10566000000E+00 0. -1.
         13    1    1    0    0    0  0.32663178181E+02 -0.44009159723E+02 -0.28030380333E+02  0.61558124842E+02  0.10566000000E+00 0.  1.
         22    1    1    0    0    0 -0.31524139542E+02  0.44818581291E+02  0.28736206244E+02  0.61872822403E+02  0.00000000000E+00 0.  1.
</event>
<event>
 4    1  0.9957587E-003  0.9118800E+02  0.7818608E-02  0.1130116E+00
         25   -1    0    0    0    0  0.00000000000E+00  0.00000000000E+00  0.99999998245E-14  0.12500000000E+03  0.12500000000E+03 0.  0.
        -13    1    1    0    0    0 -0.18309035920E+02  0.34927256229E+01  0.37548618562E+01  0.19013944362E+02  0.10566000000E+00 0.  1.
         13    1    1    0    0    0 -0.41850753844E+02  0.88400636052E+01  0.78489107504E+01  0.43488491419E+02  0.10566000000E+00 0. -1.
         22    1    1    0    0    0  0.60159789764E+02 -0.12332789228E+02 -0.11603772607E+02  0.62497564219E+02  0.00000000000E+00 0. -1.
</event>
<event>
 4    1  0.9957587E-003  0.9118800E+02  0.7818608E-02  0.1130116E+00
         25   -1    0    0    0    0  0.00000000000E+00  0.00000000000E+00  0.99999998245E-14  0.12500000000E+03  0.12500000000E+03 0.  0.
        -13    1    1    0    0    0 -0.72642742709E+01  0.44891941699E+02  0.30823074525E+02  0.54937502650E+02  0.10566000000E+00 0.  1.
         13    1    1    0    0    0 -0.14325700198E+01  0.63713383381E+01  0.38355914984E+01  0.75742415632E+01  0.10566000000E+00 0. -1.
         22    1    1    0    0    0  0.86968442908E+01 -0.51263280037E+02 -0.34658666024E+02  0.62488255787E+02  0.00000000000E+00 0.  1.
</event>
<event>
 4    1  0.9957587E-003  0.9118800E+02  0.7818608E-02  0.1130116E+00
         25   -1    0    0    0    0  0.00000000000E+00  0.00000000000E+00  0.99999998245E-14  0.12500000000E+03  0.12500000000E+03 0.  0.
        -13    1    1    0    0    0  0.25189031192E+02  0.21303569193E+02  0.96463985881E+01  0.34371405594E+02  0.10566000000E+00 0.  1.
         13    1    1    0    0    0  0.19251576501E+02  0.19039064408E+02  0.77030271424E+01  0.28150612116E+02  0.10566000000E+00 0. -1.
         22    1    1    0    0    0 -0.44440607692E+02 -0.40342633601E+02 -0.17349425730E+02  0.62477982291E+02  0.00000000000E+00 0.  1.
</event>
<event>
 4    1  0.9957587E-003  0.9118800E+02  0.7818608E-02  0.1130116E+00
         25   -1    0    0    0    0  0.00000000000E+00  0.00000000000E+00  0.99999998245E-14  0.12500000000E+03  0.12500000000E+03 0.  0.
        -13    1    1    0    0    0 -0.66081317340E+01 -0.34599282694E+02 -0.69115500618E+01  0.35896496434E+02  0.10566000000E+00 0. -1.
         13    1    1    0    0    0 -0.52256073898E+01 -0.25617504138E+02 -0.49218000495E+01  0.26604487791E+02  0.10566000000E+00 0.  1.
         22    1    1    0    0    0  0.11833739124E+02  0.60216786832E+02  0.11833350111E+02  0.62499015775E+02  0.00000000000E+00 0.  1.
</event>
<event>
 4    1  0.9957587E-003  0.9118800E+02  0.7818608E-02  0.1130116E+00
         25   -1    0    0    0    0  0.00000000000E+00  0.00000000000E+00  0.99999998245E-14  0.12500000000E+03  0.12500000000E+03 0.  0.
        -13    1    1    0    0    0 -0.50380006889E+02  0.10773972328E+02  0.24950051249E+02  0.57242814355E+02  0.10566000000E+00 0.  1.
         13    1    1    0    0    0 -0.45088059751E+01  0.88731424225E+00  0.25614130824E+01  0.52620014158E+01  0.10566000000E+00 0. -1.
         22    1    1    0    0    0  0.54888812865E+02 -0.11661286571E+02 -0.27511464332E+02  0.62495184229E+02  0.00000000000E+00 0.  1.
</event>
<event>
 4    1  0.9957587E-003  0.9118800E+02  0.7818608E-02  0.1130116E+00
         25   -1    0    0    0    0  0.00000000000E+00  0.00000000000E+00  0.99999998245E-14  0.12500000000E+03  0.12500000000E+03 0.  0.
        -13    1    1    0    0    0  0.77606694090E+01  0.45200698365E+01  0.19734100954E+02  0.21681903180E+02  0.10566000000E+00 0. -1.
         13    1    1    0    0    0  0.14591065965E+02  0.90254322069E+01  0.37037991199E+02  0.40818887646E+02  0.10566000000E+00 0. -1.
         22    1    1    0    0    0 -0.22351735374E+02 -0.13545502043E+02 -0.56772092154E+02  0.62499209174E+02  0.00000000000E+00 0. -1.
</event>
<event>
 4    1  0.9957587E-003  0.9118800E+02  0.7818608E-02  0.1130116E+00
         25   -1    0    0    0    0  0.00000000000E+00  0.00000000000E+00  0.99999998245E-14  0.12500000000E+03  0.12500000000E+03 0.  0.
        -13    1    1    0    0    0  0.32162973296E+01 -0.56648781080E+02 -0.18142980134E+01  0.56769109625E+02  0.10566000000E+00 0.  1.
         13    1    1    0    0    0  0.16228441838E+00 -0.57275555689E+01 -0.14036866943E+00  0.57325471151E+01  0.10566000000E+00 0. -1.
         22    1    1    0    0    0 -0.33785817480E+01  0.62376336649E+02  0.19546666828E+01  0.62498343260E+02  0.00000000000E+00 0.  1.
</event>
<event>
 4    1  0.9957587E-003  0.9118800E+02  0.7818608E-02  0.1130116E+00
         25   -1    0    0    0    0  0.00000000000E+00  0.00000000000E+00  0.99999998245E-14  0.12500000000E+03  0.12500000000E+03 0.  0.
        -13    1    1    0    0    0  0.32275187399E+01 -0.35555508758E+00  0.27873387550E+01  0.42806212175E+01  0.10566000000E+00 0.  1.
         13    1    1    0    0    0  0.39883058788E+02  0.53124571869E+00  0.42436611429E+02  0.58239314504E+02  0.10566000000E+00 0. -1.
         22    1    1    0    0    0 -0.43110577528E+02 -0.17569063111E+00 -0.45223950184E+02  0.62480064278E+02  0.00000000000E+00 0. -1.
</event>
<event>
 4    1  0.9957587E-003  0.9118800E+02  0.7818608E-02  0.1130116E+00
         25   -1    0    0    0    0  0.00000000000E+00  0.00000000000E+00  0.99999998245E-14  0.12500000000E+03  0.12500000000E+03 0.  0.
        -13    1    1    0    0    0  0.15517503649E+02 -0.24798688016E+01  0.97228694228E+01  0.18479394542E+02  0.10566000000E+00 0. -1.
         13    1    1    0    0    0  0.36812031234E+02 -0.70779881894E+01  0.23082565083E+02  0.44023170436E+02  0.10566000000E+00 0.  1.
         22    1    1    0    0    0 -0.52329534883E+02  0.95578569911E+01 -0.32805434505E+02  0.62497435023E+02  0.00000000000E+00 0.  1.
</event>
<event>
 4    1  0.9957587E-003  0.9118800E+02  0.7818608E-02  0.1130116E+00
         25   -1    0    0    0    0  0.00000000000E+00  0.00000000000E+00  0.99999998245E-14  0.12500000000E+03  0.12500000000E+03 0.  0.
        -13    1    1    0    0    0  0.20838739723E+01  0.26920112421E+01 -0.99439580352E+00  0.35481604121E+01  0.10566000000E+00 0.  1.
         13    1    1    0    0    0  0.35612542546E+02  0.44535585819E+02 -0.14961047041E+02  0.58953504420E+02  0.10566000000E+00 0.  1.
         22    1    1    0    0    0 -0.37696416518E+02 -0.47227597061E+02  0.15955442844E+02  0.62498335168E+02  0.00000000000E+00 0.  1.
</event>
<event>
 4    1  0.9957587E-003  0.9118800E+02  0.7818608E-02  0.1130116E+00
         25   -1    0    0    0    0  0.00000000000E+00  0.00000000000E+00  0.99999998245E-14  0.12500000000E+03  0.12500000000E+03 0.  0.
        -13    1    1    0    0    0  0.21415914506E+02 -0.27818406896E+02 -0.11952255629E+02  0.37086018052E+02  0.10566000000E+00 0. -1.
         13    1    1    0    0    0  0.14730474627E+02 -0.19035923863E+02 -0.81557899440E+01  0.25414195909E+02  0.10566000000E+00 0. -1.
         22    1    1    0    0    0 -0.36146389132E+02  0.46854330759E+02  0.20108045573E+02  0.62499786039E+02  0.00000000000E+00 0. -1.
</event>
<event>
 4    1  0.9957587E-003  0.9118800E+02  0.7818608E-02  0.1130116E+00
         25   -1    0    0    0    0  0.00000000000E+00  0.00000000000E+00  0.99999998245E-14  0.12500000000E+03  0.12500000000E+03 0.  0.
        -13    1    1    0    0    0  0.67621258399E+01  0.31922344297E+02 -0.38792443104E+02  0.50691490581E+02  0.10566000000E+00 0.  1.
         13    1    1    0    0    0  0.15006582466E+01  0.75309045581E+01 -0.89709393359E+01  0.11809124237E+02  0.10566000000E+00 0.  1.
         22    1    1    0    0    0 -0.82627840865E+01 -0.39453248855E+02  0.47763382440E+02  0.62499385182E+02  0.00000000000E+00 0.  1.
</event>
<event>
 4    1  0.9957587E-003  0.9118800E+02  0.7818608E-02  0.1130116E+00
         25   -1    0    0    0    0  0.00000000000E+00  0.00000000000E+00  0.99999998245E-14  0.12500000000E+03  0.12500000000E+03 0.  0.
        -13    1    1    0    0    0  0.42512427727E+02  0.55073402150E+01 -0.23003661076E+02  0.48649942389E+02  0.10566000000E+00 0. -1.
         13    1    1    0    0    0  0.12209698592E+02  0.69458749879E+00 -0.65239935763E+01  0.13861199360E+02  0.10566000000E+00 0.  1.
         22    1    1    0    0    0 -0.54722126319E+02 -0.62019277138E+01  0.29527654652E+02  0.62488858251E+02  0.00000000000E+00 0.  1.
</event>
<event>
 4    1  0.9957587E-003  0.9118800E+02  0.7818608E-02  0.1130116E+00
         25   -1    0    0    0    0  0.00000000000E+00  0.00000000000E+00  0.99999998245E-14  0.12500000000E+03  0.12500000000E+03 0.  0.
        -13    1    1    0    0    0 -0.13122809680E+02  0.78722536333E+01  0.61132617188E+01  0.16479188210E+02  0.10566000000E+00 0. -1.
         13    1    1    0    0    0 -0.30903278172E+02  0.33913647884E+02  0.70238681330E+01  0.46416527252E+02  0.10566000000E+00 0.  1.
         22    1    1    0    0    0  0.44026087853E+02 -0.41785901517E+02 -0.13137129852E+02  0.62104284538E+02  0.00000000000E+00 0. -1.
</event>
<event>
 4    1  0.9957587E-003  0.9118800E+02  0.7818608E-02  0.1130116E+00
         25   -1    0    0    0    0  0.00000000000E+00  0.00000000000E+00  0.99999998245E-14  0.12500000000E+03  0.12500000000E+03 0.  0.
        -13    1    1    0    0    0  0.31016922689E+02 -0.17466095597E+02 -0.20621421090E+02  0.41138402500E+02  0.10566000000E+00 0. -1.
         13    1    1    0    0    0  0.18803125520E+02 -0.67664990338E+01 -0.79741718553E+01  0.21516078158E+02  0.10566000000E+00 0.  1.
         22    1    1    0    0    0 -0.49820048209E+02  0.24232594631E+02  0.28595592945E+02  0.62345519341E+02  0.00000000000E+00 0.  1.
</event>
<event>
 4    1  0.9957587E-003  0.9118800E+02  0.7818608E-02  0.1130116E+00
         25   -1    0    0    0    0  0.00000000000E+00  0.00000000000E+00  0.99999998245E-14  0.12500000000E+03  0.12500000000E+03 0.  0.
        -13    1    1    0    0    0  0.20483909803E+02 -0.28031733644E+02  0.18674141481E+02  0.39422117852E+02  0.10566000000E+00 0.  1.
         13    1    1    0    0    0  0.11895901902E+02 -0.16581881379E+02  0.10776589005E+02  0.23078503130E+02  0.10566000000E+00 0.  1.
         22    1    1    0    0    0 -0.32379811704E+02  0.44613615022E+02 -0.29450730486E+02  0.62499379017E+02  0.00000000000E+00 0.  1.
</event>
<event>
 4    1  0.9957587E-003  0.9118800E+02  0.7818608E-02  0.1130116E+00
         25   -1    0    0    0    0  0.00000000000E+00  0.00000000000E+00  0.99999998245E-14  0.12500000000E+03  0.12500000000E+03 0.  0.
        -13    1    1    0    0    0 -0.29436439884E+02 -0.25768359114E+02  0.35847020476E+02  0.53061590303E+02  0.10566000000E+00 0. -1.
         13    1    1    0    0    0  0.10875259169E+01 -0.76551869722E+01  0.71573009937E+01  0.10536732024E+02  0.10566000000E+00 0.  1.
         22    1    1    0    0    0  0.28348913967E+02  0.33423546086E+02 -0.43004321469E+02  0.61401677673E+02  0.00000000000E+00 0. -1.
</event>
<event>
 4    1  0.9957587E-003  0.9118800E+02  0.7818608E-02  0.1130116E+00
         25   -1    0    0    0    0  0.00000000000E+00  0.00000000000E+00  0.99999998245E-14  0.12500000000E+03  0.12500000000E+03 0.  0.
        -13    1    1    0    0    0  0.41983405200E+02  0.19272073200E+02  0.10285888353E+02  0.47326839962E+02  0.10566000000E+00 0. -1.
         13    1    1    0    0    0 -0.22925315056E+02  0.14209274737E+02  0.15694736694E+02  0.31205920639E+02  0.10566000000E+00 0.  1.
         22    1    1    0    0    0 -0.19058090144E+02 -0.33481347937E+02 -0.25980625046E+02  0.46467239399E+02  0.00000000000E+00 0. -1.
</event>
<event>
 4    1  0.9957587E-003  0.9118800E+02  0.7818608E-02  0.1130116E+00
         25   -1    0    0    0    0  0.00000000000E+00  0.00000000000E+00  0.99999998245E-14  0.12500000000E+03  0.12500000000E+03 0.  0.
        -13    1    1    0    0    0  0.43351671040E+01 -0.38448855766E+01  0.28070678359E+00  0.58023080969E+01  0.10566000000E+00 0.  1.
         13    1    1    0    0    0  0.44195275727E+02 -0.35417568742E+02  0.27243290059E+01  0.56701496494E+02  0.10566000000E+00 0. -1.
         22    1    1    0    0    0 -0.48530442831E+02  0.39262454318E+02 -0.30050357894E+01  0.62496195409E+02  0.00000000000E+00 0. -1.
</event>
<event>
 4    1  0.9957587E-003  0.9118800E+02  0.7818608E-02  0.1130116E+00
         25   -1    0    0    0    0  0.00000000000E+00  0.00000000000E+00  0.99999998245E-14  0.12500000000E+03  0.12500000000E+03 0.  0.
        -13    1    1    0    0    0 -0.16519792235E+02  0.24307749084E+02  0.10921322178E+02  0.31353734118E+02  0.10566000000E+00 0. -1.
         13    1    1    0    0    0  0.13276794484E+02  0.23990465291E+02 -0.30870813593E+02  0.41289635414E+02  0.10566000000E+00 0.  1.
         22    1    1    0    0    0  0.32429977504E+01 -0.48298214375E+02  0.19949491415E+02  0.52356630468E+02  0.00000000000E+00 0.  1.
</event>
<event>
 4    1  0.9957587E-003  0.9118800E+02  0.7818608E-02  0.1130116E+00
         25   -1    0    0    0    0  0.00000000000E+00  0.00000000000E+00  0.99999998245E-14  0.12500000000E+03  0.12500000000E+03 0.  0.
        -13    1    1    0    0    0 -0.53141982390E+01 -0.23755561330E+02 -0.37703223688E+02  0.44878855127E+02  0.10566000000E+00 0.  1.
         13    1    1    0    0    0 -0.22384789813E+01 -0.97146508234E+01 -0.14532880450E+02  0.17623876049E+02  0.10566000000E+00 0. -1.
         22    1    1    0    0    0  0.75526772203E+01  0.33470212153E+02  0.52236104139E+02  0.62497268823E+02  0.00000000000E+00 0.  1.
</event>
<event>
 4    1  0.9957587E-003  0.9118800E+02  0.7818608E-02  0.1130116E+00
         25   -1    0    0    0    0  0.00000000000E+00  0.00000000000E+00  0.99999998245E-14  0.12500000000E+03  0.12500000000E+03 0.  0.
        -13    1    1    0    0    0  0.76862821096E+01  0.19667139846E+02  0.94580033222E+01  0.23137422356E+02  0.10566000000E+00 0. -1.
         13    1    1    0    0    0  0.21599705210E+02 -0.38407284229E+02 -0.36975023336E+02  0.57522432683E+02  0.10566000000E+00 0.  1.
         22    1    1    0    0    0 -0.29285987320E+02  0.18740144383E+02  0.27517020014E+02  0.44340144962E+02  0.00000000000E+00 0.  1.
</event>
<event>
 4    1  0.9957587E-003  0.9118800E+02  0.7818608E-02  0.1130116E+00
         25   -1    0    0    0    0  0.00000000000E+00  0.00000000000E+00  0.99999998245E-14  0.12500000000E+03  0.12500000000E+03 0.  0.
        -13    1    1    0    0    0 -0.40810009949E+02  0.65067913459E+01  0.11972702969E+02  0.43025016282E+02  0.10566000000E+00 0.  1.
         13    1    1    0    0    0 -0.52568814892E+01  0.24801657470E+02 -0.24943837791E+01  0.25475284703E+02  0.10566000000E+00 0. -1.
         22    1    1    0    0    0  0.46066891438E+02 -0.31308448816E+02 -0.94783191902E+01  0.56499699014E+02  0.00000000000E+00 0.  1.
</event>
<event>
 4    1  0.9957587E-003  0.9118800E+02  0.7818608E-02  0.1130116E+00
         25   -1    0    0    0    0  0.00000000000E+00  0.00000000000E+00  0.99999998245E-14  0.12500000000E+03  0.12500000000E+03 0.  0.
        -13    1    1    0    0    0  0.30961112506E+02 -0.12484721931E+02  0.19243545126E+02  0.38532894550E+02  0.10566000000E+00 0.  1.
         13    1    1    0    0    0  0.18898456596E+02 -0.78790024754E+01  0.12462276465E+02  0.23969769303E+02  0.10566000000E+00 0. -1.
         22    1    1    0    0    0 -0.49859569102E+02  0.20363724407E+02 -0.31705821592E+02  0.62497336147E+02  0.00000000000E+00 0.  1.
</event>
<event>
 4    1  0.9957587E-003  0.9118800E+02  0.7818608E-02  0.1130116E+00
         25   -1    0    0    0    0  0.00000000000E+00  0.00000000000E+00  0.99999998245E-14  0.12500000000E+03  0.12500000000E+03 0.  0.
        -13    1    1    0    0    0 -0.50364063412E+02  0.96947472339E+01  0.26548700995E+02  0.57752676958E+02  0.10566000000E+00 0. -1.
         13    1    1    0    0    0 -0.82768557036E+00  0.75696291023E+01 -0.18079967130E+01  0.78271555689E+01  0.10566000000E+00 0.  1.
         22    1    1    0    0    0  0.51191748982E+02 -0.17264376336E+02 -0.24740704282E+02  0.59420167473E+02  0.00000000000E+00 0. -1.
</event>
<event>
 4    1  0.9957587E-003  0.9118800E+02  0.7818608E-02  0.1130116E+00
         25   -1    0    0    0    0  0.00000000000E+00  0.00000000000E+00  0.99999998245E-14  0.12500000000E+03  0.12500000000E+03 0.  0.
        -13    1    1    0    0    0 -0.90921823513E+00  0.24137909982E+02 -0.48750900626E+02  0.54407047815E+02  0.10566000000E+00 0. -1.
         13    1    1    0    0    0 -0.11582377030E+02 -0.45980964443E+01 -0.39020948283E+01  0.13058769339E+02  0.10566000000E+00 0.  1.
         22    1    1    0    0    0  0.12491595265E+02 -0.19539813538E+02  0.52652995454E+02  0.57534182845E+02  0.00000000000E+00 0. -1.
</event>
<event>
 4    1  0.9957587E-003  0.9118800E+02  0.7818608E-02  0.1130116E+00
         25   -1    0    0    0    0  0.00000000000E+00  0.00000000000E+00  0.99999998245E-14  0.12500000000E+03  0.12500000000E+03 0.  0.
        -13    1    1    0    0    0  0.18643918562E+02  0.76038155025E+01  0.56254771657E+02  0.59749679562E+02  0.10566000000E+00 0.  1.
         13    1    1    0    0    0 -0.17444498606E+01 -0.56903167787E+00  0.28414039139E+01  0.33840275714E+01  0.10566000000E+00 0. -1.
         22    1    1    0    0    0 -0.16899468701E+02 -0.70347838247E+01 -0.59096175571E+02  0.61866292866E+02  0.00000000000E+00 0.  1.
</event>
<event>
 4    1  0.9957587E-003  0.9118800E+02  0.7818608E-02  0.1130116E+00
         25   -1    0    0    0    0  0.00000000000E+00  0.00000000000E+00  0.99999998245E-14  0.12500000000E+03  0.12500000000E+03 0.  0.
        -13    1    1    0    0    0 -0.34445767441E+02 -0.11558225011E+02  0.38177753569E+01  0.36533409815E+02  0.10566000000E+00 0. -1.
         13    1    1    0    0    0 -0.24218272217E+02 -0.78576790338E+01  0.52910182826E+01  0.26005266149E+02  0.10566000000E+00 0.  1.
         22    1    1    0    0    0  0.58664039657E+02  0.19415904045E+02 -0.91087936396E+01  0.62461324036E+02  0.00000000000E+00 0.  1.
</event>
<event>
 4    1  0.9957587E-003  0.9118800E+02  0.7818608E-02  0.1130116E+00
         25   -1    0    0    0    0  0.00000000000E+00  0.00000000000E+00  0.99999998245E-14  0.12500000000E+03  0.12500000000E+03 0.  0.
        -13    1    1    0    0    0  0.57592270992E+01  0.14703240882E+02 -0.17105239846E+02  0.23279913733E+02  0.10566000000E+00 0.  1.
         13    1    1    0    0    0  0.37818469526E+01  0.28151825772E+02 -0.27212859665E+02  0.39336732908E+02  0.10566000000E+00 0. -1.
         22    1    1    0    0    0 -0.95410740518E+01 -0.42855066654E+02  0.44318099511E+02  0.62383353359E+02  0.00000000000E+00 0.  1.
</event>
<event>
 4    1  0.9957587E-003  0.9118800E+02  0.7818608E-02  0.1130116E+00
         25   -1    0    0    0    0  0.00000000000E+00  0.00000000000E+00  0.99999998245E-14  0.12500000000E+03  0.12500000000E+03 0.  0.
        -13    1    1    0    0    0 -0.15433105299E+01 -0.24923913071E+01  0.16740914219E+01  0.33775091331E+01  0.10566000000E+00 0.  1.
         13    1    1    0    0    0 -0.28014973006E+02 -0.43481084277E+02  0.28638387505E+02  0.59123699186E+02  0.10566000000E+00 0.  1.
         22    1    1    0    0    0  0.29558283536E+02  0.45973475585E+02 -0.30312478927E+02  0.62498791681E+02  0.00000000000E+00 0.  1.
</event>
<event>
 4    1  0.9957587E-003  0.9118800E+02  0.7818608E-02  0.1130116E+00
         25   -1    0    0    0    0  0.00000000000E+00  0.00000000000E+00  0.99999998245E-14  0.12500000000E+03  0.12500000000E+03 0.  0.
        -13    1    1    0    0    0 -0.52124116392E+01  0.18922364798E+02 -0.23775486420E+02  0.30830342897E+02  0.10566000000E+00 0.  1.
         13    1    1    0    0    0 -0.53741488059E+01  0.19337444534E+02 -0.24498021563E+02  0.31669898342E+02  0.10566000000E+00 0.  1.
         22    1    1    0    0    0  0.10586560445E+02 -0.38259809332E+02  0.48273507982E+02  0.62499758760E+02  0.00000000000E+00 0.  1.
</event>
<event>
 4    1  0.9957587E-003  0.9118800E+02  0.7818608E-02  0.1130116E+00
         25   -1    0    0    0    0  0.00000000000E+00  0.00000000000E+00  0.99999998245E-14  0.12500000000E+03  0.12500000000E+03 0.  0.
        -13    1    1    0    0    0  0.20803391095E+01  0.81619821657E+01 -0.16572739325E+02  0.18590659388E+02  0.10566000000E+00 0.  1.
         13    1    1    0    0    0  0.32755519550E+01  0.18612129922E+02 -0.39640875178E+02  0.43915268071E+02  0.10566000000E+00 0. -1.
         22    1    1    0    0    0 -0.53558910645E+01 -0.26774112088E+02  0.56213614504E+02  0.62494072541E+02  0.00000000000E+00 0. -1.
</event>
<event>
 4    1  0.9957587E-003  0.9118800E+02  0.7818608E-02  0.1130116E+00
         25   -1    0    0    0    0  0.00000000000E+00  0.00000000000E+00  0.99999998245E-14  0.12500000000E+03  0.12500000000E+03 0.  0.
        -13    1    1    0    0    0  0.34380587734E+02 -0.12415313260E+02 -0.31734143980E+02  0.48406940354E+02  0.10566000000E+00 0. -1.
         13    1    1    0    0    0  0.86229887889E+01  0.10360039041E+01 -0.11599854796E+02  0.14491274446E+02  0.10566000000E+00 0.  1.
         22    1    1    0    0    0 -0.43003576523E+02  0.11379309356E+02  0.43333998775E+02  0.62101785200E+02  0.00000000000E+00 0. -1.
</event>
<event>
 4    1  0.9957587E-003  0.9118800E+02  0.7818608E-02  0.1130116E+00
         25   -1    0    0    0    0  0.00000000000E+00  0.00000000000E+00  0.99999998245E-14  0.12500000000E+03  0.12500000000E+03 0.  0.
        -13    1    1    0    0    0 -0.37489870573E+02  0.55504549792E+01  0.31014837761E+02  0.48971719098E+02  0.10566000000E+00 0.  1.
         13    1    1    0    0    0 -0.11006326306E+02 -0.47462946974E+00  0.79707860903E+01  0.13598128063E+02  0.10566000000E+00 0. -1.
         22    1    1    0    0    0  0.48496196879E+02 -0.50758255095E+01 -0.38985623851E+02  0.62430152838E+02  0.00000000000E+00 0.  1.
</event>
<event>
 4    1  0.9957587E-003  0.9118800E+02  0.7818608E-02  0.1130116E+00
         25   -1    0    0    0    0  0.00000000000E+00  0.00000000000E+00  0.99999998245E-14  0.12500000000E+03  0.12500000000E+03 0.  0.
        -13    1    1    0    0    0 -0.31270990613E+01  0.10018468618E+02 -0.28821861424E+01  0.10884237364E+02  0.10566000000E+00 0. -1.
         13    1    1    0    0    0 -0.21297770760E+02  0.45620103569E+02 -0.11565449615E+02  0.51658103700E+02  0.10566000000E+00 0.  1.
         22    1    1    0    0    0  0.24424869821E+02 -0.55638572187E+02  0.14447635758E+02  0.62457658937E+02  0.00000000000E+00 0. -1.
</event>
<event>
 4    1  0.9957587E-003  0.9118800E+02  0.7818608E-02  0.1130116E+00
         25   -1    0    0    0    0  0.00000000000E+00  0.00000000000E+00  0.99999998245E-14  0.12500000000E+03  0.12500000000E+03 0.  0.
        -13    1    1    0    0    0 -0.17319978700E+01 -0.26538792257E+01 -0.39687637299E+00  0.31955541707E+01  0.10566000000E+00 0.  1.
         13    1    1    0    0    0 -0.28464163961E+02 -0.51999749178E+02 -0.20481075099E+01  0.59316005032E+02  0.10566000000E+00 0. -1.
         22    1    1    0    0    0  0.30196161831E+02  0.54653628404E+02  0.24449838829E+01  0.62488440797E+02  0.00000000000E+00 0. -1.
</event>
<event>
 4    1  0.9957587E-003  0.9118800E+02  0.7818608E-02  0.1130116E+00
         25   -1    0    0    0    0  0.00000000000E+00  0.00000000000E+00  0.99999998245E-14  0.12500000000E+03  0.12500000000E+03 0.  0.
        -13    1    1    0    0    0  0.14591801599E+02  0.43392675155E+01  0.85281502800E+01  0.17449654086E+02  0.10566000000E+00 0. -1.
         13    1    1    0    0    0  0.31451947643E+02 -0.14452063599E+02  0.30665991559E+02  0.46243933171E+02  0.10566000000E+00 0.  1.
         22    1    1    0    0    0 -0.46043749243E+02  0.10112796084E+02 -0.39194141839E+02  0.61306412743E+02  0.00000000000E+00 0.  1.
</event>
<event>
 4    1  0.9957587E-003  0.9118800E+02  0.7818608E-02  0.1130116E+00
         25   -1    0    0    0    0  0.00000000000E+00  0.00000000000E+00  0.99999998245E-14  0.12500000000E+03  0.12500000000E+03 0.  0.
        -13    1    1    0    0    0 -0.18690040457E+02  0.31718265086E+02 -0.23898102220E+02  0.43891871754E+02  0.10566000000E+00 0. -1.
         13    1    1    0    0    0 -0.12367325481E+02  0.99994285654E+01 -0.10221910132E+02  0.18906028720E+02  0.10566000000E+00 0.  1.
         22    1    1    0    0    0  0.31057365938E+02 -0.41717693651E+02  0.34120012351E+02  0.62202099526E+02  0.00000000000E+00 0. -1.
</event>
<event>
 4    1  0.9957587E-003  0.9118800E+02  0.7818608E-02  0.1130116E+00
         25   -1    0    0    0    0  0.00000000000E+00  0.00000000000E+00  0.99999998245E-14  0.12500000000E+03  0.12500000000E+03 0.  0.
        -13    1    1    0    0    0  0.21451064764E+02 -0.45521360597E+02 -0.39571539218E+01  0.50477843469E+02  0.10566000000E+00 0.  1.
         13    1    1    0    0    0  0.38651542369E+01 -0.11367297575E+02 -0.10560217820E+01  0.12053265843E+02  0.10566000000E+00 0.  1.
         22    1    1    0    0    0 -0.25316219001E+02  0.56888658172E+02  0.50131757038E+01  0.62468890688E+02  0.00000000000E+00 0.  1.
</event>
<event>
 4    1  0.9957587E-003  0.9118800E+02  0.7818608E-02  0.1130116E+00
         25   -1    0    0    0    0  0.00000000000E+00  0.00000000000E+00  0.99999998245E-14  0.12500000000E+03  0.12500000000E+03 0.  0.
        -13    1    1    0    0    0  0.10930124432E+00  0.55416900978E+02 -0.20292781187E+02  0.59015701242E+02  0.10566000000E+00 0.  1.
         13    1    1    0    0    0  0.10087776867E+00  0.31604203163E+01 -0.14777246110E+01  0.34918858746E+01  0.10566000000E+00 0. -1.
         22    1    1    0    0    0 -0.21017901299E+00 -0.58577321295E+02  0.21770505798E+02  0.62492412883E+02  0.00000000000E+00 0.  1.
</event>
<event>
 4    1  0.9957587E-003  0.9118800E+02  0.7818608E-02  0.1130116E+00
         25   -1    0    0    0    0  0.00000000000E+00  0.00000000000E+00  0.99999998245E-14  0.12500000000E+03  0.12500000000E+03 0.  0.
        -13    1    1    0    0    0  0.34525454088E+02  0.44149745952E+02  0.18344759986E+01  0.56076586146E+02  0.10566000000E+00 0. -1.
         13    1    1    0    0    0  0.60421853314E+01  0.46221417974E+00 -0.59382254423E+01  0.84850062443E+01  0.10566000000E+00 0.  1.
         22    1    1    0    0    0 -0.40567639420E+02 -0.44611960131E+02  0.41037494437E+01  0.60438407609E+02  0.00000000000E+00 0. -1.
</event>
<event>
 4    1  0.9957587E-003  0.9118800E+02  0.7818608E-02  0.1130116E+00
         25   -1    0    0    0    0  0.00000000000E+00  0.00000000000E+00  0.99999998245E-14  0.12500000000E+03  0.12500000000E+03 0.  0.
        -13    1    1    0    0    0 -0.16195232336E+02  0.25871879498E+02  0.26931378894E+02  0.40705651111E+02  0.10566000000E+00 0. -1.
         13    1    1    0    0    0 -0.11265495441E+02  0.18175159880E+02  0.67434119390E+01  0.22421699151E+02  0.10566000000E+00 0.  1.
         22    1    1    0    0    0  0.27460727776E+02 -0.44047039378E+02 -0.33674790833E+02  0.61872649738E+02  0.00000000000E+00 0. -1.
</event>
<event>
 4    1  0.9957587E-003  0.9118800E+02  0.7818608E-02  0.1130116E+00
         25   -1    0    0    0    0  0.00000000000E+00  0.00000000000E+00  0.99999998245E-14  0.12500000000E+03  0.12500000000E+03 0.  0.
        -13    1    1    0    0    0  0.65521054560E+01 -0.14809247070E+02  0.12450887212E+02  0.20427423751E+02  0.10566000000E+00 0. -1.
         13    1    1    0    0    0  0.20022749723E+02 -0.38962043952E+02 -0.37706595522E+01  0.43967947563E+02  0.10566000000E+00 0.  1.
         22    1    1    0    0    0 -0.26574855179E+02  0.53771291022E+02 -0.86802276598E+01  0.60604628686E+02  0.00000000000E+00 0.  1.
</event>
<event>
 4    1  0.9957587E-003  0.9118800E+02  0.7818608E-02  0.1130116E+00
         25   -1    0    0    0    0  0.00000000000E+00  0.00000000000E+00  0.99999998245E-14  0.12500000000E+03  0.12500000000E+03 0.  0.
        -13    1    1    0    0    0 -0.30091395288E+01 -0.10694794016E+02  0.16555312387E+02  0.19937980640E+02  0.10566000000E+00 0. -1.
         13    1    1    0    0    0 -0.73489704355E+01 -0.22444821291E+02  0.35410669468E+02  0.42564116876E+02  0.10566000000E+00 0.  1.
         22    1    1    0    0    0  0.10358109964E+02  0.33139615307E+02 -0.51965981855E+02  0.62497902484E+02  0.00000000000E+00 0.  1.
</event>
<event>
 4    1  0.9957587E-003  0.9118800E+02  0.7818608E-02  0.1130116E+00
         25   -1    0    0    0    0  0.00000000000E+00  0.00000000000E+00  0.99999998245E-14  0.12500000000E+03  0.12500000000E+03 0.  0.
        -13    1    1    0    0    0  0.31803343480E+01 -0.88595497493E+01 -0.25581845296E+01  0.97550817756E+01  0.10566000000E+00 0. -1.
         13    1    1    0    0    0  0.26728703134E+02 -0.42834078678E+02 -0.15563012565E+02  0.52833705071E+02  0.10566000000E+00 0.  1.
         22    1    1    0    0    0 -0.29909037482E+02  0.51693628427E+02  0.18121197095E+02  0.62411213153E+02  0.00000000000E+00 0.  1.
</event>
<event>
 4    1  0.9957587E-003  0.9118800E+02  0.7818608E-02  0.1130116E+00
         25   -1    0    0    0    0  0.00000000000E+00  0.00000000000E+00  0.99999998245E-14  0.12500000000E+03  0.12500000000E+03 0.  0.
        -13    1    1    0    0    0 -0.44091582306E+02 -0.12133152508E+02 -0.11261621048E+02  0.47096881985E+02  0.10566000000E+00 0.  1.
         13    1    1    0    0    0 -0.13264702201E+02 -0.31191705107E+01 -0.76321788665E+01  0.15618670476E+02  0.10566000000E+00 0. -1.
         22    1    1    0    0    0  0.57356284507E+02  0.15252323019E+02  0.18893799915E+02  0.62284447539E+02  0.00000000000E+00 0.  1.
</event>
<event>
 4    1  0.9957587E-003  0.9118800E+02  0.7818608E-02  0.1130116E+00
         25   -1    0    0    0    0  0.00000000000E+00  0.00000000000E+00  0.99999998245E-14  0.12500000000E+03  0.12500000000E+03 0.  0.
        -13    1    1    0    0    0 -0.90652236628E+01  0.24207426965E+01 -0.26759942654E+02  0.28357432362E+02  0.10566000000E+00 0. -1.
         13    1    1    0    0    0 -0.13849014092E+02  0.18199536973E+01 -0.31194122796E+02  0.34178822153E+02  0.10566000000E+00 0.  1.
         22    1    1    0    0    0  0.22914237755E+02 -0.42406963938E+01  0.57954065450E+02  0.62463745485E+02  0.00000000000E+00 0. -1.
</event>
<event>
 4    1  0.9957587E-003  0.9118800E+02  0.7818608E-02  0.1130116E+00
         25   -1    0    0    0    0  0.00000000000E+00  0.00000000000E+00  0.99999998245E-14  0.12500000000E+03  0.12500000000E+03 0.  0.
        -13    1    1    0    0    0  0.87558537039E+00 -0.35745939044E+02 -0.13327424916E+02  0.38159798569E+02  0.10566000000E+00 0.  1.
         13    1    1    0    0    0  0.60019027914E+00 -0.22936911455E+02 -0.81259082331E+01  0.24341398565E+02  0.10566000000E+00 0.  1.
         22    1    1    0    0    0 -0.14757756495E+01  0.58682850499E+02  0.21453333149E+02  0.62498802866E+02  0.00000000000E+00 0.  1.
</event>
<event>
 4    1  0.9957587E-003  0.9118800E+02  0.7818608E-02  0.1130116E+00
         25   -1    0    0    0    0  0.00000000000E+00  0.00000000000E+00  0.99999998245E-14  0.12500000000E+03  0.12500000000E+03 0.  0.
        -13    1    1    0    0    0  0.92712648134E+00 -0.96160022886E+01  0.15858839469E+02  0.18569895446E+02  0.10566000000E+00 0.  1.
         13    1    1    0    0    0  0.20453849952E+01 -0.22818053801E+02  0.37483578623E+02  0.43930365460E+02  0.10566000000E+00 0.  1.
         22    1    1    0    0    0 -0.29725114765E+01  0.32434056090E+02 -0.53342418092E+02  0.62499739094E+02  0.00000000000E+00 0.  1.
</event>
<event>
 4    1  0.9957587E-003  0.9118800E+02  0.7818608E-02  0.1130116E+00
         25   -1    0    0    0    0  0.00000000000E+00  0.00000000000E+00  0.99999998245E-14  0.12500000000E+03  0.12500000000E+03 0.  0.
        -13    1    1    0    0    0 -0.46378612350E+01  0.38597696340E+02 -0.29036367881E+02  0.48522301505E+02  0.10566000000E+00 0.  1.
         13    1    1    0    0    0 -0.14435694266E+02  0.71260530188E+01 -0.44220352057E+01  0.16695372412E+02  0.10566000000E+00 0. -1.
         22    1    1    0    0    0  0.19073555501E+02 -0.45723749358E+02  0.33458403086E+02  0.59782326083E+02  0.00000000000E+00 0.  1.
</event>
<event>
 4    1  0.9957587E-003  0.9118800E+02  0.7818608E-02  0.1130116E+00
         25   -1    0    0    0    0  0.00000000000E+00  0.00000000000E+00  0.99999998245E-14  0.12500000000E+03  0.12500000000E+03 0.  0.
        -13    1    1    0    0    0 -0.15090691661E+01 -0.78071379061E+00 -0.12548185122E+01  0.21148374181E+01  0.10566000000E+00 0.  1.
         13    1    1    0    0    0 -0.34743049125E+02 -0.32780406625E+02 -0.36985809231E+02  0.60411884340E+02  0.10566000000E+00 0. -1.
         22    1    1    0    0    0  0.36252118291E+02  0.33561120415E+02  0.38240627743E+02  0.62473278242E+02  0.00000000000E+00 0. -1.
</event>
<event>
 4    1  0.9957587E-003  0.9118800E+02  0.7818608E-02  0.1130116E+00
         25   -1    0    0    0    0  0.00000000000E+00  0.00000000000E+00  0.99999998245E-14  0.12500000000E+03  0.12500000000E+03 0.  0.
        -13    1    1    0    0    0  0.18098638785E+02  0.26814713254E+02 -0.25559161808E+02  0.41229497804E+02  0.10566000000E+00 0.  1.
         13    1    1    0    0    0 -0.30871359564E+01  0.11598435731E+02 -0.19366915628E+02  0.22784703308E+02  0.10566000000E+00 0. -1.
         22    1    1    0    0    0 -0.15011502829E+02 -0.38413148986E+02  0.44926077437E+02  0.60985798888E+02  0.00000000000E+00 0.  1.
</event>
<event>
 4    1  0.9957587E-003  0.9118800E+02  0.7818608E-02  0.1130116E+00
         25   -1    0    0    0    0  0.00000000000E+00  0.00000000000E+00  0.99999998245E-14  0.12500000000E+03  0.12500000000E+03 0.  0.
        -13    1    1    0    0    0  0.27522043613E+02  0.37425126824E+02 -0.41571794344E+01  0.46641143933E+02  0.10566000000E+00 0.  1.
         13    1    1    0    0    0  0.94988445718E+01  0.12464672420E+02 -0.25301504779E+01  0.15874789202E+02  0.10566000000E+00 0. -1.
         22    1    1    0    0    0 -0.37020888185E+02 -0.49889799244E+02  0.66873299123E+01  0.62484066865E+02  0.00000000000E+00 0.  1.
</event>
<event>
 4    1  0.9957587E-003  0.9118800E+02  0.7818608E-02  0.1130116E+00
         25   -1    0    0    0    0  0.00000000000E+00  0.00000000000E+00  0.99999998245E-14  0.12500000000E+03  0.12500000000E+03 0.  0.
        -13    1    1    0    0    0 -0.94628943650E+01 -0.13636752986E+02  0.45151596592E+01  0.17201896190E+02  0.10566000000E+00 0. -1.
         13    1    1    0    0    0 -0.42336771375E+02  0.13756891615E+02  0.21945361161E+02  0.49631283662E+02  0.10566000000E+00 0.  1.
         22    1    1    0    0    0  0.51799665740E+02 -0.12013862901E+00 -0.26460520820E+02  0.58166820148E+02  0.00000000000E+00 0.  1.
</event>
<event>
 4    1  0.9957587E-003  0.9118800E+02  0.7818608E-02  0.1130116E+00
         25   -1    0    0    0    0  0.00000000000E+00  0.00000000000E+00  0.99999998245E-14  0.12500000000E+03  0.12500000000E+03 0.  0.
        -13    1    1    0    0    0  0.22813438468E+01  0.84399107142E+00  0.68849380717E+01  0.73027657064E+01  0.10566000000E+00 0.  1.
         13    1    1    0    0    0 -0.25999010046E+01  0.46171399246E+02 -0.39218774345E+02  0.60635641488E+02  0.10566000000E+00 0. -1.
         22    1    1    0    0    0  0.31855715789E+00 -0.47015390317E+02  0.32333836273E+02  0.57061592805E+02  0.00000000000E+00 0. -1.
</event>
<event>
 4    1  0.9957587E-003  0.9118800E+02  0.7818608E-02  0.1130116E+00
         25   -1    0    0    0    0  0.00000000000E+00  0.00000000000E+00  0.99999998245E-14  0.12500000000E+03  0.12500000000E+03 0.  0.
        -13    1    1    0    0    0  0.55748157957E+02 -0.22364279505E+02  0.11518528909E+02  0.61161309548E+02  0.10566000000E+00 0.  1.
         13    1    1    0    0    0  0.12067863216E+01 -0.61175826441E+00 -0.22403612131E-01  0.13572941308E+01  0.10566000000E+00 0. -1.
         22    1    1    0    0    0 -0.56954944279E+02  0.22976037770E+02 -0.11496125297E+02  0.62481396321E+02  0.00000000000E+00 0.  1.
</event>
<event>
 4    1  0.9957587E-003  0.9118800E+02  0.7818608E-02  0.1130116E+00
         25   -1    0    0    0    0  0.00000000000E+00  0.00000000000E+00  0.99999998245E-14  0.12500000000E+03  0.12500000000E+03 0.  0.
        -13    1    1    0    0    0 -0.41561748807E+02  0.17474289213E+02  0.31092170533E+02  0.54767362360E+02  0.10566000000E+00 0.  1.
         13    1    1    0    0    0 -0.90604342690E+01 -0.49513748327E+00 -0.15340995671E+01  0.92033285167E+01  0.10566000000E+00 0. -1.
         22    1    1    0    0    0  0.50622183076E+02 -0.16979151729E+02 -0.29558070966E+02  0.61029309123E+02  0.00000000000E+00 0.  1.
</event>
<event>
 4    1  0.9957587E-003  0.9118800E+02  0.7818608E-02  0.1130116E+00
         25   -1    0    0    0    0  0.00000000000E+00  0.00000000000E+00  0.99999998245E-14  0.12500000000E+03  0.12500000000E+03 0.  0.
        -13    1    1    0    0    0 -0.46973086829E+01  0.16586282539E+01 -0.13014686361E+02  0.13935888263E+02  0.10566000000E+00 0. -1.
         13    1    1    0    0    0 -0.15966740373E+02  0.55394793353E+01 -0.45529025104E+02  0.48564657112E+02  0.10566000000E+00 0. -1.
         22    1    1    0    0    0  0.20664049056E+02 -0.71981075892E+01  0.58543711466E+02  0.62499454625E+02  0.00000000000E+00 0. -1.
</event>
<event>
 4    1  0.9957587E-003  0.9118800E+02  0.7818608E-02  0.1130116E+00
         25   -1    0    0    0    0  0.00000000000E+00  0.00000000000E+00  0.99999998245E-14  0.12500000000E+03  0.12500000000E+03 0.  0.
        -13    1    1    0    0    0  0.29956881370E+02 -0.13608977796E+02 -0.40071335730E+02  0.51849224963E+02  0.10566000000E+00 0.  1.
         13    1    1    0    0    0  0.22507862962E+01 -0.32165742925E+01 -0.10309759255E+02  0.11032438038E+02  0.10566000000E+00 0. -1.
         22    1    1    0    0    0 -0.32207667666E+02  0.16825552088E+02  0.50381094985E+02  0.62118336999E+02  0.00000000000E+00 0.  1.
</event>
<event>
 4    1  0.9957587E-003  0.9118800E+02  0.7818608E-02  0.1130116E+00
         25   -1    0    0    0    0  0.00000000000E+00  0.00000000000E+00  0.99999998245E-14  0.12500000000E+03  0.12500000000E+03 0.  0.
        -13    1    1    0    0    0 -0.14224830344E+01  0.18643862676E+02 -0.66757642158E+01  0.19854321076E+02  0.10566000000E+00 0. -1.
         13    1    1    0    0    0 -0.21121277615E+01  0.40027056185E+02 -0.14566524188E+02  0.42647638874E+02  0.10566000000E+00 0. -1.
         22    1    1    0    0    0  0.35346107959E+01 -0.58670918862E+02  0.21242288404E+02  0.62498040051E+02  0.00000000000E+00 0. -1.
</event>
<event>
 4    1  0.9957587E-003  0.9118800E+02  0.7818608E-02  0.1130116E+00
         25   -1    0    0    0    0  0.00000000000E+00  0.00000000000E+00  0.99999998245E-14  0.12500000000E+03  0.12500000000E+03 0.  0.
        -13    1    1    0    0    0 -0.59568037737E+01 -0.42751054262E+00  0.85378808749E+00  0.60337711753E+01  0.10566000000E+00 0.  1.
         13    1    1    0    0    0 -0.55867104509E+02 -0.44737696824E+01  0.68850649490E+01  0.56467364599E+02  0.10566000000E+00 0.  1.
         22    1    1    0    0    0  0.61823908283E+02  0.49012802251E+01 -0.77388530365E+01  0.62498864226E+02  0.00000000000E+00 0.  1.
</event>
<event>
 4    1  0.9957587E-003  0.9118800E+02  0.7818608E-02  0.1130116E+00
         25   -1    0    0    0    0  0.00000000000E+00  0.00000000000E+00  0.99999998245E-14  0.12500000000E+03  0.12500000000E+03 0.  0.
        -13    1    1    0    0    0  0.38379990540E+01  0.48506452291E+01  0.17932328577E+02  0.18969411380E+02  0.10566000000E+00 0. -1.
         13    1    1    0    0    0  0.89772173567E+01  0.10672858539E+02  0.41236590599E+02  0.43531229125E+02  0.10566000000E+00 0. -1.
         22    1    1    0    0    0 -0.12815216411E+02 -0.15523503768E+02 -0.59168919176E+02  0.62499359495E+02  0.00000000000E+00 0. -1.
</event>
<event>
 4    1  0.9957587E-003  0.9118800E+02  0.7818608E-02  0.1130116E+00
         25   -1    0    0    0    0  0.00000000000E+00  0.00000000000E+00  0.99999998245E-14  0.12500000000E+03  0.12500000000E+03 0.  0.
        -13    1    1    0    0    0 -0.30949586252E+02 -0.14175611183E+02  0.63945439134E+01  0.34637063926E+02  0.10566000000E+00 0. -1.
         13    1    1    0    0    0 -0.24914934023E+02 -0.11368971613E+02  0.51317756044E+01  0.27863125055E+02  0.10566000000E+00 0. -1.
         22    1    1    0    0    0  0.55864520275E+02  0.25544582796E+02 -0.11526319518E+02  0.62499811019E+02  0.00000000000E+00 0. -1.
</event>
<event>
 4    1  0.9957587E-003  0.9118800E+02  0.7818608E-02  0.1130116E+00
         25   -1    0    0    0    0  0.00000000000E+00  0.00000000000E+00  0.99999998245E-14  0.12500000000E+03  0.12500000000E+03 0.  0.
        -13    1    1    0    0    0 -0.29733466811E+02  0.12286964572E+01 -0.27721385198E+02  0.40670322164E+02  0.10566000000E+00 0. -1.
         13    1    1    0    0    0 -0.15721634303E+02  0.10000203020E+01 -0.15114114837E+02  0.21831570193E+02  0.10566000000E+00 0.  1.
         22    1    1    0    0    0  0.45455101114E+02 -0.22287167592E+01  0.42835500035E+02  0.62498107643E+02  0.00000000000E+00 0. -1.
</event>
<event>
 4    1  0.9957587E-003  0.9118800E+02  0.7818608E-02  0.1130116E+00
         25   -1    0    0    0    0  0.00000000000E+00  0.00000000000E+00  0.99999998245E-14  0.12500000000E+03  0.12500000000E+03 0.  0.
        -13    1    1    0    0    0  0.45442546415E+02  0.22819589662E+02  0.94837701068E+01  0.51727282516E+02  0.10566000000E+00 0. -1.
         13    1    1    0    0    0 -0.10132434852E+02 -0.33547759940E+02  0.47795958931E+00  0.35047939203E+02  0.10566000000E+00 0.  1.
         22    1    1    0    0    0 -0.35310111563E+02  0.10728170277E+02 -0.99617296961E+01  0.38224778281E+02  0.00000000000E+00 0. -1.
</event>
<event>
 4    1  0.9957587E-003  0.9118800E+02  0.7818608E-02  0.1130116E+00
         25   -1    0    0    0    0  0.00000000000E+00  0.00000000000E+00  0.99999998245E-14  0.12500000000E+03  0.12500000000E+03 0.  0.
        -13    1    1    0    0    0 -0.27641347575E+02  0.28949106521E+02  0.23311044894E+02  0.46319659349E+02  0.10566000000E+00 0.  1.
         13    1    1    0    0    0 -0.10127322446E+02  0.11337721295E+02  0.57797788299E+01  0.16264181241E+02  0.10566000000E+00 0. -1.
         22    1    1    0    0    0  0.37768670021E+02 -0.40286827816E+02 -0.29090823724E+02  0.62416159410E+02  0.00000000000E+00 0.  1.
</event>
<event>
 4    1  0.9957587E-003  0.9118800E+02  0.7818608E-02  0.1130116E+00
         25   -1    0    0    0    0  0.00000000000E+00  0.00000000000E+00  0.99999998245E-14  0.12500000000E+03  0.12500000000E+03 0.  0.
        -13    1    1    0    0    0 -0.42757336852E+01  0.18333876776E+01  0.42346223705E+00  0.46726537669E+01  0.10566000000E+00 0. -1.
         13    1    1    0    0    0 -0.51521679857E+02  0.25127139933E+02  0.76630883626E+01  0.57832436779E+02  0.10566000000E+00 0.  1.
         22    1    1    0    0    0  0.55797413542E+02 -0.26960527611E+02 -0.80865505996E+01  0.62494909454E+02  0.00000000000E+00 0.  1.
</event>
<event>
 4    1  0.9957587E-003  0.9118800E+02  0.7818608E-02  0.1130116E+00
         25   -1    0    0    0    0  0.00000000000E+00  0.00000000000E+00  0.99999998245E-14  0.12500000000E+03  0.12500000000E+03 0.  0.
        -13    1    1    0    0    0  0.20396416407E+02  0.12581719117E+02 -0.12535024268E+02  0.27045359225E+02  0.10566000000E+00 0.  1.
         13    1    1    0    0    0  0.27063831967E+02  0.16135170304E+02 -0.16257182190E+02  0.35455632250E+02  0.10566000000E+00 0. -1.
         22    1    1    0    0    0 -0.47460248374E+02 -0.28716889421E+02  0.28792206458E+02  0.62499008524E+02  0.00000000000E+00 0. -1.
</event>
<event>
 4    1  0.9957587E-003  0.9118800E+02  0.7818608E-02  0.1130116E+00
         25   -1    0    0    0    0  0.00000000000E+00  0.00000000000E+00  0.99999998245E-14  0.12500000000E+03  0.12500000000E+03 0.  0.
        -13    1    1    0    0    0 -0.35678493689E+02  0.48304334065E+02 -0.14956695925E+02  0.61886812153E+02  0.10566000000E+00 0. -1.
         13    1    1    0    0    0 -0.34268575492E+00  0.38672866296E+00 -0.36131679071E+00  0.63930152841E+00  0.10566000000E+00 0.  1.
         22    1    1    0    0    0  0.36021179444E+02 -0.48691062728E+02  0.15318012716E+02  0.62473886318E+02  0.00000000000E+00 0. -1.
</event>
<event>
 4    1  0.9957587E-003  0.9118800E+02  0.7818608E-02  0.1130116E+00
         25   -1    0    0    0    0  0.00000000000E+00  0.00000000000E+00  0.99999998245E-14  0.12500000000E+03  0.12500000000E+03 0.  0.
        -13    1    1    0    0    0 -0.34226486455E+02  0.47292645902E+02 -0.43473905636E+01  0.58540222926E+02  0.10566000000E+00 0.  1.
         13    1    1    0    0    0 -0.19824711258E+01  0.33964660071E+01 -0.55790161446E+00  0.39734860449E+01  0.10566000000E+00 0. -1.
         22    1    1    0    0    0  0.36208957581E+02 -0.50689111909E+02  0.49052921780E+01  0.62486291029E+02  0.00000000000E+00 0.  1.
</event>
<event>
 4    1  0.9957587E-003  0.9118800E+02  0.7818608E-02  0.1130116E+00
         25   -1    0    0    0    0  0.00000000000E+00  0.00000000000E+00  0.99999998245E-14  0.12500000000E+03  0.12500000000E+03 0.  0.
        -13    1    1    0    0    0  0.76457859624E+00  0.11776371074E+02  0.17120069734E+02  0.20793639600E+02  0.10566000000E+00 0.  1.
         13    1    1    0    0    0  0.14425259404E+01  0.23538017567E+02  0.34399274433E+02  0.41706598970E+02  0.10566000000E+00 0.  1.
         22    1    1    0    0    0 -0.22071045366E+01 -0.35314388641E+02 -0.51519344166E+02  0.62499761430E+02  0.00000000000E+00 0.  1.
</event>
<event>
 4    1  0.9957587E-003  0.9118800E+02  0.7818608E-02  0.1130116E+00
         25   -1    0    0    0    0  0.00000000000E+00  0.00000000000E+00  0.99999998245E-14  0.12500000000E+03  0.12500000000E+03 0.  0.
        -13    1    1    0    0    0  0.11841589001E+02  0.14368668184E+02  0.50908814844E+02  0.54207014752E+02  0.10566000000E+00 0. -1.
         13    1    1    0    0    0  0.17878485279E+01  0.22520299077E+01  0.77783275677E+01  0.82934663953E+01  0.10566000000E+00 0. -1.
         22    1    1    0    0    0 -0.13629437529E+02 -0.16620698092E+02 -0.58687142411E+02  0.62499518853E+02  0.00000000000E+00 0. -1.
</event>
<event>
 4    1  0.9957587E-003  0.9118800E+02  0.7818608E-02  0.1130116E+00
         25   -1    0    0    0    0  0.00000000000E+00  0.00000000000E+00  0.99999998245E-14  0.12500000000E+03  0.12500000000E+03 0.  0.
        -13    1    1    0    0    0 -0.61789491391E+01  0.35907260639E+02  0.15609052712E+02  0.39637917071E+02  0.10566000000E+00 0. -1.
         13    1    1    0    0    0  0.77639218949E+01  0.19131607658E+02  0.11878809371E+02  0.23820456984E+02  0.10566000000E+00 0.  1.
         22    1    1    0    0    0 -0.15849727558E+01 -0.55038868298E+02 -0.27487862083E+02  0.61541625946E+02  0.00000000000E+00 0.  1.
</event>
<event>
 4    1  0.9957587E-003  0.9118800E+02  0.7818608E-02  0.1130116E+00
         25   -1    0    0    0    0  0.00000000000E+00  0.00000000000E+00  0.99999998245E-14  0.12500000000E+03  0.12500000000E+03 0.  0.
        -13    1    1    0    0    0 -0.30735853260E+02  0.42856146700E+02  0.21528166787E+02  0.56963278653E+02  0.10566000000E+00 0. -1.
         13    1    1    0    0    0 -0.29244340988E+01  0.41458275433E+01  0.22179272132E+01  0.55381012969E+01  0.10566000000E+00 0. -1.
         22    1    1    0    0    0  0.33660287359E+02 -0.47001974243E+02 -0.23746094001E+02  0.62498620050E+02  0.00000000000E+00 0. -1.
</event>
<event>
 4    1  0.9957587E-003  0.9118800E+02  0.7818608E-02  0.1130116E+00
         25   -1    0    0    0    0  0.00000000000E+00  0.00000000000E+00  0.99999998245E-14  0.12500000000E+03  0.12500000000E+03 0.  0.
        -13    1    1    0    0    0 -0.58359119383E+00 -0.91728983963E+01 -0.19635400810E+01  0.93994306931E+01  0.10566000000E+00 0. -1.
         13    1    1    0    0    0 -0.24139033248E+02 -0.39910641539E+02  0.28406059264E+02  0.54611973057E+02  0.10566000000E+00 0.  1.
         22    1    1    0    0    0  0.24722624442E+02  0.49083539935E+02 -0.26442519183E+02  0.60988596250E+02  0.00000000000E+00 0.  1.
</event>
<event>
 4    1  0.9957587E-003  0.9118800E+02  0.7818608E-02  0.1130116E+00
         25   -1    0    0    0    0  0.00000000000E+00  0.00000000000E+00  0.99999998245E-14  0.12500000000E+03  0.12500000000E+03 0.  0.
        -13    1    1    0    0    0 -0.19120314615E+01 -0.34942521095E+00 -0.24213823303E+01  0.31068020073E+01  0.10566000000E+00 0.  1.
         13    1    1    0    0    0 -0.34353941142E+02  0.13629135144E+02 -0.46605667217E+02  0.59481475920E+02  0.10566000000E+00 0. -1.
         22    1    1    0    0    0  0.36265972604E+02 -0.13279709933E+02  0.49027049548E+02  0.62411722073E+02  0.00000000000E+00 0. -1.
</event>
<event>
 4    1  0.9957587E-003  0.9118800E+02  0.7818608E-02  0.1130116E+00
         25   -1    0    0    0    0  0.00000000000E+00  0.00000000000E+00  0.99999998245E-14  0.12500000000E+03  0.12500000000E+03 0.  0.
        -13    1    1    0    0    0 -0.19583849523E+02 -0.13183376766E+02 -0.52595135444E+01  0.24186819382E+02  0.10566000000E+00 0. -1.
         13    1    1    0    0    0 -0.11150372521E+02 -0.38521560924E+02 -0.24157048050E+01  0.40175717257E+02  0.10566000000E+00 0.  1.
         22    1    1    0    0    0  0.30734222044E+02  0.51704937690E+02  0.76752183495E+01  0.60637463361E+02  0.00000000000E+00 0.  1.
</event>
<event>
 4    1  0.9957587E-003  0.9118800E+02  0.7818608E-02  0.1130116E+00
         25   -1    0    0    0    0  0.00000000000E+00  0.00000000000E+00  0.99999998245E-14  0.12500000000E+03  0.12500000000E+03 0.  0.
        -13    1    1    0    0    0 -0.24968216528E+02 -0.46716149897E+02  0.30010403920E+02  0.60880588083E+02  0.10566000000E+00 0. -1.
         13    1    1    0    0    0 -0.78137007907E+00 -0.87500436182E+00  0.11764937606E+01  0.16647742904E+01  0.10566000000E+00 0.  1.
         22    1    1    0    0    0  0.25749586608E+02  0.47591154259E+02 -0.31186897681E+02  0.62454637627E+02  0.00000000000E+00 0. -1.
</event>
<event>
 4    1  0.9957587E-003  0.9118800E+02  0.7818608E-02  0.1130116E+00
         25   -1    0    0    0    0  0.00000000000E+00  0.00000000000E+00  0.99999998245E-14  0.12500000000E+03  0.12500000000E+03 0.  0.
        -13    1    1    0    0    0  0.21024223808E+02 -0.37045651947E+02 -0.21336622127E+02  0.47640958457E+02  0.10566000000E+00 0.  1.
         13    1    1    0    0    0  0.60809159903E+01 -0.11751472331E+02 -0.67689683653E+01  0.14862864394E+02  0.10566000000E+00 0.  1.
         22    1    1    0    0    0 -0.27105139798E+02  0.48797124278E+02  0.28105590492E+02  0.62496177149E+02  0.00000000000E+00 0.  1.
</event>
<event>
 4    1  0.9957587E-003  0.9118800E+02  0.7818608E-02  0.1130116E+00
         25   -1    0    0    0    0  0.00000000000E+00  0.00000000000E+00  0.99999998245E-14  0.12500000000E+03  0.12500000000E+03 0.  0.
        -13    1    1    0    0    0  0.21563201845E+02  0.71576895640E+01 -0.18994246409E+02  0.29614130992E+02  0.10566000000E+00 0.  1.
         13    1    1    0    0    0  0.23849174324E+02  0.80975569590E+01 -0.21145580589E+02  0.32886171671E+02  0.10566000000E+00 0.  1.
         22    1    1    0    0    0 -0.45412376170E+02 -0.15255246523E+02  0.40139826998E+02  0.62499697338E+02  0.00000000000E+00 0.  1.
</event>
<event>
 4    1  0.9957587E-003  0.9118800E+02  0.7818608E-02  0.1130116E+00
         25   -1    0    0    0    0  0.00000000000E+00  0.00000000000E+00  0.99999998245E-14  0.12500000000E+03  0.12500000000E+03 0.  0.
        -13    1    1    0    0    0  0.87264806430E+01  0.30524903192E+02 -0.12931500499E+01  0.31774275450E+02  0.10566000000E+00 0. -1.
         13    1    1    0    0    0  0.38210924374E+01  0.28988693562E+02 -0.10878705738E+02  0.31197796468E+02  0.10566000000E+00 0.  1.
         22    1    1    0    0    0 -0.12547573080E+02 -0.59513596754E+02  0.12171855788E+02  0.62027928082E+02  0.00000000000E+00 0.  1.
</event>
<event>
 4    1  0.9957587E-003  0.9118800E+02  0.7818608E-02  0.1130116E+00
         25   -1    0    0    0    0  0.00000000000E+00  0.00000000000E+00  0.99999998245E-14  0.12500000000E+03  0.12500000000E+03 0.  0.
        -13    1    1    0    0    0 -0.83680940619E+01 -0.38427265079E+02 -0.31119060593E+02  0.50150641032E+02  0.10566000000E+00 0. -1.
         13    1    1    0    0    0 -0.93304856428E+01 -0.11566647203E+02  0.46163818764E+01  0.15561729837E+02  0.10566000000E+00 0.  1.
         22    1    1    0    0    0  0.17698579705E+02  0.49993912282E+02  0.26502678717E+02  0.59287629131E+02  0.00000000000E+00 0. -1.
</event>
<event>
 4    1  0.9957587E-003  0.9118800E+02  0.7818608E-02  0.1130116E+00
         25   -1    0    0    0    0  0.00000000000E+00  0.00000000000E+00  0.99999998245E-14  0.12500000000E+03  0.12500000000E+03 0.  0.
        -13    1    1    0    0    0  0.15170985344E+02  0.93661939486E+01 -0.67860944122E+01  0.19077385219E+02  0.10566000000E+00 0.  1.
         13    1    1    0    0    0  0.40400065330E+02 -0.12697425554E+01 -0.18356831485E+02  0.44393264704E+02  0.10566000000E+00 0. -1.
         22    1    1    0    0    0 -0.55571050674E+02 -0.80964513932E+01  0.25142925897E+02  0.61529350077E+02  0.00000000000E+00 0. -1.
</event>
<event>
 4    1  0.9957587E-003  0.9118800E+02  0.7818608E-02  0.1130116E+00
         25   -1    0    0    0    0  0.00000000000E+00  0.00000000000E+00  0.99999998245E-14  0.12500000000E+03  0.12500000000E+03 0.  0.
        -13    1    1    0    0    0  0.60438325146E+00  0.59269646028E+00 -0.59725909314E+00  0.10413696119E+01  0.10566000000E+00 0. -1.
         13    1    1    0    0    0  0.60812355296E+01  0.53638534086E+02 -0.29561532580E+02  0.61546479485E+02  0.10566000000E+00 0.  1.
         22    1    1    0    0    0 -0.66856187810E+01 -0.54231230547E+02  0.30158791674E+02  0.62412150903E+02  0.00000000000E+00 0.  1.
</event>
<event>
 4    1  0.9957587E-003  0.9118800E+02  0.7818608E-02  0.1130116E+00
         25   -1    0    0    0    0  0.00000000000E+00  0.00000000000E+00  0.99999998245E-14  0.12500000000E+03  0.12500000000E+03 0.  0.
        -13    1    1    0    0    0 -0.14228819026E+02  0.27743532437E+02 -0.21010828322E+01  0.31250417534E+02  0.10566000000E+00 0.  1.
         13    1    1    0    0    0  0.46752818026E+01  0.32423161524E+02 -0.67930761188E+00  0.32765718152E+02  0.10566000000E+00 0. -1.
         22    1    1    0    0    0  0.95535372235E+01 -0.60166693961E+02  0.27803904440E+01  0.60983864314E+02  0.00000000000E+00 0.  1.
</event>
<event>
 4    1  0.9957587E-003  0.9118800E+02  0.7818608E-02  0.1130116E+00
         25   -1    0    0    0    0  0.00000000000E+00  0.00000000000E+00  0.99999998245E-14  0.12500000000E+03  0.12500000000E+03 0.  0.
        -13    1    1    0    0    0 -0.46201652638E+01 -0.83875844498E+01  0.81725707085E+01  0.12589661472E+02  0.10566000000E+00 0. -1.
         13    1    1    0    0    0 -0.25151027336E+02 -0.36090061911E+02  0.23851257349E+02  0.50039588187E+02  0.10566000000E+00 0.  1.
         22    1    1    0    0    0  0.29771192600E+02  0.44477646361E+02 -0.32023828057E+02  0.62370750341E+02  0.00000000000E+00 0.  1.
</event>
<event>
 4    1  0.9957587E-003  0.9118800E+02  0.7818608E-02  0.1130116E+00
         25   -1    0    0    0    0  0.00000000000E+00  0.00000000000E+00  0.99999998245E-14  0.12500000000E+03  0.12500000000E+03 0.  0.
        -13    1    1    0    0    0  0.28038570271E+02  0.19039956430E+02 -0.28890671676E+02  0.44534968706E+02  0.10566000000E+00 0. -1.
         13    1    1    0    0    0  0.92924474597E+01  0.94759520887E+01 -0.12219356539E+02  0.18040706362E+02  0.10566000000E+00 0.  1.
         22    1    1    0    0    0 -0.37331017731E+02 -0.28515908519E+02  0.41110028215E+02  0.62424324932E+02  0.00000000000E+00 0. -1.
</event>
<event>
 4    1  0.9957587E-003  0.9118800E+02  0.7818608E-02  0.1130116E+00
         25   -1    0    0    0    0  0.00000000000E+00  0.00000000000E+00  0.99999998245E-14  0.12500000000E+03  0.12500000000E+03 0.  0.
        -13    1    1    0    0    0  0.59666922644E+01  0.46392229491E+02  0.11108144747E+02  0.48075382656E+02  0.10566000000E+00 0. -1.
         13    1    1    0    0    0  0.51545921400E+01  0.13808366802E+02 -0.41415194350E+01  0.15310263261E+02  0.10566000000E+00 0.  1.
         22    1    1    0    0    0 -0.11121284404E+02 -0.60200596293E+02 -0.69666253119E+01  0.61614354083E+02  0.00000000000E+00 0. -1.
</event>
<event>
 4    1  0.9957587E-003  0.9118800E+02  0.7818608E-02  0.1130116E+00
         25   -1    0    0    0    0  0.00000000000E+00  0.00000000000E+00  0.99999998245E-14  0.12500000000E+03  0.12500000000E+03 0.  0.
        -13    1    1    0    0    0 -0.10106934219E+02  0.34886006352E+02 -0.23418282515E+02  0.43215861423E+02  0.10566000000E+00 0.  1.
         13    1    1    0    0    0 -0.34833579414E+01  0.16499122424E+02 -0.94105647111E+01  0.19311258777E+02  0.10566000000E+00 0. -1.
         22    1    1    0    0    0  0.13590292160E+02 -0.51385128776E+02  0.32828847227E+02  0.62472879801E+02  0.00000000000E+00 0. -1.
</event>
<event>
 4    1  0.9957587E-003  0.9118800E+02  0.7818608E-02  0.1130116E+00
         25   -1    0    0    0    0  0.00000000000E+00  0.00000000000E+00  0.99999998245E-14  0.12500000000E+03  0.12500000000E+03 0.  0.
        -13    1    1    0    0    0  0.98712094192E+01 -0.26217897219E+01 -0.13543876002E+02  0.16963557938E+02  0.10566000000E+00 0. -1.
         13    1    1    0    0    0  0.27074880755E+02 -0.62982615833E+01 -0.36069243281E+02  0.45538102088E+02  0.10566000000E+00 0.  1.
         22    1    1    0    0    0 -0.36946090174E+02  0.89200513053E+01  0.49613119283E+02  0.62498339973E+02  0.00000000000E+00 0.  1.
</event>
<event>
 4    1  0.9957587E-003  0.9118800E+02  0.7818608E-02  0.1130116E+00
         25   -1    0    0    0    0  0.00000000000E+00  0.00000000000E+00  0.99999998245E-14  0.12500000000E+03  0.12500000000E+03 0.  0.
        -13    1    1    0    0    0  0.23030636545E+01 -0.99436872125E+01  0.43048324963E+02  0.44241953660E+02  0.10566000000E+00 0.  1.
         13    1    1    0    0    0  0.11425229657E+01 -0.41829147595E+01  0.17736020794E+02  0.18258689226E+02  0.10566000000E+00 0. -1.
         22    1    1    0    0    0 -0.34455866202E+01  0.14126601972E+02 -0.60784345757E+02  0.62499357113E+02  0.00000000000E+00 0.  1.
</event>
<event>
 4    1  0.9957587E-003  0.9118800E+02  0.7818608E-02  0.1130116E+00
         25   -1    0    0    0    0  0.00000000000E+00  0.00000000000E+00  0.99999998245E-14  0.12500000000E+03  0.12500000000E+03 0.  0.
        -13    1    1    0    0    0  0.46487118545E+00  0.72218852654E+01 -0.70315546142E+01  0.10090869949E+02  0.10566000000E+00 0.  1.
         13    1    1    0    0    0 -0.36419284244E+02 -0.36716874613E+02  0.33289452192E+02  0.61503592883E+02  0.10566000000E+00 0. -1.
         22    1    1    0    0    0  0.35954413058E+02  0.29494989348E+02 -0.26257897578E+02  0.53405537168E+02  0.00000000000E+00 0. -1.
</event>
<event>
 4    1  0.9957587E-003  0.9118800E+02  0.7818608E-02  0.1130116E+00
         25   -1    0    0    0    0  0.00000000000E+00  0.00000000000E+00  0.99999998245E-14  0.12500000000E+03  0.12500000000E+03 0.  0.
        -13    1    1    0    0    0 -0.35007694829E+02 -0.26382845107E+02 -0.12478365349E+02  0.45577560038E+02  0.10566000000E+00 0. -1.
         13    1    1    0    0    0 -0.14051281422E+02 -0.82156857566E+01 -0.47699066115E+01  0.16961697296E+02  0.10566000000E+00 0.  1.
         22    1    1    0    0    0  0.49058976251E+02  0.34598530863E+02  0.17248271960E+02  0.62460742666E+02  0.00000000000E+00 0. -1.
</event>
<event>
 4    1  0.9957587E-003  0.9118800E+02  0.7818608E-02  0.1130116E+00
         25   -1    0    0    0    0  0.00000000000E+00  0.00000000000E+00  0.99999998245E-14  0.12500000000E+03  0.12500000000E+03 0.  0.
        -13    1    1    0    0    0  0.19239663727E+02  0.67759523173E+01 -0.24277690480E+02  0.31709550758E+02  0.10566000000E+00 0. -1.
         13    1    1    0    0    0  0.18698516771E+02  0.68661584652E+01 -0.23479695583E+02  0.30791004047E+02  0.10566000000E+00 0.  1.
         22    1    1    0    0    0 -0.37938180499E+02 -0.13642110783E+02  0.47757386063E+02  0.62499445196E+02  0.00000000000E+00 0. -1.
</event>
<event>
 4    1  0.9957587E-003  0.9118800E+02  0.7818608E-02  0.1130116E+00
         25   -1    0    0    0    0  0.00000000000E+00  0.00000000000E+00  0.99999998245E-14  0.12500000000E+03  0.12500000000E+03 0.  0.
        -13    1    1    0    0    0  0.93315379609E+00 -0.36123657883E+02  0.12289956710E+02  0.38168621076E+02  0.10566000000E+00 0. -1.
         13    1    1    0    0    0  0.59161481442E+00 -0.23091544173E+02  0.76456971311E+01  0.24331815983E+02  0.10566000000E+00 0.  1.
         22    1    1    0    0    0 -0.15247686105E+01  0.59215202056E+02 -0.19935653841E+02  0.62499562941E+02  0.00000000000E+00 0. -1.
</event>
<event>
 4    1  0.9957587E-003  0.9118800E+02  0.7818608E-02  0.1130116E+00
         25   -1    0    0    0    0  0.00000000000E+00  0.00000000000E+00  0.99999998245E-14  0.12500000000E+03  0.12500000000E+03 0.  0.
        -13    1    1    0    0    0 -0.48739976527E+02 -0.28984036276E+01 -0.20380481123E+01  0.48868710435E+02  0.10566000000E+00 0. -1.
         13    1    1    0    0    0 -0.13574526665E+02 -0.97486215456E+00 -0.78713734502E+00  0.13632640230E+02  0.10566000000E+00 0.  1.
         22    1    1    0    0    0  0.62314503192E+02  0.38732657822E+01  0.28251854573E+01  0.62498649335E+02  0.00000000000E+00 0. -1.
</event>
<event>
 4    1  0.9957587E-003  0.9118800E+02  0.7818608E-02  0.1130116E+00
         25   -1    0    0    0    0  0.00000000000E+00  0.00000000000E+00  0.99999998245E-14  0.12500000000E+03  0.12500000000E+03 0.  0.
        -13    1    1    0    0    0  0.29925893983E+02  0.36917906252E+02 -0.27750964642E+02  0.55032882310E+02  0.10566000000E+00 0. -1.
         13    1    1    0    0    0  0.38850118020E+01  0.51609641574E+01 -0.37480642635E+01  0.74691376674E+01  0.10566000000E+00 0.  1.
         22    1    1    0    0    0 -0.33810905785E+02 -0.42078870409E+02  0.31499028906E+02  0.62497980023E+02  0.00000000000E+00 0. -1.
</event>
<event>
 4    1  0.9957587E-003  0.9118800E+02  0.7818608E-02  0.1130116E+00
         25   -1    0    0    0    0  0.00000000000E+00  0.00000000000E+00  0.99999998245E-14  0.12500000000E+03  0.12500000000E+03 0.  0.
        -13    1    1    0    0    0 -0.44669143406E+01 -0.79071791276E+00 -0.30822699270E+00  0.45480464442E+01  0.10566000000E+00 0.  1.
         13    1    1    0    0    0 -0.27648221323E+02 -0.10180205928E+02 -0.51021556032E+02  0.58917493828E+02  0.10566000000E+00 0. -1.
         22    1    1    0    0    0  0.32115135664E+02  0.10970923841E+02  0.51329783024E+02  0.61534459728E+02  0.00000000000E+00 0. -1.
</event>
<event>
 4    1  0.9957587E-003  0.9118800E+02  0.7818608E-02  0.1130116E+00
         25   -1    0    0    0    0  0.00000000000E+00  0.00000000000E+00  0.99999998245E-14  0.12500000000E+03  0.12500000000E+03 0.  0.
        -13    1    1    0    0    0  0.74407553537E+01 -0.98488459577E+01  0.13936980098E+02  0.18617604175E+02  0.10566000000E+00 0.  1.
         13    1    1    0    0    0  0.17448737020E+02 -0.23525608436E+02  0.32676898080E+02  0.43882838422E+02  0.10566000000E+00 0.  1.
         22    1    1    0    0    0 -0.24889492374E+02  0.33374454393E+02 -0.46613878178E+02  0.62499557402E+02  0.00000000000E+00 0.  1.
</event>
<event>
 4    1  0.9957587E-003  0.9118800E+02  0.7818608E-02  0.1130116E+00
         25   -1    0    0    0    0  0.00000000000E+00  0.00000000000E+00  0.99999998245E-14  0.12500000000E+03  0.12500000000E+03 0.  0.
        -13    1    1    0    0    0 -0.10909495945E+02 -0.14309849889E+01 -0.55877738150E+01  0.12340956205E+02  0.10566000000E+00 0. -1.
         13    1    1    0    0    0 -0.44568077274E+02  0.69361920763E+01 -0.22307447611E+02  0.50319555397E+02  0.10566000000E+00 0.  1.
         22    1    1    0    0    0  0.55477573219E+02 -0.55052070874E+01  0.27895221426E+02  0.62339488398E+02  0.00000000000E+00 0.  1.
</event>
<event>
 4    1  0.9957587E-003  0.9118800E+02  0.7818608E-02  0.1130116E+00
         25   -1    0    0    0    0  0.00000000000E+00  0.00000000000E+00  0.99999998245E-14  0.12500000000E+03  0.12500000000E+03 0.  0.
        -13    1    1    0    0    0  0.73572020338E+01 -0.45390941691E+01 -0.54657271000E+02  0.55336789163E+02  0.10566000000E+00 0.  1.
         13    1    1    0    0    0  0.10366200249E+01 -0.65064399122E+00 -0.70578926146E+01  0.71640024340E+01  0.10566000000E+00 0.  1.
         22    1    1    0    0    0 -0.83938220587E+01  0.51897381603E+01  0.61715163615E+02  0.62499208403E+02  0.00000000000E+00 0.  1.
</event>
<event>
 4    1  0.9957587E-003  0.9118800E+02  0.7818608E-02  0.1130116E+00
         25   -1    0    0    0    0  0.00000000000E+00  0.00000000000E+00  0.99999998245E-14  0.12500000000E+03  0.12500000000E+03 0.  0.
        -13    1    1    0    0    0 -0.93645861572E+00 -0.15624106480E+01  0.22999011880E+01  0.29357777985E+01  0.10566000000E+00 0.  1.
         13    1    1    0    0    0 -0.22907052974E+02 -0.34799071797E+02  0.42582519916E+02  0.59573405479E+02  0.10566000000E+00 0. -1.
         22    1    1    0    0    0  0.23843511590E+02  0.36361482445E+02 -0.44882421104E+02  0.62490816723E+02  0.00000000000E+00 0. -1.
</event>
<event>
 4    1  0.9957587E-003  0.9118800E+02  0.7818608E-02  0.1130116E+00
         25   -1    0    0    0    0  0.00000000000E+00  0.00000000000E+00  0.99999998245E-14  0.12500000000E+03  0.12500000000E+03 0.  0.
        -13    1    1    0    0    0  0.33663278515E+01 -0.15888638262E+01 -0.29600066569E+02  0.29833400013E+02  0.10566000000E+00 0.  1.
         13    1    1    0    0    0  0.60032807443E+01 -0.20959799000E+02 -0.26302389160E+02  0.34164007279E+02  0.10566000000E+00 0. -1.
         22    1    1    0    0    0 -0.93696085958E+01  0.22548662827E+02  0.55902455729E+02  0.61002592707E+02  0.00000000000E+00 0. -1.
</event>
<event>
 4    1  0.9957587E-003  0.9118800E+02  0.7818608E-02  0.1130116E+00
         25   -1    0    0    0    0  0.00000000000E+00  0.00000000000E+00  0.99999998245E-14  0.12500000000E+03  0.12500000000E+03 0.  0.
        -13    1    1    0    0    0  0.29082801985E+02 -0.79899427657E+01  0.35815729752E+02  0.46823351208E+02  0.10566000000E+00 0.  1.
         13    1    1    0    0    0 -0.17520769524E+01  0.43050215500E+01  0.17523551853E+02  0.18129782618E+02  0.10566000000E+00 0. -1.
         22    1    1    0    0    0 -0.27330725033E+02  0.36849212157E+01 -0.53339281605E+02  0.60046866174E+02  0.00000000000E+00 0.  1.
</event>
<event>
 4    1  0.9957587E-003  0.9118800E+02  0.7818608E-02  0.1130116E+00
         25   -1    0    0    0    0  0.00000000000E+00  0.00000000000E+00  0.99999998245E-14  0.12500000000E+03  0.12500000000E+03 0.  0.
        -13    1    1    0    0    0 -0.29485115845E+00  0.11768728250E+02 -0.14195777846E+02  0.18442374427E+02  0.10566000000E+00 0. -1.
         13    1    1    0    0    0 -0.22304280134E+01  0.10402725547E+02 -0.43455140091E+02  0.44738706646E+02  0.10566000000E+00 0.  1.
         22    1    1    0    0    0  0.25252791718E+01 -0.22171453797E+02  0.57650917937E+02  0.61818918927E+02  0.00000000000E+00 0.  1.
</event>
<event>
 4    1  0.9957587E-003  0.9118800E+02  0.7818608E-02  0.1130116E+00
         25   -1    0    0    0    0  0.00000000000E+00  0.00000000000E+00  0.99999998245E-14  0.12500000000E+03  0.12500000000E+03 0.  0.
        -13    1    1    0    0    0 -0.78560407762E+01  0.47325684001E+02 -0.31346895363E+02  0.57306864823E+02  0.10566000000E+00 0. -1.
         13    1    1    0    0    0 -0.67579365706E+00  0.43057743506E+01 -0.28227763450E+01  0.51938059412E+01  0.10566000000E+00 0. -1.
         22    1    1    0    0    0  0.85318344333E+01 -0.51631458352E+02  0.34169671708E+02  0.62499329236E+02  0.00000000000E+00 0. -1.
</event>
<event>
 4    1  0.9957587E-003  0.9118800E+02  0.7818608E-02  0.1130116E+00
         25   -1    0    0    0    0  0.00000000000E+00  0.00000000000E+00  0.99999998245E-14  0.12500000000E+03  0.12500000000E+03 0.  0.
        -13    1    1    0    0    0 -0.41840131350E+02 -0.21801501428E+02  0.10697737741E+02  0.48377213776E+02  0.10566000000E+00 0.  1.
         13    1    1    0    0    0 -0.40693286938E+00 -0.63990441460E+01  0.17421568007E+02  0.18564362531E+02  0.10566000000E+00 0. -1.
         22    1    1    0    0    0  0.42247064220E+02  0.28200545574E+02 -0.28119305748E+02  0.58058423692E+02  0.00000000000E+00 0.  1.
</event>
<event>
 4    1  0.9957587E-003  0.9118800E+02  0.7818608E-02  0.1130116E+00
         25   -1    0    0    0    0  0.00000000000E+00  0.00000000000E+00  0.99999998245E-14  0.12500000000E+03  0.12500000000E+03 0.  0.
        -13    1    1    0    0    0  0.15691324556E+02 -0.41010527561E+02  0.69242786938E+01  0.44452647128E+02  0.10566000000E+00 0. -1.
         13    1    1    0    0    0 -0.37181123677E+01 -0.18744741712E+02  0.73847373037E+00  0.19124492383E+02  0.10566000000E+00 0.  1.
         22    1    1    0    0    0 -0.11973212188E+02  0.59755269273E+02 -0.76627524242E+01  0.61422860490E+02  0.00000000000E+00 0. -1.
</event>
<event>
 4    1  0.9957587E-003  0.9118800E+02  0.7818608E-02  0.1130116E+00
         25   -1    0    0    0    0  0.00000000000E+00  0.00000000000E+00  0.99999998245E-14  0.12500000000E+03  0.12500000000E+03 0.  0.
        -13    1    1    0    0    0 -0.32417642578E+02  0.72384119377E+01 -0.48760850614E+02  0.58999405712E+02  0.10566000000E+00 0. -1.
         13    1    1    0    0    0 -0.22880023821E+01  0.70720825839E+00 -0.25805634803E+01  0.35221542176E+01  0.10566000000E+00 0.  1.
         22    1    1    0    0    0  0.34705644960E+02 -0.79456201961E+01  0.51341414095E+02  0.62478440070E+02  0.00000000000E+00 0. -1.
</event>
<event>
 4    1  0.9957587E-003  0.9118800E+02  0.7818608E-02  0.1130116E+00
         25   -1    0    0    0    0  0.00000000000E+00  0.00000000000E+00  0.99999998245E-14  0.12500000000E+03  0.12500000000E+03 0.  0.
        -13    1    1    0    0    0 -0.53987534204E+02  0.11621223983E+02  0.19164606143E+02  0.58455110888E+02  0.10566000000E+00 0. -1.
         13    1    1    0    0    0 -0.17586074824E+01 -0.46518413287E+01  0.33758241452E+01  0.60116287909E+01  0.10566000000E+00 0.  1.
         22    1    1    0    0    0  0.55746141687E+02 -0.69693826540E+01 -0.22540430288E+02  0.60533260321E+02  0.00000000000E+00 0. -1.
</event>
<event>
 4    1  0.9957587E-003  0.9118800E+02  0.7818608E-02  0.1130116E+00
         25   -1    0    0    0    0  0.00000000000E+00  0.00000000000E+00  0.99999998245E-14  0.12500000000E+03  0.12500000000E+03 0.  0.
        -13    1    1    0    0    0  0.38178121426E+02 -0.25749903642E+02 -0.31448787788E+01  0.46157642052E+02  0.10566000000E+00 0. -1.
         13    1    1    0    0    0  0.13559581658E+02 -0.91014020482E+01 -0.66745394455E+00  0.16344859522E+02  0.10566000000E+00 0.  1.
         22    1    1    0    0    0 -0.51737703084E+02  0.34851305690E+02  0.38123327233E+01  0.62497498426E+02  0.00000000000E+00 0. -1.
</event>
<event>
 4    1  0.9957587E-003  0.9118800E+02  0.7818608E-02  0.1130116E+00
         25   -1    0    0    0    0  0.00000000000E+00  0.00000000000E+00  0.99999998245E-14  0.12500000000E+03  0.12500000000E+03 0.  0.
        -13    1    1    0    0    0 -0.22613504348E+02 -0.28762696968E+02 -0.16566572502E+02  0.40163737429E+02  0.10566000000E+00 0.  1.
         13    1    1    0    0    0 -0.15902713512E+02 -0.14500024251E+02 -0.65111202465E+01  0.22484502468E+02  0.10566000000E+00 0. -1.
         22    1    1    0    0    0  0.38516217860E+02  0.43262721218E+02  0.23077692748E+02  0.62351760104E+02  0.00000000000E+00 0.  1.
</event>
<event>
 4    1  0.9957587E-003  0.9118800E+02  0.7818608E-02  0.1130116E+00
         25   -1    0    0    0    0  0.00000000000E+00  0.00000000000E+00  0.99999998245E-14  0.12500000000E+03  0.12500000000E+03 0.  0.
        -13    1    1    0    0    0 -0.34944837505E+02 -0.28248810255E+02  0.80646662123E+00  0.44942168411E+02  0.10566000000E+00 0. -1.
         13    1    1    0    0    0 -0.11905398841E+02 -0.12277290389E+02  0.50592158945E+01  0.17834719240E+02  0.10566000000E+00 0.  1.
         22    1    1    0    0    0  0.46850236346E+02  0.40526100644E+02 -0.58656825157E+01  0.62223112349E+02  0.00000000000E+00 0. -1.
</event>
<event>
 4    1  0.9957587E-003  0.9118800E+02  0.7818608E-02  0.1130116E+00
         25   -1    0    0    0    0  0.00000000000E+00  0.00000000000E+00  0.99999998245E-14  0.12500000000E+03  0.12500000000E+03 0.  0.
        -13    1    1    0    0    0 -0.10402340001E+02  0.43438038893E+01 -0.14852861478E+02  0.18646607408E+02  0.10566000000E+00 0.  1.
         13    1    1    0    0    0 -0.24945063281E+02  0.15772390863E+02 -0.32520966810E+02  0.43916385803E+02  0.10566000000E+00 0. -1.
         22    1    1    0    0    0  0.35347403282E+02 -0.20116194752E+02  0.47373828288E+02  0.62437006789E+02  0.00000000000E+00 0.  1.
</event>
<event>
 4    1  0.9957587E-003  0.9118800E+02  0.7818608E-02  0.1130116E+00
         25   -1    0    0    0    0  0.00000000000E+00  0.00000000000E+00  0.99999998245E-14  0.12500000000E+03  0.12500000000E+03 0.  0.
        -13    1    1    0    0    0  0.29134221940E+01 -0.18981457105E+01 -0.30910949879E+01  0.46537101627E+01  0.10566000000E+00 0. -1.
         13    1    1    0    0    0  0.31334880127E+02 -0.23502880074E+02 -0.42585549040E+02  0.57860178321E+02  0.10566000000E+00 0.  1.
         22    1    1    0    0    0 -0.34248302321E+02  0.25401025785E+02  0.45676644028E+02  0.62486111516E+02  0.00000000000E+00 0.  1.
</event>
<event>
 4    1  0.9957587E-003  0.9118800E+02  0.7818608E-02  0.1130116E+00
         25   -1    0    0    0    0  0.00000000000E+00  0.00000000000E+00  0.99999998245E-14  0.12500000000E+03  0.12500000000E+03 0.  0.
        -13    1    1    0    0    0  0.43694105659E+02  0.36076551210E+02 -0.19829994090E+02  0.60032759775E+02  0.10566000000E+00 0. -1.
         13    1    1    0    0    0  0.79627400221E+00 -0.23137727373E+00 -0.32440520680E+01  0.33500187440E+01  0.10566000000E+00 0.  1.
         22    1    1    0    0    0 -0.44490379662E+02 -0.35845173936E+02  0.23074046158E+02  0.61617221481E+02  0.00000000000E+00 0. -1.
</event>
<event>
 4    1  0.9957587E-003  0.9118800E+02  0.7818608E-02  0.1130116E+00
         25   -1    0    0    0    0  0.00000000000E+00  0.00000000000E+00  0.99999998245E-14  0.12500000000E+03  0.12500000000E+03 0.  0.
        -13    1    1    0    0    0 -0.15792297248E+02 -0.35818528310E+02  0.10392379988E+02  0.40501559828E+02  0.10566000000E+00 0. -1.
         13    1    1    0    0    0 -0.20734193836E+02 -0.78447418748E+01 -0.15936054889E+02  0.27302303540E+02  0.10566000000E+00 0.  1.
         22    1    1    0    0    0  0.36526491085E+02  0.43663270185E+02  0.55436749009E+01  0.57196136632E+02  0.00000000000E+00 0. -1.
</event>
<event>
 4    1  0.9957587E-003  0.9118800E+02  0.7818608E-02  0.1130116E+00
         25   -1    0    0    0    0  0.00000000000E+00  0.00000000000E+00  0.99999998245E-14  0.12500000000E+03  0.12500000000E+03 0.  0.
        -13    1    1    0    0    0  0.17057384372E+01  0.36720100828E+02  0.16013989497E+02  0.40096563096E+02  0.10566000000E+00 0.  1.
         13    1    1    0    0    0  0.20265143607E+01  0.22228874562E+02  0.37157109080E+01  0.22628462086E+02  0.10566000000E+00 0. -1.
         22    1    1    0    0    0 -0.37322527979E+01 -0.58948975391E+02 -0.19729700405E+02  0.62274974819E+02  0.00000000000E+00 0.  1.
</event>
<event>
 4    1  0.9957587E-003  0.9118800E+02  0.7818608E-02  0.1130116E+00
         25   -1    0    0    0    0  0.00000000000E+00  0.00000000000E+00  0.99999998245E-14  0.12500000000E+03  0.12500000000E+03 0.  0.
        -13    1    1    0    0    0  0.12633504092E+02 -0.13947781520E+02 -0.12183132875E+02  0.22418428260E+02  0.10566000000E+00 0.  1.
         13    1    1    0    0    0  0.22521149408E+02 -0.24925821667E+02 -0.21864126999E+02  0.40081791002E+02  0.10566000000E+00 0.  1.
         22    1    1    0    0    0 -0.35154653500E+02  0.38873603187E+02  0.34047259874E+02  0.62499780738E+02  0.00000000000E+00 0.  1.
</event>
<event>
 4    1  0.9957587E-003  0.9118800E+02  0.7818608E-02  0.1130116E+00
         25   -1    0    0    0    0  0.00000000000E+00  0.00000000000E+00  0.99999998245E-14  0.12500000000E+03  0.12500000000E+03 0.  0.
        -13    1    1    0    0    0 -0.39759073084E+02 -0.22300725580E+02  0.14941532612E+02  0.47972563145E+02  0.10566000000E+00 0. -1.
         13    1    1    0    0    0 -0.13546453335E+02 -0.50148268062E+01  0.24619309950E+01  0.14653571378E+02  0.10566000000E+00 0.  1.
         22    1    1    0    0    0  0.53305526419E+02  0.27315552386E+02 -0.17403463607E+02  0.62373865477E+02  0.00000000000E+00 0. -1.
</event>
<event>
 4    1  0.9957587E-003  0.9118800E+02  0.7818608E-02  0.1130116E+00
         25   -1    0    0    0    0  0.00000000000E+00  0.00000000000E+00  0.99999998245E-14  0.12500000000E+03  0.12500000000E+03 0.  0.
        -13    1    1    0    0    0 -0.11368823693E+01  0.11786721403E+02  0.26736577687E+02  0.29241666393E+02  0.10566000000E+00 0.  1.
         13    1    1    0    0    0 -0.10843567618E+01  0.13272284601E+02  0.30476278695E+02  0.33258744643E+02  0.10566000000E+00 0.  1.
         22    1    1    0    0    0  0.22212391312E+01 -0.25059006004E+02 -0.57212856383E+02  0.62499588964E+02  0.00000000000E+00 0.  1.
</event>
<event>
 4    1  0.9957587E-003  0.9118800E+02  0.7818608E-02  0.1130116E+00
         25   -1    0    0    0    0  0.00000000000E+00  0.00000000000E+00  0.99999998245E-14  0.12500000000E+03  0.12500000000E+03 0.  0.
        -13    1    1    0    0    0  0.11563296963E+01  0.15084874693E+01  0.16770414238E+01  0.25369794608E+01  0.10566000000E+00 0.  1.
         13    1    1    0    0    0  0.19885264805E+02  0.44342407716E+02  0.35172146646E+02  0.59989698634E+02  0.10566000000E+00 0. -1.
         22    1    1    0    0    0 -0.21041594501E+02 -0.45850895185E+02 -0.36849188070E+02  0.62473321905E+02  0.00000000000E+00 0. -1.
</event>
<event>
 4    1  0.9957587E-003  0.9118800E+02  0.7818608E-02  0.1130116E+00
         25   -1    0    0    0    0  0.00000000000E+00  0.00000000000E+00  0.99999998245E-14  0.12500000000E+03  0.12500000000E+03 0.  0.
        -13    1    1    0    0    0 -0.62097745814E+02 -0.19201829387E+01 -0.46968480371E+01  0.62304804656E+02  0.10566000000E+00 0. -1.
         13    1    1    0    0    0  0.30321782786E+01 -0.94390675261E+00 -0.88215691838E+00  0.32976400554E+01  0.10566000000E+00 0.  1.
         22    1    1    0    0    0  0.59065567535E+02  0.28640896913E+01  0.55790049555E+01  0.59397555289E+02  0.00000000000E+00 0. -1.
</event>
<event>
 4    1  0.9957587E-003  0.9118800E+02  0.7818608E-02  0.1130116E+00
         25   -1    0    0    0    0  0.00000000000E+00  0.00000000000E+00  0.99999998245E-14  0.12500000000E+03  0.12500000000E+03 0.  0.
        -13    1    1    0    0    0 -0.23646709219E+02  0.89316419514E+01  0.60551724145E+01  0.25992640532E+02  0.10566000000E+00 0. -1.
         13    1    1    0    0    0 -0.32395262267E+02  0.17159757054E+02  0.17343407325E+01  0.36700536526E+02  0.10566000000E+00 0.  1.
         22    1    1    0    0    0  0.56041971486E+02 -0.26091399005E+02 -0.77895131470E+01  0.62306822942E+02  0.00000000000E+00 0.  1.
</event>
<event>
 4    1  0.9957587E-003  0.9118800E+02  0.7818608E-02  0.1130116E+00
         25   -1    0    0    0    0  0.00000000000E+00  0.00000000000E+00  0.99999998245E-14  0.12500000000E+03  0.12500000000E+03 0.  0.
        -13    1    1    0    0    0  0.10397863699E+01  0.72049082021E+00  0.74323558139E+01  0.75399827385E+01  0.10566000000E+00 0. -1.
         13    1    1    0    0    0 -0.20936781087E+02  0.49857183216E+02  0.18616118792E+02  0.57189671825E+02  0.10566000000E+00 0.  1.
         22    1    1    0    0    0  0.19896994717E+02 -0.50577674036E+02 -0.26048474606E+02  0.60270345436E+02  0.00000000000E+00 0.  1.
</event>
<event>
 4    1  0.9957587E-003  0.9118800E+02  0.7818608E-02  0.1130116E+00
         25   -1    0    0    0    0  0.00000000000E+00  0.00000000000E+00  0.99999998245E-14  0.12500000000E+03  0.12500000000E+03 0.  0.
        -13    1    1    0    0    0 -0.85851359041E+00 -0.18800390984E+01 -0.38583573736E+00  0.21051427145E+01  0.10566000000E+00 0. -1.
         13    1    1    0    0    0 -0.12755087000E+02 -0.50906249523E+02  0.30416052110E+02  0.60657117265E+02  0.10566000000E+00 0.  1.
         22    1    1    0    0    0  0.13613600590E+02  0.52786288621E+02 -0.30030216373E+02  0.62237740021E+02  0.00000000000E+00 0.  1.
</event>
<event>
 4    1  0.9957587E-003  0.9118800E+02  0.7818608E-02  0.1130116E+00
         25   -1    0    0    0    0  0.00000000000E+00  0.00000000000E+00  0.99999998245E-14  0.12500000000E+03  0.12500000000E+03 0.  0.
        -13    1    1    0    0    0 -0.24321615119E+01  0.44979352340E+01  0.21557152877E+01  0.55502345380E+01  0.10566000000E+00 0. -1.
         13    1    1    0    0    0 -0.34131007252E+02  0.30902475554E+02  0.33817286274E+02  0.57127127237E+02  0.10566000000E+00 0.  1.
         22    1    1    0    0    0  0.36563168764E+02 -0.35400410788E+02 -0.35973001562E+02  0.62322638225E+02  0.00000000000E+00 0.  1.
</event>
<event>
 4    1  0.9957587E-003  0.9118800E+02  0.7818608E-02  0.1130116E+00
         25   -1    0    0    0    0  0.00000000000E+00  0.00000000000E+00  0.99999998245E-14  0.12500000000E+03  0.12500000000E+03 0.  0.
        -13    1    1    0    0    0  0.21686937747E+02 -0.59014362883E+01 -0.65144475709E+01  0.23400842086E+02  0.10566000000E+00 0. -1.
         13    1    1    0    0    0  0.31522234469E+02 -0.18003654408E+02  0.20394566433E+02  0.41638111653E+02  0.10566000000E+00 0.  1.
         22    1    1    0    0    0 -0.53209172217E+02  0.23905090696E+02 -0.13880118862E+02  0.59961046262E+02  0.00000000000E+00 0.  1.
</event>
<event>
 4    1  0.9957587E-003  0.9118800E+02  0.7818608E-02  0.1130116E+00
         25   -1    0    0    0    0  0.00000000000E+00  0.00000000000E+00  0.99999998245E-14  0.12500000000E+03  0.12500000000E+03 0.  0.
        -13    1    1    0    0    0  0.12981753069E+02 -0.31636085193E+01 -0.32030402857E+02  0.34705794946E+02  0.10566000000E+00 0.  1.
         13    1    1    0    0    0  0.16524703958E+02 -0.14544899113E+02 -0.18773665978E+02  0.28932363010E+02  0.10566000000E+00 0. -1.
         22    1    1    0    0    0 -0.29506457027E+02  0.17708507632E+02  0.50804068835E+02  0.61361842044E+02  0.00000000000E+00 0.  1.
</event>
<event>
 4    1  0.9957587E-003  0.9118800E+02  0.7818608E-02  0.1130116E+00
         25   -1    0    0    0    0  0.00000000000E+00  0.00000000000E+00  0.99999998245E-14  0.12500000000E+03  0.12500000000E+03 0.  0.
        -13    1    1    0    0    0 -0.26477250030E+02  0.12501569051E+02 -0.17725735727E+02  0.34227866849E+02  0.10566000000E+00 0. -1.
         13    1    1    0    0    0 -0.10008064686E+01  0.12840764189E+02 -0.28528721772E+02  0.31301533006E+02  0.10566000000E+00 0.  1.
         22    1    1    0    0    0  0.27478056499E+02 -0.25342333240E+02  0.46254457500E+02  0.59470600145E+02  0.00000000000E+00 0. -1.
</event>
<event>
 4    1  0.9957587E-003  0.9118800E+02  0.7818608E-02  0.1130116E+00
         25   -1    0    0    0    0  0.00000000000E+00  0.00000000000E+00  0.99999998245E-14  0.12500000000E+03  0.12500000000E+03 0.  0.
        -13    1    1    0    0    0  0.17310849267E+02 -0.25264326661E+02  0.17673929945E+02  0.35360015097E+02  0.10566000000E+00 0.  1.
         13    1    1    0    0    0  0.13497331237E+02 -0.19395935425E+02  0.13350014910E+02  0.27140639707E+02  0.10566000000E+00 0.  1.
         22    1    1    0    0    0 -0.30808180504E+02  0.44660262086E+02 -0.31023944855E+02  0.62499345196E+02  0.00000000000E+00 0.  1.
</event>
<event>
 4    1  0.9957587E-003  0.9118800E+02  0.7818608E-02  0.1130116E+00
         25   -1    0    0    0    0  0.00000000000E+00  0.00000000000E+00  0.99999998245E-14  0.12500000000E+03  0.12500000000E+03 0.  0.
        -13    1    1    0    0    0  0.21981948151E+02  0.26505625837E+02  0.90326799443E+01  0.35599925794E+02  0.10566000000E+00 0.  1.
         13    1    1    0    0    0  0.16578055620E+02  0.20031450432E+02  0.68937160799E+01  0.26900286615E+02  0.10566000000E+00 0.  1.
         22    1    1    0    0    0 -0.38560003771E+02 -0.46537076269E+02 -0.15926396024E+02  0.62499787591E+02  0.00000000000E+00 0.  1.
</event>
<event>
 4    1  0.9957587E-003  0.9118800E+02  0.7818608E-02  0.1130116E+00
         25   -1    0    0    0    0  0.00000000000E+00  0.00000000000E+00  0.99999998245E-14  0.12500000000E+03  0.12500000000E+03 0.  0.
        -13    1    1    0    0    0 -0.20256275109E+02  0.13555777339E+02  0.29684444049E+02  0.38409024500E+02  0.10566000000E+00 0. -1.
         13    1    1    0    0    0 -0.14144921576E+02  0.86994964154E+01  0.17483090388E+02  0.24112852544E+02  0.10566000000E+00 0.  1.
         22    1    1    0    0    0  0.34401196684E+02 -0.22255273754E+02 -0.47167534437E+02  0.62478122956E+02  0.00000000000E+00 0. -1.
</event>
<event>
 4    1  0.9957587E-003  0.9118800E+02  0.7818608E-02  0.1130116E+00
         25   -1    0    0    0    0  0.00000000000E+00  0.00000000000E+00  0.99999998245E-14  0.12500000000E+03  0.12500000000E+03 0.  0.
        -13    1    1    0    0    0 -0.28039513368E+02  0.21990671138E+02 -0.34447814806E+02  0.49562758559E+02  0.10566000000E+00 0. -1.
         13    1    1    0    0    0 -0.73584810690E+01  0.56632487117E+01 -0.90084145211E+01  0.12937632157E+02  0.10566000000E+00 0. -1.
         22    1    1    0    0    0  0.35397994437E+02 -0.27653919850E+02  0.43456229328E+02  0.62499609284E+02  0.00000000000E+00 0. -1.
</event>
<event>
 4    1  0.9957587E-003  0.9118800E+02  0.7818608E-02  0.1130116E+00
         25   -1    0    0    0    0  0.00000000000E+00  0.00000000000E+00  0.99999998245E-14  0.12500000000E+03  0.12500000000E+03 0.  0.
        -13    1    1    0    0    0  0.89698343860E+01  0.24913434865E+00 -0.10181056111E+02  0.13571479816E+02  0.10566000000E+00 0. -1.
         13    1    1    0    0    0 -0.23654843316E+01  0.46452531448E+02  0.34925412492E+02  0.58165529275E+02  0.10566000000E+00 0.  1.
         22    1    1    0    0    0 -0.66043500545E+01 -0.46701665797E+02 -0.24744356381E+02  0.53262990909E+02  0.00000000000E+00 0.  1.
</event>
<event>
 4    1  0.9957587E-003  0.9118800E+02  0.7818608E-02  0.1130116E+00
         25   -1    0    0    0    0  0.00000000000E+00  0.00000000000E+00  0.99999998245E-14  0.12500000000E+03  0.12500000000E+03 0.  0.
        -13    1    1    0    0    0  0.54211049094E+01 -0.28607271635E+01 -0.15139180227E+02  0.16333342595E+02  0.10566000000E+00 0. -1.
         13    1    1    0    0    0  0.17383013965E+02 -0.65333033472E+01 -0.42277905584E+02  0.46176679090E+02  0.10566000000E+00 0.  1.
         22    1    1    0    0    0 -0.22804118874E+02  0.93940305107E+01  0.57417085811E+02  0.62489978316E+02  0.00000000000E+00 0.  1.
</event>
<event>
 4    1  0.9957587E-003  0.9118800E+02  0.7818608E-02  0.1130116E+00
         25   -1    0    0    0    0  0.00000000000E+00  0.00000000000E+00  0.99999998245E-14  0.12500000000E+03  0.12500000000E+03 0.  0.
        -13    1    1    0    0    0 -0.12743979463E+02 -0.68321387604E+01  0.17603962298E+02  0.22781522891E+02  0.10566000000E+00 0. -1.
         13    1    1    0    0    0 -0.18496624297E+02 -0.10289678019E+02  0.33677750847E+02  0.39776936159E+02  0.10566000000E+00 0.  1.
         22    1    1    0    0    0  0.31240603760E+02  0.17121816779E+02 -0.51281713145E+02  0.62441540950E+02  0.00000000000E+00 0.  1.
</event>
<event>
 4    1  0.9957587E-003  0.9118800E+02  0.7818608E-02  0.1130116E+00
         25   -1    0    0    0    0  0.00000000000E+00  0.00000000000E+00  0.99999998245E-14  0.12500000000E+03  0.12500000000E+03 0.  0.
        -13    1    1    0    0    0 -0.11090245533E+01  0.28966988696E+02  0.16518162805E+02  0.33364310813E+02  0.10566000000E+00 0. -1.
         13    1    1    0    0    0  0.52992971068E+00  0.24431005133E+02 -0.27844070914E+02  0.37046704123E+02  0.10566000000E+00 0.  1.
         22    1    1    0    0    0  0.57909484265E+00 -0.53397993829E+02  0.11325908109E+02  0.54588985064E+02  0.00000000000E+00 0. -1.
</event>
<event>
 4    1  0.9957587E-003  0.9118800E+02  0.7818608E-02  0.1130116E+00
         25   -1    0    0    0    0  0.00000000000E+00  0.00000000000E+00  0.99999998245E-14  0.12500000000E+03  0.12500000000E+03 0.  0.
        -13    1    1    0    0    0  0.29423268073E+02 -0.29375810674E+02  0.32680461724E+02  0.52883747025E+02  0.10566000000E+00 0.  1.
         13    1    1    0    0    0  0.45833678574E+01 -0.14408972410E+01  0.89475830879E+01  0.10156468526E+02  0.10566000000E+00 0. -1.
         22    1    1    0    0    0 -0.34006635930E+02  0.30816707915E+02 -0.41628044812E+02  0.61959784449E+02  0.00000000000E+00 0.  1.
</event>
<event>
 4    1  0.9957587E-003  0.9118800E+02  0.7818608E-02  0.1130116E+00
         25   -1    0    0    0    0  0.00000000000E+00  0.00000000000E+00  0.99999998245E-14  0.12500000000E+03  0.12500000000E+03 0.  0.
        -13    1    1    0    0    0  0.34573577206E+02 -0.38797246205E+01  0.45418867563E+02  0.57212491632E+02  0.10566000000E+00 0.  1.
         13    1    1    0    0    0  0.17951133434E+01 -0.32441825920E+00  0.50886053928E+01  0.54067317301E+01  0.10566000000E+00 0. -1.
         22    1    1    0    0    0 -0.36368690549E+02  0.42041428797E+01 -0.50507472956E+02  0.62380776638E+02  0.00000000000E+00 0.  1.
</event>
<event>
 4    1  0.9957587E-003  0.9118800E+02  0.7818608E-02  0.1130116E+00
         25   -1    0    0    0    0  0.00000000000E+00  0.00000000000E+00  0.99999998245E-14  0.12500000000E+03  0.12500000000E+03 0.  0.
        -13    1    1    0    0    0  0.16732758163E+02  0.13900982085E+02  0.12005290501E+02  0.24846743503E+02  0.10566000000E+00 0.  1.
         13    1    1    0    0    0  0.25809040003E+02  0.20981969778E+02  0.17649974940E+02  0.37654778993E+02  0.10566000000E+00 0. -1.
         22    1    1    0    0    0 -0.42541798166E+02 -0.34882951862E+02 -0.29655265441E+02  0.62498477503E+02  0.00000000000E+00 0. -1.
</event>
<event>
 4    1  0.9957587E-003  0.9118800E+02  0.7818608E-02  0.1130116E+00
         25   -1    0    0    0    0  0.00000000000E+00  0.00000000000E+00  0.99999998245E-14  0.12500000000E+03  0.12500000000E+03 0.  0.
        -13    1    1    0    0    0 -0.28056714147E+02  0.45750178008E+02  0.16619818264E+02  0.56182626493E+02  0.10566000000E+00 0. -1.
         13    1    1    0    0    0 -0.43567766740E+01  0.47040822824E+01  0.55781140473E+00  0.64367857433E+01  0.10566000000E+00 0.  1.
         22    1    1    0    0    0  0.32413490821E+02 -0.50454260290E+02 -0.17177629669E+02  0.62380587763E+02  0.00000000000E+00 0. -1.
</event>
<event>
 4    1  0.9957587E-003  0.9118800E+02  0.7818608E-02  0.1130116E+00
         25   -1    0    0    0    0  0.00000000000E+00  0.00000000000E+00  0.99999998245E-14  0.12500000000E+03  0.12500000000E+03 0.  0.
        -13    1    1    0    0    0  0.17145364626E+01 -0.36756000992E-01 -0.58436144941E-01  0.17191757048E+01  0.10566000000E+00 0. -1.
         13    1    1    0    0    0  0.59793409490E+02 -0.10722546253E+02 -0.23467676310E+01  0.60792625366E+02  0.10566000000E+00 0.  1.
         22    1    1    0    0    0 -0.61507945952E+02  0.10759302254E+02  0.24052037760E+01  0.62488198929E+02  0.00000000000E+00 0.  1.
</event>
<event>
 4    1  0.9957587E-003  0.9118800E+02  0.7818608E-02  0.1130116E+00
         25   -1    0    0    0    0  0.00000000000E+00  0.00000000000E+00  0.99999998245E-14  0.12500000000E+03  0.12500000000E+03 0.  0.
        -13    1    1    0    0    0  0.42926582833E+00 -0.49694066944E+01 -0.13940647903E+02  0.14806488444E+02  0.10566000000E+00 0.  1.
         13    1    1    0    0    0  0.20831079655E+00 -0.16689141748E+02 -0.44680387575E+02  0.47696111409E+02  0.10566000000E+00 0. -1.
         22    1    1    0    0    0 -0.63757662488E+00  0.21658548443E+02  0.58621035478E+02  0.62497400147E+02  0.00000000000E+00 0.  1.
</event>
<event>
 4    1  0.9957587E-003  0.9118800E+02  0.7818608E-02  0.1130116E+00
         25   -1    0    0    0    0  0.00000000000E+00  0.00000000000E+00  0.99999998245E-14  0.12500000000E+03  0.12500000000E+03 0.  0.
        -13    1    1    0    0    0  0.96100385078E+00 -0.98540347005E+01  0.54076301599E+00  0.99161039201E+01  0.10566000000E+00 0.  1.
         13    1    1    0    0    0  0.38801287726E+01 -0.52448417154E+02 -0.41889201069E+00  0.52593521424E+02  0.10566000000E+00 0. -1.
         22    1    1    0    0    0 -0.48411326234E+01  0.62302451854E+02 -0.12187100530E+00  0.62490374656E+02  0.00000000000E+00 0. -1.
</event>
<event>
 4    1  0.9957587E-003  0.9118800E+02  0.7818608E-02  0.1130116E+00
         25   -1    0    0    0    0  0.00000000000E+00  0.00000000000E+00  0.99999998245E-14  0.12500000000E+03  0.12500000000E+03 0.  0.
        -13    1    1    0    0    0 -0.11437189839E+01 -0.54400170368E+02  0.13462422404E+02  0.56052962546E+02  0.10566000000E+00 0. -1.
         13    1    1    0    0    0 -0.11916231682E+00 -0.63153061762E+01  0.13004714851E+01  0.64497815370E+01  0.10566000000E+00 0.  1.
         22    1    1    0    0    0  0.12628813007E+01  0.60715476544E+02 -0.14762893890E+02  0.62497255917E+02  0.00000000000E+00 0. -1.
</event>
<event>
 4    1  0.9957587E-003  0.9118800E+02  0.7818608E-02  0.1130116E+00
         25   -1    0    0    0    0  0.00000000000E+00  0.00000000000E+00  0.99999998245E-14  0.12500000000E+03  0.12500000000E+03 0.  0.
        -13    1    1    0    0    0  0.21580979955E+01 -0.40024589611E+01 -0.17925025551E+02  0.18493100598E+02  0.10566000000E+00 0. -1.
         13    1    1    0    0    0  0.49192171280E+01 -0.99759787935E+01 -0.42578562700E+02  0.44007544985E+02  0.10566000000E+00 0.  1.
         22    1    1    0    0    0 -0.70773151235E+01  0.13978437755E+02  0.60503588250E+02  0.62499354417E+02  0.00000000000E+00 0.  1.
</event>
<event>
 4    1  0.9957587E-003  0.9118800E+02  0.7818608E-02  0.1130116E+00
         25   -1    0    0    0    0  0.00000000000E+00  0.00000000000E+00  0.99999998245E-14  0.12500000000E+03  0.12500000000E+03 0.  0.
        -13    1    1    0    0    0 -0.23649991414E+02 -0.20128122858E+02  0.33485671256E+02  0.45670173715E+02  0.10566000000E+00 0.  1.
         13    1    1    0    0    0 -0.84761258489E+01 -0.69671196089E+01  0.12767770819E+02  0.16834862660E+02  0.10566000000E+00 0. -1.
         22    1    1    0    0    0  0.32126117263E+02  0.27095242467E+02 -0.46253442075E+02  0.62494963625E+02  0.00000000000E+00 0.  1.
</event>
<event>
 4    1  0.9957587E-003  0.9118800E+02  0.7818608E-02  0.1130116E+00
         25   -1    0    0    0    0  0.00000000000E+00  0.00000000000E+00  0.99999998245E-14  0.12500000000E+03  0.12500000000E+03 0.  0.
        -13    1    1    0    0    0 -0.18504878952E+02  0.43818968267E+02 -0.88468366029E+01  0.48381920249E+02  0.10566000000E+00 0. -1.
         13    1    1    0    0    0 -0.78073020399E+01  0.11875564494E+02 -0.96120792818E+00  0.14244931798E+02  0.10566000000E+00 0.  1.
         22    1    1    0    0    0  0.26312180992E+02 -0.55694532762E+02  0.98080445311E+01  0.62373147954E+02  0.00000000000E+00 0. -1.
</event>
<event>
 4    1  0.9957587E-003  0.9118800E+02  0.7818608E-02  0.1130116E+00
         25   -1    0    0    0    0  0.00000000000E+00  0.00000000000E+00  0.99999998245E-14  0.12500000000E+03  0.12500000000E+03 0.  0.
        -13    1    1    0    0    0 -0.75285816650E+01  0.31721452373E+02 -0.27822517309E+02  0.42860631306E+02  0.10566000000E+00 0. -1.
         13    1    1    0    0    0 -0.17743546611E+01  0.12913518222E+02 -0.14802347378E+02  0.19723791199E+02  0.10566000000E+00 0.  1.
         22    1    1    0    0    0  0.93029363261E+01 -0.44634970595E+02  0.42624864687E+02  0.62415577494E+02  0.00000000000E+00 0. -1.
</event>
<event>
 4    1  0.9957587E-003  0.9118800E+02  0.7818608E-02  0.1130116E+00
         25   -1    0    0    0    0  0.00000000000E+00  0.00000000000E+00  0.99999998245E-14  0.12500000000E+03  0.12500000000E+03 0.  0.
        -13    1    1    0    0    0 -0.12465363672E+02  0.82729350160E+01 -0.11884523942E+02  0.19107062009E+02  0.10566000000E+00 0. -1.
         13    1    1    0    0    0 -0.27971069324E+02  0.18673271767E+02 -0.27421347238E+02  0.43393700534E+02  0.10566000000E+00 0.  1.
         22    1    1    0    0    0  0.40436432996E+02 -0.26946206783E+02  0.39305871180E+02  0.62499237457E+02  0.00000000000E+00 0. -1.
</event>
<event>
 4    1  0.9957587E-003  0.9118800E+02  0.7818608E-02  0.1130116E+00
         25   -1    0    0    0    0  0.00000000000E+00  0.00000000000E+00  0.99999998245E-14  0.12500000000E+03  0.12500000000E+03 0.  0.
        -13    1    1    0    0    0  0.13062812946E+02 -0.28708679201E+02  0.14995223792E+02  0.34924106920E+02  0.10566000000E+00 0. -1.
         13    1    1    0    0    0  0.90264409587E+01 -0.23734880516E+02  0.10802315944E+02  0.27595695014E+02  0.10566000000E+00 0.  1.
         22    1    1    0    0    0 -0.22089253905E+02  0.52443559718E+02 -0.25797539736E+02  0.62480198066E+02  0.00000000000E+00 0.  1.
</event>
<event>
 4    1  0.9957587E-003  0.9118800E+02  0.7818608E-02  0.1130116E+00
         25   -1    0    0    0    0  0.00000000000E+00  0.00000000000E+00  0.99999998245E-14  0.12500000000E+03  0.12500000000E+03 0.  0.
        -13    1    1    0    0    0 -0.76308795114E+01  0.44980255515E+02  0.29188066556E+02  0.54160946277E+02  0.10566000000E+00 0. -1.
         13    1    1    0    0    0 -0.11994369984E+01  0.69191693766E+01  0.44968680373E+01  0.83394568261E+01  0.10566000000E+00 0. -1.
         22    1    1    0    0    0  0.88303165098E+01 -0.51899424891E+02 -0.33684934594E+02  0.62499596897E+02  0.00000000000E+00 0. -1.
</event>
<event>
 4    1  0.9957587E-003  0.9118800E+02  0.7818608E-02  0.1130116E+00
         25   -1    0    0    0    0  0.00000000000E+00  0.00000000000E+00  0.99999998245E-14  0.12500000000E+03  0.12500000000E+03 0.  0.
        -13    1    1    0    0    0  0.17895431894E+02 -0.10790843122E+02  0.18643278961E+02  0.28004853016E+02  0.10566000000E+00 0.  1.
         13    1    1    0    0    0  0.21539394089E+02 -0.12819712692E+02  0.23703483771E+02  0.34498649802E+02  0.10566000000E+00 0. -1.
         22    1    1    0    0    0 -0.39434825983E+02  0.23610555814E+02 -0.42346762732E+02  0.62496497183E+02  0.00000000000E+00 0. -1.
</event>
<event>
 4    1  0.9957587E-003  0.9118800E+02  0.7818608E-02  0.1130116E+00
         25   -1    0    0    0    0  0.00000000000E+00  0.00000000000E+00  0.99999998245E-14  0.12500000000E+03  0.12500000000E+03 0.  0.
        -13    1    1    0    0    0  0.16360094199E+02 -0.16028543678E+02  0.28605548078E+02  0.36644992012E+02  0.10566000000E+00 0.  1.
         13    1    1    0    0    0  0.96433556064E+01 -0.12946629318E+02  0.20241448309E+02  0.25890865411E+02  0.10566000000E+00 0. -1.
         22    1    1    0    0    0 -0.26003449806E+02  0.28975172995E+02 -0.48846996387E+02  0.62464142578E+02  0.00000000000E+00 0. -1.
</event>
<event>
 4    1  0.9957587E-003  0.9118800E+02  0.7818608E-02  0.1130116E+00
         25   -1    0    0    0    0  0.00000000000E+00  0.00000000000E+00  0.99999998245E-14  0.12500000000E+03  0.12500000000E+03 0.  0.
        -13    1    1    0    0    0  0.70146923077E+01  0.22273089842E+02  0.55208521099E+01  0.23995570661E+02  0.10566000000E+00 0.  1.
         13    1    1    0    0    0  0.22576145006E+02  0.16190122904E+02  0.29982666130E+02  0.40875100431E+02  0.10566000000E+00 0. -1.
         22    1    1    0    0    0 -0.29590837313E+02 -0.38463212746E+02 -0.35503518240E+02  0.60129328909E+02  0.00000000000E+00 0. -1.
</event>
<event>
 4    1  0.9957587E-003  0.9118800E+02  0.7818608E-02  0.1130116E+00
         25   -1    0    0    0    0  0.00000000000E+00  0.00000000000E+00  0.99999998245E-14  0.12500000000E+03  0.12500000000E+03 0.  0.
        -13    1    1    0    0    0  0.38368607694E+02 -0.10991046222E+02 -0.12225409370E+02  0.41742363993E+02  0.10566000000E+00 0.  1.
         13    1    1    0    0    0  0.19257734576E+02 -0.57574976686E+01 -0.52113547045E+01  0.20764838124E+02  0.10566000000E+00 0. -1.
         22    1    1    0    0    0 -0.57626342270E+02  0.16748543890E+02  0.17436764074E+02  0.62492797883E+02  0.00000000000E+00 0.  1.
</event>
<event>
 4    1  0.9957587E-003  0.9118800E+02  0.7818608E-02  0.1130116E+00
         25   -1    0    0    0    0  0.00000000000E+00  0.00000000000E+00  0.99999998245E-14  0.12500000000E+03  0.12500000000E+03 0.  0.
        -13    1    1    0    0    0  0.33761696998E+01  0.57829886924E+01  0.89371835757E+01  0.11168074783E+02  0.10566000000E+00 0. -1.
         13    1    1    0    0    0  0.13256648954E+02  0.33967991826E+02  0.36233384836E+02  0.51404596593E+02  0.10566000000E+00 0.  1.
         22    1    1    0    0    0 -0.16632818654E+02 -0.39750980518E+02 -0.45170568412E+02  0.62427328624E+02  0.00000000000E+00 0.  1.
</event>
<event>
 4    1  0.9957587E-003  0.9118800E+02  0.7818608E-02  0.1130116E+00
         25   -1    0    0    0    0  0.00000000000E+00  0.00000000000E+00  0.99999998245E-14  0.12500000000E+03  0.12500000000E+03 0.  0.
        -13    1    1    0    0    0 -0.10981483688E+02  0.14795730523E+02 -0.24693443583E+01  0.18590735631E+02  0.10566000000E+00 0.  1.
         13    1    1    0    0    0 -0.79753050691E+01  0.34090398701E+02 -0.28822459623E+02  0.45348716821E+02  0.10566000000E+00 0. -1.
         22    1    1    0    0    0  0.18956788757E+02 -0.48886129224E+02  0.31291803981E+02  0.61060547548E+02  0.00000000000E+00 0. -1.
</event>
<event>
 4    1  0.9957587E-003  0.9118800E+02  0.7818608E-02  0.1130116E+00
         25   -1    0    0    0    0  0.00000000000E+00  0.00000000000E+00  0.99999998245E-14  0.12500000000E+03  0.12500000000E+03 0.  0.
        -13    1    1    0    0    0 -0.12469767129E+02  0.33574868031E+02  0.24483902413E+02  0.43384784164E+02  0.10566000000E+00 0.  1.
         13    1    1    0    0    0 -0.51310516989E+01  0.13625063228E+02  0.12445587522E+02  0.19153951350E+02  0.10566000000E+00 0. -1.
         22    1    1    0    0    0  0.17600818828E+02 -0.47199931260E+02 -0.36929489935E+02  0.62461264486E+02  0.00000000000E+00 0.  1.
</event>
<event>
 4    1  0.9957587E-003  0.9118800E+02  0.7818608E-02  0.1130116E+00
         25   -1    0    0    0    0  0.00000000000E+00  0.00000000000E+00  0.99999998245E-14  0.12500000000E+03  0.12500000000E+03 0.  0.
        -13    1    1    0    0    0  0.28850991496E+02  0.27327968471E+02 -0.14151247330E+02  0.42183723592E+02  0.10566000000E+00 0.  1.
         13    1    1    0    0    0  0.14105222362E+02  0.12950943652E+02 -0.67892606355E+01  0.20317220857E+02  0.10566000000E+00 0. -1.
         22    1    1    0    0    0 -0.42956213858E+02 -0.40278912123E+02  0.20940507966E+02  0.62499055550E+02  0.00000000000E+00 0.  1.
</event>
<event>
 4    1  0.9957587E-003  0.9118800E+02  0.7818608E-02  0.1130116E+00
         25   -1    0    0    0    0  0.00000000000E+00  0.00000000000E+00  0.99999998245E-14  0.12500000000E+03  0.12500000000E+03 0.  0.
        -13    1    1    0    0    0  0.16003217348E+02 -0.41051614243E+02 -0.94655673454E+01  0.45066019646E+02  0.10566000000E+00 0. -1.
         13    1    1    0    0    0  0.69692037045E+01 -0.15664891154E+02 -0.32079832956E+01  0.17443077022E+02  0.10566000000E+00 0.  1.
         22    1    1    0    0    0 -0.22972421053E+02  0.56716505397E+02  0.12673550641E+02  0.62490903333E+02  0.00000000000E+00 0. -1.
</event>
<event>
 4    1  0.9957587E-003  0.9118800E+02  0.7818608E-02  0.1130116E+00
         25   -1    0    0    0    0  0.00000000000E+00  0.00000000000E+00  0.99999998245E-14  0.12500000000E+03  0.12500000000E+03 0.  0.
        -13    1    1    0    0    0 -0.19841207314E+02  0.20544758009E+02 -0.30609396398E+02  0.41865342483E+02  0.10566000000E+00 0.  1.
         13    1    1    0    0    0 -0.99525513712E+01  0.10211823586E+02 -0.14915561243E+02  0.20635400432E+02  0.10566000000E+00 0. -1.
         22    1    1    0    0    0  0.29793758685E+02 -0.30756581595E+02  0.45524957641E+02  0.62499257085E+02  0.00000000000E+00 0.  1.
</event>
<event>
 4    1  0.9957587E-003  0.9118800E+02  0.7818608E-02  0.1130116E+00
         25   -1    0    0    0    0  0.00000000000E+00  0.00000000000E+00  0.99999998245E-14  0.12500000000E+03  0.12500000000E+03 0.  0.
        -13    1    1    0    0    0 -0.44860233450E+02  0.77712740480E+01  0.17363401818E+02  0.48727119063E+02  0.10566000000E+00 0. -1.
         13    1    1    0    0    0 -0.61791975903E+01  0.79405235069E+01  0.11733837179E+02  0.15457312037E+02  0.10566000000E+00 0.  1.
         22    1    1    0    0    0  0.51039431040E+02 -0.15711797555E+02 -0.29097238997E+02  0.60815568899E+02  0.00000000000E+00 0. -1.
</event>
<event>
 4    1  0.9957587E-003  0.9118800E+02  0.7818608E-02  0.1130116E+00
         25   -1    0    0    0    0  0.00000000000E+00  0.00000000000E+00  0.99999998245E-14  0.12500000000E+03  0.12500000000E+03 0.  0.
        -13    1    1    0    0    0  0.30063217113E+02 -0.17032717156E+02  0.50719540438E+02  0.61370949342E+02  0.10566000000E+00 0.  1.
         13    1    1    0    0    0  0.56931354886E+00 -0.41517935581E+00  0.88275872211E+00  0.11344244406E+01  0.10566000000E+00 0. -1.
         22    1    1    0    0    0 -0.30632530662E+02  0.17447896512E+02 -0.51602299160E+02  0.62494626217E+02  0.00000000000E+00 0.  1.
</event>
<event>
 4    1  0.9957587E-003  0.9118800E+02  0.7818608E-02  0.1130116E+00
         25   -1    0    0    0    0  0.00000000000E+00  0.00000000000E+00  0.99999998245E-14  0.12500000000E+03  0.12500000000E+03 0.  0.
        -13    1    1    0    0    0 -0.29405683775E+00 -0.14435279376E+01 -0.73016688290E+01  0.74495485806E+01  0.10566000000E+00 0.  1.
         13    1    1    0    0    0 -0.26588395987E+00 -0.10706936718E+02 -0.54000885657E+02  0.55052847373E+02  0.10566000000E+00 0. -1.
         22    1    1    0    0    0  0.55994079762E+00  0.12150464655E+02  0.61302554486E+02  0.62497604046E+02  0.00000000000E+00 0. -1.
</event>
<event>
 4    1  0.9957587E-003  0.9118800E+02  0.7818608E-02  0.1130116E+00
         25   -1    0    0    0    0  0.00000000000E+00  0.00000000000E+00  0.99999998245E-14  0.12500000000E+03  0.12500000000E+03 0.  0.
        -13    1    1    0    0    0 -0.23137516391E+02 -0.40036220556E+01 -0.25861412587E+02  0.34931325187E+02  0.10566000000E+00 0. -1.
         13    1    1    0    0    0 -0.18201292515E+02 -0.27733625812E+01 -0.20520676616E+02  0.27569692091E+02  0.10566000000E+00 0.  1.
         22    1    1    0    0    0  0.41338808905E+02  0.67769846368E+01  0.46382089202E+02  0.62498982722E+02  0.00000000000E+00 0. -1.
</event>
<event>
 4    1  0.9957587E-003  0.9118800E+02  0.7818608E-02  0.1130116E+00
         25   -1    0    0    0    0  0.00000000000E+00  0.00000000000E+00  0.99999998245E-14  0.12500000000E+03  0.12500000000E+03 0.  0.
        -13    1    1    0    0    0 -0.24311216672E+02 -0.88952679412E+01 -0.21490760006E+02  0.33645578870E+02  0.10566000000E+00 0. -1.
         13    1    1    0    0    0  0.47737821874E+02  0.24098067623E+02 -0.38902695830E+01  0.53616805778E+02  0.10566000000E+00 0.  1.
         22    1    1    0    0    0 -0.23426605202E+02 -0.15202799682E+02  0.25381029589E+02  0.37737615352E+02  0.00000000000E+00 0.  1.
</event>
<event>
 4    1  0.9957587E-003  0.9118800E+02  0.7818608E-02  0.1130116E+00
         25   -1    0    0    0    0  0.00000000000E+00  0.00000000000E+00  0.99999998245E-14  0.12500000000E+03  0.12500000000E+03 0.  0.
        -13    1    1    0    0    0 -0.21497039968E+02  0.18597533960E+01 -0.42936943579E+02  0.48053862467E+02  0.10566000000E+00 0.  1.
         13    1    1    0    0    0  0.45813964107E+01  0.20485438989E+02 -0.48522868300E+01  0.21545260619E+02  0.10566000000E+00 0. -1.
         22    1    1    0    0    0  0.16915643557E+02 -0.22345192385E+02  0.47789230409E+02  0.55400876913E+02  0.00000000000E+00 0.  1.
</event>
<event>
 4    1  0.9957587E-003  0.9118800E+02  0.7818608E-02  0.1130116E+00
         25   -1    0    0    0    0  0.00000000000E+00  0.00000000000E+00  0.99999998245E-14  0.12500000000E+03  0.12500000000E+03 0.  0.
        -13    1    1    0    0    0  0.28633740672E+02 -0.24820438792E+02 -0.34609435780E+01  0.38051735588E+02  0.10566000000E+00 0.  1.
         13    1    1    0    0    0  0.18482341001E+02 -0.15847167061E+02 -0.22341189901E+01  0.24448559967E+02  0.10566000000E+00 0.  1.
         22    1    1    0    0    0 -0.47116081673E+02  0.40667605854E+02  0.56950625681E+01  0.62499704446E+02  0.00000000000E+00 0.  1.
</event>
<event>
 4    1  0.9957587E-003  0.9118800E+02  0.7818608E-02  0.1130116E+00
         25   -1    0    0    0    0  0.00000000000E+00  0.00000000000E+00  0.99999998245E-14  0.12500000000E+03  0.12500000000E+03 0.  0.
        -13    1    1    0    0    0 -0.16179795156E+01 -0.22348398783E+01 -0.70328314109E+00  0.28492346703E+01  0.10566000000E+00 0.  1.
         13    1    1    0    0    0 -0.32060788343E+02 -0.46903195449E+02 -0.18189839414E+02  0.59654717453E+02  0.10566000000E+00 0. -1.
         22    1    1    0    0    0  0.33678767859E+02  0.49138035327E+02  0.18893122555E+02  0.62496047876E+02  0.00000000000E+00 0. -1.
</event>
<event>
 4    1  0.9957587E-003  0.9118800E+02  0.7818608E-02  0.1130116E+00
         25   -1    0    0    0    0  0.00000000000E+00  0.00000000000E+00  0.99999998245E-14  0.12500000000E+03  0.12500000000E+03 0.  0.
        -13    1    1    0    0    0  0.14165242015E+02  0.13309432269E+02  0.16832433785E+02  0.25712585631E+02  0.10566000000E+00 0. -1.
         13    1    1    0    0    0  0.22594870957E+02  0.21824192513E+02  0.19335048220E+02  0.36887380310E+02  0.10566000000E+00 0.  1.
         22    1    1    0    0    0 -0.36760112972E+02 -0.35133624782E+02 -0.36167482005E+02  0.62400034059E+02  0.00000000000E+00 0.  1.
</event>
<event>
 4    1  0.9957587E-003  0.9118800E+02  0.7818608E-02  0.1130116E+00
         25   -1    0    0    0    0  0.00000000000E+00  0.00000000000E+00  0.99999998245E-14  0.12500000000E+03  0.12500000000E+03 0.  0.
        -13    1    1    0    0    0  0.59822382615E+01  0.89091602173E+01 -0.23880442165E+01  0.10994281678E+02  0.10566000000E+00 0.  1.
         13    1    1    0    0    0  0.32856597085E+02  0.35514400244E+02 -0.17930327786E+02  0.51597833436E+02  0.10566000000E+00 0. -1.
         22    1    1    0    0    0 -0.38838835347E+02 -0.44423560462E+02  0.20318372002E+02  0.62407884886E+02  0.00000000000E+00 0. -1.
</event>
<event>
 4    1  0.9957587E-003  0.9118800E+02  0.7818608E-02  0.1130116E+00
         25   -1    0    0    0    0  0.00000000000E+00  0.00000000000E+00  0.99999998245E-14  0.12500000000E+03  0.12500000000E+03 0.  0.
        -13    1    1    0    0    0 -0.23538771175E+01 -0.60396475911E+02  0.15542426310E+02  0.62408759157E+02  0.10566000000E+00 0.  1.
         13    1    1    0    0    0  0.38531487768E+00  0.19291187361E+01  0.27735619416E+00  0.19894866541E+01  0.10566000000E+00 0. -1.
         22    1    1    0    0    0  0.19685622398E+01  0.58467357174E+02 -0.15819782504E+02  0.60601754189E+02  0.00000000000E+00 0.  1.
</event>
<event>
 4    1  0.9957587E-003  0.9118800E+02  0.7818608E-02  0.1130116E+00
         25   -1    0    0    0    0  0.00000000000E+00  0.00000000000E+00  0.99999998245E-14  0.12500000000E+03  0.12500000000E+03 0.  0.
        -13    1    1    0    0    0  0.17773969266E+01 -0.27643335863E+01 -0.94034909335E+00  0.34199562079E+01  0.10566000000E+00 0.  1.
         13    1    1    0    0    0 -0.19683881182E+01 -0.53639426059E+02 -0.25337133449E+02  0.59355236291E+02  0.10566000000E+00 0. -1.
         22    1    1    0    0    0  0.19099119160E+00  0.56403759645E+02  0.26277482542E+02  0.62224807501E+02  0.00000000000E+00 0. -1.
</event>
<event>
 4    1  0.9957587E-003  0.9118800E+02  0.7818608E-02  0.1130116E+00
         25   -1    0    0    0    0  0.00000000000E+00  0.00000000000E+00  0.99999998245E-14  0.12500000000E+03  0.12500000000E+03 0.  0.
        -13    1    1    0    0    0  0.52108616374E+01 -0.21264228496E+02  0.10885768675E+02  0.24450595416E+02  0.10566000000E+00 0.  1.
         13    1    1    0    0    0  0.76932048355E+01 -0.33285108520E+02  0.16754831029E+02  0.38050221770E+02  0.10566000000E+00 0.  1.
         22    1    1    0    0    0 -0.12904066473E+02  0.54549337016E+02 -0.27640599705E+02  0.62499182814E+02  0.00000000000E+00 0.  1.
</event>
<event>
 4    1  0.9957587E-003  0.9118800E+02  0.7818608E-02  0.1130116E+00
         25   -1    0    0    0    0  0.00000000000E+00  0.00000000000E+00  0.99999998245E-14  0.12500000000E+03  0.12500000000E+03 0.  0.
        -13    1    1    0    0    0  0.39580528912E+01 -0.30423907068E+01 -0.46814553900E+01  0.68446703724E+01  0.10566000000E+00 0.  1.
         13    1    1    0    0    0  0.35991368881E+02 -0.24403676606E+02 -0.34756829569E+02  0.55668361135E+02  0.10566000000E+00 0. -1.
         22    1    1    0    0    0 -0.39949421772E+02  0.27446067312E+02  0.39438284959E+02  0.62486968492E+02  0.00000000000E+00 0. -1.
</event>
<event>
 4    1  0.9957587E-003  0.9118800E+02  0.7818608E-02  0.1130116E+00
         25   -1    0    0    0    0  0.00000000000E+00  0.00000000000E+00  0.99999998245E-14  0.12500000000E+03  0.12500000000E+03 0.  0.
        -13    1    1    0    0    0  0.52686287883E+02 -0.29647935997E+01  0.28571261744E+02  0.60008025244E+02  0.10566000000E+00 0. -1.
         13    1    1    0    0    0  0.21429773113E+01 -0.22020157494E+00  0.12535569131E+01  0.24946762236E+01  0.10566000000E+00 0.  1.
         22    1    1    0    0    0 -0.54829265194E+02  0.31849951746E+01 -0.29824818657E+02  0.62497298533E+02  0.00000000000E+00 0. -1.
</event>
<event>
 4    1  0.9957587E-003  0.9118800E+02  0.7818608E-02  0.1130116E+00
         25   -1    0    0    0    0  0.00000000000E+00  0.00000000000E+00  0.99999998245E-14  0.12500000000E+03  0.12500000000E+03 0.  0.
        -13    1    1    0    0    0 -0.49506621982E+02  0.45760794989E+00 -0.71194151847E+00  0.49513968230E+02  0.10566000000E+00 0.  1.
         13    1    1    0    0    0 -0.95509809286E+01 -0.87394054037E+01  0.82867876247E+01  0.15371416873E+02  0.10566000000E+00 0. -1.
         22    1    1    0    0    0  0.59057602911E+02  0.82817974538E+01 -0.75748461062E+01  0.60114614897E+02  0.00000000000E+00 0.  1.
</event>
<event>
 4    1  0.9957587E-003  0.9118800E+02  0.7818608E-02  0.1130116E+00
         25   -1    0    0    0    0  0.00000000000E+00  0.00000000000E+00  0.99999998245E-14  0.12500000000E+03  0.12500000000E+03 0.  0.
        -13    1    1    0    0    0  0.72475922766E+01  0.11711384952E+02 -0.11774266302E+02  0.18119841122E+02  0.10566000000E+00 0.  1.
         13    1    1    0    0    0  0.13428211952E+02  0.31055712038E+02 -0.28781219662E+02  0.44420084373E+02  0.10566000000E+00 0. -1.
         22    1    1    0    0    0 -0.20675804229E+02 -0.42767096990E+02  0.40555485963E+02  0.62460074505E+02  0.00000000000E+00 0. -1.
</event>
<event>
 4    1  0.9957587E-003  0.9118800E+02  0.7818608E-02  0.1130116E+00
         25   -1    0    0    0    0  0.00000000000E+00  0.00000000000E+00  0.99999998245E-14  0.12500000000E+03  0.12500000000E+03 0.  0.
        -13    1    1    0    0    0  0.38917006923E+02  0.34731494002E+01 -0.12741615443E+01  0.39092593240E+02  0.10566000000E+00 0.  1.
         13    1    1    0    0    0  0.23003641439E+02  0.30900531374E+01 -0.34295177069E+01  0.23462495681E+02  0.10566000000E+00 0. -1.
         22    1    1    0    0    0 -0.61920648362E+02 -0.65632025376E+01  0.47036792512E+01  0.62444911078E+02  0.00000000000E+00 0. -1.
</event>
<event>
 4    1  0.9957587E-003  0.9118800E+02  0.7818608E-02  0.1130116E+00
         25   -1    0    0    0    0  0.00000000000E+00  0.00000000000E+00  0.99999998245E-14  0.12500000000E+03  0.12500000000E+03 0.  0.
        -13    1    1    0    0    0  0.18198092434E+01 -0.12897671742E+02  0.42608911045E+00  0.13032818498E+02  0.10566000000E+00 0. -1.
         13    1    1    0    0    0  0.73131604391E+01 -0.48733490835E+02  0.44063104773E+01  0.49475874733E+02  0.10566000000E+00 0.  1.
         22    1    1    0    0    0 -0.91329696825E+01  0.61631162577E+02 -0.48323995877E+01  0.62491306768E+02  0.00000000000E+00 0.  1.
</event>
<event>
 4    1  0.9957587E-003  0.9118800E+02  0.7818608E-02  0.1130116E+00
         25   -1    0    0    0    0  0.00000000000E+00  0.00000000000E+00  0.99999998245E-14  0.12500000000E+03  0.12500000000E+03 0.  0.
        -13    1    1    0    0    0 -0.21437082666E+02  0.42746511655E+01  0.11919170718E+02  0.24897769990E+02  0.10566000000E+00 0.  1.
         13    1    1    0    0    0 -0.22039317839E+02  0.53541441583E+01  0.30896580016E+02  0.38327642912E+02  0.10566000000E+00 0. -1.
         22    1    1    0    0    0  0.43476400505E+02 -0.96287953238E+01 -0.42815750734E+02  0.61774587098E+02  0.00000000000E+00 0.  1.
</event>
<event>
 4    1  0.9957587E-003  0.9118800E+02  0.7818608E-02  0.1130116E+00
         25   -1    0    0    0    0  0.00000000000E+00  0.00000000000E+00  0.99999998245E-14  0.12500000000E+03  0.12500000000E+03 0.  0.
        -13    1    1    0    0    0 -0.35041796703E+02  0.31535986193E+02 -0.23983314077E+02  0.52892877210E+02  0.10566000000E+00 0.  1.
         13    1    1    0    0    0 -0.66240485120E+01  0.60229445919E+01 -0.35340895104E+01  0.96257380470E+01  0.10566000000E+00 0. -1.
         22    1    1    0    0    0  0.41665845215E+02 -0.37558930785E+02  0.27517403588E+02  0.62481384743E+02  0.00000000000E+00 0.  1.
</event>
<event>
 4    1  0.9957587E-003  0.9118800E+02  0.7818608E-02  0.1130116E+00
         25   -1    0    0    0    0  0.00000000000E+00  0.00000000000E+00  0.99999998245E-14  0.12500000000E+03  0.12500000000E+03 0.  0.
        -13    1    1    0    0    0 -0.28400867352E+02 -0.13593728774E+02 -0.35397635015E+02  0.47375124876E+02  0.10566000000E+00 0.  1.
         13    1    1    0    0    0 -0.92939401693E+01 -0.43870434231E+01 -0.11098219782E+02  0.15126305571E+02  0.10566000000E+00 0. -1.
         22    1    1    0    0    0  0.37694807521E+02  0.17980772197E+02  0.46495854797E+02  0.62498569553E+02  0.00000000000E+00 0.  1.
</event>
<event>
 4    1  0.9957587E-003  0.9118800E+02  0.7818608E-02  0.1130116E+00
         25   -1    0    0    0    0  0.00000000000E+00  0.00000000000E+00  0.99999998245E-14  0.12500000000E+03  0.12500000000E+03 0.  0.
        -13    1    1    0    0    0  0.15573441220E+01  0.20997691079E+02  0.77779399105E+01  0.22446288438E+02  0.10566000000E+00 0.  1.
         13    1    1    0    0    0 -0.76694897070E+01  0.39117260430E+02  0.66931134253E+01  0.40420169065E+02  0.10566000000E+00 0. -1.
         22    1    1    0    0    0  0.61121455851E+01 -0.60114951509E+02 -0.14471053336E+02  0.62133542497E+02  0.00000000000E+00 0. -1.
</event>
<event>
 4    1  0.9957587E-003  0.9118800E+02  0.7818608E-02  0.1130116E+00
         25   -1    0    0    0    0  0.00000000000E+00  0.00000000000E+00  0.99999998245E-14  0.12500000000E+03  0.12500000000E+03 0.  0.
        -13    1    1    0    0    0  0.99224986279E+01 -0.84927144003E+00 -0.20818754281E+00  0.99615132930E+01  0.10566000000E+00 0. -1.
         13    1    1    0    0    0  0.52139317674E+02 -0.63064548666E+01 -0.15231890558E+01  0.52541517768E+02  0.10566000000E+00 0. -1.
         22    1    1    0    0    0 -0.62061816301E+02  0.71557263066E+01  0.17313765986E+01  0.62496968939E+02  0.00000000000E+00 0. -1.
</event>
<event>
 4    1  0.9957587E-003  0.9118800E+02  0.7818608E-02  0.1130116E+00
         25   -1    0    0    0    0  0.00000000000E+00  0.00000000000E+00  0.99999998245E-14  0.12500000000E+03  0.12500000000E+03 0.  0.
        -13    1    1    0    0    0  0.14078997657E+02  0.31675614275E+02  0.17069194597E+02  0.38638468952E+02  0.10566000000E+00 0. -1.
         13    1    1    0    0    0  0.87495628703E+01  0.19508147394E+02  0.10594836829E+02  0.23861776896E+02  0.10566000000E+00 0. -1.
         22    1    1    0    0    0 -0.22828560527E+02 -0.51183761669E+02 -0.27664031426E+02  0.62499754152E+02  0.00000000000E+00 0. -1.
</event>
<event>
 4    1  0.9957587E-003  0.9118800E+02  0.7818608E-02  0.1130116E+00
         25   -1    0    0    0    0  0.00000000000E+00  0.00000000000E+00  0.99999998245E-14  0.12500000000E+03  0.12500000000E+03 0.  0.
        -13    1    1    0    0    0  0.51285920296E+01 -0.22180168608E+02 -0.57879232424E+02  0.62195490558E+02  0.10566000000E+00 0. -1.
         13    1    1    0    0    0 -0.96058682539E-01 -0.34291183395E-01 -0.29531860551E+00  0.32981854118E+00  0.10566000000E+00 0.  1.
         22    1    1    0    0    0 -0.50325333471E+01  0.22214459792E+02  0.58174551029E+02  0.62474690901E+02  0.00000000000E+00 0. -1.
</event>
<event>
 4    1  0.9957587E-003  0.9118800E+02  0.7818608E-02  0.1130116E+00
         25   -1    0    0    0    0  0.00000000000E+00  0.00000000000E+00  0.99999998245E-14  0.12500000000E+03  0.12500000000E+03 0.  0.
        -13    1    1    0    0    0  0.34661539490E+02  0.27522368693E+02  0.29067837210E+02  0.52951425122E+02  0.10566000000E+00 0. -1.
         13    1    1    0    0    0  0.74886612126E+01  0.52375837029E+01  0.31846513619E+01  0.96780937242E+01  0.10566000000E+00 0.  1.
         22    1    1    0    0    0 -0.42150200702E+02 -0.32759952396E+02 -0.32252488572E+02  0.62370481154E+02  0.00000000000E+00 0.  1.
</event>
<event>
 4    1  0.9957587E-003  0.9118800E+02  0.7818608E-02  0.1130116E+00
         25   -1    0    0    0    0  0.00000000000E+00  0.00000000000E+00  0.99999998245E-14  0.12500000000E+03  0.12500000000E+03 0.  0.
        -13    1    1    0    0    0 -0.32865089850E+02 -0.34110006307E+02 -0.21325103915E+02  0.51945913046E+02  0.10566000000E+00 0.  1.
         13    1    1    0    0    0 -0.45176831495E+01 -0.79714400348E+01 -0.55146953581E+01  0.10694687756E+02  0.10566000000E+00 0. -1.
         22    1    1    0    0    0  0.37382772999E+02  0.42081446342E+02  0.26839799273E+02  0.62359399198E+02  0.00000000000E+00 0.  1.
</event>
<event>
 4    1  0.9957587E-003  0.9118800E+02  0.7818608E-02  0.1130116E+00
         25   -1    0    0    0    0  0.00000000000E+00  0.00000000000E+00  0.99999998245E-14  0.12500000000E+03  0.12500000000E+03 0.  0.
        -13    1    1    0    0    0  0.29214307688E+02  0.14968564547E+02  0.53558819719E+01  0.33260041101E+02  0.10566000000E+00 0. -1.
         13    1    1    0    0    0  0.25551151395E+02  0.13289211217E+02  0.50548081254E+01  0.29240839961E+02  0.10566000000E+00 0.  1.
         22    1    1    0    0    0 -0.54765459084E+02 -0.28257775764E+02 -0.10410690097E+02  0.62499118938E+02  0.00000000000E+00 0.  1.
</event>
<event>
 4    1  0.9957587E-003  0.9118800E+02  0.7818608E-02  0.1130116E+00
         25   -1    0    0    0    0  0.00000000000E+00  0.00000000000E+00  0.99999998245E-14  0.12500000000E+03  0.12500000000E+03 0.  0.
        -13    1    1    0    0    0  0.64391144306E+01 -0.15012832509E+01  0.11567277990E+02  0.13324005786E+02  0.10566000000E+00 0. -1.
         13    1    1    0    0    0 -0.35316737650E+02  0.43616072515E+02 -0.20669002117E+02  0.59806793530E+02  0.10566000000E+00 0.  1.
         22    1    1    0    0    0  0.28877623219E+02 -0.42114789264E+02  0.91017241268E+01  0.51869200684E+02  0.00000000000E+00 0.  1.
</event>
<event>
 4    1  0.9957587E-003  0.9118800E+02  0.7818608E-02  0.1130116E+00
         25   -1    0    0    0    0  0.00000000000E+00  0.00000000000E+00  0.99999998245E-14  0.12500000000E+03  0.12500000000E+03 0.  0.
        -13    1    1    0    0    0  0.18171483118E+02  0.27531326009E+02 -0.19888977911E+02  0.38519596531E+02  0.10566000000E+00 0.  1.
         13    1    1    0    0    0  0.85597598076E+01  0.21840664934E+02 -0.66459759891E+01  0.24381638452E+02  0.10566000000E+00 0. -1.
         22    1    1    0    0    0 -0.26731242926E+02 -0.49371990944E+02  0.26534953900E+02  0.62098765017E+02  0.00000000000E+00 0.  1.
</event>
<event>
 4    1  0.9957587E-003  0.9118800E+02  0.7818608E-02  0.1130116E+00
         25   -1    0    0    0    0  0.00000000000E+00  0.00000000000E+00  0.99999998245E-14  0.12500000000E+03  0.12500000000E+03 0.  0.
        -13    1    1    0    0    0  0.11770137807E+02  0.36830184759E+02 -0.12106138368E+02  0.40516273319E+02  0.10566000000E+00 0.  1.
         13    1    1    0    0    0  0.68204239533E+01  0.20015054667E+02 -0.60264244607E+01  0.21987486260E+02  0.10566000000E+00 0. -1.
         22    1    1    0    0    0 -0.18590561761E+02 -0.56845239426E+02  0.18132562829E+02  0.62496240421E+02  0.00000000000E+00 0. -1.
</event>
<event>
 4    1  0.9957587E-003  0.9118800E+02  0.7818608E-02  0.1130116E+00
         25   -1    0    0    0    0  0.00000000000E+00  0.00000000000E+00  0.99999998245E-14  0.12500000000E+03  0.12500000000E+03 0.  0.
        -13    1    1    0    0    0 -0.34544329193E+02  0.13288163978E+02 -0.21186600858E+02  0.42647030392E+02  0.10566000000E+00 0.  1.
         13    1    1    0    0    0 -0.15949183403E+02  0.59249127507E+01 -0.10233891772E+02  0.19855093733E+02  0.10566000000E+00 0. -1.
         22    1    1    0    0    0  0.50493512596E+02 -0.19213076729E+02  0.31420492630E+02  0.62497875874E+02  0.00000000000E+00 0.  1.
</event>
<event>
 4    1  0.9957587E-003  0.9118800E+02  0.7818608E-02  0.1130116E+00
         25   -1    0    0    0    0  0.00000000000E+00  0.00000000000E+00  0.99999998245E-14  0.12500000000E+03  0.12500000000E+03 0.  0.
        -13    1    1    0    0    0 -0.14257949311E+02  0.33077547656E+01  0.18404811690E+02  0.23515497391E+02  0.10566000000E+00 0. -1.
         13    1    1    0    0    0 -0.23689682452E+02  0.55231197566E+01  0.30464576849E+02  0.38984708710E+02  0.10566000000E+00 0. -1.
         22    1    1    0    0    0  0.37947631763E+02 -0.88308745223E+01 -0.48869388540E+02  0.62499793900E+02  0.00000000000E+00 0. -1.
</event>
<event>
 4    1  0.9957587E-003  0.9118800E+02  0.7818608E-02  0.1130116E+00
         25   -1    0    0    0    0  0.00000000000E+00  0.00000000000E+00  0.99999998245E-14  0.12500000000E+03  0.12500000000E+03 0.  0.
        -13    1    1    0    0    0  0.10030832161E+02 -0.50688407463E+01  0.16276927847E+02  0.19780300416E+02  0.10566000000E+00 0.  1.
         13    1    1    0    0    0  0.21834640247E+02 -0.10890252955E+02  0.35066172096E+02  0.42719980263E+02  0.10566000000E+00 0.  1.
         22    1    1    0    0    0 -0.31865472407E+02  0.15959093701E+02 -0.51343099943E+02  0.62499719322E+02  0.00000000000E+00 0.  1.
</event>
<event>
 4    1  0.9957587E-003  0.9118800E+02  0.7818608E-02  0.1130116E+00
         25   -1    0    0    0    0  0.00000000000E+00  0.00000000000E+00  0.99999998245E-14  0.12500000000E+03  0.12500000000E+03 0.  0.
        -13    1    1    0    0    0 -0.22710260119E+02 -0.13723995746E+02 -0.53167350892E+02  0.59421228015E+02  0.10566000000E+00 0.  1.
         13    1    1    0    0    0 -0.11103464949E+01 -0.90439373171E+00 -0.27281767780E+01  0.30830033941E+01  0.10566000000E+00 0. -1.
         22    1    1    0    0    0  0.23820606614E+02  0.14628389478E+02  0.55895527670E+02  0.62495768590E+02  0.00000000000E+00 0.  1.
</event>
<event>
 4    1  0.9957587E-003  0.9118800E+02  0.7818608E-02  0.1130116E+00
         25   -1    0    0    0    0  0.00000000000E+00  0.00000000000E+00  0.99999998245E-14  0.12500000000E+03  0.12500000000E+03 0.  0.
        -13    1    1    0    0    0  0.10772014063E+02  0.22926764945E+02  0.28300977138E+01  0.25489085016E+02  0.10566000000E+00 0. -1.
         13    1    1    0    0    0  0.28817268825E+02  0.21851245319E+02  0.11681631684E+02  0.38005046867E+02  0.10566000000E+00 0.  1.
         22    1    1    0    0    0 -0.39589282888E+02 -0.44778010264E+02 -0.14511729397E+02  0.61505868118E+02  0.00000000000E+00 0.  1.
</event>
<event>
 4    1  0.9957587E-003  0.9118800E+02  0.7818608E-02  0.1130116E+00
         25   -1    0    0    0    0  0.00000000000E+00  0.00000000000E+00  0.99999998245E-14  0.12500000000E+03  0.12500000000E+03 0.  0.
        -13    1    1    0    0    0 -0.88274712371E+01  0.58179134718E+01 -0.15871766513E+01  0.10691242181E+02  0.10566000000E+00 0.  1.
         13    1    1    0    0    0 -0.44412577468E+02  0.26091735174E+02 -0.56460152246E+01  0.51818378339E+02  0.10566000000E+00 0. -1.
         22    1    1    0    0    0  0.53240048705E+02 -0.31909648646E+02  0.72331918759E+01  0.62490379480E+02  0.00000000000E+00 0. -1.
</event>
<event>
 4    1  0.9957587E-003  0.9118800E+02  0.7818608E-02  0.1130116E+00
         25   -1    0    0    0    0  0.00000000000E+00  0.00000000000E+00  0.99999998245E-14  0.12500000000E+03  0.12500000000E+03 0.  0.
        -13    1    1    0    0    0 -0.84953410842E+01  0.29888095780E+01  0.26185605216E+01  0.93793297240E+01  0.10566000000E+00 0.  1.
         13    1    1    0    0    0 -0.50238771320E+02  0.87119406119E+01  0.15080111759E+02  0.53171919165E+02  0.10566000000E+00 0. -1.
         22    1    1    0    0    0  0.58734112404E+02 -0.11700750190E+02 -0.17698672280E+02  0.62448751111E+02  0.00000000000E+00 0. -1.
</event>
<event>
 4    1  0.9957587E-003  0.9118800E+02  0.7818608E-02  0.1130116E+00
         25   -1    0    0    0    0  0.00000000000E+00  0.00000000000E+00  0.99999998245E-14  0.12500000000E+03  0.12500000000E+03 0.  0.
        -13    1    1    0    0    0 -0.34542011566E+02 -0.26740801136E+02  0.23840213275E+02  0.49765328708E+02  0.10566000000E+00 0.  1.
         13    1    1    0    0    0 -0.10282042374E+02 -0.55712466762E+01  0.52150116397E+01  0.12804948080E+02  0.10566000000E+00 0. -1.
         22    1    1    0    0    0  0.44824053940E+02  0.32312047812E+02 -0.29055224915E+02  0.62429723211E+02  0.00000000000E+00 0.  1.
</event>
<event>
 4    1  0.9957587E-003  0.9118800E+02  0.7818608E-02  0.1130116E+00
         25   -1    0    0    0    0  0.00000000000E+00  0.00000000000E+00  0.99999998245E-14  0.12500000000E+03  0.12500000000E+03 0.  0.
        -13    1    1    0    0    0 -0.91127591473E+00  0.27034235128E+01  0.11074234373E+02  0.11436291071E+02  0.10566000000E+00 0.  1.
         13    1    1    0    0    0 -0.54415899669E+02 -0.13357847793E+02 -0.11589883967E+02  0.57217644209E+02  0.10566000000E+00 0. -1.
         22    1    1    0    0    0  0.55327175584E+02  0.10654424281E+02  0.51564959405E+00  0.56346064719E+02  0.00000000000E+00 0. -1.
</event>
<event>
 4    1  0.9957587E-003  0.9118800E+02  0.7818608E-02  0.1130116E+00
         25   -1    0    0    0    0  0.00000000000E+00  0.00000000000E+00  0.99999998245E-14  0.12500000000E+03  0.12500000000E+03 0.  0.
        -13    1    1    0    0    0  0.40439845798E+02  0.29995314162E+02 -0.27171142012E+02  0.57213478500E+02  0.10566000000E+00 0. -1.
         13    1    1    0    0    0  0.42668491427E+01  0.23819461378E+01 -0.20843012502E+01  0.53136752580E+01  0.10566000000E+00 0.  1.
         22    1    1    0    0    0 -0.44706694940E+02 -0.32377260300E+02  0.29255443262E+02  0.62472846242E+02  0.00000000000E+00 0. -1.
</event>
<event>
 4    1  0.9957587E-003  0.9118800E+02  0.7818608E-02  0.1130116E+00
         25   -1    0    0    0    0  0.00000000000E+00  0.00000000000E+00  0.99999998245E-14  0.12500000000E+03  0.12500000000E+03 0.  0.
        -13    1    1    0    0    0 -0.33911172365E+02 -0.17782143426E+02 -0.96670743464E+01  0.39492223620E+02  0.10566000000E+00 0.  1.
         13    1    1    0    0    0 -0.19772621594E+02 -0.10388293388E+02 -0.55214526223E+01  0.23008059616E+02  0.10566000000E+00 0.  1.
         22    1    1    0    0    0  0.53683793959E+02  0.28170436814E+02  0.15188526969E+02  0.62499716764E+02  0.00000000000E+00 0.  1.
</event>
<event>
 4    1  0.9957587E-003  0.9118800E+02  0.7818608E-02  0.1130116E+00
         25   -1    0    0    0    0  0.00000000000E+00  0.00000000000E+00  0.99999998245E-14  0.12500000000E+03  0.12500000000E+03 0.  0.
        -13    1    1    0    0    0 -0.18766616567E+02 -0.22862050681E+02  0.23060192550E+02  0.37505238344E+02  0.10566000000E+00 0. -1.
         13    1    1    0    0    0 -0.24912435690E+02 -0.93780858988E+01  0.38602188784E+01  0.26897776878E+02  0.10566000000E+00 0.  1.
         22    1    1    0    0    0  0.43679052257E+02  0.32240136580E+02 -0.26920411429E+02  0.60596984779E+02  0.00000000000E+00 0.  1.
</event>
<event>
 4    1  0.9957587E-003  0.9118800E+02  0.7818608E-02  0.1130116E+00
         25   -1    0    0    0    0  0.00000000000E+00  0.00000000000E+00  0.99999998245E-14  0.12500000000E+03  0.12500000000E+03 0.  0.
        -13    1    1    0    0    0 -0.48551179648E+02  0.13774041763E+02 -0.32867289602E+02  0.60226332792E+02  0.10566000000E+00 0.  1.
         13    1    1    0    0    0 -0.18014712417E+01  0.30234081079E+00 -0.13630929163E+01  0.22816430340E+01  0.10566000000E+00 0. -1.
         22    1    1    0    0    0  0.50352650890E+02 -0.14076382574E+02  0.34230382519E+02  0.62492024174E+02  0.00000000000E+00 0.  1.
</event>
<event>
 4    1  0.9957587E-003  0.9118800E+02  0.7818608E-02  0.1130116E+00
         25   -1    0    0    0    0  0.00000000000E+00  0.00000000000E+00  0.99999998245E-14  0.12500000000E+03  0.12500000000E+03 0.  0.
        -13    1    1    0    0    0  0.19338461884E+01  0.21659996281E+02 -0.94452231562E+01  0.23709040564E+02  0.10566000000E+00 0. -1.
         13    1    1    0    0    0  0.32169057520E+01  0.35338805602E+02 -0.15670794030E+02  0.38791295590E+02  0.10566000000E+00 0. -1.
         22    1    1    0    0    0 -0.51507519404E+01 -0.56998801882E+02  0.25116017187E+02  0.62499663846E+02  0.00000000000E+00 0. -1.
</event>
<event>
 4    1  0.9957587E-003  0.9118800E+02  0.7818608E-02  0.1130116E+00
         25   -1    0    0    0    0  0.00000000000E+00  0.00000000000E+00  0.99999998245E-14  0.12500000000E+03  0.12500000000E+03 0.  0.
        -13    1    1    0    0    0 -0.62449186974E+01  0.23103506749E+02 -0.54180007147E+02  0.59230527367E+02  0.10566000000E+00 0. -1.
         13    1    1    0    0    0  0.61481774590E+01  0.41172019822E+01  0.33790099205E+01  0.81351281679E+01  0.10566000000E+00 0.  1.
         22    1    1    0    0    0  0.96741238401E-01 -0.27220708731E+02  0.50800997227E+02  0.57634344465E+02  0.00000000000E+00 0. -1.
</event>
<event>
 4    1  0.9957587E-003  0.9118800E+02  0.7818608E-02  0.1130116E+00
         25   -1    0    0    0    0  0.00000000000E+00  0.00000000000E+00  0.99999998245E-14  0.12500000000E+03  0.12500000000E+03 0.  0.
        -13    1    1    0    0    0 -0.21790750022E+02  0.33096216076E+02 -0.14383982255E+02  0.42155739996E+02  0.10566000000E+00 0. -1.
         13    1    1    0    0    0 -0.48899528583E+01  0.18185336191E+02 -0.85146074298E+01  0.20667070307E+02  0.10566000000E+00 0.  1.
         22    1    1    0    0    0  0.26680702880E+02 -0.51281552267E+02  0.22898589685E+02  0.62177189697E+02  0.00000000000E+00 0.  1.
</event>
<event>
 4    1  0.9957587E-003  0.9118800E+02  0.7818608E-02  0.1130116E+00
         25   -1    0    0    0    0  0.00000000000E+00  0.00000000000E+00  0.99999998245E-14  0.12500000000E+03  0.12500000000E+03 0.  0.
        -13    1    1    0    0    0  0.41636973080E+02 -0.12174981732E+02  0.33483675293E+02  0.54799957871E+02  0.10566000000E+00 0.  1.
         13    1    1    0    0    0  0.57615851284E+01 -0.26002789809E+01  0.44396065573E+01  0.77251915439E+01  0.10566000000E+00 0. -1.
         22    1    1    0    0    0 -0.47398558208E+02  0.14775260713E+02 -0.37923281851E+02  0.62474850586E+02  0.00000000000E+00 0.  1.
</event>
<event>
 4    1  0.9957587E-003  0.9118800E+02  0.7818608E-02  0.1130116E+00
         25   -1    0    0    0    0  0.00000000000E+00  0.00000000000E+00  0.99999998245E-14  0.12500000000E+03  0.12500000000E+03 0.  0.
        -13    1    1    0    0    0  0.80103720275E+01  0.38216105383E+02 -0.42997726830E+02  0.58081429452E+02  0.10566000000E+00 0.  1.
         13    1    1    0    0    0  0.42385462946E+00  0.28811396684E+01 -0.33250050710E+01  0.44212488387E+01  0.10566000000E+00 0. -1.
         22    1    1    0    0    0 -0.84342266570E+01 -0.41097245051E+02  0.46322731901E+02  0.62497321709E+02  0.00000000000E+00 0.  1.
</event>
<event>
 4    1  0.9957587E-003  0.9118800E+02  0.7818608E-02  0.1130116E+00
         25   -1    0    0    0    0  0.00000000000E+00  0.00000000000E+00  0.99999998245E-14  0.12500000000E+03  0.12500000000E+03 0.  0.
        -13    1    1    0    0    0 -0.18295292356E+01 -0.58322895229E+02  0.17762740523E+02  0.60995355562E+02  0.10566000000E+00 0. -1.
         13    1    1    0    0    0  0.72355086786E+01  0.77436927126E+01 -0.23822421698E+01  0.10862946398E+02  0.10566000000E+00 0.  1.
         22    1    1    0    0    0 -0.54059794430E+01  0.50579202517E+02 -0.15380498353E+02  0.53141698040E+02  0.00000000000E+00 0. -1.
</event>
<event>
 4    1  0.9957587E-003  0.9118800E+02  0.7818608E-02  0.1130116E+00
         25   -1    0    0    0    0  0.00000000000E+00  0.00000000000E+00  0.99999998245E-14  0.12500000000E+03  0.12500000000E+03 0.  0.
        -13    1    1    0    0    0  0.22816697918E+02 -0.31562931171E+02 -0.26587899280E+01  0.39037170183E+02  0.10566000000E+00 0.  1.
         13    1    1    0    0    0  0.37304470080E+01  0.71904008499E+01 -0.33765175899E+02  0.34723426772E+02  0.10566000000E+00 0. -1.
         22    1    1    0    0    0 -0.26547144926E+02  0.24372530321E+02  0.36423965827E+02  0.51239403046E+02  0.00000000000E+00 0. -1.
</event>
<event>
 4    1  0.9957587E-003  0.9118800E+02  0.7818608E-02  0.1130116E+00
         25   -1    0    0    0    0  0.00000000000E+00  0.00000000000E+00  0.99999998245E-14  0.12500000000E+03  0.12500000000E+03 0.  0.
        -13    1    1    0    0    0  0.47524238388E+02  0.26020157134E+02  0.13343740687E+02  0.55800254401E+02  0.10566000000E+00 0. -1.
         13    1    1    0    0    0 -0.17983531174E+01  0.54454101108E+01 -0.12426090434E+02  0.13685958232E+02  0.10566000000E+00 0.  1.
         22    1    1    0    0    0 -0.45725885271E+02 -0.31465567245E+02 -0.91765025253E+00  0.55513787367E+02  0.00000000000E+00 0.  1.
</event>
<event>
 4    1  0.9957587E-003  0.9118800E+02  0.7818608E-02  0.1130116E+00
         25   -1    0    0    0    0  0.00000000000E+00  0.00000000000E+00  0.99999998245E-14  0.12500000000E+03  0.12500000000E+03 0.  0.
        -13    1    1    0    0    0 -0.14429762966E+02  0.72268350407E+01  0.72315585708E+01  0.17684790283E+02  0.10566000000E+00 0.  1.
         13    1    1    0    0    0 -0.29652734900E+02  0.14143776486E+02  0.31002392214E+02  0.45171789730E+02  0.10566000000E+00 0. -1.
         22    1    1    0    0    0  0.44082497866E+02 -0.21370611527E+02 -0.38233950785E+02  0.62143419987E+02  0.00000000000E+00 0. -1.
</event>
<event>
 4    1  0.9957587E-003  0.9118800E+02  0.7818608E-02  0.1130116E+00
         25   -1    0    0    0    0  0.00000000000E+00  0.00000000000E+00  0.99999998245E-14  0.12500000000E+03  0.12500000000E+03 0.  0.
        -13    1    1    0    0    0 -0.11886917292E+02 -0.53214859514E+02 -0.10731932852E+02  0.55572525789E+02  0.10566000000E+00 0.  1.
         13    1    1    0    0    0 -0.45140183488E+01 -0.57430529078E+01  0.22609060381E+01  0.76473445394E+01  0.10566000000E+00 0. -1.
         22    1    1    0    0    0  0.16400935641E+02  0.58957912421E+02  0.84710268140E+01  0.61780129672E+02  0.00000000000E+00 0.  1.
</event>
<event>
 4    1  0.9957587E-003  0.9118800E+02  0.7818608E-02  0.1130116E+00
         25   -1    0    0    0    0  0.00000000000E+00  0.00000000000E+00  0.99999998245E-14  0.12500000000E+03  0.12500000000E+03 0.  0.
        -13    1    1    0    0    0 -0.15807224045E+02  0.49985479118E+02 -0.17101382846E+02  0.55144219225E+02  0.10566000000E+00 0. -1.
         13    1    1    0    0    0 -0.21469680890E+01  0.66339687404E+01 -0.23423195192E+01  0.73564011575E+01  0.10566000000E+00 0. -1.
         22    1    1    0    0    0  0.17954192134E+02 -0.56619447858E+02  0.19443702365E+02  0.62499379618E+02  0.00000000000E+00 0. -1.
</event>
<event>
 4    1  0.9957587E-003  0.9118800E+02  0.7818608E-02  0.1130116E+00
         25   -1    0    0    0    0  0.00000000000E+00  0.00000000000E+00  0.99999998245E-14  0.12500000000E+03  0.12500000000E+03 0.  0.
        -13    1    1    0    0    0 -0.44035603775E+01 -0.13547163004E+02  0.25324187990E+01  0.14468630843E+02  0.10566000000E+00 0. -1.
         13    1    1    0    0    0 -0.15459124419E+02 -0.44620061817E+02  0.87865686968E+01  0.48032795025E+02  0.10566000000E+00 0.  1.
         22    1    1    0    0    0  0.19862684796E+02  0.58167224821E+02 -0.11318987496E+02  0.62498574133E+02  0.00000000000E+00 0.  1.
</event>
<event>
 4    1  0.9957587E-003  0.9118800E+02  0.7818608E-02  0.1130116E+00
         25   -1    0    0    0    0  0.00000000000E+00  0.00000000000E+00  0.99999998245E-14  0.12500000000E+03  0.12500000000E+03 0.  0.
        -13    1    1    0    0    0  0.21912195788E+01  0.20461387621E+01  0.28366955115E+01  0.41286962272E+01  0.10566000000E+00 0.  1.
         13    1    1    0    0    0  0.23669992183E+02  0.33204876742E+02  0.41796097348E+02  0.58393127052E+02  0.10566000000E+00 0. -1.
         22    1    1    0    0    0 -0.25861211762E+02 -0.35251015504E+02 -0.44632792860E+02  0.62478176720E+02  0.00000000000E+00 0. -1.
</event>
<event>
 4    1  0.9957587E-003  0.9118800E+02  0.7818608E-02  0.1130116E+00
         25   -1    0    0    0    0  0.00000000000E+00  0.00000000000E+00  0.99999998245E-14  0.12500000000E+03  0.12500000000E+03 0.  0.
        -13    1    1    0    0    0 -0.33652056325E+01 -0.41693284097E+01 -0.40200584258E+01  0.66992493699E+01  0.10566000000E+00 0. -1.
         13    1    1    0    0    0 -0.28485932950E+02 -0.33133765254E+02 -0.34708753443E+02  0.55803257123E+02  0.10566000000E+00 0.  1.
         22    1    1    0    0    0  0.31851138582E+02  0.37303093664E+02  0.38728811869E+02  0.62497493507E+02  0.00000000000E+00 0.  1.
</event>
<event>
 4    1  0.9957587E-003  0.9118800E+02  0.7818608E-02  0.1130116E+00
         25   -1    0    0    0    0  0.00000000000E+00  0.00000000000E+00  0.99999998245E-14  0.12500000000E+03  0.12500000000E+03 0.  0.
        -13    1    1    0    0    0  0.54384119550E+00  0.31286418399E+02 -0.24164648878E+02  0.39535770624E+02  0.10566000000E+00 0. -1.
         13    1    1    0    0    0  0.61015178957E+00  0.18180285285E+02 -0.14017344577E+02  0.22965020602E+02  0.10566000000E+00 0. -1.
         22    1    1    0    0    0 -0.11539929851E+01 -0.49466703684E+02  0.38181993454E+02  0.62499208773E+02  0.00000000000E+00 0. -1.
</event>
<event>
 4    1  0.9957587E-003  0.9118800E+02  0.7818608E-02  0.1130116E+00
         25   -1    0    0    0    0  0.00000000000E+00  0.00000000000E+00  0.99999998245E-14  0.12500000000E+03  0.12500000000E+03 0.  0.
        -13    1    1    0    0    0  0.15629410727E+00 -0.53433946039E+01 -0.28446047360E+01  0.60563383228E+01  0.10566000000E+00 0.  1.
         13    1    1    0    0    0  0.30316628516E+02 -0.46606067735E+02 -0.12076725644E+02  0.56895359921E+02  0.10566000000E+00 0. -1.
         22    1    1    0    0    0 -0.30472922623E+02  0.51949462339E+02  0.14921330380E+02  0.62048301756E+02  0.00000000000E+00 0. -1.
</event>
<event>
 4    1  0.9957587E-003  0.9118800E+02  0.7818608E-02  0.1130116E+00
         25   -1    0    0    0    0  0.00000000000E+00  0.00000000000E+00  0.99999998245E-14  0.12500000000E+03  0.12500000000E+03 0.  0.
        -13    1    1    0    0    0 -0.14150544882E+00 -0.98437596594E-01  0.69640560103E+00  0.72516105054E+00  0.10566000000E+00 0. -1.
         13    1    1    0    0    0 -0.52473073107E+02 -0.24303628865E+02  0.22169611301E+02  0.61932161327E+02  0.10566000000E+00 0.  1.
         22    1    1    0    0    0  0.52614578556E+02  0.24402066461E+02 -0.22866016902E+02  0.62342677623E+02  0.00000000000E+00 0.  1.
</event>
<event>
 4    1  0.9957587E-003  0.9118800E+02  0.7818608E-02  0.1130116E+00
         25   -1    0    0    0    0  0.00000000000E+00  0.00000000000E+00  0.99999998245E-14  0.12500000000E+03  0.12500000000E+03 0.  0.
        -13    1    1    0    0    0  0.14166097992E+02 -0.24016766274E+02  0.32782140974E+02  0.43036767135E+02  0.10566000000E+00 0. -1.
         13    1    1    0    0    0  0.13900848821E+02 -0.24267363214E+01  0.14978233262E+02  0.20578660861E+02  0.10566000000E+00 0.  1.
         22    1    1    0    0    0 -0.28066946813E+02  0.26443502596E+02 -0.47760374236E+02  0.61384572004E+02  0.00000000000E+00 0. -1.
</event>
<event>
 4    1  0.9957587E-003  0.9118800E+02  0.7818608E-02  0.1130116E+00
         25   -1    0    0    0    0  0.00000000000E+00  0.00000000000E+00  0.99999998245E-14  0.12500000000E+03  0.12500000000E+03 0.  0.
        -13    1    1    0    0    0 -0.17943157111E+02  0.24164667273E+02 -0.94818394260E+01  0.31556369792E+02  0.10566000000E+00 0.  1.
         13    1    1    0    0    0 -0.10125011084E+02  0.27053089224E+02 -0.11909874282E+02  0.31244867666E+02  0.10566000000E+00 0. -1.
         22    1    1    0    0    0  0.28068168195E+02 -0.51217756497E+02  0.21391713708E+02  0.62198762542E+02  0.00000000000E+00 0.  1.
</event>
<event>
 4    1  0.9957587E-003  0.9118800E+02  0.7818608E-02  0.1130116E+00
         25   -1    0    0    0    0  0.00000000000E+00  0.00000000000E+00  0.99999998245E-14  0.12500000000E+03  0.12500000000E+03 0.  0.
        -13    1    1    0    0    0  0.17261513171E+02 -0.58015803985E+01  0.30609436000E+02  0.35616946926E+02  0.10566000000E+00 0. -1.
         13    1    1    0    0    0  0.12332941517E+02 -0.12075815665E+02  0.21049292859E+02  0.27221511059E+02  0.10566000000E+00 0.  1.
         22    1    1    0    0    0 -0.29594454688E+02  0.17877396064E+02 -0.51658728859E+02  0.62161542015E+02  0.00000000000E+00 0.  1.
</event>
<event>
 4    1  0.9957587E-003  0.9118800E+02  0.7818608E-02  0.1130116E+00
         25   -1    0    0    0    0  0.00000000000E+00  0.00000000000E+00  0.99999998245E-14  0.12500000000E+03  0.12500000000E+03 0.  0.
        -13    1    1    0    0    0 -0.79540901827E+01  0.96873162963E+00 -0.85998480859E+01  0.11754766809E+02  0.10566000000E+00 0. -1.
         13    1    1    0    0    0 -0.34847225339E+02  0.27911047878E+01 -0.36785799154E+02  0.50747665593E+02  0.10566000000E+00 0.  1.
         22    1    1    0    0    0  0.42801315521E+02 -0.37598364175E+01  0.45385647240E+02  0.62497567598E+02  0.00000000000E+00 0.  1.
</event>
<event>
 4    1  0.9957587E-003  0.9118800E+02  0.7818608E-02  0.1130116E+00
         25   -1    0    0    0    0  0.00000000000E+00  0.00000000000E+00  0.99999998245E-14  0.12500000000E+03  0.12500000000E+03 0.  0.
        -13    1    1    0    0    0  0.40597743663E+02 -0.30644633972E+02  0.30691286570E+02  0.59407378474E+02  0.10566000000E+00 0. -1.
         13    1    1    0    0    0  0.44793169841E+00 -0.38705717944E+00  0.36696910506E+01  0.37186358398E+01  0.10566000000E+00 0.  1.
         22    1    1    0    0    0 -0.41045675362E+02  0.31031691151E+02 -0.34360977620E+02  0.61873985686E+02  0.00000000000E+00 0. -1.
</event>
<event>
 4    1  0.9957587E-003  0.9118800E+02  0.7818608E-02  0.1130116E+00
         25   -1    0    0    0    0  0.00000000000E+00  0.00000000000E+00  0.99999998245E-14  0.12500000000E+03  0.12500000000E+03 0.  0.
        -13    1    1    0    0    0  0.15629979831E+02 -0.82073518646E+01  0.15051531076E+02  0.23199496674E+02  0.10566000000E+00 0. -1.
         13    1    1    0    0    0  0.60657009487E+01  0.34763382219E+02  0.29209820175E+02  0.45809499342E+02  0.10566000000E+00 0.  1.
         22    1    1    0    0    0 -0.21695680780E+02 -0.26556030354E+02 -0.44261351251E+02  0.55991003984E+02  0.00000000000E+00 0.  1.
</event>
<event>
 4    1  0.9957587E-003  0.9118800E+02  0.7818608E-02  0.1130116E+00
         25   -1    0    0    0    0  0.00000000000E+00  0.00000000000E+00  0.99999998245E-14  0.12500000000E+03  0.12500000000E+03 0.  0.
        -13    1    1    0    0    0  0.32923651881E+01  0.17617582397E+02  0.40200855715E+01  0.18368209768E+02  0.10566000000E+00 0.  1.
         13    1    1    0    0    0  0.76494170375E+01  0.42239888978E+02  0.10245126459E+02  0.44132704224E+02  0.10566000000E+00 0.  1.
         22    1    1    0    0    0 -0.10941782226E+02 -0.59857471375E+02 -0.14265212030E+02  0.62499086009E+02  0.00000000000E+00 0.  1.
</event>
<event>
 4    1  0.9957587E-003  0.9118800E+02  0.7818608E-02  0.1130116E+00
         25   -1    0    0    0    0  0.00000000000E+00  0.00000000000E+00  0.99999998245E-14  0.12500000000E+03  0.12500000000E+03 0.  0.
        -13    1    1    0    0    0  0.10087041838E+02  0.16916961414E+02 -0.71114265913E+01  0.20940762850E+02  0.10566000000E+00 0.  1.
         13    1    1    0    0    0  0.21050602812E+02  0.33497606964E+02 -0.12745622216E+02  0.41565365399E+02  0.10566000000E+00 0. -1.
         22    1    1    0    0    0 -0.31137644650E+02 -0.50414568378E+02  0.19857048807E+02  0.62493871751E+02  0.00000000000E+00 0. -1.
</event>
<event>
 4    1  0.9957587E-003  0.9118800E+02  0.7818608E-02  0.1130116E+00
         25   -1    0    0    0    0  0.00000000000E+00  0.00000000000E+00  0.99999998245E-14  0.12500000000E+03  0.12500000000E+03 0.  0.
        -13    1    1    0    0    0  0.57934948624E+02  0.18449132009E+02  0.13571181402E+02  0.62297807928E+02  0.10566000000E+00 0. -1.
         13    1    1    0    0    0 -0.13698435721E+01 -0.39712133296E+00  0.76255910483E+00  0.16207520443E+01  0.10566000000E+00 0.  1.
         22    1    1    0    0    0 -0.56565105052E+02 -0.18052010676E+02 -0.14333740507E+02  0.61081440028E+02  0.00000000000E+00 0. -1.
</event>
<event>
 4    1  0.9957587E-003  0.9118800E+02  0.7818608E-02  0.1130116E+00
         25   -1    0    0    0    0  0.00000000000E+00  0.00000000000E+00  0.99999998245E-14  0.12500000000E+03  0.12500000000E+03 0.  0.
        -13    1    1    0    0    0  0.23248176984E+02  0.19513497247E+01  0.37907702795E+02  0.44511690533E+02  0.10566000000E+00 0. -1.
         13    1    1    0    0    0  0.56518328637E+01  0.31802467210E+01  0.17017775874E+02  0.18211892918E+02  0.10566000000E+00 0.  1.
         22    1    1    0    0    0 -0.28900009848E+02 -0.51315964457E+01 -0.54925478669E+02  0.62276416550E+02  0.00000000000E+00 0. -1.
</event>
<event>
 4    1  0.9957587E-003  0.9118800E+02  0.7818608E-02  0.1130116E+00
         25   -1    0    0    0    0  0.00000000000E+00  0.00000000000E+00  0.99999998245E-14  0.12500000000E+03  0.12500000000E+03 0.  0.
        -13    1    1    0    0    0  0.15125239894E+00 -0.28841576583E+00 -0.47993014133E+01  0.48114986266E+01  0.10566000000E+00 0. -1.
         13    1    1    0    0    0  0.27400673777E+01 -0.43877550514E+01 -0.57457208186E+02  0.57689707056E+02  0.10566000000E+00 0.  1.
         22    1    1    0    0    0 -0.28913197766E+01  0.46761708172E+01  0.62256509600E+02  0.62498794317E+02  0.00000000000E+00 0.  1.
</event>
<event>
 4    1  0.9957587E-003  0.9118800E+02  0.7818608E-02  0.1130116E+00
         25   -1    0    0    0    0  0.00000000000E+00  0.00000000000E+00  0.99999998245E-14  0.12500000000E+03  0.12500000000E+03 0.  0.
        -13    1    1    0    0    0 -0.54659882728E+00  0.40282753411E+01 -0.47067189723E+02  0.47242536817E+02  0.10566000000E+00 0.  1.
         13    1    1    0    0    0 -0.19377860319E+00  0.11987816778E+01 -0.15209071665E+02  0.15257839054E+02  0.10566000000E+00 0.  1.
         22    1    1    0    0    0  0.74037743047E+00 -0.52270570189E+01  0.62276261388E+02  0.62499624129E+02  0.00000000000E+00 0.  1.
</event>
<event>
 4    1  0.9957587E-003  0.9118800E+02  0.7818608E-02  0.1130116E+00
         25   -1    0    0    0    0  0.00000000000E+00  0.00000000000E+00  0.99999998245E-14  0.12500000000E+03  0.12500000000E+03 0.  0.
        -13    1    1    0    0    0 -0.12004612158E+02 -0.95252349276E+01  0.52449409546E+02  0.54642406053E+02  0.10566000000E+00 0. -1.
         13    1    1    0    0    0  0.14274741768E+01  0.37950952369E+01  0.78681913139E+01  0.88521200269E+01  0.10566000000E+00 0.  1.
         22    1    1    0    0    0  0.10577137981E+02  0.57301396907E+01 -0.60317600859E+02  0.61505473921E+02  0.00000000000E+00 0. -1.
</event>
<event>
 4    1  0.9957587E-003  0.9118800E+02  0.7818608E-02  0.1130116E+00
         25   -1    0    0    0    0  0.00000000000E+00  0.00000000000E+00  0.99999998245E-14  0.12500000000E+03  0.12500000000E+03 0.  0.
        -13    1    1    0    0    0 -0.27899479270E+02  0.57274058002E+01  0.24081521507E+02  0.37297653584E+02  0.10566000000E+00 0.  1.
         13    1    1    0    0    0 -0.52105170534E+01  0.54593567424E+01  0.25752036236E+02  0.26835286440E+02  0.10566000000E+00 0. -1.
         22    1    1    0    0    0  0.33109996323E+02 -0.11186762543E+02 -0.49833557743E+02  0.60867059976E+02  0.00000000000E+00 0. -1.
</event>
<event>
 4    1  0.9957587E-003  0.9118800E+02  0.7818608E-02  0.1130116E+00
         25   -1    0    0    0    0  0.00000000000E+00  0.00000000000E+00  0.99999998245E-14  0.12500000000E+03  0.12500000000E+03 0.  0.
        -13    1    1    0    0    0  0.37106987541E+01 -0.55389358074E+01  0.91667793798E+01  0.11335347518E+02  0.10566000000E+00 0. -1.
         13    1    1    0    0    0  0.18773755975E+02 -0.60999869880E+01  0.47587382501E+02  0.51519257487E+02  0.10566000000E+00 0.  1.
         22    1    1    0    0    0 -0.22484454730E+02  0.11638922795E+02 -0.56754161881E+02  0.62145394995E+02  0.00000000000E+00 0.  1.
</event>
<event>
 4    1  0.9957587E-003  0.9118800E+02  0.7818608E-02  0.1130116E+00
         25   -1    0    0    0    0  0.00000000000E+00  0.00000000000E+00  0.99999998245E-14  0.12500000000E+03  0.12500000000E+03 0.  0.
        -13    1    1    0    0    0  0.32027268568E+00 -0.22257709229E+01 -0.37581409825E+01  0.43808011224E+01  0.10566000000E+00 0. -1.
         13    1    1    0    0    0 -0.70700995264E+01 -0.33492675117E+02 -0.47026462594E+02  0.58165668070E+02  0.10566000000E+00 0.  1.
         22    1    1    0    0    0  0.67498268407E+01  0.35718446040E+02  0.50784603577E+02  0.62453530808E+02  0.00000000000E+00 0.  1.
</event>
<event>
 4    1  0.9957587E-003  0.9118800E+02  0.7818608E-02  0.1130116E+00
         25   -1    0    0    0    0  0.00000000000E+00  0.00000000000E+00  0.99999998245E-14  0.12500000000E+03  0.12500000000E+03 0.  0.
        -13    1    1    0    0    0  0.24645233886E+02 -0.19361824094E+02  0.41302037360E+02  0.51847249104E+02  0.10566000000E+00 0. -1.
         13    1    1    0    0    0  0.53864290210E+01 -0.16924086768E+01  0.91655896045E+01  0.10765549757E+02  0.10566000000E+00 0.  1.
         22    1    1    0    0    0 -0.30031662907E+02  0.21054232770E+02 -0.50467626965E+02  0.62387201139E+02  0.00000000000E+00 0. -1.
</event>
<event>
 4    1  0.9957587E-003  0.9118800E+02  0.7818608E-02  0.1130116E+00
         25   -1    0    0    0    0  0.00000000000E+00  0.00000000000E+00  0.99999998245E-14  0.12500000000E+03  0.12500000000E+03 0.  0.
        -13    1    1    0    0    0  0.40816357783E+02  0.59141172037E+01  0.76065795868E+01  0.41938324502E+02  0.10566000000E+00 0.  1.
         13    1    1    0    0    0  0.20501462624E+02  0.18539365450E+01  0.12457781222E+01  0.20623049668E+02  0.10566000000E+00 0. -1.
         22    1    1    0    0    0 -0.61317820407E+02 -0.77680537487E+01 -0.88523577090E+01  0.62438625830E+02  0.00000000000E+00 0.  1.
</event>
<event>
 4    1  0.9957587E-003  0.9118800E+02  0.7818608E-02  0.1130116E+00
         25   -1    0    0    0    0  0.00000000000E+00  0.00000000000E+00  0.99999998245E-14  0.12500000000E+03  0.12500000000E+03 0.  0.
        -13    1    1    0    0    0  0.37727972107E+02  0.30801740557E+01 -0.22229798348E+02  0.43898319445E+02  0.10566000000E+00 0.  1.
         13    1    1    0    0    0  0.13295332925E+02  0.17834963894E+02  0.18869880278E+01  0.22325404868E+02  0.10566000000E+00 0. -1.
         22    1    1    0    0    0 -0.51023305032E+02 -0.20915137950E+02  0.20342810320E+02  0.58776275686E+02  0.00000000000E+00 0.  1.
</event>
<event>
 4    1  0.9957587E-003  0.9118800E+02  0.7818608E-02  0.1130116E+00
         25   -1    0    0    0    0  0.00000000000E+00  0.00000000000E+00  0.99999998245E-14  0.12500000000E+03  0.12500000000E+03 0.  0.
        -13    1    1    0    0    0  0.31394044078E+02 -0.31153090070E+02 -0.35503852015E+02  0.56715392059E+02  0.10566000000E+00 0. -1.
         13    1    1    0    0    0  0.40641673863E+01 -0.29973900967E+00 -0.46361629581E+01  0.61735298677E+01  0.10566000000E+00 0.  1.
         22    1    1    0    0    0 -0.35458211464E+02  0.31452829079E+02  0.40140014973E+02  0.62111078073E+02  0.00000000000E+00 0. -1.
</event>
<event>
 4    1  0.9957587E-003  0.9118800E+02  0.7818608E-02  0.1130116E+00
         25   -1    0    0    0    0  0.00000000000E+00  0.00000000000E+00  0.99999998245E-14  0.12500000000E+03  0.12500000000E+03 0.  0.
        -13    1    1    0    0    0 -0.52184948063E-01 -0.37043505412E+00  0.23224194047E+02  0.23227447095E+02  0.10566000000E+00 0. -1.
         13    1    1    0    0    0 -0.32193761469E+02  0.17759040469E+02  0.22558628464E+02  0.43136118023E+02  0.10566000000E+00 0.  1.
         22    1    1    0    0    0  0.32245946417E+02 -0.17388605415E+02 -0.45782822511E+02  0.58636434882E+02  0.00000000000E+00 0.  1.
</event>
<event>
 4    1  0.9957587E-003  0.9118800E+02  0.7818608E-02  0.1130116E+00
         25   -1    0    0    0    0  0.00000000000E+00  0.00000000000E+00  0.99999998245E-14  0.12500000000E+03  0.12500000000E+03 0.  0.
        -13    1    1    0    0    0 -0.14003374054E+02 -0.14717403275E+02  0.87598607777E+00  0.20334083695E+02  0.10566000000E+00 0.  1.
         13    1    1    0    0    0 -0.22729211028E+02 -0.35152381505E+02 -0.69399821605E+01  0.42432080739E+02  0.10566000000E+00 0. -1.
         22    1    1    0    0    0  0.36732585082E+02  0.49869784780E+02  0.60639960827E+01  0.62233835566E+02  0.00000000000E+00 0.  1.
</event>
<event>
 4    1  0.9957587E-003  0.9118800E+02  0.7818608E-02  0.1130116E+00
         25   -1    0    0    0    0  0.00000000000E+00  0.00000000000E+00  0.99999998245E-14  0.12500000000E+03  0.12500000000E+03 0.  0.
        -13    1    1    0    0    0  0.31339606795E+02  0.95279646656E+01 -0.87959132104E+01  0.33916549322E+02  0.10566000000E+00 0. -1.
         13    1    1    0    0    0  0.22023581706E+02  0.12957660929E+02 -0.13659695644E+02  0.28974774840E+02  0.10566000000E+00 0.  1.
         22    1    1    0    0    0 -0.53363188500E+02 -0.22485625595E+02  0.22455608854E+02  0.62108675838E+02  0.00000000000E+00 0. -1.
</event>
<event>
 4    1  0.9957587E-003  0.9118800E+02  0.7818608E-02  0.1130116E+00
         25   -1    0    0    0    0  0.00000000000E+00  0.00000000000E+00  0.99999998245E-14  0.12500000000E+03  0.12500000000E+03 0.  0.
        -13    1    1    0    0    0  0.97301093730E+01 -0.78238211017E+01  0.23398227486E+01  0.12703272790E+02  0.10566000000E+00 0.  1.
         13    1    1    0    0    0  0.37405493782E+02 -0.31010463638E+02  0.10921934698E+02  0.49800799610E+02  0.10566000000E+00 0.  1.
         22    1    1    0    0    0 -0.47135603155E+02  0.38834284740E+02 -0.13261757446E+02  0.62495927601E+02  0.00000000000E+00 0.  1.
</event>
<event>
 4    1  0.9957587E-003  0.9118800E+02  0.7818608E-02  0.1130116E+00
         25   -1    0    0    0    0  0.00000000000E+00  0.00000000000E+00  0.99999998245E-14  0.12500000000E+03  0.12500000000E+03 0.  0.
        -13    1    1    0    0    0  0.25671303154E+02  0.11684112018E+02 -0.21493368143E+02  0.35461391927E+02  0.10566000000E+00 0. -1.
         13    1    1    0    0    0  0.20912639687E+02  0.83943301634E+01 -0.14980905630E+02  0.27059969976E+02  0.10566000000E+00 0.  1.
         22    1    1    0    0    0 -0.46583942841E+02 -0.20078442182E+02  0.36474273773E+02  0.62478638096E+02  0.00000000000E+00 0. -1.
</event>
<event>
 4    1  0.9957587E-003  0.9118800E+02  0.7818608E-02  0.1130116E+00
         25   -1    0    0    0    0  0.00000000000E+00  0.00000000000E+00  0.99999998245E-14  0.12500000000E+03  0.12500000000E+03 0.  0.
        -13    1    1    0    0    0  0.55837357190E+01  0.19080853657E+02  0.67544058965E+01  0.20997386597E+02  0.10566000000E+00 0. -1.
         13    1    1    0    0    0  0.10799536209E+02  0.37838257181E+02  0.13195632766E+02  0.41503006842E+02  0.10566000000E+00 0.  1.
         22    1    1    0    0    0 -0.16383271928E+02 -0.56919110838E+02 -0.19950038662E+02  0.62499606561E+02  0.00000000000E+00 0.  1.
</event>
<event>
 4    1  0.9957587E-003  0.9118800E+02  0.7818608E-02  0.1130116E+00
         25   -1    0    0    0    0  0.00000000000E+00  0.00000000000E+00  0.99999998245E-14  0.12500000000E+03  0.12500000000E+03 0.  0.
        -13    1    1    0    0    0  0.43077204851E+01  0.91056452864E+01  0.52362945087E+02  0.53323150826E+02  0.10566000000E+00 0.  1.
         13    1    1    0    0    0  0.72674845562E+01 -0.39114541430E+01  0.70926430338E+01  0.10882672214E+02  0.10566000000E+00 0. -1.
         22    1    1    0    0    0 -0.11575205041E+02 -0.51941911435E+01 -0.59455588121E+02  0.60794176959E+02  0.00000000000E+00 0.  1.
</event>
<event>
 4    1  0.9957587E-003  0.9118800E+02  0.7818608E-02  0.1130116E+00
         25   -1    0    0    0    0  0.00000000000E+00  0.00000000000E+00  0.99999998245E-14  0.12500000000E+03  0.12500000000E+03 0.  0.
        -13    1    1    0    0    0 -0.49552442677E+01  0.25440710933E+02  0.12028233675E+02  0.28574005458E+02  0.10566000000E+00 0.  1.
         13    1    1    0    0    0 -0.55752150673E+01  0.30135525894E+02  0.14552693906E+02  0.33926759467E+02  0.10566000000E+00 0. -1.
         22    1    1    0    0    0  0.10530459335E+02 -0.55576236828E+02 -0.26580927582E+02  0.62499235074E+02  0.00000000000E+00 0. -1.
</event>
<event>
 4    1  0.9957587E-003  0.9118800E+02  0.7818608E-02  0.1130116E+00
         25   -1    0    0    0    0  0.00000000000E+00  0.00000000000E+00  0.99999998245E-14  0.12500000000E+03  0.12500000000E+03 0.  0.
        -13    1    1    0    0    0  0.25253201191E+01  0.47232613299E+01  0.19006930476E+01  0.56842094781E+01  0.10566000000E+00 0. -1.
         13    1    1    0    0    0 -0.12084902250E+02 -0.40723029368E+02 -0.45315766186E+02  0.62112316109E+02  0.10566000000E+00 0.  1.
         22    1    1    0    0    0  0.95595821308E+01  0.35999768039E+02  0.43415073138E+02  0.57203474413E+02  0.00000000000E+00 0.  1.
</event>
<event>
 4    1  0.9957587E-003  0.9118800E+02  0.7818608E-02  0.1130116E+00
         25   -1    0    0    0    0  0.00000000000E+00  0.00000000000E+00  0.99999998245E-14  0.12500000000E+03  0.12500000000E+03 0.  0.
        -13    1    1    0    0    0 -0.19719560686E+02 -0.22499382178E+02 -0.16893388377E+02  0.34358128688E+02  0.10566000000E+00 0.  1.
         13    1    1    0    0    0 -0.16025837947E+02 -0.18433491280E+02 -0.13976858590E+02  0.28142224908E+02  0.10566000000E+00 0. -1.
         22    1    1    0    0    0  0.35745398633E+02  0.40932873458E+02  0.30870246967E+02  0.62499646405E+02  0.00000000000E+00 0.  1.
</event>
<event>
 4    1  0.9957587E-003  0.9118800E+02  0.7818608E-02  0.1130116E+00
         25   -1    0    0    0    0  0.00000000000E+00  0.00000000000E+00  0.99999998245E-14  0.12500000000E+03  0.12500000000E+03 0.  0.
        -13    1    1    0    0    0 -0.41080066501E+01 -0.24075419655E+01 -0.21598854004E+01  0.52295550414E+01  0.10566000000E+00 0. -1.
         13    1    1    0    0    0 -0.43961832000E+02 -0.30624683693E+02 -0.20266438104E+02  0.57282227624E+02  0.10566000000E+00 0.  1.
         22    1    1    0    0    0  0.48069838650E+02  0.33032225659E+02  0.22426323504E+02  0.62488217335E+02  0.00000000000E+00 0.  1.
</event>
<event>
 4    1  0.9957587E-003  0.9118800E+02  0.7818608E-02  0.1130116E+00
         25   -1    0    0    0    0  0.00000000000E+00  0.00000000000E+00  0.99999998245E-14  0.12500000000E+03  0.12500000000E+03 0.  0.
        -13    1    1    0    0    0 -0.39530420511E+02 -0.41283625827E+02 -0.10697928066E+02  0.58150225590E+02  0.10566000000E+00 0. -1.
         13    1    1    0    0    0  0.11117938263E+02  0.32683990899E+02 -0.19585971216E+01  0.34578881981E+02  0.10566000000E+00 0.  1.
         22    1    1    0    0    0  0.28412482248E+02  0.85996349282E+01  0.12656525187E+02  0.32270892430E+02  0.00000000000E+00 0. -1.
</event>
<event>
 4    1  0.9957587E-003  0.9118800E+02  0.7818608E-02  0.1130116E+00
         25   -1    0    0    0    0  0.00000000000E+00  0.00000000000E+00  0.99999998245E-14  0.12500000000E+03  0.12500000000E+03 0.  0.
        -13    1    1    0    0    0  0.93121645999E+01  0.33084497395E+01  0.32312356310E+02  0.33789965723E+02  0.10566000000E+00 0.  1.
         13    1    1    0    0    0  0.17591567825E+02  0.26138026254E+02  0.10005843691E+02  0.33057340289E+02  0.10566000000E+00 0. -1.
         22    1    1    0    0    0 -0.26903732425E+02 -0.29446475993E+02 -0.42318200000E+02  0.58152693988E+02  0.00000000000E+00 0. -1.
</event>
<event>
 4    1  0.9957587E-003  0.9118800E+02  0.7818608E-02  0.1130116E+00
         25   -1    0    0    0    0  0.00000000000E+00  0.00000000000E+00  0.99999998245E-14  0.12500000000E+03  0.12500000000E+03 0.  0.
        -13    1    1    0    0    0 -0.29719020794E+01 -0.17368197965E+01  0.48267919136E+01  0.59294037801E+01  0.10566000000E+00 0. -1.
         13    1    1    0    0    0 -0.12268223397E+02 -0.37368514797E+02  0.41078174784E+02  0.56871282833E+02  0.10566000000E+00 0.  1.
         22    1    1    0    0    0  0.15240125477E+02  0.39105334594E+02 -0.45904966698E+02  0.62199313387E+02  0.00000000000E+00 0.  1.
</event>
<event>
 4    1  0.9957587E-003  0.9118800E+02  0.7818608E-02  0.1130116E+00
         25   -1    0    0    0    0  0.00000000000E+00  0.00000000000E+00  0.99999998245E-14  0.12500000000E+03  0.12500000000E+03 0.  0.
        -13    1    1    0    0    0 -0.71815750083E+01  0.45316903619E+01 -0.38611289840E+02  0.39534214350E+02  0.10566000000E+00 0. -1.
         13    1    1    0    0    0 -0.42602494367E+01  0.21110815587E+01 -0.22470148241E+02  0.22967914939E+02  0.10566000000E+00 0. -1.
         22    1    1    0    0    0  0.11441824445E+02 -0.66427719206E+01  0.61081438081E+02  0.62497870711E+02  0.00000000000E+00 0. -1.
</event>
<event>
 4    1  0.9957587E-003  0.9118800E+02  0.7818608E-02  0.1130116E+00
         25   -1    0    0    0    0  0.00000000000E+00  0.00000000000E+00  0.99999998245E-14  0.12500000000E+03  0.12500000000E+03 0.  0.
        -13    1    1    0    0    0 -0.49634237152E+01 -0.12830329601E+02  0.81146720826E+01  0.15972225884E+02  0.10566000000E+00 0. -1.
         13    1    1    0    0    0 -0.14942802305E+02 -0.37181511248E+02  0.23645868117E+02  0.46528382332E+02  0.10566000000E+00 0.  1.
         22    1    1    0    0    0  0.19906226020E+02  0.50011840850E+02 -0.31760540200E+02  0.62499391783E+02  0.00000000000E+00 0.  1.
</event>
<event>
 4    1  0.9957587E-003  0.9118800E+02  0.7818608E-02  0.1130116E+00
         25   -1    0    0    0    0  0.00000000000E+00  0.00000000000E+00  0.99999998245E-14  0.12500000000E+03  0.12500000000E+03 0.  0.
        -13    1    1    0    0    0  0.17062721675E+02  0.21249509042E+01 -0.15420931159E+02  0.23096929865E+02  0.10566000000E+00 0. -1.
         13    1    1    0    0    0  0.21415102361E+02 -0.26344622269E+02 -0.24121565693E+02  0.41647410809E+02  0.10566000000E+00 0.  1.
         22    1    1    0    0    0 -0.38477824036E+02  0.24219671364E+02  0.39542496852E+02  0.60255659326E+02  0.00000000000E+00 0.  1.
</event>
<event>
 4    1  0.9957587E-003  0.9118800E+02  0.7818608E-02  0.1130116E+00
         25   -1    0    0    0    0  0.00000000000E+00  0.00000000000E+00  0.99999998245E-14  0.12500000000E+03  0.12500000000E+03 0.  0.
        -13    1    1    0    0    0  0.29071505297E+02 -0.41446995156E+02  0.27028176822E+01  0.50698345290E+02  0.10566000000E+00 0.  1.
         13    1    1    0    0    0  0.68548548689E+01 -0.95785316391E+01  0.73994345041E+00  0.11802371964E+02  0.10566000000E+00 0. -1.
         22    1    1    0    0    0 -0.35926360166E+02  0.51025526795E+02 -0.34427611326E+01  0.62499282746E+02  0.00000000000E+00 0.  1.
</event>
<event>
 4    1  0.9957587E-003  0.9118800E+02  0.7818608E-02  0.1130116E+00
         25   -1    0    0    0    0  0.00000000000E+00  0.00000000000E+00  0.99999998245E-14  0.12500000000E+03  0.12500000000E+03 0.  0.
        -13    1    1    0    0    0  0.29681591556E+01 -0.21960764100E+02  0.73964913228E+01  0.23362456561E+02  0.10566000000E+00 0. -1.
         13    1    1    0    0    0  0.12575773811E+02 -0.36354221184E+02  0.81375655455E+01  0.39319341575E+02  0.10566000000E+00 0.  1.
         22    1    1    0    0    0 -0.15543932967E+02  0.58314985284E+02 -0.15534056868E+02  0.62318201864E+02  0.00000000000E+00 0.  1.
</event>
<event>
 4    1  0.9957587E-003  0.9118800E+02  0.7818608E-02  0.1130116E+00
         25   -1    0    0    0    0  0.00000000000E+00  0.00000000000E+00  0.99999998245E-14  0.12500000000E+03  0.12500000000E+03 0.  0.
        -13    1    1    0    0    0 -0.14404471228E+01 -0.36943324447E+02 -0.17232398481E+02  0.40790327660E+02  0.10566000000E+00 0.  1.
         13    1    1    0    0    0 -0.13498980306E+02 -0.95814033776E+01 -0.17629921046E+02  0.24183693682E+02  0.10566000000E+00 0. -1.
         22    1    1    0    0    0  0.14939427428E+02  0.46524727825E+02  0.34862319527E+02  0.60025978658E+02  0.00000000000E+00 0.  1.
</event>
<event>
 4    1  0.9957587E-003  0.9118800E+02  0.7818608E-02  0.1130116E+00
         25   -1    0    0    0    0  0.00000000000E+00  0.00000000000E+00  0.99999998245E-14  0.12500000000E+03  0.12500000000E+03 0.  0.
        -13    1    1    0    0    0  0.41948311834E+01  0.17563348874E+02 -0.58699505832E+02  0.61414257150E+02  0.10566000000E+00 0. -1.
         13    1    1    0    0    0 -0.58988098439E+01 -0.19014921219E+01  0.61751955639E+01  0.87496190861E+01  0.10566000000E+00 0.  1.
         22    1    1    0    0    0  0.17039786605E+01 -0.15661856752E+02  0.52524310269E+02  0.54836123763E+02  0.00000000000E+00 0. -1.
</event>
<event>
 4    1  0.9957587E-003  0.9118800E+02  0.7818608E-02  0.1130116E+00
         25   -1    0    0    0    0  0.00000000000E+00  0.00000000000E+00  0.99999998245E-14  0.12500000000E+03  0.12500000000E+03 0.  0.
        -13    1    1    0    0    0 -0.77798663881E+01  0.23325253651E+01  0.16266730998E+02  0.18181988257E+02  0.10566000000E+00 0.  1.
         13    1    1    0    0    0 -0.10450864229E+02  0.25818023658E+02  0.35508535036E+02  0.45129348911E+02  0.10566000000E+00 0. -1.
         22    1    1    0    0    0  0.18230730617E+02 -0.28150549023E+02 -0.51775266033E+02  0.61688662832E+02  0.00000000000E+00 0. -1.
</event>
<event>
 4    1  0.9957587E-003  0.9118800E+02  0.7818608E-02  0.1130116E+00
         25   -1    0    0    0    0  0.00000000000E+00  0.00000000000E+00  0.99999998245E-14  0.12500000000E+03  0.12500000000E+03 0.  0.
        -13    1    1    0    0    0  0.75899818457E+01  0.48034681409E+02  0.26141688853E+02  0.55211751490E+02  0.10566000000E+00 0. -1.
         13    1    1    0    0    0  0.10718826536E+01  0.62594715228E+01  0.35771409797E+01  0.72895142357E+01  0.10566000000E+00 0.  1.
         22    1    1    0    0    0 -0.86618644993E+01 -0.54294152932E+02 -0.29718829833E+02  0.62498734274E+02  0.00000000000E+00 0. -1.
</event>
<event>
 4    1  0.9957587E-003  0.9118800E+02  0.7818608E-02  0.1130116E+00
         25   -1    0    0    0    0  0.00000000000E+00  0.00000000000E+00  0.99999998245E-14  0.12500000000E+03  0.12500000000E+03 0.  0.
        -13    1    1    0    0    0 -0.85479685060E+01  0.15205376015E+01 -0.31217865495E+01  0.92269450781E+01  0.10566000000E+00 0.  1.
         13    1    1    0    0    0 -0.49338081767E+02  0.87048905351E+01 -0.18111448900E+02  0.53273419047E+02  0.10566000000E+00 0.  1.
         22    1    1    0    0    0  0.57886050273E+02 -0.10225428137E+02  0.21233235449E+02  0.62499635875E+02  0.00000000000E+00 0.  1.
</event>
<event>
 4    1  0.9957587E-003  0.9118800E+02  0.7818608E-02  0.1130116E+00
         25   -1    0    0    0    0  0.00000000000E+00  0.00000000000E+00  0.99999998245E-14  0.12500000000E+03  0.12500000000E+03 0.  0.
        -13    1    1    0    0    0 -0.10290468142E+02 -0.29574643780E+02  0.53954107679E+02  0.62382771570E+02  0.10566000000E+00 0. -1.
         13    1    1    0    0    0  0.25381693269E-02  0.19119409073E+00  0.98815906691E-01  0.23977122773E+00  0.10566000000E+00 0.  1.
         22    1    1    0    0    0  0.10287929973E+02  0.29383449689E+02 -0.54052923586E+02  0.62377457202E+02  0.00000000000E+00 0. -1.
</event>
<event>
 4    1  0.9957587E-003  0.9118800E+02  0.7818608E-02  0.1130116E+00
         25   -1    0    0    0    0  0.00000000000E+00  0.00000000000E+00  0.99999998245E-14  0.12500000000E+03  0.12500000000E+03 0.  0.
        -13    1    1    0    0    0 -0.73601624237E+01  0.15600126052E+02 -0.24721412938E+02  0.30144574063E+02  0.10566000000E+00 0. -1.
         13    1    1    0    0    0 -0.83598706479E+01  0.16640389299E+02 -0.26460138847E+02  0.32356453841E+02  0.10566000000E+00 0.  1.
         22    1    1    0    0    0  0.15720033072E+02 -0.32240515351E+02  0.51181551786E+02  0.62498972096E+02  0.00000000000E+00 0.  1.
</event>
<event>
 4    1  0.9957587E-003  0.9118800E+02  0.7818608E-02  0.1130116E+00
         25   -1    0    0    0    0  0.00000000000E+00  0.00000000000E+00  0.99999998245E-14  0.12500000000E+03  0.12500000000E+03 0.  0.
        -13    1    1    0    0    0  0.95407109786E+01  0.30555583237E+00 -0.24479200896E+02  0.26274721138E+02  0.10566000000E+00 0. -1.
         13    1    1    0    0    0  0.15592139665E+02 -0.35574426323E+00 -0.32720501010E+02  0.36247534036E+02  0.10566000000E+00 0.  1.
         22    1    1    0    0    0 -0.25132850644E+02  0.50188430859E-01  0.57199701906E+02  0.62477744826E+02  0.00000000000E+00 0. -1.
</event>
<event>
 4    1  0.9957587E-003  0.9118800E+02  0.7818608E-02  0.1130116E+00
         25   -1    0    0    0    0  0.00000000000E+00  0.00000000000E+00  0.99999998245E-14  0.12500000000E+03  0.12500000000E+03 0.  0.
        -13    1    1    0    0    0  0.20264696729E+01 -0.24030186057E+02 -0.14003088668E+02  0.27886449712E+02  0.10566000000E+00 0.  1.
         13    1    1    0    0    0  0.50502934329E+01 -0.29671915747E+02 -0.17135458710E+02  0.34634710293E+02  0.10566000000E+00 0. -1.
         22    1    1    0    0    0 -0.70767631058E+01  0.53702101804E+02  0.31138547378E+02  0.62478839994E+02  0.00000000000E+00 0. -1.
</event>
<event>
 4    1  0.9957587E-003  0.9118800E+02  0.7818608E-02  0.1130116E+00
         25   -1    0    0    0    0  0.00000000000E+00  0.00000000000E+00  0.99999998245E-14  0.12500000000E+03  0.12500000000E+03 0.  0.
        -13    1    1    0    0    0  0.69846079474E+00 -0.88953798324E+01  0.67888990848E+01  0.11212312191E+02  0.10566000000E+00 0. -1.
         13    1    1    0    0    0  0.61457860939E+01 -0.40294398316E+02  0.31142149394E+02  0.51295748901E+02  0.10566000000E+00 0.  1.
         22    1    1    0    0    0 -0.68442468887E+01  0.49189778149E+02 -0.37931048479E+02  0.62491938908E+02  0.00000000000E+00 0. -1.
</event>
<event>
 4    1  0.9957587E-003  0.9118800E+02  0.7818608E-02  0.1130116E+00
         25   -1    0    0    0    0  0.00000000000E+00  0.00000000000E+00  0.99999998245E-14  0.12500000000E+03  0.12500000000E+03 0.  0.
        -13    1    1    0    0    0  0.15759049759E+02  0.14125768749E+02 -0.62602634058E+01  0.22070048799E+02  0.10566000000E+00 0.  1.
         13    1    1    0    0    0  0.28839487120E+02  0.25853121356E+02 -0.11596933998E+02  0.40430186042E+02  0.10566000000E+00 0. -1.
         22    1    1    0    0    0 -0.44598536879E+02 -0.39978890105E+02  0.17857197404E+02  0.62499765159E+02  0.00000000000E+00 0. -1.
</event>
<event>
 4    1  0.9957587E-003  0.9118800E+02  0.7818608E-02  0.1130116E+00
         25   -1    0    0    0    0  0.00000000000E+00  0.00000000000E+00  0.99999998245E-14  0.12500000000E+03  0.12500000000E+03 0.  0.
        -13    1    1    0    0    0 -0.10709728889E+02  0.25103673572E+02 -0.41784693061E+02  0.49908560968E+02  0.10566000000E+00 0. -1.
         13    1    1    0    0    0 -0.25547194573E+01  0.61531941039E+01 -0.10685581171E+02  0.12592902691E+02  0.10566000000E+00 0.  1.
         22    1    1    0    0    0  0.13264448347E+02 -0.31256867676E+02  0.52470274232E+02  0.62498536341E+02  0.00000000000E+00 0. -1.
</event>
<event>
 4    1  0.9957587E-003  0.9118800E+02  0.7818608E-02  0.1130116E+00
         25   -1    0    0    0    0  0.00000000000E+00  0.00000000000E+00  0.99999998245E-14  0.12500000000E+03  0.12500000000E+03 0.  0.
        -13    1    1    0    0    0  0.16803355807E+00  0.46790093355E+01  0.16298214846E+00  0.46860528011E+01  0.10566000000E+00 0. -1.
         13    1    1    0    0    0  0.27481585944E+02  0.43923986605E+02 -0.26847902921E+02  0.58355592882E+02  0.10566000000E+00 0.  1.
         22    1    1    0    0    0 -0.27649619502E+02 -0.48602995941E+02  0.26684920773E+02  0.61958354317E+02  0.00000000000E+00 0.  1.
</event>
<event>
 4    1  0.9957587E-003  0.9118800E+02  0.7818608E-02  0.1130116E+00
         25   -1    0    0    0    0  0.00000000000E+00  0.00000000000E+00  0.99999998245E-14  0.12500000000E+03  0.12500000000E+03 0.  0.
        -13    1    1    0    0    0  0.49848795033E+02 -0.13398996191E+02  0.48885270743E+01  0.51849246149E+02  0.10566000000E+00 0. -1.
         13    1    1    0    0    0  0.92475254858E+01 -0.48243949020E+01  0.28833574651E+01  0.10822034378E+02  0.10566000000E+00 0.  1.
         22    1    1    0    0    0 -0.59096320519E+02  0.18223391093E+02 -0.77718845395E+01  0.62328719473E+02  0.00000000000E+00 0. -1.
</event>
<event>
 4    1  0.9957587E-003  0.9118800E+02  0.7818608E-02  0.1130116E+00
         25   -1    0    0    0    0  0.00000000000E+00  0.00000000000E+00  0.99999998245E-14  0.12500000000E+03  0.12500000000E+03 0.  0.
        -13    1    1    0    0    0  0.25883318541E+02 -0.19668219775E+02  0.29525459038E+02  0.43915247275E+02  0.10566000000E+00 0.  1.
         13    1    1    0    0    0  0.14820825989E+02 -0.65150749497E+01  0.96242160246E+01  0.18834536966E+02  0.10566000000E+00 0. -1.
         22    1    1    0    0    0 -0.40704144530E+02  0.26183294725E+02 -0.39149675062E+02  0.62250215759E+02  0.00000000000E+00 0.  1.
</event>
<event>
 4    1  0.9957587E-003  0.9118800E+02  0.7818608E-02  0.1130116E+00
         25   -1    0    0    0    0  0.00000000000E+00  0.00000000000E+00  0.99999998245E-14  0.12500000000E+03  0.12500000000E+03 0.  0.
        -13    1    1    0    0    0 -0.52165896769E+01 -0.37724870069E+01  0.38482376235E+01  0.75009707983E+01  0.10566000000E+00 0. -1.
         13    1    1    0    0    0  0.69427064465E+01 -0.52182360743E+02  0.20445864637E+02  0.56473396305E+02  0.10566000000E+00 0.  1.
         22    1    1    0    0    0 -0.17261167695E+01  0.55954847750E+02 -0.24294102260E+02  0.61025632896E+02  0.00000000000E+00 0.  1.
</event>
<event>
 4    1  0.9957587E-003  0.9118800E+02  0.7818608E-02  0.1130116E+00
         25   -1    0    0    0    0  0.00000000000E+00  0.00000000000E+00  0.99999998245E-14  0.12500000000E+03  0.12500000000E+03 0.  0.
        -13    1    1    0    0    0 -0.67071884040E+01 -0.10119345775E+02  0.78487160741E+01  0.14456868376E+02  0.10566000000E+00 0.  1.
         13    1    1    0    0    0 -0.12593180508E+02 -0.43130926850E+02  0.17847469256E+02  0.48346751381E+02  0.10566000000E+00 0. -1.
         22    1    1    0    0    0  0.19300368912E+02  0.53250272625E+02 -0.25696185330E+02  0.62196380243E+02  0.00000000000E+00 0. -1.
</event>
<event>
 4    1  0.9957587E-003  0.9118800E+02  0.7818608E-02  0.1130116E+00
         25   -1    0    0    0    0  0.00000000000E+00  0.00000000000E+00  0.99999998245E-14  0.12500000000E+03  0.12500000000E+03 0.  0.
        -13    1    1    0    0    0  0.31384325984E+00  0.15633893698E+02 -0.81348708382E+01  0.17626809619E+02  0.10566000000E+00 0. -1.
         13    1    1    0    0    0  0.79829065152E+00  0.39623701159E+02 -0.21046550748E+02  0.44873638407E+02  0.10566000000E+00 0. -1.
         22    1    1    0    0    0 -0.11121339114E+01 -0.55257594856E+02  0.29181421587E+02  0.62499551974E+02  0.00000000000E+00 0. -1.
</event>
<event>
 4    1  0.9957587E-003  0.9118800E+02  0.7818608E-02  0.1130116E+00
         25   -1    0    0    0    0  0.00000000000E+00  0.00000000000E+00  0.99999998245E-14  0.12500000000E+03  0.12500000000E+03 0.  0.
        -13    1    1    0    0    0 -0.23264740584E+02  0.75493302786E+01  0.17677364187E+02  0.30178484235E+02  0.10566000000E+00 0.  1.
         13    1    1    0    0    0 -0.24700380888E+02  0.77788088491E+01  0.19342612945E+02  0.32322848308E+02  0.10566000000E+00 0. -1.
         22    1    1    0    0    0  0.47965121472E+02 -0.15328139128E+02 -0.37019977133E+02  0.62498667457E+02  0.00000000000E+00 0. -1.
</event>
<event>
 4    1  0.9957587E-003  0.9118800E+02  0.7818608E-02  0.1130116E+00
         25   -1    0    0    0    0  0.00000000000E+00  0.00000000000E+00  0.99999998245E-14  0.12500000000E+03  0.12500000000E+03 0.  0.
        -13    1    1    0    0    0  0.34188790759E+01  0.17253126031E+01 -0.33388961871E+01  0.50818136032E+01  0.10566000000E+00 0. -1.
         13    1    1    0    0    0  0.42137050759E+02  0.18044802260E+02 -0.34593988782E+02  0.57427355495E+02  0.10566000000E+00 0.  1.
         22    1    1    0    0    0 -0.45555929835E+02 -0.19770114863E+02  0.37932884969E+02  0.62490830902E+02  0.00000000000E+00 0.  1.
</event>
<event>
 4    1  0.9957587E-003  0.9118800E+02  0.7818608E-02  0.1130116E+00
         25   -1    0    0    0    0  0.00000000000E+00  0.00000000000E+00  0.99999998245E-14  0.12500000000E+03  0.12500000000E+03 0.  0.
        -13    1    1    0    0    0 -0.17709541709E+02 -0.26534431603E+02  0.50434602405E+02  0.59677166586E+02  0.10566000000E+00 0. -1.
         13    1    1    0    0    0 -0.34851430704E+01  0.82915734579E+01 -0.17281571351E+01  0.91593724538E+01  0.10566000000E+00 0.  1.
         22    1    1    0    0    0  0.21194684779E+02  0.18242858145E+02 -0.48706445269E+02  0.56163460960E+02  0.00000000000E+00 0. -1.
</event>
<event>
 4    1  0.9957587E-003  0.9118800E+02  0.7818608E-02  0.1130116E+00
         25   -1    0    0    0    0  0.00000000000E+00  0.00000000000E+00  0.99999998245E-14  0.12500000000E+03  0.12500000000E+03 0.  0.
        -13    1    1    0    0    0  0.51480645448E+01  0.20744768401E+01  0.87705715768E+00  0.56201793575E+01  0.10566000000E+00 0. -1.
         13    1    1    0    0    0  0.51026431456E+02  0.24594841825E+02  0.52891652118E+01  0.56891030789E+02  0.10566000000E+00 0.  1.
         22    1    1    0    0    0 -0.56174496001E+02 -0.26669318665E+02 -0.61662223694E+01  0.62488789853E+02  0.00000000000E+00 0.  1.
</event>
<event>
 4    1  0.9957587E-003  0.9118800E+02  0.7818608E-02  0.1130116E+00
         25   -1    0    0    0    0  0.00000000000E+00  0.00000000000E+00  0.99999998245E-14  0.12500000000E+03  0.12500000000E+03 0.  0.
        -13    1    1    0    0    0  0.38272749788E+02  0.56487134514E+01  0.40670746704E+02  0.56132273617E+02  0.10566000000E+00 0.  1.
         13    1    1    0    0    0  0.40999814450E+01  0.79656511865E+00  0.48117969043E+01  0.63725126380E+01  0.10566000000E+00 0. -1.
         22    1    1    0    0    0 -0.42372731233E+02 -0.64452785701E+01 -0.45482543608E+02  0.62495213745E+02  0.00000000000E+00 0. -1.
</event>
<event>
 4    1  0.9957587E-003  0.9118800E+02  0.7818608E-02  0.1130116E+00
         25   -1    0    0    0    0  0.00000000000E+00  0.00000000000E+00  0.99999998245E-14  0.12500000000E+03  0.12500000000E+03 0.  0.
        -13    1    1    0    0    0 -0.25168876182E+01 -0.24106901303E+01  0.10259644676E+02  0.10835941265E+02  0.10566000000E+00 0.  1.
         13    1    1    0    0    0  0.30589933884E+01 -0.19695271794E+02  0.47932916080E+02  0.51911817340E+02  0.10566000000E+00 0. -1.
         22    1    1    0    0    0 -0.54210577024E+00  0.22105961925E+02 -0.58192560756E+02  0.62252241394E+02  0.00000000000E+00 0. -1.
</event>
<event>
 4    1  0.9957587E-003  0.9118800E+02  0.7818608E-02  0.1130116E+00
         25   -1    0    0    0    0  0.00000000000E+00  0.00000000000E+00  0.99999998245E-14  0.12500000000E+03  0.12500000000E+03 0.  0.
        -13    1    1    0    0    0  0.30937710041E+02 -0.34033948075E+02  0.13271682651E+02  0.47870661668E+02  0.10566000000E+00 0.  1.
         13    1    1    0    0    0  0.93684365036E+01 -0.99563058297E+01  0.52688044729E+01  0.14651521863E+02  0.10566000000E+00 0. -1.
         22    1    1    0    0    0 -0.40306146544E+02  0.43990253905E+02 -0.18540487124E+02  0.62477816468E+02  0.00000000000E+00 0.  1.
</event>
<event>
 4    1  0.9957587E-003  0.9118800E+02  0.7818608E-02  0.1130116E+00
         25   -1    0    0    0    0  0.00000000000E+00  0.00000000000E+00  0.99999998245E-14  0.12500000000E+03  0.12500000000E+03 0.  0.
        -13    1    1    0    0    0 -0.26068066731E+02 -0.86623690270E+01  0.19602739248E+02  0.33746989352E+02  0.10566000000E+00 0.  1.
         13    1    1    0    0    0 -0.22241977265E+02 -0.72933553154E+01  0.16698458976E+02  0.28753230786E+02  0.10566000000E+00 0.  1.
         22    1    1    0    0    0  0.48310043996E+02  0.15955724342E+02 -0.36301198225E+02  0.62499779862E+02  0.00000000000E+00 0.  1.
</event>
<event>
 4    1  0.9957587E-003  0.9118800E+02  0.7818608E-02  0.1130116E+00
         25   -1    0    0    0    0  0.00000000000E+00  0.00000000000E+00  0.99999998245E-14  0.12500000000E+03  0.12500000000E+03 0.  0.
        -13    1    1    0    0    0 -0.47179366321E+01  0.49174190584E+02  0.35126888821E+00  0.49401361313E+02  0.10566000000E+00 0. -1.
         13    1    1    0    0    0 -0.13128247253E+01  0.13032475379E+02  0.57730553897E-01  0.13098985461E+02  0.10566000000E+00 0. -1.
         22    1    1    0    0    0  0.60307613574E+01 -0.62206665963E+02 -0.40899944211E+00  0.62499653226E+02  0.00000000000E+00 0. -1.
</event>
<event>
 4    1  0.9957587E-003  0.9118800E+02  0.7818608E-02  0.1130116E+00
         25   -1    0    0    0    0  0.00000000000E+00  0.00000000000E+00  0.99999998245E-14  0.12500000000E+03  0.12500000000E+03 0.  0.
        -13    1    1    0    0    0 -0.10342304636E+02 -0.23580722507E+02  0.14609149998E+02  0.29604934839E+02  0.10566000000E+00 0. -1.
         13    1    1    0    0    0 -0.11339068166E+02 -0.26025039817E+02  0.16620991269E+02  0.32895982721E+02  0.10566000000E+00 0. -1.
         22    1    1    0    0    0  0.21681372801E+02  0.49605762325E+02 -0.31230141266E+02  0.62499082440E+02  0.00000000000E+00 0. -1.
</event>
<event>
 4    1  0.9957587E-003  0.9118800E+02  0.7818608E-02  0.1130116E+00
         25   -1    0    0    0    0  0.00000000000E+00  0.00000000000E+00  0.99999998245E-14  0.12500000000E+03  0.12500000000E+03 0.  0.
        -13    1    1    0    0    0 -0.73614709361E+01 -0.25476465233E+02  0.11670360066E+01  0.26544578960E+02  0.10566000000E+00 0. -1.
         13    1    1    0    0    0 -0.91554424962E+01 -0.30709432917E+02 -0.18978242267E+02  0.37243472461E+02  0.10566000000E+00 0.  1.
         22    1    1    0    0    0  0.16516913432E+02  0.56185898150E+02  0.17811206261E+02  0.61211948578E+02  0.00000000000E+00 0.  1.
</event>
<event>
 4    1  0.9957587E-003  0.9118800E+02  0.7818608E-02  0.1130116E+00
         25   -1    0    0    0    0  0.00000000000E+00  0.00000000000E+00  0.99999998245E-14  0.12500000000E+03  0.12500000000E+03 0.  0.
        -13    1    1    0    0    0 -0.13784771991E+02  0.56009837346E+01 -0.29547727897E+02  0.33082780197E+02  0.10566000000E+00 0. -1.
         13    1    1    0    0    0 -0.12093314712E+02  0.48938982391E+01 -0.26366362568E+02  0.29417592352E+02  0.10566000000E+00 0. -1.
         22    1    1    0    0    0  0.25878086703E+02 -0.10494881974E+02  0.55914090465E+02  0.62499627451E+02  0.00000000000E+00 0. -1.
</event>
<event>
 4    1  0.9957587E-003  0.9118800E+02  0.7818608E-02  0.1130116E+00
         25   -1    0    0    0    0  0.00000000000E+00  0.00000000000E+00  0.99999998245E-14  0.12500000000E+03  0.12500000000E+03 0.  0.
        -13    1    1    0    0    0  0.10753440197E+02  0.17251464488E+01 -0.17191821697E+01  0.11026302994E+02  0.10566000000E+00 0.  1.
         13    1    1    0    0    0  0.47800595987E+02 -0.13300867868E+02 -0.15274028742E+02  0.51914518016E+02  0.10566000000E+00 0. -1.
         22    1    1    0    0    0 -0.58554036184E+02  0.11575721419E+02  0.16993210912E+02  0.62059178990E+02  0.00000000000E+00 0. -1.
</event>
<event>
 4    1  0.9957587E-003  0.9118800E+02  0.7818608E-02  0.1130116E+00
         25   -1    0    0    0    0  0.00000000000E+00  0.00000000000E+00  0.99999998245E-14  0.12500000000E+03  0.12500000000E+03 0.  0.
        -13    1    1    0    0    0 -0.30979038788E+02 -0.10350825266E+01 -0.19985624094E+01  0.31060870171E+02  0.10566000000E+00 0. -1.
         13    1    1    0    0    0 -0.31290618469E+02  0.14180854253E+01 -0.30099408684E+01  0.31467200043E+02  0.10566000000E+00 0.  1.
         22    1    1    0    0    0  0.62269657257E+02 -0.38300289873E+00  0.50085032778E+01  0.62471929786E+02  0.00000000000E+00 0.  1.
</event>
<event>
 4    1  0.9957587E-003  0.9118800E+02  0.7818608E-02  0.1130116E+00
         25   -1    0    0    0    0  0.00000000000E+00  0.00000000000E+00  0.99999998245E-14  0.12500000000E+03  0.12500000000E+03 0.  0.
        -13    1    1    0    0    0  0.85678719346E+01  0.22863275070E+02  0.33225958128E+02  0.41232429397E+02  0.10566000000E+00 0. -1.
         13    1    1    0    0    0 -0.24334584344E+02 -0.39971498000E+02 -0.48110143654E+01  0.47043061878E+02  0.10566000000E+00 0.  1.
         22    1    1    0    0    0  0.15766712410E+02  0.17108222930E+02 -0.28414943763E+02  0.36724508725E+02  0.00000000000E+00 0. -1.
</event>
<event>
 4    1  0.9957587E-003  0.9118800E+02  0.7818608E-02  0.1130116E+00
         25   -1    0    0    0    0  0.00000000000E+00  0.00000000000E+00  0.99999998245E-14  0.12500000000E+03  0.12500000000E+03 0.  0.
        -13    1    1    0    0    0  0.47926620236E+02 -0.12313088839E+02  0.39848957765E+01  0.49643364536E+02  0.10566000000E+00 0. -1.
         13    1    1    0    0    0  0.12538045979E+02 -0.26924168100E+01  0.97103085986E+00  0.12861017465E+02  0.10566000000E+00 0.  1.
         22    1    1    0    0    0 -0.60464666216E+02  0.15005505649E+02 -0.49559266363E+01  0.62495618000E+02  0.00000000000E+00 0. -1.
</event>
<event>
 4    1  0.9957587E-003  0.9118800E+02  0.7818608E-02  0.1130116E+00
         25   -1    0    0    0    0  0.00000000000E+00  0.00000000000E+00  0.99999998245E-14  0.12500000000E+03  0.12500000000E+03 0.  0.
        -13    1    1    0    0    0 -0.10394505948E+02  0.42695713758E+02 -0.45524400331E+01  0.44178112245E+02  0.10566000000E+00 0. -1.
         13    1    1    0    0    0 -0.42454876722E+01  0.17697279633E+02 -0.21191650288E+01  0.18322660735E+02  0.10566000000E+00 0.  1.
         22    1    1    0    0    0  0.14639993620E+02 -0.60392993391E+02  0.66716050619E+01  0.62499227020E+02  0.00000000000E+00 0. -1.
</event>
<event>
 4    1  0.9957587E-003  0.9118800E+02  0.7818608E-02  0.1130116E+00
         25   -1    0    0    0    0  0.00000000000E+00  0.00000000000E+00  0.99999998245E-14  0.12500000000E+03  0.12500000000E+03 0.  0.
        -13    1    1    0    0    0 -0.42642724534E+01  0.12423295319E+02  0.18647940214E+02  0.22809627888E+02  0.10566000000E+00 0.  1.
         13    1    1    0    0    0 -0.72325871835E+01  0.21555548835E+02  0.32532847624E+02  0.39690670711E+02  0.10566000000E+00 0. -1.
         22    1    1    0    0    0  0.11496859637E+02 -0.33978844154E+02 -0.51180787838E+02  0.62499701401E+02  0.00000000000E+00 0. -1.
</event>
<event>
 4    1  0.9957587E-003  0.9118800E+02  0.7818608E-02  0.1130116E+00
         25   -1    0    0    0    0  0.00000000000E+00  0.00000000000E+00  0.99999998245E-14  0.12500000000E+03  0.12500000000E+03 0.  0.
        -13    1    1    0    0    0  0.90005019719E+00  0.55743624486E+01  0.40124162269E+01  0.69277886139E+01  0.10566000000E+00 0. -1.
         13    1    1    0    0    0 -0.28621922661E+02 -0.27258303503E+01  0.49781793740E+02  0.57488109726E+02  0.10566000000E+00 0.  1.
         22    1    1    0    0    0  0.27721872463E+02 -0.28485320983E+01 -0.53794209967E+02  0.60584101660E+02  0.00000000000E+00 0.  1.
</event>
<event>
 4    1  0.9957587E-003  0.9118800E+02  0.7818608E-02  0.1130116E+00
         25   -1    0    0    0    0  0.00000000000E+00  0.00000000000E+00  0.99999998245E-14  0.12500000000E+03  0.12500000000E+03 0.  0.
        -13    1    1    0    0    0 -0.36257914138E+01 -0.15982836505E+01 -0.12535238357E+02  0.13147023948E+02  0.10566000000E+00 0.  1.
         13    1    1    0    0    0 -0.13860469313E+02 -0.58244421873E+01 -0.47007498510E+02  0.49353346559E+02  0.10566000000E+00 0.  1.
         22    1    1    0    0    0  0.17486260726E+02  0.74227258378E+01  0.59542736867E+02  0.62499629492E+02  0.00000000000E+00 0.  1.
</event>
<event>
 4    1  0.9957587E-003  0.9118800E+02  0.7818608E-02  0.1130116E+00
         25   -1    0    0    0    0  0.00000000000E+00  0.00000000000E+00  0.99999998245E-14  0.12500000000E+03  0.12500000000E+03 0.  0.
        -13    1    1    0    0    0  0.23537540747E+02  0.19174040465E+02  0.18902643092E+01  0.30417822331E+02  0.10566000000E+00 0.  1.
         13    1    1    0    0    0  0.23060114196E+02  0.22286972294E+02  0.16180793849E+01  0.32110860245E+02  0.10566000000E+00 0. -1.
         22    1    1    0    0    0 -0.46597654943E+02 -0.41461012759E+02 -0.35083436942E+01  0.62471317424E+02  0.00000000000E+00 0.  1.
</event>
<event>
 4    1  0.9957587E-003  0.9118800E+02  0.7818608E-02  0.1130116E+00
         25   -1    0    0    0    0  0.00000000000E+00  0.00000000000E+00  0.99999998245E-14  0.12500000000E+03  0.12500000000E+03 0.  0.
        -13    1    1    0    0    0 -0.13961645661E+01  0.40508683047E+01  0.14297487627E+02  0.14926088771E+02  0.10566000000E+00 0.  1.
         13    1    1    0    0    0  0.51795554058E+02  0.12874265309E+02 -0.19113249416E+02  0.56690859887E+02  0.10566000000E+00 0. -1.
         22    1    1    0    0    0 -0.50399389492E+02 -0.16925133614E+02  0.48157617888E+01  0.53383051342E+02  0.00000000000E+00 0. -1.
</event>
<event>
 4    1  0.9957587E-003  0.9118800E+02  0.7818608E-02  0.1130116E+00
         25   -1    0    0    0    0  0.00000000000E+00  0.00000000000E+00  0.99999998245E-14  0.12500000000E+03  0.12500000000E+03 0.  0.
        -13    1    1    0    0    0  0.10944528787E+02 -0.98909645554E+01 -0.83973207290E+01  0.16974688500E+02  0.10566000000E+00 0.  1.
         13    1    1    0    0    0  0.39705162352E+02 -0.17436330276E+02 -0.15019109313E+02  0.45892377792E+02  0.10566000000E+00 0. -1.
         22    1    1    0    0    0 -0.50649691138E+02  0.27327294831E+02  0.23416430042E+02  0.62132933708E+02  0.00000000000E+00 0. -1.
</event>
<event>
 4    1  0.9957587E-003  0.9118800E+02  0.7818608E-02  0.1130116E+00
         25   -1    0    0    0    0  0.00000000000E+00  0.00000000000E+00  0.99999998245E-14  0.12500000000E+03  0.12500000000E+03 0.  0.
        -13    1    1    0    0    0 -0.34153260920E+02 -0.15501824714E+02 -0.36497940954E+02  0.52334144292E+02  0.10566000000E+00 0.  1.
         13    1    1    0    0    0 -0.64731302277E+01 -0.31890279508E+01 -0.71620603928E+01  0.10167476940E+02  0.10566000000E+00 0. -1.
         22    1    1    0    0    0  0.40626391148E+02  0.18690852664E+02  0.43660001346E+02  0.62498378768E+02  0.00000000000E+00 0.  1.
</event>
<event>
 4    1  0.9957587E-003  0.9118800E+02  0.7818608E-02  0.1130116E+00
         25   -1    0    0    0    0  0.00000000000E+00  0.00000000000E+00  0.99999998245E-14  0.12500000000E+03  0.12500000000E+03 0.  0.
        -13    1    1    0    0    0  0.27381153458E+00 -0.37120470475E+02 -0.91481590042E+01  0.38232241345E+02  0.10566000000E+00 0. -1.
         13    1    1    0    0    0  0.48578561612E+01 -0.22303523987E+02 -0.88253944839E+01  0.24473346738E+02  0.10566000000E+00 0.  1.
         22    1    1    0    0    0 -0.51316676957E+01  0.59423994462E+02  0.17973553488E+02  0.62294411917E+02  0.00000000000E+00 0. -1.
</event>
<event>
 4    1  0.9957587E-003  0.9118800E+02  0.7818608E-02  0.1130116E+00
         25   -1    0    0    0    0  0.00000000000E+00  0.00000000000E+00  0.99999998245E-14  0.12500000000E+03  0.12500000000E+03 0.  0.
        -13    1    1    0    0    0  0.28605304883E+02 -0.18871343325E+02 -0.27738120458E+02  0.44088610286E+02  0.10566000000E+00 0.  1.
         13    1    1    0    0    0  0.12007109711E+02 -0.75656169679E+01 -0.11730762060E+02  0.18412799523E+02  0.10566000000E+00 0. -1.
         22    1    1    0    0    0 -0.40612414594E+02  0.26436960293E+02  0.39468882518E+02  0.62498590192E+02  0.00000000000E+00 0.  1.
</event>
<event>
 4    1  0.9957587E-003  0.9118800E+02  0.7818608E-02  0.1130116E+00
         25   -1    0    0    0    0  0.00000000000E+00  0.00000000000E+00  0.99999998245E-14  0.12500000000E+03  0.12500000000E+03 0.  0.
        -13    1    1    0    0    0  0.92384050673E+01 -0.50145171609E+02 -0.20380876253E+02  0.54911543821E+02  0.10566000000E+00 0. -1.
         13    1    1    0    0    0  0.50805804551E+00 -0.73719302464E+01 -0.19177709662E+01  0.76349517385E+01  0.10566000000E+00 0.  1.
         22    1    1    0    0    0 -0.97464631129E+01  0.57517101856E+02  0.22298647220E+02  0.62453504441E+02  0.00000000000E+00 0. -1.
</event>
<event>
 4    1  0.9957587E-003  0.9118800E+02  0.7818608E-02  0.1130116E+00
         25   -1    0    0    0    0  0.00000000000E+00  0.00000000000E+00  0.99999998245E-14  0.12500000000E+03  0.12500000000E+03 0.  0.
        -13    1    1    0    0    0  0.35320650463E+02  0.28706602040E+01 -0.12857654502E+02  0.37697738426E+02  0.10566000000E+00 0. -1.
         13    1    1    0    0    0  0.23216173429E+02  0.20033188127E+01 -0.84941598397E+01  0.24802538386E+02  0.10566000000E+00 0. -1.
         22    1    1    0    0    0 -0.58536823892E+02 -0.48739790166E+01  0.21351814342E+02  0.62499723188E+02  0.00000000000E+00 0. -1.
</event>
<event>
 4    1  0.9957587E-003  0.9118800E+02  0.7818608E-02  0.1130116E+00
         25   -1    0    0    0    0  0.00000000000E+00  0.00000000000E+00  0.99999998245E-14  0.12500000000E+03  0.12500000000E+03 0.  0.
        -13    1    1    0    0    0  0.57312787315E+01 -0.15331830966E+02  0.48177268650E+02  0.50881951370E+02  0.10566000000E+00 0.  1.
         13    1    1    0    0    0 -0.22960121693E+02  0.25595589255E+02 -0.39207178609E+02  0.52148973106E+02  0.10566000000E+00 0. -1.
         22    1    1    0    0    0  0.17228842962E+02 -0.10263758289E+02 -0.89700900411E+01  0.21969075524E+02  0.00000000000E+00 0. -1.
</event>
<event>
 4    1  0.9957587E-003  0.9118800E+02  0.7818608E-02  0.1130116E+00
         25   -1    0    0    0    0  0.00000000000E+00  0.00000000000E+00  0.99999998245E-14  0.12500000000E+03  0.12500000000E+03 0.  0.
        -13    1    1    0    0    0  0.20756111559E+02 -0.20651665996E+02 -0.23436056065E+00  0.29280942000E+02  0.10566000000E+00 0.  1.
         13    1    1    0    0    0  0.24028935929E+02 -0.22939283494E+02 -0.14195288448E+00  0.33220954287E+02  0.10566000000E+00 0. -1.
         22    1    1    0    0    0 -0.44785047488E+02  0.43590949490E+02  0.37631344513E+00  0.62498103713E+02  0.00000000000E+00 0.  1.
</event>
<event>
 4    1  0.9957587E-003  0.9118800E+02  0.7818608E-02  0.1130116E+00
         25   -1    0    0    0    0  0.00000000000E+00  0.00000000000E+00  0.99999998245E-14  0.12500000000E+03  0.12500000000E+03 0.  0.
        -13    1    1    0    0    0 -0.14447427474E+02  0.51572581059E+02 -0.13194365997E+02  0.55159421098E+02  0.10566000000E+00 0.  1.
         13    1    1    0    0    0 -0.27800551957E+01  0.66845733007E+01 -0.13683010410E+01  0.73685574489E+01  0.10566000000E+00 0. -1.
         22    1    1    0    0    0  0.17227482669E+02 -0.58257154360E+02  0.14562667038E+02  0.62472021454E+02  0.00000000000E+00 0.  1.
</event>
<event>
 4    1  0.9957587E-003  0.9118800E+02  0.7818608E-02  0.1130116E+00
         25   -1    0    0    0    0  0.00000000000E+00  0.00000000000E+00  0.99999998245E-14  0.12500000000E+03  0.12500000000E+03 0.  0.
        -13    1    1    0    0    0 -0.17216743141E+02 -0.58465437341E-01 -0.73483355036E+01  0.18719745225E+02  0.10566000000E+00 0.  1.
         13    1    1    0    0    0 -0.42728939392E+02  0.49537471088E+01 -0.90129510109E+01  0.43949360882E+02  0.10566000000E+00 0. -1.
         22    1    1    0    0    0  0.59945682533E+02 -0.48952816715E+01  0.16361286515E+02  0.62330893892E+02  0.00000000000E+00 0. -1.
</event>
<event>
 4    1  0.9957587E-003  0.9118800E+02  0.7818608E-02  0.1130116E+00
         25   -1    0    0    0    0  0.00000000000E+00  0.00000000000E+00  0.99999998245E-14  0.12500000000E+03  0.12500000000E+03 0.  0.
        -13    1    1    0    0    0  0.31199595012E+02 -0.18875266835E+02  0.37641275719E+02  0.52407701999E+02  0.10566000000E+00 0.  1.
         13    1    1    0    0    0  0.59241264969E+01 -0.35195308819E+01  0.73744676530E+01  0.10093379493E+02  0.10566000000E+00 0.  1.
         22    1    1    0    0    0 -0.37123721509E+02  0.22394797717E+02 -0.45015743372E+02  0.62498918509E+02  0.00000000000E+00 0.  1.
</event>
<event>
 4    1  0.9957587E-003  0.9118800E+02  0.7818608E-02  0.1130116E+00
         25   -1    0    0    0    0  0.00000000000E+00  0.00000000000E+00  0.99999998245E-14  0.12500000000E+03  0.12500000000E+03 0.  0.
        -13    1    1    0    0    0 -0.97174493002E+00 -0.52885605887E+01 -0.10355232875E+02  0.11668554891E+02  0.10566000000E+00 0. -1.
         13    1    1    0    0    0 -0.27243537761E+01 -0.22646827196E+02 -0.45428955301E+02  0.50834063671E+02  0.10566000000E+00 0.  1.
         22    1    1    0    0    0  0.36960987061E+01  0.27935387784E+02  0.55784188175E+02  0.62497381439E+02  0.00000000000E+00 0.  1.
</event>
<event>
 4    1  0.9957587E-003  0.9118800E+02  0.7818608E-02  0.1130116E+00
         25   -1    0    0    0    0  0.00000000000E+00  0.00000000000E+00  0.99999998245E-14  0.12500000000E+03  0.12500000000E+03 0.  0.
        -13    1    1    0    0    0  0.26681841458E+02  0.34294488848E+01  0.51256063220E+02  0.57886759834E+02  0.10566000000E+00 0. -1.
         13    1    1    0    0    0  0.12233617689E+01 -0.21510417621E+00  0.45062627338E+01  0.46755161946E+01  0.10566000000E+00 0.  1.
         22    1    1    0    0    0 -0.27905203227E+02 -0.32143447086E+01 -0.55762325953E+02  0.62437723972E+02  0.00000000000E+00 0. -1.
</event>
<event>
 4    1  0.9957587E-003  0.9118800E+02  0.7818608E-02  0.1130116E+00
         25   -1    0    0    0    0  0.00000000000E+00  0.00000000000E+00  0.99999998245E-14  0.12500000000E+03  0.12500000000E+03 0.  0.
        -13    1    1    0    0    0  0.11150575352E+01 -0.80421362180E+00  0.15985186069E+01  0.21110515457E+01  0.10566000000E+00 0.  1.
         13    1    1    0    0    0 -0.32984792380E+02 -0.15804583467E+02  0.48802465389E+02  0.60987483790E+02  0.10566000000E+00 0. -1.
         22    1    1    0    0    0  0.31869734845E+02  0.16608797089E+02 -0.50400983996E+02  0.61901464664E+02  0.00000000000E+00 0. -1.
</event>
<event>
 4    1  0.9957587E-003  0.9118800E+02  0.7818608E-02  0.1130116E+00
         25   -1    0    0    0    0  0.00000000000E+00  0.00000000000E+00  0.99999998245E-14  0.12500000000E+03  0.12500000000E+03 0.  0.
        -13    1    1    0    0    0  0.30708005737E+01 -0.28253117534E+02 -0.26324186144E+02  0.38738126010E+02  0.10566000000E+00 0. -1.
         13    1    1    0    0    0  0.17087543140E+01 -0.17515686701E+02 -0.15966702485E+02  0.23762699219E+02  0.10566000000E+00 0.  1.
         22    1    1    0    0    0 -0.47795548877E+01  0.45768804235E+02  0.42290888629E+02  0.62499174771E+02  0.00000000000E+00 0. -1.
</event>
<event>
 4    1  0.9957587E-003  0.9118800E+02  0.7818608E-02  0.1130116E+00
         25   -1    0    0    0    0  0.00000000000E+00  0.00000000000E+00  0.99999998245E-14  0.12500000000E+03  0.12500000000E+03 0.  0.
        -13    1    1    0    0    0  0.70220094579E+00 -0.43073104978E+02 -0.57559192441E+01  0.43461790449E+02  0.10566000000E+00 0. -1.
         13    1    1    0    0    0  0.13680325261E+02 -0.15483155218E+02 -0.19406756169E+01  0.20752271698E+02  0.10566000000E+00 0.  1.
         22    1    1    0    0    0 -0.14382526207E+02  0.58556260196E+02  0.76965948610E+01  0.60785937853E+02  0.00000000000E+00 0.  1.
</event>
<event>
 4    1  0.9957587E-003  0.9118800E+02  0.7818608E-02  0.1130116E+00
         25   -1    0    0    0    0  0.00000000000E+00  0.00000000000E+00  0.99999998245E-14  0.12500000000E+03  0.12500000000E+03 0.  0.
        -13    1    1    0    0    0  0.22846569330E+02 -0.10421258056E+02  0.37581281310E+02  0.45198807711E+02  0.10566000000E+00 0. -1.
         13    1    1    0    0    0  0.84934792216E+01 -0.36277053798E+01  0.14632862143E+02  0.17304082008E+02  0.10566000000E+00 0.  1.
         22    1    1    0    0    0 -0.31340048552E+02  0.14048963435E+02 -0.52214143453E+02  0.62497110280E+02  0.00000000000E+00 0. -1.
</event>
<event>
 4    1  0.9957587E-003  0.9118800E+02  0.7818608E-02  0.1130116E+00
         25   -1    0    0    0    0  0.00000000000E+00  0.00000000000E+00  0.99999998245E-14  0.12500000000E+03  0.12500000000E+03 0.  0.
        -13    1    1    0    0    0 -0.74285612915E+01 -0.10438885082E+02  0.75635239927E+01  0.14878571969E+02  0.10566000000E+00 0. -1.
         13    1    1    0    0    0 -0.18684942480E+02 -0.15981990306E+02  0.41707442059E+02  0.48415627402E+02  0.10566000000E+00 0.  1.
         22    1    1    0    0    0  0.26113503771E+02  0.26420875388E+02 -0.49270966052E+02  0.61705800628E+02  0.00000000000E+00 0.  1.
</event>
<event>
 4    1  0.9957587E-003  0.9118800E+02  0.7818608E-02  0.1130116E+00
         25   -1    0    0    0    0  0.00000000000E+00  0.00000000000E+00  0.99999998245E-14  0.12500000000E+03  0.12500000000E+03 0.  0.
        -13    1    1    0    0    0 -0.46138803596E+02  0.30506282557E+02 -0.60410334874E+01  0.55641061477E+02  0.10566000000E+00 0. -1.
         13    1    1    0    0    0 -0.42312898826E+01 -0.80124710617E+01 -0.83779486988E+01  0.12341178834E+02  0.10566000000E+00 0.  1.
         22    1    1    0    0    0  0.50370093478E+02 -0.22493811495E+02  0.14418982186E+02  0.57017759688E+02  0.00000000000E+00 0. -1.
</event>
<event>
 4    1  0.9957587E-003  0.9118800E+02  0.7818608E-02  0.1130116E+00
         25   -1    0    0    0    0  0.00000000000E+00  0.00000000000E+00  0.99999998245E-14  0.12500000000E+03  0.12500000000E+03 0.  0.
        -13    1    1    0    0    0  0.26155364590E+02 -0.16704056498E+02 -0.96849307580E+01  0.32510577481E+02  0.10566000000E+00 0. -1.
         13    1    1    0    0    0  0.19757703997E+02 -0.21648808716E+02  0.14055825260E+02  0.32505617573E+02  0.10566000000E+00 0.  1.
         22    1    1    0    0    0 -0.45913068586E+02  0.38352865213E+02 -0.43708945019E+01  0.59983804946E+02  0.00000000000E+00 0. -1.
</event>
<event>
 4    1  0.9957587E-003  0.9118800E+02  0.7818608E-02  0.1130116E+00
         25   -1    0    0    0    0  0.00000000000E+00  0.00000000000E+00  0.99999998245E-14  0.12500000000E+03  0.12500000000E+03 0.  0.
        -13    1    1    0    0    0  0.20530844330E-01 -0.10633455101E+01 -0.96231521619E-01  0.10731028519E+01  0.10566000000E+00 0.  1.
         13    1    1    0    0    0  0.18350325888E+01 -0.58675730000E+02 -0.18132355073E+02  0.61441045728E+02  0.10566000000E+00 0. -1.
         22    1    1    0    0    0 -0.18555634332E+01  0.59739075510E+02  0.18228586594E+02  0.62485851420E+02  0.00000000000E+00 0. -1.
</event>
<event>
 4    1  0.9957587E-003  0.9118800E+02  0.7818608E-02  0.1130116E+00
         25   -1    0    0    0    0  0.00000000000E+00  0.00000000000E+00  0.99999998245E-14  0.12500000000E+03  0.12500000000E+03 0.  0.
        -13    1    1    0    0    0 -0.48464662552E+01 -0.57465583882E+01 -0.14710071042E+01  0.76606915098E+01  0.10566000000E+00 0. -1.
         13    1    1    0    0    0  0.36828712367E+02  0.39758505167E+02  0.30671723444E+02  0.62272454351E+02  0.10566000000E+00 0.  1.
         22    1    1    0    0    0 -0.31982246112E+02 -0.34011946779E+02 -0.29200716340E+02  0.55066854140E+02  0.00000000000E+00 0.  1.
</event>
<event>
 4    1  0.9957587E-003  0.9118800E+02  0.7818608E-02  0.1130116E+00
         25   -1    0    0    0    0  0.00000000000E+00  0.00000000000E+00  0.99999998245E-14  0.12500000000E+03  0.12500000000E+03 0.  0.
        -13    1    1    0    0    0  0.89838267810E-01 -0.15595574927E+01  0.25915169347E+01  0.30277738597E+01  0.10566000000E+00 0.  1.
         13    1    1    0    0    0 -0.60436712971E+02  0.85412420412E+01  0.18039732900E+01  0.61064020290E+02  0.10566000000E+00 0. -1.
         22    1    1    0    0    0  0.60346874703E+02 -0.69816845485E+01 -0.43954902247E+01  0.60908205850E+02  0.00000000000E+00 0. -1.
</event>
<event>
 4    1  0.9957587E-003  0.9118800E+02  0.7818608E-02  0.1130116E+00
         25   -1    0    0    0    0  0.00000000000E+00  0.00000000000E+00  0.99999998245E-14  0.12500000000E+03  0.12500000000E+03 0.  0.
        -13    1    1    0    0    0  0.37552516433E+01  0.30474806570E+01  0.37999857339E+00  0.48522794860E+01  0.10566000000E+00 0.  1.
         13    1    1    0    0    0  0.44274999481E+02  0.36858658964E+02  0.21721246672E+01  0.57650373886E+02  0.10566000000E+00 0. -1.
         22    1    1    0    0    0 -0.48030251124E+02 -0.39906139621E+02 -0.25521232406E+01  0.62497346628E+02  0.00000000000E+00 0. -1.
</event>
<event>
 4    1  0.9957587E-003  0.9118800E+02  0.7818608E-02  0.1130116E+00
         25   -1    0    0    0    0  0.00000000000E+00  0.00000000000E+00  0.99999998245E-14  0.12500000000E+03  0.12500000000E+03 0.  0.
        -13    1    1    0    0    0  0.92767655057E+01  0.32478568883E+02  0.58772476637E+01  0.34285113665E+02  0.10566000000E+00 0. -1.
         13    1    1    0    0    0  0.74549879713E+01  0.26766866824E+02  0.49038028832E+01  0.28215252116E+02  0.10566000000E+00 0. -1.
         22    1    1    0    0    0 -0.16731753477E+02 -0.59245435707E+02 -0.10781050547E+02  0.62499634218E+02  0.00000000000E+00 0. -1.
</event>
<event>
 4    1  0.9957587E-003  0.9118800E+02  0.7818608E-02  0.1130116E+00
         25   -1    0    0    0    0  0.00000000000E+00  0.00000000000E+00  0.99999998245E-14  0.12500000000E+03  0.12500000000E+03 0.  0.
        -13    1    1    0    0    0 -0.43352054661E+02  0.94774827059E+01 -0.29961466221E+02  0.53543663901E+02  0.10566000000E+00 0.  1.
         13    1    1    0    0    0 -0.47360271058E+01 -0.11008824834E+00 -0.81221633011E+01  0.94033383909E+01  0.10566000000E+00 0. -1.
         22    1    1    0    0    0  0.48088081767E+02 -0.93673944576E+01  0.38083629523E+02  0.62052997708E+02  0.00000000000E+00 0.  1.
</event>
<event>
 4    1  0.9957587E-003  0.9118800E+02  0.7818608E-02  0.1130116E+00
         25   -1    0    0    0    0  0.00000000000E+00  0.00000000000E+00  0.99999998245E-14  0.12500000000E+03  0.12500000000E+03 0.  0.
        -13    1    1    0    0    0  0.33414697651E+02 -0.13210366669E+02 -0.32290091635E+01  0.36076217524E+02  0.10566000000E+00 0.  1.
         13    1    1    0    0    0  0.24515668927E+02 -0.96243726380E+01 -0.21410183830E+01  0.26424263383E+02  0.10566000000E+00 0. -1.
         22    1    1    0    0    0 -0.57930366577E+02  0.22834739307E+02  0.53700275465E+01  0.62499519093E+02  0.00000000000E+00 0. -1.
</event>
<event>
 4    1  0.9957587E-003  0.9118800E+02  0.7818608E-02  0.1130116E+00
         25   -1    0    0    0    0  0.00000000000E+00  0.00000000000E+00  0.99999998245E-14  0.12500000000E+03  0.12500000000E+03 0.  0.
        -13    1    1    0    0    0 -0.58079643332E+00 -0.67171040006E+01 -0.87030971787E+01  0.11009626478E+02  0.10566000000E+00 0.  1.
         13    1    1    0    0    0  0.30863137062E+01 -0.33234297104E+02 -0.39251484272E+02  0.51524111034E+02  0.10566000000E+00 0. -1.
         22    1    1    0    0    0 -0.25055172729E+01  0.39951401104E+02  0.47954581451E+02  0.62466262487E+02  0.00000000000E+00 0. -1.
</event>
<event>
 4    1  0.9957587E-003  0.9118800E+02  0.7818608E-02  0.1130116E+00
         25   -1    0    0    0    0  0.00000000000E+00  0.00000000000E+00  0.99999998245E-14  0.12500000000E+03  0.12500000000E+03 0.  0.
        -13    1    1    0    0    0 -0.23149258731E+02 -0.20172135832E+02 -0.43654955125E+02  0.53371991857E+02  0.10566000000E+00 0.  1.
         13    1    1    0    0    0  0.50448903801E+01 -0.56946184261E+01 -0.80301501471E+01  0.11062281563E+02  0.10566000000E+00 0. -1.
         22    1    1    0    0    0  0.18104368351E+02  0.25866754258E+02  0.51685105272E+02  0.60565726580E+02  0.00000000000E+00 0.  1.
</event>
<event>
 4    1  0.9957587E-003  0.9118800E+02  0.7818608E-02  0.1130116E+00
         25   -1    0    0    0    0  0.00000000000E+00  0.00000000000E+00  0.99999998245E-14  0.12500000000E+03  0.12500000000E+03 0.  0.
        -13    1    1    0    0    0 -0.71014963483E+01 -0.12588774650E+01  0.23194500764E+02  0.24290163700E+02  0.10566000000E+00 0. -1.
         13    1    1    0    0    0 -0.11391417875E+02 -0.12379479004E+01  0.36452909502E+02  0.38211551805E+02  0.10566000000E+00 0.  1.
         22    1    1    0    0    0  0.18492914223E+02  0.24968253654E+01 -0.59647410266E+02  0.62498284495E+02  0.00000000000E+00 0.  1.
</event>
<event>
 4    1  0.9957587E-003  0.9118800E+02  0.7818608E-02  0.1130116E+00
         25   -1    0    0    0    0  0.00000000000E+00  0.00000000000E+00  0.99999998245E-14  0.12500000000E+03  0.12500000000E+03 0.  0.
        -13    1    1    0    0    0  0.18681775757E+01 -0.25175763621E+01  0.16135405093E+01  0.35274573285E+01  0.10566000000E+00 0. -1.
         13    1    1    0    0    0  0.50272592154E+02 -0.26880850008E+02  0.15756685321E+02  0.59145565475E+02  0.10566000000E+00 0.  1.
         22    1    1    0    0    0 -0.52140769730E+02  0.29398426370E+02 -0.17370225830E+02  0.62326977196E+02  0.00000000000E+00 0.  1.
</event>
<event>
 4    1  0.9957587E-003  0.9118800E+02  0.7818608E-02  0.1130116E+00
         25   -1    0    0    0    0  0.00000000000E+00  0.00000000000E+00  0.99999998245E-14  0.12500000000E+03  0.12500000000E+03 0.  0.
        -13    1    1    0    0    0 -0.13576011289E+02 -0.91563831503E+00  0.46638156375E+01  0.14384325371E+02  0.10566000000E+00 0. -1.
         13    1    1    0    0    0 -0.45980593957E+02 -0.67290633381E+01  0.12580543393E+02  0.48143291849E+02  0.10566000000E+00 0.  1.
         22    1    1    0    0    0  0.59556605246E+02  0.76447016531E+01 -0.17244359030E+02  0.62472382779E+02  0.00000000000E+00 0.  1.
</event>
<event>
 4    1  0.9957587E-003  0.9118800E+02  0.7818608E-02  0.1130116E+00
         25   -1    0    0    0    0  0.00000000000E+00  0.00000000000E+00  0.99999998245E-14  0.12500000000E+03  0.12500000000E+03 0.  0.
        -13    1    1    0    0    0  0.25664534556E+02 -0.12475337533E+02 -0.10300641396E+02  0.30338371046E+02  0.10566000000E+00 0.  1.
         13    1    1    0    0    0  0.26962971697E+02 -0.13897760053E+02 -0.10693820159E+02  0.32163932143E+02  0.10566000000E+00 0.  1.
         22    1    1    0    0    0 -0.52627506253E+02  0.26373097587E+02  0.20994461555E+02  0.62497696811E+02  0.00000000000E+00 0.  1.
</event>
<event>
 4    1  0.9957587E-003  0.9118800E+02  0.7818608E-02  0.1130116E+00
         25   -1    0    0    0    0  0.00000000000E+00  0.00000000000E+00  0.99999998245E-14  0.12500000000E+03  0.12500000000E+03 0.  0.
        -13    1    1    0    0    0 -0.57340492136E+01 -0.57054989702E+01 -0.16578103050E+01  0.82578167773E+01  0.10566000000E+00 0.  1.
         13    1    1    0    0    0 -0.36489647424E+02 -0.37765425023E+02 -0.13605434967E+02  0.54247955915E+02  0.10566000000E+00 0. -1.
         22    1    1    0    0    0  0.42223696637E+02  0.43470923993E+02  0.15263245272E+02  0.62494227308E+02  0.00000000000E+00 0. -1.
</event>
<event>
 4    1  0.9957587E-003  0.9118800E+02  0.7818608E-02  0.1130116E+00
         25   -1    0    0    0    0  0.00000000000E+00  0.00000000000E+00  0.99999998245E-14  0.12500000000E+03  0.12500000000E+03 0.  0.
        -13    1    1    0    0    0 -0.33891839274E+02 -0.23911265286E+02  0.31375440903E+02  0.52008026619E+02  0.10566000000E+00 0.  1.
         13    1    1    0    0    0 -0.48940574723E+01 -0.65652733548E+00  0.10021603411E+02  0.11172579185E+02  0.10566000000E+00 0. -1.
         22    1    1    0    0    0  0.38785896746E+02  0.24567792622E+02 -0.41397044315E+02  0.61819394195E+02  0.00000000000E+00 0.  1.
</event>
<event>
 4    1  0.9957587E-003  0.9118800E+02  0.7818608E-02  0.1130116E+00
         25   -1    0    0    0    0  0.00000000000E+00  0.00000000000E+00  0.99999998245E-14  0.12500000000E+03  0.12500000000E+03 0.  0.
        -13    1    1    0    0    0 -0.42452958670E+01  0.21439555969E+01  0.29490630469E+01  0.55970724035E+01  0.10566000000E+00 0.  1.
         13    1    1    0    0    0 -0.57410093882E+02 -0.21245719362E+01  0.25254020870E+01  0.57504969396E+02  0.10566000000E+00 0. -1.
         22    1    1    0    0    0  0.61655389749E+02 -0.19383660677E-01 -0.54744651338E+01  0.61897958200E+02  0.00000000000E+00 0. -1.
</event>
<event>
 4    1  0.9957587E-003  0.9118800E+02  0.7818608E-02  0.1130116E+00
         25   -1    0    0    0    0  0.00000000000E+00  0.00000000000E+00  0.99999998245E-14  0.12500000000E+03  0.12500000000E+03 0.  0.
        -13    1    1    0    0    0  0.13492189654E+02  0.61599498099E+01  0.14589208056E+02  0.20804814805E+02  0.10566000000E+00 0.  1.
         13    1    1    0    0    0  0.24157431567E+02  0.33278298735E+01  0.34098814498E+02  0.41921310402E+02  0.10566000000E+00 0. -1.
         22    1    1    0    0    0 -0.37649621221E+02 -0.94877796835E+01 -0.48688022555E+02  0.62273874793E+02  0.00000000000E+00 0. -1.
</event>
<event>
 4    1  0.9957587E-003  0.9118800E+02  0.7818608E-02  0.1130116E+00
         25   -1    0    0    0    0  0.00000000000E+00  0.00000000000E+00  0.99999998245E-14  0.12500000000E+03  0.12500000000E+03 0.  0.
        -13    1    1    0    0    0 -0.35626583811E+02 -0.22917347691E+02  0.11839485437E+02  0.43984575463E+02  0.10566000000E+00 0.  1.
         13    1    1    0    0    0 -0.14716882248E+02 -0.10366590871E+02  0.43711354797E+01  0.18524870278E+02  0.10566000000E+00 0. -1.
         22    1    1    0    0    0  0.50343466059E+02  0.33283938563E+02 -0.16210620916E+02  0.62490554259E+02  0.00000000000E+00 0.  1.
</event>
<event>
 4    1  0.9957587E-003  0.9118800E+02  0.7818608E-02  0.1130116E+00
         25   -1    0    0    0    0  0.00000000000E+00  0.00000000000E+00  0.99999998245E-14  0.12500000000E+03  0.12500000000E+03 0.  0.
        -13    1    1    0    0    0  0.21861170723E+02  0.21225452968E+02  0.30691108158E+02  0.43247958600E+02  0.10566000000E+00 0. -1.
         13    1    1    0    0    0  0.98551076084E+01  0.92386682905E+01  0.13717997816E+02  0.19252811895E+02  0.10566000000E+00 0.  1.
         22    1    1    0    0    0 -0.31716278331E+02 -0.30464121259E+02 -0.44409105974E+02  0.62499229505E+02  0.00000000000E+00 0. -1.
</event>
<event>
 4    1  0.9957587E-003  0.9118800E+02  0.7818608E-02  0.1130116E+00
         25   -1    0    0    0    0  0.00000000000E+00  0.00000000000E+00  0.99999998245E-14  0.12500000000E+03  0.12500000000E+03 0.  0.
        -13    1    1    0    0    0 -0.26086810621E+02 -0.15497785014E+02  0.52070893007E+01  0.30786814901E+02  0.10566000000E+00 0.  1.
         13    1    1    0    0    0 -0.25863369261E+02  0.57339271789E+01  0.22297036557E+02  0.34626013252E+02  0.10566000000E+00 0. -1.
         22    1    1    0    0    0  0.51950179882E+02  0.97638578353E+01 -0.27504125858E+02  0.59587171848E+02  0.00000000000E+00 0.  1.
</event>
<event>
 4    1  0.9957587E-003  0.9118800E+02  0.7818608E-02  0.1130116E+00
         25   -1    0    0    0    0  0.00000000000E+00  0.00000000000E+00  0.99999998245E-14  0.12500000000E+03  0.12500000000E+03 0.  0.
        -13    1    1    0    0    0 -0.78624164767E+01 -0.19694940282E+02  0.36004719263E+02  0.41785873675E+02  0.10566000000E+00 0.  1.
         13    1    1    0    0    0 -0.74716448528E+01 -0.91985798629E+01  0.17122896598E+02  0.20824123037E+02  0.10566000000E+00 0. -1.
         22    1    1    0    0    0  0.15334061329E+02  0.28893520145E+02 -0.53127615861E+02  0.62390003288E+02  0.00000000000E+00 0.  1.
</event>
<event>
 4    1  0.9957587E-003  0.9118800E+02  0.7818608E-02  0.1130116E+00
         25   -1    0    0    0    0  0.00000000000E+00  0.00000000000E+00  0.99999998245E-14  0.12500000000E+03  0.12500000000E+03 0.  0.
        -13    1    1    0    0    0  0.19491355987E+01  0.39404432445E+01 -0.11335173158E-01  0.43974441517E+01  0.10566000000E+00 0. -1.
         13    1    1    0    0    0 -0.17077716790E+02  0.47585098327E+02 -0.30296476656E+02  0.58939610241E+02  0.10566000000E+00 0.  1.
         22    1    1    0    0    0  0.15128581191E+02 -0.51525541572E+02  0.30307811829E+02  0.61662945607E+02  0.00000000000E+00 0.  1.
</event>
<event>
 4    1  0.9957587E-003  0.9118800E+02  0.7818608E-02  0.1130116E+00
         25   -1    0    0    0    0  0.00000000000E+00  0.00000000000E+00  0.99999998245E-14  0.12500000000E+03  0.12500000000E+03 0.  0.
        -13    1    1    0    0    0  0.60431974785E+01  0.36801973827E+01  0.51098811811E+01  0.87284671198E+01  0.10566000000E+00 0. -1.
         13    1    1    0    0    0  0.40737802534E+02  0.10304936704E+02  0.33727581524E+02  0.53882475771E+02  0.10566000000E+00 0.  1.
         22    1    1    0    0    0 -0.46781000012E+02 -0.13985134087E+02 -0.38837462705E+02  0.62389057109E+02  0.00000000000E+00 0.  1.
</event>
<event>
 4    1  0.9957587E-003  0.9118800E+02  0.7818608E-02  0.1130116E+00
         25   -1    0    0    0    0  0.00000000000E+00  0.00000000000E+00  0.99999998245E-14  0.12500000000E+03  0.12500000000E+03 0.  0.
        -13    1    1    0    0    0 -0.35829228906E+01  0.10074751461E+02 -0.24234008665E+01  0.10964578844E+02  0.10566000000E+00 0. -1.
         13    1    1    0    0    0 -0.16950614711E+02  0.47438768294E+02 -0.10871318126E+02  0.51535975766E+02  0.10566000000E+00 0. -1.
         22    1    1    0    0    0  0.20533537602E+02 -0.57513519754E+02  0.13294718992E+02  0.62499445390E+02  0.00000000000E+00 0. -1.
</event>
<event>
 4    1  0.9957587E-003  0.9118800E+02  0.7818608E-02  0.1130116E+00
         25   -1    0    0    0    0  0.00000000000E+00  0.00000000000E+00  0.99999998245E-14  0.12500000000E+03  0.12500000000E+03 0.  0.
        -13    1    1    0    0    0  0.14317211586E+02 -0.30011644180E+02 -0.17520671009E+02  0.37585454775E+02  0.10566000000E+00 0.  1.
         13    1    1    0    0    0  0.94457334969E+01 -0.19846787516E+02 -0.11731207446E+02  0.24914839919E+02  0.10566000000E+00 0.  1.
         22    1    1    0    0    0 -0.23762945083E+02  0.49858431696E+02  0.29251878455E+02  0.62499705306E+02  0.00000000000E+00 0.  1.
</event>
<event>
 4    1  0.9957587E-003  0.9118800E+02  0.7818608E-02  0.1130116E+00
         25   -1    0    0    0    0  0.00000000000E+00  0.00000000000E+00  0.99999998245E-14  0.12500000000E+03  0.12500000000E+03 0.  0.
        -13    1    1    0    0    0 -0.20531421356E+02 -0.69503557022E+01  0.49697213164E+02  0.54218731704E+02  0.10566000000E+00 0. -1.
         13    1    1    0    0    0 -0.31305628439E+01 -0.11261137510E+01  0.75834003531E+01  0.82817679786E+01  0.10566000000E+00 0. -1.
         22    1    1    0    0    0  0.23661984200E+02  0.80764694532E+01 -0.57280613517E+02  0.62499500318E+02  0.00000000000E+00 0. -1.
</event>
<event>
 4    1  0.9957587E-003  0.9118800E+02  0.7818608E-02  0.1130116E+00
         25   -1    0    0    0    0  0.00000000000E+00  0.00000000000E+00  0.99999998245E-14  0.12500000000E+03  0.12500000000E+03 0.  0.
        -13    1    1    0    0    0  0.25878808777E+01  0.98747971424E+00 -0.48820103993E+01  0.56140389380E+01  0.10566000000E+00 0. -1.
         13    1    1    0    0    0 -0.14750383200E+02 -0.55732532521E+02 -0.15530358058E+02  0.59706717974E+02  0.10566000000E+00 0.  1.
         22    1    1    0    0    0  0.12162502322E+02  0.54745052807E+02  0.20412368457E+02  0.59679243088E+02  0.00000000000E+00 0.  1.
</event>
<event>
 4    1  0.9957587E-003  0.9118800E+02  0.7818608E-02  0.1130116E+00
         25   -1    0    0    0    0  0.00000000000E+00  0.00000000000E+00  0.99999998245E-14  0.12500000000E+03  0.12500000000E+03 0.  0.
        -13    1    1    0    0    0  0.72482040224E+00 -0.33552361166E+01  0.42801222050E-01  0.34345261673E+01  0.10566000000E+00 0.  1.
         13    1    1    0    0    0  0.41254594976E+02 -0.35476039362E+02  0.24079710050E+02  0.59500710715E+02  0.10566000000E+00 0. -1.
         22    1    1    0    0    0 -0.41979415378E+02  0.38831275479E+02 -0.24122511273E+02  0.62064763118E+02  0.00000000000E+00 0. -1.
</event>
<event>
 4    1  0.9957587E-003  0.9118800E+02  0.7818608E-02  0.1130116E+00
         25   -1    0    0    0    0  0.00000000000E+00  0.00000000000E+00  0.99999998245E-14  0.12500000000E+03  0.12500000000E+03 0.  0.
        -13    1    1    0    0    0 -0.29239859445E+02 -0.61354740986E+01  0.35842824221E+02  0.46661897036E+02  0.10566000000E+00 0.  1.
         13    1    1    0    0    0 -0.78192865610E+01  0.58613231855E+01  0.13476184808E+02  0.16646773646E+02  0.10566000000E+00 0. -1.
         22    1    1    0    0    0  0.37059146006E+02  0.27415091309E+00 -0.49319009030E+02  0.61691329318E+02  0.00000000000E+00 0.  1.
</event>
<event>
 4    1  0.9957587E-003  0.9118800E+02  0.7818608E-02  0.1130116E+00
         25   -1    0    0    0    0  0.00000000000E+00  0.00000000000E+00  0.99999998245E-14  0.12500000000E+03  0.12500000000E+03 0.  0.
        -13    1    1    0    0    0  0.35368225762E+02  0.21947442991E+02  0.63885359300E+01  0.42112067187E+02  0.10566000000E+00 0.  1.
         13    1    1    0    0    0 -0.22076608636E+02  0.22710952444E+02  0.10437643406E+02  0.33348456841E+02  0.10566000000E+00 0. -1.
         22    1    1    0    0    0 -0.13291617126E+02 -0.44658395435E+02 -0.16826179336E+02  0.49539475973E+02  0.00000000000E+00 0.  1.
</event>
<event>
 4    1  0.9957587E-003  0.9118800E+02  0.7818608E-02  0.1130116E+00
         25   -1    0    0    0    0  0.00000000000E+00  0.00000000000E+00  0.99999998245E-14  0.12500000000E+03  0.12500000000E+03 0.  0.
        -13    1    1    0    0    0 -0.46965523400E+02  0.25034493351E+02 -0.17798551264E+01  0.53250965192E+02  0.10566000000E+00 0. -1.
         13    1    1    0    0    0 -0.70526261818E+01  0.58555761905E+01 -0.20888890579E+01  0.94022300607E+01  0.10566000000E+00 0.  1.
         22    1    1    0    0    0  0.54018149582E+02 -0.30890069542E+02  0.38687441844E+01  0.62346804747E+02  0.00000000000E+00 0. -1.
</event>
<event>
 4    1  0.9957587E-003  0.9118800E+02  0.7818608E-02  0.1130116E+00
         25   -1    0    0    0    0  0.00000000000E+00  0.00000000000E+00  0.99999998245E-14  0.12500000000E+03  0.12500000000E+03 0.  0.
        -13    1    1    0    0    0  0.11076240685E+02  0.38574601814E+02 -0.16194223974E+02  0.43277558468E+02  0.10566000000E+00 0.  1.
         13    1    1    0    0    0  0.49170668133E+01  0.17110738418E+02 -0.72488278194E+01  0.19222684101E+02  0.10566000000E+00 0.  1.
         22    1    1    0    0    0 -0.15993307498E+02 -0.55685340232E+02  0.23443051793E+02  0.62499757431E+02  0.00000000000E+00 0.  1.
</event>
<event>
 4    1  0.9957587E-003  0.9118800E+02  0.7818608E-02  0.1130116E+00
         25   -1    0    0    0    0  0.00000000000E+00  0.00000000000E+00  0.99999998245E-14  0.12500000000E+03  0.12500000000E+03 0.  0.
        -13    1    1    0    0    0  0.22129345734E+02  0.11832421383E+02 -0.13413550037E+02  0.28454325278E+02  0.10566000000E+00 0. -1.
         13    1    1    0    0    0  0.26289504332E+02  0.14059913147E+02 -0.16441872869E+02  0.34046520280E+02  0.10566000000E+00 0.  1.
         22    1    1    0    0    0 -0.48418850065E+02 -0.25892334530E+02  0.29855422906E+02  0.62499154442E+02  0.00000000000E+00 0. -1.
</event>
<event>
 4    1  0.9957587E-003  0.9118800E+02  0.7818608E-02  0.1130116E+00
         25   -1    0    0    0    0  0.00000000000E+00  0.00000000000E+00  0.99999998245E-14  0.12500000000E+03  0.12500000000E+03 0.  0.
        -13    1    1    0    0    0 -0.18348273836E+02 -0.13281169869E+02  0.37469205347E+02  0.43783571568E+02  0.10566000000E+00 0.  1.
         13    1    1    0    0    0 -0.76322980813E+01 -0.58393330084E+01  0.16061668975E+02  0.18717322412E+02  0.10566000000E+00 0. -1.
         22    1    1    0    0    0  0.25980571918E+02  0.19120502877E+02 -0.53530874323E+02  0.62499106019E+02  0.00000000000E+00 0.  1.
</event>
<event>
 4    1  0.9957587E-003  0.9118800E+02  0.7818608E-02  0.1130116E+00
         25   -1    0    0    0    0  0.00000000000E+00  0.00000000000E+00  0.99999998245E-14  0.12500000000E+03  0.12500000000E+03 0.  0.
        -13    1    1    0    0    0  0.63561754677E+01  0.63975836897E+01  0.87179989766E+01  0.12543712123E+02  0.10566000000E+00 0.  1.
         13    1    1    0    0    0  0.24191859310E+02  0.25951295045E+02  0.35172444609E+02  0.49958260530E+02  0.10566000000E+00 0. -1.
         22    1    1    0    0    0 -0.30548034777E+02 -0.32348878735E+02 -0.43890443585E+02  0.62498027347E+02  0.00000000000E+00 0. -1.
</event>
<event>
 4    1  0.9957587E-003  0.9118800E+02  0.7818608E-02  0.1130116E+00
         25   -1    0    0    0    0  0.00000000000E+00  0.00000000000E+00  0.99999998245E-14  0.12500000000E+03  0.12500000000E+03 0.  0.
        -13    1    1    0    0    0  0.20484534941E+01 -0.74425377413E+00  0.36389783907E+01  0.42430417346E+01  0.10566000000E+00 0. -1.
         13    1    1    0    0    0  0.29822787632E+02 -0.28050481360E+02  0.41605183045E+02  0.58371487791E+02  0.10566000000E+00 0.  1.
         22    1    1    0    0    0 -0.31871241126E+02  0.28794735134E+02 -0.45244161436E+02  0.62385470475E+02  0.00000000000E+00 0.  1.
</event>
<event>
 4    1  0.9957587E-003  0.9118800E+02  0.7818608E-02  0.1130116E+00
         25   -1    0    0    0    0  0.00000000000E+00  0.00000000000E+00  0.99999998245E-14  0.12500000000E+03  0.12500000000E+03 0.  0.
        -13    1    1    0    0    0  0.48520304819E+02  0.28281123531E+02  0.20811163933E+02  0.59892884688E+02  0.10566000000E+00 0.  1.
         13    1    1    0    0    0  0.13289001739E+01  0.23335490770E+01 -0.28385144777E+01  0.39089327754E+01  0.10566000000E+00 0. -1.
         22    1    1    0    0    0 -0.49849204993E+02 -0.30614672608E+02 -0.17972649456E+02  0.61198182537E+02  0.00000000000E+00 0.  1.
</event>
<event>
 4    1  0.9957587E-003  0.9118800E+02  0.7818608E-02  0.1130116E+00
         25   -1    0    0    0    0  0.00000000000E+00  0.00000000000E+00  0.99999998245E-14  0.12500000000E+03  0.12500000000E+03 0.  0.
        -13    1    1    0    0    0 -0.16864370763E+02  0.20714819113E+02 -0.11417561322E+01  0.26736220811E+02  0.10566000000E+00 0. -1.
         13    1    1    0    0    0 -0.23558229088E+02  0.26776067718E+02 -0.28016486251E+01  0.35774409279E+02  0.10566000000E+00 0.  1.
         22    1    1    0    0    0  0.40422599852E+02 -0.47490886831E+02  0.39434047573E+01  0.62489369911E+02  0.00000000000E+00 0.  1.
</event>
<event>
 4    1  0.9957587E-003  0.9118800E+02  0.7818608E-02  0.1130116E+00
         25   -1    0    0    0    0  0.00000000000E+00  0.00000000000E+00  0.99999998245E-14  0.12500000000E+03  0.12500000000E+03 0.  0.
        -13    1    1    0    0    0 -0.85498185474E+01  0.41033235262E+02  0.75021408515E+01  0.42580735957E+02  0.10566000000E+00 0.  1.
         13    1    1    0    0    0 -0.84020106949E+01  0.17886349885E+02  0.36708270077E+01  0.20099786836E+02  0.10566000000E+00 0. -1.
         22    1    1    0    0    0  0.16951829242E+02 -0.58919585147E+02 -0.11172967859E+02  0.62319477206E+02  0.00000000000E+00 0.  1.
</event>
<event>
 4    1  0.9957587E-003  0.9118800E+02  0.7818608E-02  0.1130116E+00
         25   -1    0    0    0    0  0.00000000000E+00  0.00000000000E+00  0.99999998245E-14  0.12500000000E+03  0.12500000000E+03 0.  0.
        -13    1    1    0    0    0  0.43930808393E+02 -0.92298181756E+01  0.13475998498E+02  0.46869170775E+02  0.10566000000E+00 0. -1.
         13    1    1    0    0    0  0.14674048186E+02 -0.31088728086E+01  0.43966405609E+01  0.15631199332E+02  0.10566000000E+00 0.  1.
         22    1    1    0    0    0 -0.58604856579E+02  0.12338690984E+02 -0.17872639059E+02  0.62499629893E+02  0.00000000000E+00 0.  1.
</event>
<event>
 4    1  0.9957587E-003  0.9118800E+02  0.7818608E-02  0.1130116E+00
         25   -1    0    0    0    0  0.00000000000E+00  0.00000000000E+00  0.99999998245E-14  0.12500000000E+03  0.12500000000E+03 0.  0.
        -13    1    1    0    0    0  0.45587951668E+02  0.16733817733E+01  0.11148605233E+02  0.46961304353E+02  0.10566000000E+00 0. -1.
         13    1    1    0    0    0  0.15518363920E+02  0.16499065678E+01  0.10372271201E+01  0.15640614265E+02  0.10566000000E+00 0.  1.
         22    1    1    0    0    0 -0.61106315588E+02 -0.33232883411E+01 -0.12185832353E+02  0.62398081383E+02  0.00000000000E+00 0. -1.
</event>
<event>
 4    1  0.9957587E-003  0.9118800E+02  0.7818608E-02  0.1130116E+00
         25   -1    0    0    0    0  0.00000000000E+00  0.00000000000E+00  0.99999998245E-14  0.12500000000E+03  0.12500000000E+03 0.  0.
        -13    1    1    0    0    0 -0.19182109836E+02 -0.98395455948E+01  0.34639169023E+02  0.40800161641E+02  0.10566000000E+00 0. -1.
         13    1    1    0    0    0 -0.93417505993E+01 -0.35522919862E+01  0.19297867197E+02  0.21732600512E+02  0.10566000000E+00 0.  1.
         22    1    1    0    0    0  0.28523860436E+02  0.13391837581E+02 -0.53937036221E+02  0.62467237847E+02  0.00000000000E+00 0. -1.
</event>
<event>
 4    1  0.9957587E-003  0.9118800E+02  0.7818608E-02  0.1130116E+00
         25   -1    0    0    0    0  0.00000000000E+00  0.00000000000E+00  0.99999998245E-14  0.12500000000E+03  0.12500000000E+03 0.  0.
        -13    1    1    0    0    0  0.18285408251E+02 -0.10599476813E+02 -0.16279738464E+02  0.26678570278E+02  0.10566000000E+00 0. -1.
         13    1    1    0    0    0  0.24155331880E+02 -0.15656426364E+02 -0.21333042083E+02  0.35828949095E+02  0.10566000000E+00 0.  1.
         22    1    1    0    0    0 -0.42440740131E+02  0.26255903177E+02  0.37612780546E+02  0.62492480627E+02  0.00000000000E+00 0.  1.
</event>
<event>
 4    1  0.9957587E-003  0.9118800E+02  0.7818608E-02  0.1130116E+00
         25   -1    0    0    0    0  0.00000000000E+00  0.00000000000E+00  0.99999998245E-14  0.12500000000E+03  0.12500000000E+03 0.  0.
        -13    1    1    0    0    0  0.18781295245E+01 -0.55168548538E+00  0.72081917639E+01  0.74700013337E+01  0.10566000000E+00 0. -1.
         13    1    1    0    0    0 -0.27676874626E+02  0.51539365133E+02  0.62202209328E+01  0.58830416111E+02  0.10566000000E+00 0.  1.
         22    1    1    0    0    0  0.25798745101E+02 -0.50987679647E+02 -0.13428412697E+02  0.58699582555E+02  0.00000000000E+00 0.  1.
</event>
<event>
 4    1  0.9957587E-003  0.9118800E+02  0.7818608E-02  0.1130116E+00
         25   -1    0    0    0    0  0.00000000000E+00  0.00000000000E+00  0.99999998245E-14  0.12500000000E+03  0.12500000000E+03 0.  0.
        -13    1    1    0    0    0  0.97100166628E+01  0.40549985899E+00  0.17695570148E+01  0.98788334226E+01  0.10566000000E+00 0. -1.
         13    1    1    0    0    0  0.38932053260E+02 -0.20529848595E+02 -0.32000737737E+02  0.54417256767E+02  0.10566000000E+00 0.  1.
         22    1    1    0    0    0 -0.48642069923E+02  0.20124348736E+02  0.30231180722E+02  0.60703909810E+02  0.00000000000E+00 0.  1.
</event>
<event>
 4    1  0.9957587E-003  0.9118800E+02  0.7818608E-02  0.1130116E+00
         25   -1    0    0    0    0  0.00000000000E+00  0.00000000000E+00  0.99999998245E-14  0.12500000000E+03  0.12500000000E+03 0.  0.
        -13    1    1    0    0    0  0.86723252539E+01 -0.17093423605E+02  0.41912963636E+02  0.46087981520E+02  0.10566000000E+00 0. -1.
         13    1    1    0    0    0  0.31186573074E+01 -0.60002582984E+01  0.14954098266E+02  0.16412353337E+02  0.10566000000E+00 0. -1.
         22    1    1    0    0    0 -0.11790982561E+02  0.23093681903E+02 -0.56867061902E+02  0.62499665143E+02  0.00000000000E+00 0. -1.
</event>
<event>
 4    1  0.9957587E-003  0.9118800E+02  0.7818608E-02  0.1130116E+00
         25   -1    0    0    0    0  0.00000000000E+00  0.00000000000E+00  0.99999998245E-14  0.12500000000E+03  0.12500000000E+03 0.  0.
        -13    1    1    0    0    0 -0.20285299983E+00 -0.87388752412E+00  0.10790570665E+01  0.14072515527E+01  0.10566000000E+00 0.  1.
         13    1    1    0    0    0 -0.27728506813E+02 -0.13311671205E+02  0.52893941345E+02  0.61187015578E+02  0.10566000000E+00 0. -1.
         22    1    1    0    0    0  0.27931359813E+02  0.14185558729E+02 -0.53972998411E+02  0.62405732869E+02  0.00000000000E+00 0. -1.
</event>
<event>
 4    1  0.9957587E-003  0.9118800E+02  0.7818608E-02  0.1130116E+00
         25   -1    0    0    0    0  0.00000000000E+00  0.00000000000E+00  0.99999998245E-14  0.12500000000E+03  0.12500000000E+03 0.  0.
        -13    1    1    0    0    0 -0.30758718496E+02 -0.37464390264E+00 -0.57859269521E+01  0.31300594824E+02  0.10566000000E+00 0.  1.
         13    1    1    0    0    0 -0.13330183135E+02 -0.33446882621E+02  0.11601778254E+02  0.37828562782E+02  0.10566000000E+00 0. -1.
         22    1    1    0    0    0  0.44088901631E+02  0.33821526524E+02 -0.58158513018E+01  0.55870842394E+02  0.00000000000E+00 0. -1.
</event>
<event>
 4    1  0.9957587E-003  0.9118800E+02  0.7818608E-02  0.1130116E+00
         25   -1    0    0    0    0  0.00000000000E+00  0.00000000000E+00  0.99999998245E-14  0.12500000000E+03  0.12500000000E+03 0.  0.
        -13    1    1    0    0    0  0.33593437394E+02 -0.48164439621E+02  0.11190287324E+02  0.59779310588E+02  0.10566000000E+00 0. -1.
         13    1    1    0    0    0 -0.29427964027E+01 -0.16265476096E+01  0.35825930167E+01  0.49144526199E+01  0.10566000000E+00 0.  1.
         22    1    1    0    0    0 -0.30650640991E+02  0.49790987230E+02 -0.14772880340E+02  0.60306236793E+02  0.00000000000E+00 0. -1.
</event>
<event>
 4    1  0.9957587E-003  0.9118800E+02  0.7818608E-02  0.1130116E+00
         25   -1    0    0    0    0  0.00000000000E+00  0.00000000000E+00  0.99999998245E-14  0.12500000000E+03  0.12500000000E+03 0.  0.
        -13    1    1    0    0    0  0.37449824789E+01  0.27611667631E+01  0.14108428765E+01  0.48631859227E+01  0.10566000000E+00 0.  1.
         13    1    1    0    0    0  0.40173671909E+02  0.36824919855E+02  0.18803647345E+02  0.57650559013E+02  0.10566000000E+00 0. -1.
         22    1    1    0    0    0 -0.43918654388E+02 -0.39586086619E+02 -0.20214490221E+02  0.62486255064E+02  0.00000000000E+00 0. -1.
</event>
<event>
 4    1  0.9957587E-003  0.9118800E+02  0.7818608E-02  0.1130116E+00
         25   -1    0    0    0    0  0.00000000000E+00  0.00000000000E+00  0.99999998245E-14  0.12500000000E+03  0.12500000000E+03 0.  0.
        -13    1    1    0    0    0  0.34757777462E+02 -0.37717028416E+02  0.26020018445E+02  0.57512866827E+02  0.10566000000E+00 0.  1.
         13    1    1    0    0    0  0.32707467747E+01 -0.28242330019E+01  0.25191782587E+01  0.50031489732E+01  0.10566000000E+00 0. -1.
         22    1    1    0    0    0 -0.38028524237E+02  0.40541261418E+02 -0.28539196704E+02  0.62483984200E+02  0.00000000000E+00 0.  1.
</event>
<event>
 4    1  0.9957587E-003  0.9118800E+02  0.7818608E-02  0.1130116E+00
         25   -1    0    0    0    0  0.00000000000E+00  0.00000000000E+00  0.99999998245E-14  0.12500000000E+03  0.12500000000E+03 0.  0.
        -13    1    1    0    0    0 -0.32979849801E+01  0.42351833819E+01 -0.50582337778E+01  0.73763389424E+01  0.10566000000E+00 0. -1.
         13    1    1    0    0    0 -0.28484010921E+02  0.27421931743E+02 -0.38435674338E+02  0.55141757720E+02  0.10566000000E+00 0.  1.
         22    1    1    0    0    0  0.31781995901E+02 -0.31657115125E+02  0.43493908116E+02  0.62481903337E+02  0.00000000000E+00 0.  1.
</event>
<event>
 4    1  0.9957587E-003  0.9118800E+02  0.7818608E-02  0.1130116E+00
         25   -1    0    0    0    0  0.00000000000E+00  0.00000000000E+00  0.99999998245E-14  0.12500000000E+03  0.12500000000E+03 0.  0.
        -13    1    1    0    0    0  0.36077001123E+02  0.30622355379E+02  0.26358706202E+01  0.47394489521E+02  0.10566000000E+00 0.  1.
         13    1    1    0    0    0  0.11989265377E+02  0.89468203854E+01  0.23694897236E+01  0.15146409636E+02  0.10566000000E+00 0. -1.
         22    1    1    0    0    0 -0.48066266500E+02 -0.39569175765E+02 -0.50053603439E+01  0.62459100843E+02  0.00000000000E+00 0.  1.
</event>
<event>
 4    1  0.9957587E-003  0.9118800E+02  0.7818608E-02  0.1130116E+00
         25   -1    0    0    0    0  0.00000000000E+00  0.00000000000E+00  0.99999998245E-14  0.12500000000E+03  0.12500000000E+03 0.  0.
        -13    1    1    0    0    0 -0.22267708066E+02 -0.23374291407E+02 -0.80895836049E+01  0.33281539151E+02  0.10566000000E+00 0.  1.
         13    1    1    0    0    0 -0.19219051601E+02 -0.20844739059E+02 -0.70639965375E+01  0.29219621867E+02  0.10566000000E+00 0. -1.
         22    1    1    0    0    0  0.41486759668E+02  0.44219030466E+02  0.15153580142E+02  0.62498838983E+02  0.00000000000E+00 0.  1.
</event>
<event>
 4    1  0.9957587E-003  0.9118800E+02  0.7818608E-02  0.1130116E+00
         25   -1    0    0    0    0  0.00000000000E+00  0.00000000000E+00  0.99999998245E-14  0.12500000000E+03  0.12500000000E+03 0.  0.
        -13    1    1    0    0    0 -0.30941252987E+01  0.13373476953E+01 -0.35272055748E+01  0.48800054739E+01  0.10566000000E+00 0.  1.
         13    1    1    0    0    0 -0.39687717959E+02  0.19670808863E+02 -0.36877270599E+02  0.57636793188E+02  0.10566000000E+00 0. -1.
         22    1    1    0    0    0  0.42781843258E+02 -0.21008156559E+02  0.40404476174E+02  0.62483201338E+02  0.00000000000E+00 0. -1.
</event>
<event>
 4    1  0.9957587E-003  0.9118800E+02  0.7818608E-02  0.1130116E+00
         25   -1    0    0    0    0  0.00000000000E+00  0.00000000000E+00  0.99999998245E-14  0.12500000000E+03  0.12500000000E+03 0.  0.
        -13    1    1    0    0    0 -0.25022206969E+01  0.37699870545E+01 -0.64214890955E+01  0.78562457348E+01  0.10566000000E+00 0. -1.
         13    1    1    0    0    0 -0.17053341502E+02  0.26334740430E+02 -0.44739769805E+02  0.54644241930E+02  0.10566000000E+00 0. -1.
         22    1    1    0    0    0  0.19555562199E+02 -0.30104727484E+02  0.51161258900E+02  0.62499512335E+02  0.00000000000E+00 0. -1.
</event>
<event>
 4    1  0.9957587E-003  0.9118800E+02  0.7818608E-02  0.1130116E+00
         25   -1    0    0    0    0  0.00000000000E+00  0.00000000000E+00  0.99999998245E-14  0.12500000000E+03  0.12500000000E+03 0.  0.
        -13    1    1    0    0    0  0.13190124676E+02  0.29644282845E+02 -0.82838019558E+01  0.33487242843E+02  0.10566000000E+00 0.  1.
         13    1    1    0    0    0  0.26770582381E+02  0.14754117020E+02 -0.30309828149E+01  0.30717195037E+02  0.10566000000E+00 0. -1.
         22    1    1    0    0    0 -0.39960707057E+02 -0.44398399865E+02  0.11314784771E+02  0.60795562120E+02  0.00000000000E+00 0.  1.
</event>
<event>
 4    1  0.9957587E-003  0.9118800E+02  0.7818608E-02  0.1130116E+00
         25   -1    0    0    0    0  0.00000000000E+00  0.00000000000E+00  0.99999998245E-14  0.12500000000E+03  0.12500000000E+03 0.  0.
        -13    1    1    0    0    0  0.31552780090E+01 -0.87900958843E+01  0.69494908458E+01  0.11641655897E+02  0.10566000000E+00 0. -1.
         13    1    1    0    0    0  0.14058590862E+02 -0.38578665079E+02  0.30010896147E+02  0.50858848078E+02  0.10566000000E+00 0.  1.
         22    1    1    0    0    0 -0.17213868871E+02  0.47368760963E+02 -0.36960386992E+02  0.62499496025E+02  0.00000000000E+00 0.  1.
</event>
<event>
 4    1  0.9957587E-003  0.9118800E+02  0.7818608E-02  0.1130116E+00
         25   -1    0    0    0    0  0.00000000000E+00  0.00000000000E+00  0.99999998245E-14  0.12500000000E+03  0.12500000000E+03 0.  0.
        -13    1    1    0    0    0 -0.27802219714E+02  0.50353169702E+01  0.45955979117E+02  0.53947020480E+02  0.10566000000E+00 0. -1.
         13    1    1    0    0    0 -0.49373345255E+01  0.13308867540E+01  0.68786233011E+01  0.85717649479E+01  0.10566000000E+00 0.  1.
         22    1    1    0    0    0  0.32739554240E+02 -0.63662037242E+01 -0.52834602418E+02  0.62481214572E+02  0.00000000000E+00 0. -1.
</event>
<event>
 4    1  0.9957587E-003  0.9118800E+02  0.7818608E-02  0.1130116E+00
         25   -1    0    0    0    0  0.00000000000E+00  0.00000000000E+00  0.99999998245E-14  0.12500000000E+03  0.12500000000E+03 0.  0.
        -13    1    1    0    0    0 -0.13122174532E+02  0.10589791986E+01  0.75241796778E+00  0.13186743276E+02  0.10566000000E+00 0.  1.
         13    1    1    0    0    0 -0.49075065784E+02 -0.12629820771E+01  0.50249650979E+01  0.49347934544E+02  0.10566000000E+00 0. -1.
         22    1    1    0    0    0  0.62197240316E+02  0.20400287849E+00 -0.57773830657E+01  0.62465322181E+02  0.00000000000E+00 0.  1.
</event>
<event>
 4    1  0.9957587E-003  0.9118800E+02  0.7818608E-02  0.1130116E+00
         25   -1    0    0    0    0  0.00000000000E+00  0.00000000000E+00  0.99999998245E-14  0.12500000000E+03  0.12500000000E+03 0.  0.
        -13    1    1    0    0    0  0.18072378572E+01 -0.56989374379E+01  0.89701449119E+00  0.60464696829E+01  0.10566000000E+00 0. -1.
         13    1    1    0    0    0  0.16555368471E+02 -0.53230065137E+02  0.89189003630E+01  0.56454211600E+02  0.10566000000E+00 0. -1.
         22    1    1    0    0    0 -0.18362606328E+02  0.58929002575E+02 -0.98159148542E+01  0.62499318717E+02  0.00000000000E+00 0. -1.
</event>
<event>
 4    1  0.9957587E-003  0.9118800E+02  0.7818608E-02  0.1130116E+00
         25   -1    0    0    0    0  0.00000000000E+00  0.00000000000E+00  0.99999998245E-14  0.12500000000E+03  0.12500000000E+03 0.  0.
        -13    1    1    0    0    0  0.56823762793E+01  0.52812590853E+00 -0.53885064029E+02  0.54186526061E+02  0.10566000000E+00 0.  1.
         13    1    1    0    0    0  0.51781358690E+00  0.19238849422E+00 -0.82984401277E+01  0.83174765904E+01  0.10566000000E+00 0. -1.
         22    1    1    0    0    0 -0.62001898662E+01 -0.72051440275E+00  0.62183504157E+02  0.62495997348E+02  0.00000000000E+00 0.  1.
</event>
<event>
 4    1  0.9957587E-003  0.9118800E+02  0.7818608E-02  0.1130116E+00
         25   -1    0    0    0    0  0.00000000000E+00  0.00000000000E+00  0.99999998245E-14  0.12500000000E+03  0.12500000000E+03 0.  0.
        -13    1    1    0    0    0 -0.31863675478E+01 -0.42354507130E+01 -0.58465458938E+01  0.78921000891E+01  0.10566000000E+00 0.  1.
         13    1    1    0    0    0 -0.18120516356E+02 -0.32723770680E+02 -0.39806973611E+02  0.54624212513E+02  0.10566000000E+00 0.  1.
         22    1    1    0    0    0  0.21306883904E+02  0.36959221393E+02  0.45653519505E+02  0.62483687398E+02  0.00000000000E+00 0.  1.
</event>
<event>
 4    1  0.9957587E-003  0.9118800E+02  0.7818608E-02  0.1130116E+00
         25   -1    0    0    0    0  0.00000000000E+00  0.00000000000E+00  0.99999998245E-14  0.12500000000E+03  0.12500000000E+03 0.  0.
        -13    1    1    0    0    0  0.50980384763E+01  0.26657166704E+01 -0.50719917864E+02  0.51045247319E+02  0.10566000000E+00 0.  1.
         13    1    1    0    0    0  0.86579293792E+00  0.26976781724E+00 -0.11421951894E+02  0.11458382137E+02  0.10566000000E+00 0. -1.
         22    1    1    0    0    0 -0.59638314142E+01 -0.29354844876E+01  0.62141869758E+02  0.62496370545E+02  0.00000000000E+00 0.  1.
</event>
<event>
 4    1  0.9957587E-003  0.9118800E+02  0.7818608E-02  0.1130116E+00
         25   -1    0    0    0    0  0.00000000000E+00  0.00000000000E+00  0.99999998245E-14  0.12500000000E+03  0.12500000000E+03 0.  0.
        -13    1    1    0    0    0 -0.73609088362E+01 -0.16273501789E+02 -0.14762920923E+01  0.17922065778E+02  0.10566000000E+00 0.  1.
         13    1    1    0    0    0 -0.16001589266E+02 -0.41511276710E+02 -0.29911066993E+01  0.44589178468E+02  0.10566000000E+00 0. -1.
         22    1    1    0    0    0  0.23362498102E+02  0.57784778499E+02  0.44673987915E+01  0.62488755754E+02  0.00000000000E+00 0. -1.
</event>
<event>
 4    1  0.9957587E-003  0.9118800E+02  0.7818608E-02  0.1130116E+00
         25   -1    0    0    0    0  0.00000000000E+00  0.00000000000E+00  0.99999998245E-14  0.12500000000E+03  0.12500000000E+03 0.  0.
        -13    1    1    0    0    0 -0.13961264061E+01 -0.49365874189E+01  0.58415085616E+01  0.77751817084E+01  0.10566000000E+00 0.  1.
         13    1    1    0    0    0  0.10872646174E+02 -0.29889888581E+02  0.44858380844E+02  0.54990047920E+02  0.10566000000E+00 0. -1.
         22    1    1    0    0    0 -0.94765197681E+01  0.34826476000E+02 -0.50699889406E+02  0.62234770372E+02  0.00000000000E+00 0. -1.
</event>
<event>
 4    1  0.9957587E-003  0.9118800E+02  0.7818608E-02  0.1130116E+00
         25   -1    0    0    0    0  0.00000000000E+00  0.00000000000E+00  0.99999998245E-14  0.12500000000E+03  0.12500000000E+03 0.  0.
        -13    1    1    0    0    0  0.40971911542E+01  0.43381505711E+01 -0.63428630887E+01  0.87091676944E+01  0.10566000000E+00 0.  1.
         13    1    1    0    0    0  0.29316652229E+02  0.25267373594E+02 -0.37377600195E+02  0.53805226759E+02  0.10566000000E+00 0. -1.
         22    1    1    0    0    0 -0.33413843383E+02 -0.29605524165E+02  0.43720463284E+02  0.62485605546E+02  0.00000000000E+00 0. -1.
</event>
<event>
 4    1  0.9957587E-003  0.9118800E+02  0.7818608E-02  0.1130116E+00
         25   -1    0    0    0    0  0.00000000000E+00  0.00000000000E+00  0.99999998245E-14  0.12500000000E+03  0.12500000000E+03 0.  0.
        -13    1    1    0    0    0 -0.71572343093E+01 -0.53556665003E+02 -0.87107283374E+01  0.54730524586E+02  0.10566000000E+00 0. -1.
         13    1    1    0    0    0 -0.46119072336E+01 -0.66241213352E+01 -0.11740231623E+01  0.81570930004E+01  0.10566000000E+00 0.  1.
         22    1    1    0    0    0  0.11769141543E+02  0.60180786338E+02  0.98847514998E+01  0.62112382414E+02  0.00000000000E+00 0. -1.
</event>
<event>
 4    1  0.9957587E-003  0.9118800E+02  0.7818608E-02  0.1130116E+00
         25   -1    0    0    0    0  0.00000000000E+00  0.00000000000E+00  0.99999998245E-14  0.12500000000E+03  0.12500000000E+03 0.  0.
        -13    1    1    0    0    0  0.12742815718E+02 -0.10767033790E+02 -0.22484954721E+02  0.27998084254E+02  0.10566000000E+00 0.  1.
         13    1    1    0    0    0  0.15440783912E+02 -0.22230091967E+02 -0.21982730190E+02  0.34868988906E+02  0.10566000000E+00 0. -1.
         22    1    1    0    0    0 -0.28183599630E+02  0.32997125758E+02  0.44467684911E+02  0.62132926840E+02  0.00000000000E+00 0.  1.
</event>
<event>
 4    1  0.9957587E-003  0.9118800E+02  0.7818608E-02  0.1130116E+00
         25   -1    0    0    0    0  0.00000000000E+00  0.00000000000E+00  0.99999998245E-14  0.12500000000E+03  0.12500000000E+03 0.  0.
        -13    1    1    0    0    0  0.17374391641E+02  0.26499107047E+02  0.22952042347E+02  0.39126456153E+02  0.10566000000E+00 0. -1.
         13    1    1    0    0    0 -0.74545958421E+01  0.21323196026E+02  0.12224057073E+02  0.25684400388E+02  0.10566000000E+00 0.  1.
         22    1    1    0    0    0 -0.99197957986E+01 -0.47822303073E+02 -0.35176099420E+02  0.60189143459E+02  0.00000000000E+00 0. -1.
</event>
<event>
 4    1  0.9957587E-003  0.9118800E+02  0.7818608E-02  0.1130116E+00
         25   -1    0    0    0    0  0.00000000000E+00  0.00000000000E+00  0.99999998245E-14  0.12500000000E+03  0.12500000000E+03 0.  0.
        -13    1    1    0    0    0  0.10266488164E+02  0.91175706345E+01 -0.20574631372E+02  0.24735753347E+02  0.10566000000E+00 0. -1.
         13    1    1    0    0    0  0.27552952108E+02  0.24267351907E+02 -0.13794946746E+02  0.39222203638E+02  0.10566000000E+00 0.  1.
         22    1    1    0    0    0 -0.37819440271E+02 -0.33384922541E+02  0.34369578118E+02  0.61042043016E+02  0.00000000000E+00 0.  1.
</event>
<event>
 4    1  0.9957587E-003  0.9118800E+02  0.7818608E-02  0.1130116E+00
         25   -1    0    0    0    0  0.00000000000E+00  0.00000000000E+00  0.99999998245E-14  0.12500000000E+03  0.12500000000E+03 0.  0.
        -13    1    1    0    0    0  0.15379043183E+02  0.16118431640E+01 -0.38363702881E+01  0.15932416911E+02  0.10566000000E+00 0. -1.
         13    1    1    0    0    0  0.44847657889E+02  0.49930514004E+01 -0.11503467753E+02  0.46568056807E+02  0.10566000000E+00 0. -1.
         22    1    1    0    0    0 -0.60226701072E+02 -0.66048945644E+01  0.15339838041E+02  0.62499526281E+02  0.00000000000E+00 0. -1.
</event>
<event>
 4    1  0.9957587E-003  0.9118800E+02  0.7818608E-02  0.1130116E+00
         25   -1    0    0    0    0  0.00000000000E+00  0.00000000000E+00  0.99999998245E-14  0.12500000000E+03  0.12500000000E+03 0.  0.
        -13    1    1    0    0    0 -0.78169257114E+00  0.11040336840E+02 -0.54148503610E+01  0.12322006707E+02  0.10566000000E+00 0. -1.
         13    1    1    0    0    0  0.10628081814E+00  0.45183666745E+02 -0.21848316373E+02  0.50188994097E+02  0.10566000000E+00 0.  1.
         22    1    1    0    0    0  0.67541175299E+00 -0.56224003585E+02  0.27263166734E+02  0.62488999196E+02  0.00000000000E+00 0.  1.
</event>
<event>
 4    1  0.9957587E-003  0.9118800E+02  0.7818608E-02  0.1130116E+00
         25   -1    0    0    0    0  0.00000000000E+00  0.00000000000E+00  0.99999998245E-14  0.12500000000E+03  0.12500000000E+03 0.  0.
        -13    1    1    0    0    0  0.43101614497E+01  0.44309670912E+02 -0.13253340104E+02  0.46449829020E+02  0.10566000000E+00 0. -1.
         13    1    1    0    0    0  0.13687861538E+01  0.15295827098E+02 -0.46665542266E+01  0.16050663368E+02  0.10566000000E+00 0.  1.
         22    1    1    0    0    0 -0.56789476035E+01 -0.59605498010E+02  0.17919894331E+02  0.62499507612E+02  0.00000000000E+00 0. -1.
</event>
<event>
 4    1  0.9957587E-003  0.9118800E+02  0.7818608E-02  0.1130116E+00
         25   -1    0    0    0    0  0.00000000000E+00  0.00000000000E+00  0.99999998245E-14  0.12500000000E+03  0.12500000000E+03 0.  0.
        -13    1    1    0    0    0  0.47462179927E+01 -0.29184220141E+02 -0.50557086167E+01  0.29996943913E+02  0.10566000000E+00 0. -1.
         13    1    1    0    0    0  0.55093239458E+00 -0.32378690034E+02 -0.37046257328E+01  0.32594762013E+02  0.10566000000E+00 0.  1.
         22    1    1    0    0    0 -0.52971503873E+01  0.61562910174E+02  0.87603343495E+01  0.62408294075E+02  0.00000000000E+00 0. -1.
</event>
<event>
 4    1  0.9957587E-003  0.9118800E+02  0.7818608E-02  0.1130116E+00
         25   -1    0    0    0    0  0.00000000000E+00  0.00000000000E+00  0.99999998245E-14  0.12500000000E+03  0.12500000000E+03 0.  0.
        -13    1    1    0    0    0  0.19686147410E+02  0.65388508400E+01  0.11811696871E+02  0.23871077000E+02  0.10566000000E+00 0. -1.
         13    1    1    0    0    0  0.31849577517E+02  0.11245818972E+02  0.18746818076E+02  0.38630536942E+02  0.10566000000E+00 0.  1.
         22    1    1    0    0    0 -0.51535724927E+02 -0.17784669812E+02 -0.30558514946E+02  0.62498386058E+02  0.00000000000E+00 0.  1.
</event>
<event>
 4    1  0.9957587E-003  0.9118800E+02  0.7818608E-02  0.1130116E+00
         25   -1    0    0    0    0  0.00000000000E+00  0.00000000000E+00  0.99999998245E-14  0.12500000000E+03  0.12500000000E+03 0.  0.
        -13    1    1    0    0    0 -0.37696607471E+02  0.20824141325E+02  0.21592030725E+02  0.48175782626E+02  0.10566000000E+00 0. -1.
         13    1    1    0    0    0 -0.11186505911E+02  0.62329087708E+01  0.64181816765E+01  0.14324499513E+02  0.10566000000E+00 0.  1.
         22    1    1    0    0    0  0.48883113382E+02 -0.27057050095E+02 -0.28010212402E+02  0.62499717860E+02  0.00000000000E+00 0. -1.
</event>
<event>
 4    1  0.9957587E-003  0.9118800E+02  0.7818608E-02  0.1130116E+00
         25   -1    0    0    0    0  0.00000000000E+00  0.00000000000E+00  0.99999998245E-14  0.12500000000E+03  0.12500000000E+03 0.  0.
        -13    1    1    0    0    0 -0.11287622407E+02  0.16800329640E+01 -0.19660292336E+01  0.11580559803E+02  0.10566000000E+00 0. -1.
         13    1    1    0    0    0 -0.45626049999E+02  0.16533227125E+02 -0.15868607515E+02  0.51057887796E+02  0.10566000000E+00 0.  1.
         22    1    1    0    0    0  0.56913672407E+02 -0.18213260089E+02  0.17834636748E+02  0.62361552401E+02  0.00000000000E+00 0.  1.
</event>
<event>
 4    1  0.9957587E-003  0.9118800E+02  0.7818608E-02  0.1130116E+00
         25   -1    0    0    0    0  0.00000000000E+00  0.00000000000E+00  0.99999998245E-14  0.12500000000E+03  0.12500000000E+03 0.  0.
        -13    1    1    0    0    0 -0.40543208146E+00  0.96448200788E+00 -0.11027168538E+01  0.15237287198E+01  0.10566000000E+00 0.  1.
         13    1    1    0    0    0 -0.27019056875E+01  0.32740414307E+02 -0.51404101199E+02  0.61005145745E+02  0.10566000000E+00 0. -1.
         22    1    1    0    0    0  0.31073377690E+01 -0.33704896314E+02  0.52506818053E+02  0.62471125535E+02  0.00000000000E+00 0. -1.
</event>
<event>
 4    1  0.9957587E-003  0.9118800E+02  0.7818608E-02  0.1130116E+00
         25   -1    0    0    0    0  0.00000000000E+00  0.00000000000E+00  0.99999998245E-14  0.12500000000E+03  0.12500000000E+03 0.  0.
        -13    1    1    0    0    0  0.26979715759E+01  0.51528108930E+01  0.54092827972E+01  0.79436776835E+01  0.10566000000E+00 0.  1.
         13    1    1    0    0    0  0.18520149462E+02  0.34364941637E+02  0.38113061417E+02  0.54557875366E+02  0.10566000000E+00 0. -1.
         22    1    1    0    0    0 -0.21218121038E+02 -0.39517752530E+02 -0.43522344214E+02  0.62498446951E+02  0.00000000000E+00 0. -1.
</event>
<event>
 4    1  0.9957587E-003  0.9118800E+02  0.7818608E-02  0.1130116E+00
         25   -1    0    0    0    0  0.00000000000E+00  0.00000000000E+00  0.99999998245E-14  0.12500000000E+03  0.12500000000E+03 0.  0.
        -13    1    1    0    0    0 -0.31582172944E+01  0.83718238472E+01 -0.14688483770E+02  0.17199549137E+02  0.10566000000E+00 0.  1.
         13    1    1    0    0    0 -0.82515334923E+01  0.22980062701E+02 -0.38159230220E+02  0.45302418277E+02  0.10566000000E+00 0. -1.
         22    1    1    0    0    0  0.11409750787E+02 -0.31351886548E+02  0.52847713990E+02  0.62498032586E+02  0.00000000000E+00 0. -1.
</event>
<event>
 4    1  0.9957587E-003  0.9118800E+02  0.7818608E-02  0.1130116E+00
         25   -1    0    0    0    0  0.00000000000E+00  0.00000000000E+00  0.99999998245E-14  0.12500000000E+03  0.12500000000E+03 0.  0.
        -13    1    1    0    0    0 -0.90359369867E+01  0.18474993282E+01  0.97231637703E+01  0.13401958392E+02  0.10566000000E+00 0. -1.
         13    1    1    0    0    0 -0.32264805724E+02  0.12976149543E+02  0.34720745142E+02  0.49142033461E+02  0.10566000000E+00 0.  1.
         22    1    1    0    0    0  0.41300742711E+02 -0.14823648872E+02 -0.44443908912E+02  0.62456008148E+02  0.00000000000E+00 0.  1.
</event>
<event>
 4    1  0.9957587E-003  0.9118800E+02  0.7818608E-02  0.1130116E+00
         25   -1    0    0    0    0  0.00000000000E+00  0.00000000000E+00  0.99999998245E-14  0.12500000000E+03  0.12500000000E+03 0.  0.
        -13    1    1    0    0    0 -0.43416641977E+02  0.38474517413E+02 -0.65738610450E+01  0.58382532523E+02  0.10566000000E+00 0.  1.
         13    1    1    0    0    0 -0.31176041799E+01  0.26179784592E+01 -0.62711444507E+00  0.41204009026E+01  0.10566000000E+00 0. -1.
         22    1    1    0    0    0  0.46534246156E+02 -0.41092495873E+02  0.72009754901E+01  0.62497066574E+02  0.00000000000E+00 0.  1.
</event>
<event>
 4    1  0.9957587E-003  0.9118800E+02  0.7818608E-02  0.1130116E+00
         25   -1    0    0    0    0  0.00000000000E+00  0.00000000000E+00  0.99999998245E-14  0.12500000000E+03  0.12500000000E+03 0.  0.
        -13    1    1    0    0    0 -0.12279478442E+02 -0.29191299786E+01 -0.26789439455E+02  0.29614053100E+02  0.10566000000E+00 0. -1.
         13    1    1    0    0    0 -0.13625109443E+02 -0.49888721781E+01 -0.29524380083E+02  0.32897304392E+02  0.10566000000E+00 0.  1.
         22    1    1    0    0    0  0.25904587884E+02  0.79080021566E+01  0.56313819538E+02  0.62488642508E+02  0.00000000000E+00 0.  1.
</event>
<event>
 4    1  0.9957587E-003  0.9118800E+02  0.7818608E-02  0.1130116E+00
         25   -1    0    0    0    0  0.00000000000E+00  0.00000000000E+00  0.99999998245E-14  0.12500000000E+03  0.12500000000E+03 0.  0.
        -13    1    1    0    0    0  0.53436213555E+02  0.26992642959E+02  0.84391183068E+01  0.60458759290E+02  0.10566000000E+00 0. -1.
         13    1    1    0    0    0  0.17716487532E+01  0.10351992357E+01 -0.66775313750E-02  0.20546496994E+01  0.10566000000E+00 0. -1.
         22    1    1    0    0    0 -0.55207862308E+02 -0.28027842195E+02 -0.84324407755E+01  0.62486591011E+02  0.00000000000E+00 0. -1.
</event>
<event>
 4    1  0.9957587E-003  0.9118800E+02  0.7818608E-02  0.1130116E+00
         25   -1    0    0    0    0  0.00000000000E+00  0.00000000000E+00  0.99999998245E-14  0.12500000000E+03  0.12500000000E+03 0.  0.
        -13    1    1    0    0    0 -0.22520007015E+02 -0.25641862256E+02  0.34373565324E+02  0.48437681335E+02  0.10566000000E+00 0. -1.
         13    1    1    0    0    0 -0.66164143334E+01 -0.74195923003E+01  0.99458840461E+01  0.14062683315E+02  0.10566000000E+00 0. -1.
         22    1    1    0    0    0  0.29136421349E+02  0.33061454556E+02 -0.44319449370E+02  0.62499635350E+02  0.00000000000E+00 0. -1.
</event>
<event>
 4    1  0.9957587E-003  0.9118800E+02  0.7818608E-02  0.1130116E+00
         25   -1    0    0    0    0  0.00000000000E+00  0.00000000000E+00  0.99999998245E-14  0.12500000000E+03  0.12500000000E+03 0.  0.
        -13    1    1    0    0    0 -0.45938863432E+02 -0.12150075631E+01 -0.12114800155E+02  0.47525098250E+02  0.10566000000E+00 0.  1.
         13    1    1    0    0    0 -0.14512717327E+02 -0.50041510518E+00 -0.36592045482E+01  0.14975657630E+02  0.10566000000E+00 0.  1.
         22    1    1    0    0    0  0.60451580759E+02  0.17154226683E+01  0.15774004703E+02  0.62499244120E+02  0.00000000000E+00 0.  1.
</event>
<event>
 4    1  0.9957587E-003  0.9118800E+02  0.7818608E-02  0.1130116E+00
         25   -1    0    0    0    0  0.00000000000E+00  0.00000000000E+00  0.99999998245E-14  0.12500000000E+03  0.12500000000E+03 0.  0.
        -13    1    1    0    0    0  0.14739215441E+02  0.27683007517E+02 -0.22641259332E+01  0.31444090180E+02  0.10566000000E+00 0. -1.
         13    1    1    0    0    0  0.15111360133E+02  0.27046141270E+02 -0.21731651814E+01  0.31057700713E+02  0.10566000000E+00 0.  1.
         22    1    1    0    0    0 -0.29850575574E+02 -0.54729148787E+02  0.44372911146E+01  0.62498209106E+02  0.00000000000E+00 0.  1.
</event>
<event>
 4    1  0.9957587E-003  0.9118800E+02  0.7818608E-02  0.1130116E+00
         25   -1    0    0    0    0  0.00000000000E+00  0.00000000000E+00  0.99999998245E-14  0.12500000000E+03  0.12500000000E+03 0.  0.
        -13    1    1    0    0    0 -0.28722371153E+02  0.60352333487E+01  0.53214120024E+01  0.29828295894E+02  0.10566000000E+00 0.  1.
         13    1    1    0    0    0 -0.31434614042E+02  0.67910462197E+01  0.57616419176E+01  0.32672020910E+02  0.10566000000E+00 0. -1.
         22    1    1    0    0    0  0.60156985195E+02 -0.12826279568E+02 -0.11083053920E+02  0.62499683195E+02  0.00000000000E+00 0. -1.
</event>
<event>
 4    1  0.9957587E-003  0.9118800E+02  0.7818608E-02  0.1130116E+00
         25   -1    0    0    0    0  0.00000000000E+00  0.00000000000E+00  0.99999998245E-14  0.12500000000E+03  0.12500000000E+03 0.  0.
        -13    1    1    0    0    0  0.56459637902E+00 -0.64086165883E+01  0.10426332809E+02  0.12251886203E+02  0.10566000000E+00 0.  1.
         13    1    1    0    0    0  0.24765037683E+01 -0.25391558721E+02  0.43291269056E+02  0.50249472293E+02  0.10566000000E+00 0. -1.
         22    1    1    0    0    0 -0.30411001473E+01  0.31800175310E+02 -0.53717601865E+02  0.62498641505E+02  0.00000000000E+00 0. -1.
</event>
<event>
 4    1  0.9957587E-003  0.9118800E+02  0.7818608E-02  0.1130116E+00
         25   -1    0    0    0    0  0.00000000000E+00  0.00000000000E+00  0.99999998245E-14  0.12500000000E+03  0.12500000000E+03 0.  0.
        -13    1    1    0    0    0  0.72381266036E+01 -0.72368459608E+01  0.43889068537E+02  0.45066882711E+02  0.10566000000E+00 0.  1.
         13    1    1    0    0    0 -0.17718780752E+02 -0.72350426630E+01  0.11092164354E+02  0.22121218497E+02  0.10566000000E+00 0. -1.
         22    1    1    0    0    0  0.10480654149E+02  0.14471888624E+02 -0.54981232891E+02  0.57811898792E+02  0.00000000000E+00 0.  1.
</event>
<event>
 4    1  0.9957587E-003  0.9118800E+02  0.7818608E-02  0.1130116E+00
         25   -1    0    0    0    0  0.00000000000E+00  0.00000000000E+00  0.99999998245E-14  0.12500000000E+03  0.12500000000E+03 0.  0.
        -13    1    1    0    0    0 -0.85082525742E+01 -0.14440522968E+02  0.36475095407E+01  0.17153266609E+02  0.10566000000E+00 0. -1.
         13    1    1    0    0    0 -0.22722909572E+02 -0.37871260591E+02  0.10288322518E+02  0.45347808574E+02  0.10566000000E+00 0.  1.
         22    1    1    0    0    0  0.31231162146E+02  0.52311783559E+02 -0.13935832058E+02  0.62498924817E+02  0.00000000000E+00 0.  1.
</event>
<event>
 4    1  0.9957587E-003  0.9118800E+02  0.7818608E-02  0.1130116E+00
         25   -1    0    0    0    0  0.00000000000E+00  0.00000000000E+00  0.99999998245E-14  0.12500000000E+03  0.12500000000E+03 0.  0.
        -13    1    1    0    0    0  0.19750015785E+01 -0.38401404911E+01 -0.22011185800E+02  0.22431022593E+02  0.10566000000E+00 0. -1.
         13    1    1    0    0    0  0.27949063061E+01 -0.80590422984E+01 -0.39155166471E+02  0.40073655803E+02  0.10566000000E+00 0.  1.
         22    1    1    0    0    0 -0.47699078846E+01  0.11899182789E+02  0.61166352271E+02  0.62495321604E+02  0.00000000000E+00 0.  1.
</event>
<event>
 4    1  0.9957587E-003  0.9118800E+02  0.7818608E-02  0.1130116E+00
         25   -1    0    0    0    0  0.00000000000E+00  0.00000000000E+00  0.99999998245E-14  0.12500000000E+03  0.12500000000E+03 0.  0.
        -13    1    1    0    0    0 -0.13361818854E+02  0.50528523566E+01  0.66017525380E+01  0.15737338423E+02  0.10566000000E+00 0. -1.
         13    1    1    0    0    0 -0.21906372693E+02 -0.30522234679E+02 -0.39655595174E+02  0.54626672670E+02  0.10566000000E+00 0.  1.
         22    1    1    0    0    0  0.35268191547E+02  0.25469382323E+02  0.33053842636E+02  0.54635988907E+02  0.00000000000E+00 0.  1.
</event>
<event>
 4    1  0.9957587E-003  0.9118800E+02  0.7818608E-02  0.1130116E+00
         25   -1    0    0    0    0  0.00000000000E+00  0.00000000000E+00  0.99999998245E-14  0.12500000000E+03  0.12500000000E+03 0.  0.
        -13    1    1    0    0    0  0.52282597753E+02  0.68833974980E+01  0.20057265918E+02  0.56419467111E+02  0.10566000000E+00 0.  1.
         13    1    1    0    0    0  0.55829512485E+01  0.14204812571E+01  0.20004459138E+01  0.60991851533E+01  0.10566000000E+00 0. -1.
         22    1    1    0    0    0 -0.57865549002E+02 -0.83038787551E+01 -0.22057711832E+02  0.62481347736E+02  0.00000000000E+00 0.  1.
</event>
<event>
 4    1  0.9957587E-003  0.9118800E+02  0.7818608E-02  0.1130116E+00
         25   -1    0    0    0    0  0.00000000000E+00  0.00000000000E+00  0.99999998245E-14  0.12500000000E+03  0.12500000000E+03 0.  0.
        -13    1    1    0    0    0  0.47432641152E+01 -0.28066990151E+01  0.82184491492E+00  0.55733927663E+01  0.10566000000E+00 0. -1.
         13    1    1    0    0    0  0.40727319107E+02 -0.28636193092E+02 -0.28747414552E+02  0.57490617355E+02  0.10566000000E+00 0.  1.
         22    1    1    0    0    0 -0.45470583223E+02  0.31442892107E+02  0.27925569637E+02  0.61935989878E+02  0.00000000000E+00 0.  1.
</event>
<event>
 4    1  0.9957587E-003  0.9118800E+02  0.7818608E-02  0.1130116E+00
         25   -1    0    0    0    0  0.00000000000E+00  0.00000000000E+00  0.99999998245E-14  0.12500000000E+03  0.12500000000E+03 0.  0.
        -13    1    1    0    0    0 -0.78122863200E+00 -0.40923774959E+02  0.19507504344E+02  0.45342249226E+02  0.10566000000E+00 0. -1.
         13    1    1    0    0    0 -0.14561646809E+01 -0.15475510708E+02  0.72982432435E+01  0.17172284813E+02  0.10566000000E+00 0.  1.
         22    1    1    0    0    0  0.22373933129E+01  0.56399285667E+02 -0.26805747587E+02  0.62485465961E+02  0.00000000000E+00 0.  1.
</event>
<event>
 4    1  0.9957587E-003  0.9118800E+02  0.7818608E-02  0.1130116E+00
         25   -1    0    0    0    0  0.00000000000E+00  0.00000000000E+00  0.99999998245E-14  0.12500000000E+03  0.12500000000E+03 0.  0.
        -13    1    1    0    0    0 -0.20826530476E+01 -0.39819916419E+01 -0.12134541906E+02  0.12940323507E+02  0.10566000000E+00 0.  1.
         13    1    1    0    0    0  0.70436294698E+01 -0.44735176875E+02 -0.23951871460E+02  0.51230382358E+02  0.10566000000E+00 0. -1.
         22    1    1    0    0    0 -0.49609764222E+01  0.48717168517E+02  0.36086413366E+02  0.60829294135E+02  0.00000000000E+00 0. -1.
</event>
<event>
 4    1  0.9957587E-003  0.9118800E+02  0.7818608E-02  0.1130116E+00
         25   -1    0    0    0    0  0.00000000000E+00  0.00000000000E+00  0.99999998245E-14  0.12500000000E+03  0.12500000000E+03 0.  0.
        -13    1    1    0    0    0  0.38553066256E+02  0.17175279596E+02 -0.38335687085E+02  0.57017236124E+02  0.10566000000E+00 0.  1.
         13    1    1    0    0    0  0.45940548820E+01  0.33701545368E+01 -0.13587636681E+01  0.58583858359E+01  0.10566000000E+00 0. -1.
         22    1    1    0    0    0 -0.43147121138E+02 -0.20545434133E+02  0.39694450753E+02  0.62124378040E+02  0.00000000000E+00 0.  1.
</event>
<event>
 4    1  0.9957587E-003  0.9118800E+02  0.7818608E-02  0.1130116E+00
         25   -1    0    0    0    0  0.00000000000E+00  0.00000000000E+00  0.99999998245E-14  0.12500000000E+03  0.12500000000E+03 0.  0.
        -13    1    1    0    0    0  0.11918053135E+02 -0.10352195967E+02  0.19466906067E+02  0.25063510283E+02  0.10566000000E+00 0.  1.
         13    1    1    0    0    0 -0.73031932983E+01 -0.40197258942E+02  0.88636856769E+01  0.41805888899E+02  0.10566000000E+00 0. -1.
         22    1    1    0    0    0 -0.46148598369E+01  0.50549454909E+02 -0.28330591744E+02  0.58130600818E+02  0.00000000000E+00 0. -1.
</event>
<event>
 4    1  0.9957587E-003  0.9118800E+02  0.7818608E-02  0.1130116E+00
         25   -1    0    0    0    0  0.00000000000E+00  0.00000000000E+00  0.99999998245E-14  0.12500000000E+03  0.12500000000E+03 0.  0.
        -13    1    1    0    0    0  0.45610609125E+02  0.18440805827E+02 -0.26769701761E+02  0.56009098196E+02  0.10566000000E+00 0. -1.
         13    1    1    0    0    0  0.51943462924E+01  0.19008938273E+01 -0.34062276827E+01  0.64967824198E+01  0.10566000000E+00 0.  1.
         22    1    1    0    0    0 -0.50804955418E+02 -0.20341699654E+02  0.30175929444E+02  0.62494119384E+02  0.00000000000E+00 0. -1.
</event>
<event>
 4    1  0.9957587E-003  0.9118800E+02  0.7818608E-02  0.1130116E+00
         25   -1    0    0    0    0  0.00000000000E+00  0.00000000000E+00  0.99999998245E-14  0.12500000000E+03  0.12500000000E+03 0.  0.
        -13    1    1    0    0    0  0.83821350370E-01  0.20186487484E+01  0.35934944554E+00  0.20548150398E+01  0.10566000000E+00 0.  1.
         13    1    1    0    0    0 -0.30777854676E+01  0.59559182888E+02  0.98754057421E+01  0.60450838144E+02  0.10566000000E+00 0. -1.
         22    1    1    0    0    0  0.29939641173E+01 -0.61577831637E+02 -0.10234755188E+02  0.62494346816E+02  0.00000000000E+00 0. -1.
</event>
<event>
 4    1  0.9957587E-003  0.9118800E+02  0.7818608E-02  0.1130116E+00
         25   -1    0    0    0    0  0.00000000000E+00  0.00000000000E+00  0.99999998245E-14  0.12500000000E+03  0.12500000000E+03 0.  0.
        -13    1    1    0    0    0  0.48931450756E+02 -0.33035593595E+02 -0.55092252346E+01  0.59295868693E+02  0.10566000000E+00 0. -1.
         13    1    1    0    0    0  0.27459428572E+01 -0.16451315087E+01 -0.18614033569E+00  0.32081882919E+01  0.10566000000E+00 0.  1.
         22    1    1    0    0    0 -0.51677393613E+02  0.34680725104E+02  0.56953655703E+01  0.62495943015E+02  0.00000000000E+00 0. -1.
</event>
<event>
 4    1  0.9957587E-003  0.9118800E+02  0.7818608E-02  0.1130116E+00
         25   -1    0    0    0    0  0.00000000000E+00  0.00000000000E+00  0.99999998245E-14  0.12500000000E+03  0.12500000000E+03 0.  0.
        -13    1    1    0    0    0 -0.40745604495E+02 -0.17409510730E+02 -0.11002323428E+02  0.45654765736E+02  0.10566000000E+00 0.  1.
         13    1    1    0    0    0 -0.14992136885E+02 -0.64278858503E+01 -0.42053442322E+01  0.16845710701E+02  0.10566000000E+00 0.  1.
         22    1    1    0    0    0  0.55737741380E+02  0.23837396580E+02  0.15207667660E+02  0.62499523563E+02  0.00000000000E+00 0.  1.
</event>
<event>
 4    1  0.9957587E-003  0.9118800E+02  0.7818608E-02  0.1130116E+00
         25   -1    0    0    0    0  0.00000000000E+00  0.00000000000E+00  0.99999998245E-14  0.12500000000E+03  0.12500000000E+03 0.  0.
        -13    1    1    0    0    0  0.64236749778E+01  0.28002883688E+02 -0.12810624957E+02  0.31457087769E+02  0.10566000000E+00 0.  1.
         13    1    1    0    0    0  0.64622612735E+01  0.27614132863E+02 -0.12623991904E+02  0.31043155287E+02  0.10566000000E+00 0.  1.
         22    1    1    0    0    0 -0.12885936251E+02 -0.55617016551E+02  0.25434616862E+02  0.62499756944E+02  0.00000000000E+00 0.  1.
</event>
<event>
 4    1  0.9957587E-003  0.9118800E+02  0.7818608E-02  0.1130116E+00
         25   -1    0    0    0    0  0.00000000000E+00  0.00000000000E+00  0.99999998245E-14  0.12500000000E+03  0.12500000000E+03 0.  0.
        -13    1    1    0    0    0  0.52814830045E+01  0.13827259442E+02  0.14163474128E+01  0.14869578691E+02  0.10566000000E+00 0. -1.
         13    1    1    0    0    0  0.17366183443E+02  0.44180335891E+02  0.39058534222E+01  0.47631431448E+02  0.10566000000E+00 0. -1.
         22    1    1    0    0    0 -0.22647666448E+02 -0.58007595333E+02 -0.53222008350E+01  0.62498989861E+02  0.00000000000E+00 0. -1.
</event>
<event>
 4    1  0.9957587E-003  0.9118800E+02  0.7818608E-02  0.1130116E+00
         25   -1    0    0    0    0  0.00000000000E+00  0.00000000000E+00  0.99999998245E-14  0.12500000000E+03  0.12500000000E+03 0.  0.
        -13    1    1    0    0    0 -0.40546043771E+01  0.83862512290E+01 -0.29143179095E+02  0.30595834327E+02  0.10566000000E+00 0. -1.
         13    1    1    0    0    0  0.41002012822E+01  0.89076351123E+01 -0.30639361158E+02  0.32170471399E+02  0.10566000000E+00 0.  1.
         22    1    1    0    0    0 -0.45596905070E-01 -0.17293886341E+02  0.59782540253E+02  0.62233694274E+02  0.00000000000E+00 0.  1.
</event>
<event>
 4    1  0.9957587E-003  0.9118800E+02  0.7818608E-02  0.1130116E+00
         25   -1    0    0    0    0  0.00000000000E+00  0.00000000000E+00  0.99999998245E-14  0.12500000000E+03  0.12500000000E+03 0.  0.
        -13    1    1    0    0    0  0.16840068080E+00  0.65998061551E+01 -0.71569336942E+01  0.97374875616E+01  0.10566000000E+00 0.  1.
         13    1    1    0    0    0  0.25949852620E+01  0.34338718432E+02 -0.39981451504E+02  0.52767500987E+02  0.10566000000E+00 0.  1.
         22    1    1    0    0    0 -0.27633859428E+01 -0.40938524587E+02  0.47138385198E+02  0.62495011451E+02  0.00000000000E+00 0.  1.
</event>
<event>
 4    1  0.9957587E-003  0.9118800E+02  0.7818608E-02  0.1130116E+00
         25   -1    0    0    0    0  0.00000000000E+00  0.00000000000E+00  0.99999998245E-14  0.12500000000E+03  0.12500000000E+03 0.  0.
        -13    1    1    0    0    0  0.40638259308E+02 -0.35877359701E+02 -0.10681148120E+02  0.55251707194E+02  0.10566000000E+00 0.  1.
         13    1    1    0    0    0  0.60443800468E+01  0.22301893850E+01 -0.70332422098E+01  0.95386547720E+01  0.10566000000E+00 0. -1.
         22    1    1    0    0    0 -0.46682639355E+02  0.33647170316E+02  0.17714390330E+02  0.60209638034E+02  0.00000000000E+00 0.  1.
</event>
<event>
 4    1  0.9957587E-003  0.9118800E+02  0.7818608E-02  0.1130116E+00
         25   -1    0    0    0    0  0.00000000000E+00  0.00000000000E+00  0.99999998245E-14  0.12500000000E+03  0.12500000000E+03 0.  0.
        -13    1    1    0    0    0 -0.44713543574E+02 -0.27473644096E+02 -0.29134493823E+02  0.60024428304E+02  0.10566000000E+00 0.  1.
         13    1    1    0    0    0 -0.11953724454E+01 -0.11739238778E+01 -0.19469055944E+01  0.25707232412E+01  0.10566000000E+00 0.  1.
         22    1    1    0    0    0  0.45908916019E+02  0.28647567974E+02  0.31081399418E+02  0.62404848455E+02  0.00000000000E+00 0.  1.
</event>
<event>
 4    1  0.9957587E-003  0.9118800E+02  0.7818608E-02  0.1130116E+00
         25   -1    0    0    0    0  0.00000000000E+00  0.00000000000E+00  0.99999998245E-14  0.12500000000E+03  0.12500000000E+03 0.  0.
        -13    1    1    0    0    0 -0.35413598427E+02 -0.33489741206E+02  0.58673655111E+01  0.49093002165E+02  0.10566000000E+00 0. -1.
         13    1    1    0    0    0 -0.96271717134E+01 -0.91723671259E+01  0.17130774906E+01  0.13407481211E+02  0.10566000000E+00 0. -1.
         22    1    1    0    0    0  0.45040770140E+02  0.42662108332E+02 -0.75804430017E+01  0.62499516624E+02  0.00000000000E+00 0. -1.
</event>
<event>
 4    1  0.9957587E-003  0.9118800E+02  0.7818608E-02  0.1130116E+00
         25   -1    0    0    0    0  0.00000000000E+00  0.00000000000E+00  0.99999998245E-14  0.12500000000E+03  0.12500000000E+03 0.  0.
        -13    1    1    0    0    0 -0.46328833776E+02 -0.24457996631E+02 -0.25427200945E+01  0.52450271951E+02  0.10566000000E+00 0. -1.
         13    1    1    0    0    0 -0.84510576142E+01 -0.53671284857E+01 -0.10907733730E+01  0.10071116798E+02  0.10566000000E+00 0.  1.
         22    1    1    0    0    0  0.54779891391E+02  0.29825125116E+02  0.36334934676E+01  0.62478611250E+02  0.00000000000E+00 0. -1.
</event>
<event>
 4    1  0.9957587E-003  0.9118800E+02  0.7818608E-02  0.1130116E+00
         25   -1    0    0    0    0  0.00000000000E+00  0.00000000000E+00  0.99999998245E-14  0.12500000000E+03  0.12500000000E+03 0.  0.
        -13    1    1    0    0    0  0.78001720458E+00 -0.14160909197E+02 -0.63438551206E+01  0.15536905675E+02  0.10566000000E+00 0.  1.
         13    1    1    0    0    0 -0.71890829810E+01 -0.38867266506E+02 -0.25725832997E+02  0.47161180723E+02  0.10566000000E+00 0. -1.
         22    1    1    0    0    0  0.64090657764E+01  0.53028175703E+02  0.32069688118E+02  0.62301913602E+02  0.00000000000E+00 0. -1.
</event>
<event>
 4    1  0.9957587E-003  0.9118800E+02  0.7818608E-02  0.1130116E+00
         25   -1    0    0    0    0  0.00000000000E+00  0.00000000000E+00  0.99999998245E-14  0.12500000000E+03  0.12500000000E+03 0.  0.
        -13    1    1    0    0    0 -0.32469663270E+02 -0.30863645351E+02  0.35428399085E+02  0.57114151163E+02  0.10566000000E+00 0. -1.
         13    1    1    0    0    0 -0.31098142553E+01 -0.28391151225E+01  0.33577219078E+01  0.53867411138E+01  0.10566000000E+00 0.  1.
         22    1    1    0    0    0  0.35579477526E+02  0.33702760474E+02 -0.38786120993E+02  0.62499107724E+02  0.00000000000E+00 0. -1.
</event>
<event>
 4    1  0.9957587E-003  0.9118800E+02  0.7818608E-02  0.1130116E+00
         25   -1    0    0    0    0  0.00000000000E+00  0.00000000000E+00  0.99999998245E-14  0.12500000000E+03  0.12500000000E+03 0.  0.
        -13    1    1    0    0    0 -0.65933236312E+01  0.33911245225E+02  0.32648502872E+02  0.47532939874E+02  0.10566000000E+00 0. -1.
         13    1    1    0    0    0 -0.16491625122E+01  0.10378083610E+02  0.10665108079E+02  0.14972643413E+02  0.10566000000E+00 0.  1.
         22    1    1    0    0    0  0.82424861433E+01 -0.44289328836E+02 -0.43313610952E+02  0.62494416712E+02  0.00000000000E+00 0. -1.
</event>
<event>
 4    1  0.9957587E-003  0.9118800E+02  0.7818608E-02  0.1130116E+00
         25   -1    0    0    0    0  0.00000000000E+00  0.00000000000E+00  0.99999998245E-14  0.12500000000E+03  0.12500000000E+03 0.  0.
        -13    1    1    0    0    0 -0.27957613205E+02 -0.23241687459E+02 -0.18917113888E+02  0.40983808192E+02  0.10566000000E+00 0.  1.
         13    1    1    0    0    0 -0.14811802352E+02 -0.12990202349E+02 -0.86904441911E+01  0.21532993992E+02  0.10566000000E+00 0. -1.
         22    1    1    0    0    0  0.42769415558E+02  0.36231889808E+02  0.27607558079E+02  0.62483197816E+02  0.00000000000E+00 0.  1.
</event>
<event>
 4    1  0.9957587E-003  0.9118800E+02  0.7818608E-02  0.1130116E+00
         25   -1    0    0    0    0  0.00000000000E+00  0.00000000000E+00  0.99999998245E-14  0.12500000000E+03  0.12500000000E+03 0.  0.
        -13    1    1    0    0    0 -0.19436406897E+02 -0.17980868835E+01  0.11809225449E+02  0.22813943088E+02  0.10566000000E+00 0.  1.
         13    1    1    0    0    0 -0.33888729897E+02 -0.32621090106E+01  0.20393830501E+02  0.39686356040E+02  0.10566000000E+00 0.  1.
         22    1    1    0    0    0  0.53325136793E+02  0.50601958941E+01 -0.32203055950E+02  0.62499700872E+02  0.00000000000E+00 0.  1.
</event>
<event>
 4    1  0.9957587E-003  0.9118800E+02  0.7818608E-02  0.1130116E+00
         25   -1    0    0    0    0  0.00000000000E+00  0.00000000000E+00  0.99999998245E-14  0.12500000000E+03  0.12500000000E+03 0.  0.
        -13    1    1    0    0    0  0.97329410304E+01 -0.28694181079E+02 -0.48228043572E+02  0.56956487951E+02  0.10566000000E+00 0.  1.
         13    1    1    0    0    0  0.11243840618E+01 -0.17250764650E+01 -0.52098225640E+01  0.56029941561E+01  0.10566000000E+00 0. -1.
         22    1    1    0    0    0 -0.10857325092E+02  0.30419257544E+02  0.53437866136E+02  0.62440517893E+02  0.00000000000E+00 0.  1.
</event>
<event>
 4    1  0.9957587E-003  0.9118800E+02  0.7818608E-02  0.1130116E+00
         25   -1    0    0    0    0  0.00000000000E+00  0.00000000000E+00  0.99999998245E-14  0.12500000000E+03  0.12500000000E+03 0.  0.
        -13    1    1    0    0    0 -0.47942364135E+02 -0.26097782873E+02 -0.66784949599E+01  0.54992526844E+02  0.10566000000E+00 0.  1.
         13    1    1    0    0    0 -0.24833084538E+01 -0.29438086947E+01  0.11001248786E+02  0.11656391783E+02  0.10566000000E+00 0. -1.
         22    1    1    0    0    0  0.50425672589E+02  0.29041591567E+02 -0.43227538258E+01  0.58351081373E+02  0.00000000000E+00 0.  1.
</event>
<event>
 4    1  0.9957587E-003  0.9118800E+02  0.7818608E-02  0.1130116E+00
         25   -1    0    0    0    0  0.00000000000E+00  0.00000000000E+00  0.99999998245E-14  0.12500000000E+03  0.12500000000E+03 0.  0.
        -13    1    1    0    0    0 -0.52682854001E+00  0.40320783019E+01 -0.15750580637E+01  0.43620150943E+01  0.10566000000E+00 0.  1.
         13    1    1    0    0    0  0.35441448758E+02  0.29290930840E+02  0.38419455486E+02  0.59917615468E+02  0.10566000000E+00 0. -1.
         22    1    1    0    0    0 -0.34914620218E+02 -0.33323009142E+02 -0.36844397422E+02  0.60720369438E+02  0.00000000000E+00 0. -1.
</event>
<event>
 4    1  0.9957587E-003  0.9118800E+02  0.7818608E-02  0.1130116E+00
         25   -1    0    0    0    0  0.00000000000E+00  0.00000000000E+00  0.99999998245E-14  0.12500000000E+03  0.12500000000E+03 0.  0.
        -13    1    1    0    0    0  0.54893027048E+02  0.33669699621E+01  0.94526172109E+00  0.55004414268E+02  0.10566000000E+00 0.  1.
         13    1    1    0    0    0  0.65755887719E+01  0.22394021334E+01 -0.43178675911E+01  0.81797575869E+01  0.10566000000E+00 0. -1.
         22    1    1    0    0    0 -0.61468615820E+02 -0.56063720955E+01  0.33726058700E+01  0.61815828145E+02  0.00000000000E+00 0.  1.
</event>
<event>
 4    1  0.9957587E-003  0.9118800E+02  0.7818608E-02  0.1130116E+00
         25   -1    0    0    0    0  0.00000000000E+00  0.00000000000E+00  0.99999998245E-14  0.12500000000E+03  0.12500000000E+03 0.  0.
        -13    1    1    0    0    0 -0.35079552778E+01 -0.23796626159E+02  0.22036101485E+01  0.24154755815E+02  0.10566000000E+00 0. -1.
         13    1    1    0    0    0 -0.41658230792E+01 -0.37539864512E+02  0.68019688001E+01  0.38378033471E+02  0.10566000000E+00 0.  1.
         22    1    1    0    0    0  0.76737783570E+01  0.61336490671E+02 -0.90055789486E+01  0.62467210713E+02  0.00000000000E+00 0.  1.
</event>
<event>
 4    1  0.9957587E-003  0.9118800E+02  0.7818608E-02  0.1130116E+00
         25   -1    0    0    0    0  0.00000000000E+00  0.00000000000E+00  0.99999998245E-14  0.12500000000E+03  0.12500000000E+03 0.  0.
        -13    1    1    0    0    0 -0.39266848865E+02  0.12929091696E+02  0.30098604298E+02  0.51136914031E+02  0.10566000000E+00 0. -1.
         13    1    1    0    0    0 -0.97198377838E+01  0.21092773997E+01  0.55966987908E+01  0.11413084556E+02  0.10566000000E+00 0.  1.
         22    1    1    0    0    0  0.48986686649E+02 -0.15038369096E+02 -0.35695303089E+02  0.62450001413E+02  0.00000000000E+00 0. -1.
</event>
<event>
 4    1  0.9957587E-003  0.9118800E+02  0.7818608E-02  0.1130116E+00
         25   -1    0    0    0    0  0.00000000000E+00  0.00000000000E+00  0.99999998245E-14  0.12500000000E+03  0.12500000000E+03 0.  0.
        -13    1    1    0    0    0  0.45065478221E+02 -0.25789557050E+01 -0.71408032393E+01  0.45700662739E+02  0.10566000000E+00 0. -1.
         13    1    1    0    0    0  0.16013187745E+02 -0.36300231112E+01 -0.40077797538E+01  0.16901855286E+02  0.10566000000E+00 0.  1.
         22    1    1    0    0    0 -0.61078665966E+02  0.62089788162E+01  0.11148582993E+02  0.62397481975E+02  0.00000000000E+00 0. -1.
</event>
<event>
 4    1  0.9957587E-003  0.9118800E+02  0.7818608E-02  0.1130116E+00
         25   -1    0    0    0    0  0.00000000000E+00  0.00000000000E+00  0.99999998245E-14  0.12500000000E+03  0.12500000000E+03 0.  0.
        -13    1    1    0    0    0 -0.92570566846E+01 -0.41753759506E+01  0.42283551317E+02  0.43486052233E+02  0.10566000000E+00 0. -1.
         13    1    1    0    0    0 -0.42831335402E+01 -0.13594220519E+01  0.18477791343E+02  0.19016655809E+02  0.10566000000E+00 0.  1.
         22    1    1    0    0    0  0.13540190225E+02  0.55347980025E+01 -0.60761342660E+02  0.62497291958E+02  0.00000000000E+00 0. -1.
</event>
<event>
 4    1  0.9957587E-003  0.9118800E+02  0.7818608E-02  0.1130116E+00
         25   -1    0    0    0    0  0.00000000000E+00  0.00000000000E+00  0.99999998245E-14  0.12500000000E+03  0.12500000000E+03 0.  0.
        -13    1    1    0    0    0 -0.10788315145E+02 -0.61385568684E+02 -0.20094832507E+01  0.62358840378E+02  0.10566000000E+00 0. -1.
         13    1    1    0    0    0  0.19139509301E+01  0.57393788837E+01  0.17211476731E+01  0.62910405723E+01  0.10566000000E+00 0.  1.
         22    1    1    0    0    0  0.88743642147E+01  0.55646189800E+02  0.28833557759E+00  0.56350119050E+02  0.00000000000E+00 0. -1.
</event>
<event>
 4    1  0.9957587E-003  0.9118800E+02  0.7818608E-02  0.1130116E+00
         25   -1    0    0    0    0  0.00000000000E+00  0.00000000000E+00  0.99999998245E-14  0.12500000000E+03  0.12500000000E+03 0.  0.
        -13    1    1    0    0    0 -0.57505657043E+02 -0.28954559961E+01 -0.16943609540E+02  0.60019841099E+02  0.10566000000E+00 0. -1.
         13    1    1    0    0    0 -0.24667699550E+01  0.17066410214E+00 -0.36223771025E+00  0.25012917545E+01  0.10566000000E+00 0. -1.
         22    1    1    0    0    0  0.59972426998E+02  0.27247918940E+01  0.17305847250E+02  0.62478867146E+02  0.00000000000E+00 0. -1.
</event>
<event>
 4    1  0.9957587E-003  0.9118800E+02  0.7818608E-02  0.1130116E+00
         25   -1    0    0    0    0  0.00000000000E+00  0.00000000000E+00  0.99999998245E-14  0.12500000000E+03  0.12500000000E+03 0.  0.
        -13    1    1    0    0    0  0.78185324304E+01 -0.13645504182E+01 -0.33036156608E+01  0.85974698417E+01  0.10566000000E+00 0.  1.
         13    1    1    0    0    0  0.34840319438E+02 -0.17554925014E+02 -0.37721473297E+02  0.54267337897E+02  0.10566000000E+00 0. -1.
         22    1    1    0    0    0 -0.42658851868E+02  0.18919475432E+02  0.41025088958E+02  0.62135192261E+02  0.00000000000E+00 0. -1.
</event>
<event>
 4    1  0.9957587E-003  0.9118800E+02  0.7818608E-02  0.1130116E+00
         25   -1    0    0    0    0  0.00000000000E+00  0.00000000000E+00  0.99999998245E-14  0.12500000000E+03  0.12500000000E+03 0.  0.
        -13    1    1    0    0    0  0.28308898845E+00 -0.32915098193E+01 -0.13617237389E+02  0.14012654795E+02  0.10566000000E+00 0. -1.
         13    1    1    0    0    0  0.29266259233E+01 -0.17258378663E+02 -0.45269101746E+02  0.48535754968E+02  0.10566000000E+00 0.  1.
         22    1    1    0    0    0 -0.32097149118E+01  0.20549888482E+02  0.58886339135E+02  0.62451590237E+02  0.00000000000E+00 0.  1.
</event>
<event>
 4    1  0.9957587E-003  0.9118800E+02  0.7818608E-02  0.1130116E+00
         25   -1    0    0    0    0  0.00000000000E+00  0.00000000000E+00  0.99999998245E-14  0.12500000000E+03  0.12500000000E+03 0.  0.
        -13    1    1    0    0    0 -0.55706551638E+02  0.16455676120E+01 -0.20069300111E+02  0.59234413639E+02  0.10566000000E+00 0. -1.
         13    1    1    0    0    0 -0.31871468110E+01 -0.76871337950E-01 -0.75675692064E+00  0.32783622542E+01  0.10566000000E+00 0.  1.
         22    1    1    0    0    0  0.58893698449E+02 -0.15686962740E+01  0.20826057032E+02  0.62487224106E+02  0.00000000000E+00 0. -1.
</event>
<event>
 4    1  0.9957587E-003  0.9118800E+02  0.7818608E-02  0.1130116E+00
         25   -1    0    0    0    0  0.00000000000E+00  0.00000000000E+00  0.99999998245E-14  0.12500000000E+03  0.12500000000E+03 0.  0.
        -13    1    1    0    0    0 -0.39150155602E+02 -0.65486712089E+01 -0.37901297906E+02  0.54882960245E+02  0.10566000000E+00 0.  1.
         13    1    1    0    0    0 -0.42234636112E+01  0.13676919663E+01 -0.64731010901E+01  0.78498680210E+01  0.10566000000E+00 0. -1.
         22    1    1    0    0    0  0.43373619213E+02  0.51809792426E+01  0.44374398996E+02  0.62267171734E+02  0.00000000000E+00 0.  1.
</event>
<event>
 4    1  0.9957587E-003  0.9118800E+02  0.7818608E-02  0.1130116E+00
         25   -1    0    0    0    0  0.00000000000E+00  0.00000000000E+00  0.99999998245E-14  0.12500000000E+03  0.12500000000E+03 0.  0.
        -13    1    1    0    0    0 -0.23151091967E+02  0.40188005219E+02  0.18573768098E+02  0.49960432826E+02  0.10566000000E+00 0.  1.
         13    1    1    0    0    0 -0.44575956143E+01  0.10712415850E+02  0.48490785874E+01  0.12575799743E+02  0.10566000000E+00 0. -1.
         22    1    1    0    0    0  0.27608687582E+02 -0.50900421068E+02 -0.23422846685E+02  0.62463767431E+02  0.00000000000E+00 0.  1.
</event>
<event>
 4    1  0.9957587E-003  0.9118800E+02  0.7818608E-02  0.1130116E+00
         25   -1    0    0    0    0  0.00000000000E+00  0.00000000000E+00  0.99999998245E-14  0.12500000000E+03  0.12500000000E+03 0.  0.
        -13    1    1    0    0    0  0.70756975929E+01  0.29073443284E+01 -0.96003165794E+01  0.12275805062E+02  0.10566000000E+00 0. -1.
         13    1    1    0    0    0  0.28731038350E+02  0.12211159154E+02 -0.39343575720E+02  0.50224626300E+02  0.10566000000E+00 0. -1.
         22    1    1    0    0    0 -0.35806735943E+02 -0.15118503483E+02  0.48943892299E+02  0.62499568637E+02  0.00000000000E+00 0. -1.
</event>
<event>
 4    1  0.9957587E-003  0.9118800E+02  0.7818608E-02  0.1130116E+00
         25   -1    0    0    0    0  0.00000000000E+00  0.00000000000E+00  0.99999998245E-14  0.12500000000E+03  0.12500000000E+03 0.  0.
        -13    1    1    0    0    0  0.17378002313E+02  0.26091877786E+02  0.25803957965E+02  0.40603404556E+02  0.10566000000E+00 0. -1.
         13    1    1    0    0    0  0.17470425790E+02  0.13091377860E+02  0.65350440908E+01  0.22788547932E+02  0.10566000000E+00 0.  1.
         22    1    1    0    0    0 -0.34848428103E+02 -0.39183255646E+02 -0.32339002056E+02  0.61608047512E+02  0.00000000000E+00 0. -1.
</event>
<event>
 4    1  0.9957587E-003  0.9118800E+02  0.7818608E-02  0.1130116E+00
         25   -1    0    0    0    0  0.00000000000E+00  0.00000000000E+00  0.99999998245E-14  0.12500000000E+03  0.12500000000E+03 0.  0.
        -13    1    1    0    0    0  0.26614815643E+02  0.18968903318E+02  0.12430492811E+02  0.34967070514E+02  0.10566000000E+00 0.  1.
         13    1    1    0    0    0  0.20708869816E+02  0.86119916943E+01  0.16729167869E+02  0.27980348669E+02  0.10566000000E+00 0. -1.
         22    1    1    0    0    0 -0.47323685459E+02 -0.27580895012E+02 -0.29159660679E+02  0.62052580817E+02  0.00000000000E+00 0. -1.
</event>
<event>
 4    1  0.9957587E-003  0.9118800E+02  0.7818608E-02  0.1130116E+00
         25   -1    0    0    0    0  0.00000000000E+00  0.00000000000E+00  0.99999998245E-14  0.12500000000E+03  0.12500000000E+03 0.  0.
        -13    1    1    0    0    0  0.15947559283E+02  0.19831434661E+01 -0.43572614982E+01  0.16650957837E+02  0.10566000000E+00 0. -1.
         13    1    1    0    0    0  0.44014781553E+02  0.54987343789E+01 -0.11603005920E+02  0.45849514559E+02  0.10566000000E+00 0. -1.
         22    1    1    0    0    0 -0.59962340836E+02 -0.74818778450E+01  0.15960267418E+02  0.62499527604E+02  0.00000000000E+00 0. -1.
</event>
<event>
 4    1  0.9957587E-003  0.9118800E+02  0.7818608E-02  0.1130116E+00
         25   -1    0    0    0    0  0.00000000000E+00  0.00000000000E+00  0.99999998245E-14  0.12500000000E+03  0.12500000000E+03 0.  0.
        -13    1    1    0    0    0 -0.27123177610E+01 -0.90745689659E+00  0.25596798474E+02  0.25756308000E+02  0.10566000000E+00 0. -1.
         13    1    1    0    0    0 -0.63412363964E+01 -0.99276453899E+01  0.35049024342E+02  0.36975866364E+02  0.10566000000E+00 0.  1.
         22    1    1    0    0    0  0.90535541574E+01  0.10835102286E+02 -0.60645822816E+02  0.62267825636E+02  0.00000000000E+00 0. -1.
</event>
<event>
 4    1  0.9957587E-003  0.9118800E+02  0.7818608E-02  0.1130116E+00
         25   -1    0    0    0    0  0.00000000000E+00  0.00000000000E+00  0.99999998245E-14  0.12500000000E+03  0.12500000000E+03 0.  0.
        -13    1    1    0    0    0 -0.83686403553E+01 -0.80052873230E+01 -0.19530092339E+01  0.11744963841E+02  0.10566000000E+00 0.  1.
         13    1    1    0    0    0 -0.36828150397E+02 -0.34046123209E+02 -0.77942187953E+01  0.50756400364E+02  0.10566000000E+00 0. -1.
         22    1    1    0    0    0  0.45196790753E+02  0.42051410532E+02  0.97472280292E+01  0.62498635795E+02  0.00000000000E+00 0. -1.
</event>
<event>
 4    1  0.9957587E-003  0.9118800E+02  0.7818608E-02  0.1130116E+00
         25   -1    0    0    0    0  0.00000000000E+00  0.00000000000E+00  0.99999998245E-14  0.12500000000E+03  0.12500000000E+03 0.  0.
        -13    1    1    0    0    0 -0.59505923105E+01 -0.87931028207E+01  0.22344409669E+01  0.10850442227E+02  0.10566000000E+00 0. -1.
         13    1    1    0    0    0  0.44597400458E+02 -0.34262942574E+02  0.23750273231E+00  0.56240065194E+02  0.10566000000E+00 0.  1.
         22    1    1    0    0    0 -0.38646808148E+02  0.43056045394E+02 -0.24719436992E+01  0.57909492578E+02  0.00000000000E+00 0.  1.
</event>
<event>
 4    1  0.9957587E-003  0.9118800E+02  0.7818608E-02  0.1130116E+00
         25   -1    0    0    0    0  0.00000000000E+00  0.00000000000E+00  0.99999998245E-14  0.12500000000E+03  0.12500000000E+03 0.  0.
        -13    1    1    0    0    0 -0.19752954066E+01  0.80613499292E+01 -0.26849588985E+01  0.87239511087E+01  0.10566000000E+00 0. -1.
         13    1    1    0    0    0 -0.10799339473E+02  0.49870610584E+02 -0.16980463727E+02  0.53777791378E+02  0.10566000000E+00 0.  1.
         22    1    1    0    0    0  0.12774634879E+02 -0.57931960513E+02  0.19665422626E+02  0.62498257514E+02  0.00000000000E+00 0.  1.
</event>
<event>
 4    1  0.9957587E-003  0.9118800E+02  0.7818608E-02  0.1130116E+00
         25   -1    0    0    0    0  0.00000000000E+00  0.00000000000E+00  0.99999998245E-14  0.12500000000E+03  0.12500000000E+03 0.  0.
        -13    1    1    0    0    0 -0.21604435443E+02 -0.67888951002E+01 -0.14338763332E+02  0.26803955406E+02  0.10566000000E+00 0. -1.
         13    1    1    0    0    0 -0.24647149836E+02 -0.14688206659E+02 -0.21511457061E+02  0.35860554358E+02  0.10566000000E+00 0.  1.
         22    1    1    0    0    0  0.46251585279E+02  0.21477101759E+02  0.35850220393E+02  0.62335490236E+02  0.00000000000E+00 0. -1.
</event>
<event>
 4    1  0.9957587E-003  0.9118800E+02  0.7818608E-02  0.1130116E+00
         25   -1    0    0    0    0  0.00000000000E+00  0.00000000000E+00  0.99999998245E-14  0.12500000000E+03  0.12500000000E+03 0.  0.
        -13    1    1    0    0    0  0.14369431020E+02 -0.11683657650E+02 -0.25566913129E+02  0.31570027160E+02  0.10566000000E+00 0. -1.
         13    1    1    0    0    0  0.23550660850E+02  0.44780243590E+01 -0.21748205004E+02  0.32367914878E+02  0.10566000000E+00 0.  1.
         22    1    1    0    0    0 -0.37920091870E+02  0.72056332910E+01  0.47315118133E+02  0.61062057962E+02  0.00000000000E+00 0.  1.
</event>
<event>
 4    1  0.9957587E-003  0.9118800E+02  0.7818608E-02  0.1130116E+00
         25   -1    0    0    0    0  0.00000000000E+00  0.00000000000E+00  0.99999998245E-14  0.12500000000E+03  0.12500000000E+03 0.  0.
        -13    1    1    0    0    0 -0.29464186933E+02 -0.30599082973E+02  0.99296416189E+01  0.43623974339E+02  0.10566000000E+00 0. -1.
         13    1    1    0    0    0 -0.18726511068E+02 -0.60479489470E+01  0.16062998997E+01  0.19744651596E+02  0.10566000000E+00 0.  1.
         22    1    1    0    0    0  0.48190698001E+02  0.36647031920E+02 -0.11535941519E+02  0.61631374065E+02  0.00000000000E+00 0. -1.
</event>
<event>
 4    1  0.9957587E-003  0.9118800E+02  0.7818608E-02  0.1130116E+00
         25   -1    0    0    0    0  0.00000000000E+00  0.00000000000E+00  0.99999998245E-14  0.12500000000E+03  0.12500000000E+03 0.  0.
        -13    1    1    0    0    0 -0.22775123411E+02  0.35066948111E+02  0.11128913241E+02  0.43269631038E+02  0.10566000000E+00 0.  1.
         13    1    1    0    0    0 -0.10236409883E+02  0.15507128126E+02  0.49553539885E+01  0.19230751603E+02  0.10566000000E+00 0. -1.
         22    1    1    0    0    0  0.33011533294E+02 -0.50574076237E+02 -0.16084267230E+02  0.62499617359E+02  0.00000000000E+00 0. -1.
</event>
<event>
 4    1  0.9957587E-003  0.9118800E+02  0.7818608E-02  0.1130116E+00
         25   -1    0    0    0    0  0.00000000000E+00  0.00000000000E+00  0.99999998245E-14  0.12500000000E+03  0.12500000000E+03 0.  0.
        -13    1    1    0    0    0 -0.32583026409E+02  0.83107037172E+01 -0.50887375026E+02  0.60993913691E+02  0.10566000000E+00 0. -1.
         13    1    1    0    0    0 -0.10328957376E+01  0.39172363655E+00 -0.10515309102E+01  0.15287911246E+01  0.10566000000E+00 0.  1.
         22    1    1    0    0    0  0.33615922147E+02 -0.87024273538E+01  0.51938905937E+02  0.62477295184E+02  0.00000000000E+00 0. -1.
</event>
<event>
 4    1  0.9957587E-003  0.9118800E+02  0.7818608E-02  0.1130116E+00
         25   -1    0    0    0    0  0.00000000000E+00  0.00000000000E+00  0.99999998245E-14  0.12500000000E+03  0.12500000000E+03 0.  0.
        -13    1    1    0    0    0 -0.22663764349E+01 -0.32043420547E+02  0.28117860991E+02  0.42691246565E+02  0.10566000000E+00 0.  1.
         13    1    1    0    0    0  0.15962166666E+02  0.19358413750E+02  0.19100758783E+02  0.31533935652E+02  0.10566000000E+00 0. -1.
         22    1    1    0    0    0 -0.13695790231E+02  0.12685006798E+02 -0.47218619774E+02  0.50774817783E+02  0.00000000000E+00 0.  1.
</event>
<event>
 4    1  0.9957587E-003  0.9118800E+02  0.7818608E-02  0.1130116E+00
         25   -1    0    0    0    0  0.00000000000E+00  0.00000000000E+00  0.99999998245E-14  0.12500000000E+03  0.12500000000E+03 0.  0.
        -13    1    1    0    0    0  0.21859510696E+02 -0.26995856649E+02  0.11384673260E+02  0.36554567886E+02  0.10566000000E+00 0.  1.
         13    1    1    0    0    0  0.58774263199E+01 -0.21858251841E+02  0.14194394466E+02  0.26717397178E+02  0.10566000000E+00 0. -1.
         22    1    1    0    0    0 -0.27736937016E+02  0.48854108489E+02 -0.25579067726E+02  0.61728034936E+02  0.00000000000E+00 0. -1.
</event>
<event>
 4    1  0.9957587E-003  0.9118800E+02  0.7818608E-02  0.1130116E+00
         25   -1    0    0    0    0  0.00000000000E+00  0.00000000000E+00  0.99999998245E-14  0.12500000000E+03  0.12500000000E+03 0.  0.
        -13    1    1    0    0    0 -0.93861709276E+01 -0.67482083690E+01  0.12911726277E+02  0.17330965361E+02  0.10566000000E+00 0. -1.
         13    1    1    0    0    0 -0.25531417773E+02 -0.14317045324E+02  0.34425927056E+02  0.45188346927E+02  0.10566000000E+00 0.  1.
         22    1    1    0    0    0  0.34917588701E+02  0.21065253693E+02 -0.47337653333E+02  0.62480687711E+02  0.00000000000E+00 0.  1.
</event>
<event>
 4    1  0.9957587E-003  0.9118800E+02  0.7818608E-02  0.1130116E+00
         25   -1    0    0    0    0  0.00000000000E+00  0.00000000000E+00  0.99999998245E-14  0.12500000000E+03  0.12500000000E+03 0.  0.
        -13    1    1    0    0    0  0.25715975834E+01  0.11299933831E+02  0.10195493443E+01  0.11634099175E+02  0.10566000000E+00 0.  1.
         13    1    1    0    0    0  0.12191452098E+02  0.49219454602E+02  0.40343533846E+01  0.50867213280E+02  0.10566000000E+00 0. -1.
         22    1    1    0    0    0 -0.14763049682E+02 -0.60519388432E+02 -0.50539027289E+01  0.62498687546E+02  0.00000000000E+00 0. -1.
</event>
<event>
 4    1  0.9957587E-003  0.9118800E+02  0.7818608E-02  0.1130116E+00
         25   -1    0    0    0    0  0.00000000000E+00  0.00000000000E+00  0.99999998245E-14  0.12500000000E+03  0.12500000000E+03 0.  0.
        -13    1    1    0    0    0 -0.52174626773E+02 -0.15601760969E+02  0.20944795821E+02  0.58346398862E+02  0.10566000000E+00 0. -1.
         13    1    1    0    0    0 -0.39767595125E+01  0.45511473032E+01 -0.22263291620E+01  0.64416817345E+01  0.10566000000E+00 0.  1.
         22    1    1    0    0    0  0.56151386285E+02  0.11050613666E+02 -0.18718466659E+02  0.60211919403E+02  0.00000000000E+00 0. -1.
</event>
<event>
 4    1  0.9957587E-003  0.9118800E+02  0.7818608E-02  0.1130116E+00
         25   -1    0    0    0    0  0.00000000000E+00  0.00000000000E+00  0.99999998245E-14  0.12500000000E+03  0.12500000000E+03 0.  0.
        -13    1    1    0    0    0 -0.14770108508E+02  0.85997248644E+01 -0.15180660609E+02  0.22859899248E+02  0.10566000000E+00 0. -1.
         13    1    1    0    0    0 -0.25563648359E+02  0.14562390156E+02 -0.26567122459E+02  0.39640717504E+02  0.10566000000E+00 0.  1.
         22    1    1    0    0    0  0.40333756867E+02 -0.23162115020E+02  0.41747783068E+02  0.62499383247E+02  0.00000000000E+00 0. -1.
</event>
<event>
 4    1  0.9957587E-003  0.9118800E+02  0.7818608E-02  0.1130116E+00
         25   -1    0    0    0    0  0.00000000000E+00  0.00000000000E+00  0.99999998245E-14  0.12500000000E+03  0.12500000000E+03 0.  0.
        -13    1    1    0    0    0 -0.96350396132E+01 -0.10010353042E+02 -0.69222701257E+01  0.15523213073E+02  0.10566000000E+00 0. -1.
         13    1    1    0    0    0 -0.17258796491E+02 -0.43411916623E+02 -0.90176605687E+01  0.47579301460E+02  0.10566000000E+00 0.  1.
         22    1    1    0    0    0  0.26893836105E+02  0.53422269665E+02  0.15939930694E+02  0.61897485467E+02  0.00000000000E+00 0. -1.
</event>
<event>
 4    1  0.9957587E-003  0.9118800E+02  0.7818608E-02  0.1130116E+00
         25   -1    0    0    0    0  0.00000000000E+00  0.00000000000E+00  0.99999998245E-14  0.12500000000E+03  0.12500000000E+03 0.  0.
        -13    1    1    0    0    0 -0.21250321811E+02  0.37064769096E+02  0.22421701866E+02  0.48250566462E+02  0.10566000000E+00 0. -1.
         13    1    1    0    0    0 -0.74035034200E+01  0.13324218377E+02 -0.24491140668E+01  0.15438781753E+02  0.10566000000E+00 0.  1.
         22    1    1    0    0    0  0.28653825231E+02 -0.50388987474E+02 -0.19972587799E+02  0.61310651786E+02  0.00000000000E+00 0. -1.
</event>
<event>
 4    1  0.9957587E-003  0.9118800E+02  0.7818608E-02  0.1130116E+00
         25   -1    0    0    0    0  0.00000000000E+00  0.00000000000E+00  0.99999998245E-14  0.12500000000E+03  0.12500000000E+03 0.  0.
        -13    1    1    0    0    0 -0.16259409842E+02  0.34719052272E+02 -0.32435279186E+01  0.38474831208E+02  0.10566000000E+00 0. -1.
         13    1    1    0    0    0 -0.10390101823E+02  0.21681217268E+02 -0.31263084236E+00  0.24044506653E+02  0.10566000000E+00 0.  1.
         22    1    1    0    0    0  0.26649511665E+02 -0.56400269540E+02  0.35561587610E+01  0.62480662139E+02  0.00000000000E+00 0.  1.
</event>
<event>
 4    1  0.9957587E-003  0.9118800E+02  0.7818608E-02  0.1130116E+00
         25   -1    0    0    0    0  0.00000000000E+00  0.00000000000E+00  0.99999998245E-14  0.12500000000E+03  0.12500000000E+03 0.  0.
        -13    1    1    0    0    0  0.44573483455E+02  0.12045096428E+02  0.19451024837E+02  0.50102228559E+02  0.10566000000E+00 0.  1.
         13    1    1    0    0    0  0.93753427868E+01  0.93072924297E+01 -0.88899748569E+01  0.15923742077E+02  0.10566000000E+00 0. -1.
         22    1    1    0    0    0 -0.53948826242E+02 -0.21352388858E+02 -0.10561049981E+02  0.58974029365E+02  0.00000000000E+00 0.  1.
</event>
<event>
 4    1  0.9957587E-003  0.9118800E+02  0.7818608E-02  0.1130116E+00
         25   -1    0    0    0    0  0.00000000000E+00  0.00000000000E+00  0.99999998245E-14  0.12500000000E+03  0.12500000000E+03 0.  0.
        -13    1    1    0    0    0  0.16682316063E+02 -0.76985502430E+01  0.93794533796E+01  0.20628927622E+02  0.10566000000E+00 0.  1.
         13    1    1    0    0    0  0.34346916003E+02  0.46120819952E+01  0.25028127359E+02  0.42748102442E+02  0.10566000000E+00 0. -1.
         22    1    1    0    0    0 -0.51029232066E+02  0.30864682478E+01 -0.34407580739E+02  0.61622969937E+02  0.00000000000E+00 0. -1.
</event>
<event>
 4    1  0.9957587E-003  0.9118800E+02  0.7818608E-02  0.1130116E+00
         25   -1    0    0    0    0  0.00000000000E+00  0.00000000000E+00  0.99999998245E-14  0.12500000000E+03  0.12500000000E+03 0.  0.
        -13    1    1    0    0    0  0.23370780656E+02 -0.15877510400E+02  0.10106960826E+02  0.30007508163E+02  0.10566000000E+00 0.  1.
         13    1    1    0    0    0  0.26873638880E+02 -0.16211354077E+02  0.85421629646E+01  0.32526607259E+02  0.10566000000E+00 0. -1.
         22    1    1    0    0    0 -0.50244419536E+02  0.32088864477E+02 -0.18649123791E+02  0.62465884578E+02  0.00000000000E+00 0.  1.
</event>
<event>
 4    1  0.9957587E-003  0.9118800E+02  0.7818608E-02  0.1130116E+00
         25   -1    0    0    0    0  0.00000000000E+00  0.00000000000E+00  0.99999998245E-14  0.12500000000E+03  0.12500000000E+03 0.  0.
        -13    1    1    0    0    0  0.17433933384E+02 -0.61401201353E+01  0.92374909027E+01  0.20663627724E+02  0.10566000000E+00 0.  1.
         13    1    1    0    0    0  0.35369174016E+02 -0.12169771942E+02  0.18740820797E+02  0.41836722481E+02  0.10566000000E+00 0.  1.
         22    1    1    0    0    0 -0.52803107400E+02  0.18309892078E+02 -0.27978311700E+02  0.62499649796E+02  0.00000000000E+00 0.  1.
</event>
<event>
 4    1  0.9957587E-003  0.9118800E+02  0.7818608E-02  0.1130116E+00
         25   -1    0    0    0    0  0.00000000000E+00  0.00000000000E+00  0.99999998245E-14  0.12500000000E+03  0.12500000000E+03 0.  0.
        -13    1    1    0    0    0  0.18024941187E+01  0.12978892581E+02 -0.19225857084E+02  0.23266830088E+02  0.10566000000E+00 0.  1.
         13    1    1    0    0    0  0.15368862903E+02  0.20376236037E+02 -0.30290763943E+02  0.39609777660E+02  0.10566000000E+00 0. -1.
         22    1    1    0    0    0 -0.17171357022E+02 -0.33355128618E+02  0.49516621027E+02  0.62123392253E+02  0.00000000000E+00 0. -1.
</event>
<event>
 4    1  0.9957587E-003  0.9118800E+02  0.7818608E-02  0.1130116E+00
         25   -1    0    0    0    0  0.00000000000E+00  0.00000000000E+00  0.99999998245E-14  0.12500000000E+03  0.12500000000E+03 0.  0.
        -13    1    1    0    0    0  0.24316757153E+02  0.11031168754E+02  0.12659340204E+02  0.29550996954E+02  0.10566000000E+00 0.  1.
         13    1    1    0    0    0  0.27058483095E+02  0.12433700197E+02  0.14102624640E+02  0.32949257864E+02  0.10566000000E+00 0.  1.
         22    1    1    0    0    0 -0.51375240249E+02 -0.23464868951E+02 -0.26761964844E+02  0.62499745182E+02  0.00000000000E+00 0.  1.
</event>
<event>
 4    1  0.9957587E-003  0.9118800E+02  0.7818608E-02  0.1130116E+00
         25   -1    0    0    0    0  0.00000000000E+00  0.00000000000E+00  0.99999998245E-14  0.12500000000E+03  0.12500000000E+03 0.  0.
        -13    1    1    0    0    0 -0.11684555609E+02  0.18409899029E+02 -0.10319502787E+02  0.24123775074E+02  0.10566000000E+00 0. -1.
         13    1    1    0    0    0 -0.31330452124E+02  0.18289795727E+02 -0.14573008328E+02  0.39096004831E+02  0.10566000000E+00 0.  1.
         22    1    1    0    0    0  0.43015007732E+02 -0.36699694756E+02  0.24892511114E+02  0.61780220095E+02  0.00000000000E+00 0.  1.
</event>
<event>
 4    1  0.9957587E-003  0.9118800E+02  0.7818608E-02  0.1130116E+00
         25   -1    0    0    0    0  0.00000000000E+00  0.00000000000E+00  0.99999998245E-14  0.12500000000E+03  0.12500000000E+03 0.  0.
        -13    1    1    0    0    0  0.14237715748E+01  0.26958269309E+01  0.19296066076E+01  0.36095919484E+01  0.10566000000E+00 0.  1.
         13    1    1    0    0    0  0.24008781336E+02  0.47748582745E+02  0.24769842595E+02  0.58905899549E+02  0.10566000000E+00 0. -1.
         22    1    1    0    0    0 -0.25432552911E+02 -0.50444409676E+02 -0.26699449203E+02  0.62484508503E+02  0.00000000000E+00 0. -1.
</event>
<event>
 4    1  0.9957587E-003  0.9118800E+02  0.7818608E-02  0.1130116E+00
         25   -1    0    0    0    0  0.00000000000E+00  0.00000000000E+00  0.99999998245E-14  0.12500000000E+03  0.12500000000E+03 0.  0.
        -13    1    1    0    0    0  0.24565666077E+01 -0.14411639768E+02  0.25519486236E+00  0.14622119161E+02  0.10566000000E+00 0.  1.
         13    1    1    0    0    0  0.10992551858E+01 -0.45517020700E+02 -0.16091340545E+02  0.48290267549E+02  0.10566000000E+00 0. -1.
         22    1    1    0    0    0 -0.35558217934E+01  0.59928660467E+02  0.15836145683E+02  0.62087613291E+02  0.00000000000E+00 0. -1.
</event>
<event>
 4    1  0.9957587E-003  0.9118800E+02  0.7818608E-02  0.1130116E+00
         25   -1    0    0    0    0  0.00000000000E+00  0.00000000000E+00  0.99999998245E-14  0.12500000000E+03  0.12500000000E+03 0.  0.
        -13    1    1    0    0    0 -0.20233922345E+02  0.25493308547E+02 -0.83168060105E+01  0.33593166275E+02  0.10566000000E+00 0. -1.
         13    1    1    0    0    0  0.50821893142E+02 -0.25213905367E+01  0.13897877034E+02  0.52748311659E+02  0.10566000000E+00 0.  1.
         22    1    1    0    0    0 -0.30587970797E+02 -0.22971918010E+02 -0.55810710233E+01  0.38658522066E+02  0.00000000000E+00 0.  1.
</event>
<event>
 4    1  0.9957587E-003  0.9118800E+02  0.7818608E-02  0.1130116E+00
         25   -1    0    0    0    0  0.00000000000E+00  0.00000000000E+00  0.99999998245E-14  0.12500000000E+03  0.12500000000E+03 0.  0.
        -13    1    1    0    0    0  0.44669187112E+01 -0.52788758803E+01  0.17963351228E+02  0.19248715404E+02  0.10566000000E+00 0.  1.
         13    1    1    0    0    0  0.10082067114E+02 -0.14722802200E+01  0.42238144900E+02  0.43449830092E+02  0.10566000000E+00 0. -1.
         22    1    1    0    0    0 -0.14548985825E+02  0.67511561003E+01 -0.60201496128E+02  0.62301454504E+02  0.00000000000E+00 0. -1.
</event>
<event>
 4    1  0.9957587E-003  0.9118800E+02  0.7818608E-02  0.1130116E+00
         25   -1    0    0    0    0  0.00000000000E+00  0.00000000000E+00  0.99999998245E-14  0.12500000000E+03  0.12500000000E+03 0.  0.
        -13    1    1    0    0    0 -0.73043260866E+01 -0.21531046667E+00 -0.39680779916E+01  0.83160294107E+01  0.10566000000E+00 0. -1.
         13    1    1    0    0    0 -0.40488714429E+02 -0.46092888847E+01 -0.35861741801E+02  0.54283121033E+02  0.10566000000E+00 0.  1.
         22    1    1    0    0    0  0.47793040515E+02  0.48245993514E+01  0.39829819792E+02  0.62400849556E+02  0.00000000000E+00 0.  1.
</event>
<event>
 4    1  0.9957587E-003  0.9118800E+02  0.7818608E-02  0.1130116E+00
         25   -1    0    0    0    0  0.00000000000E+00  0.00000000000E+00  0.99999998245E-14  0.12500000000E+03  0.12500000000E+03 0.  0.
        -13    1    1    0    0    0 -0.32189542752E+02 -0.36627908038E+02 -0.50270379911E+01  0.49020940268E+02  0.10566000000E+00 0.  1.
         13    1    1    0    0    0 -0.11462358377E+02  0.13715682709E+02 -0.14436130254E+02  0.22976479985E+02  0.10566000000E+00 0. -1.
         22    1    1    0    0    0  0.43651901129E+02  0.22912225329E+02  0.19463168245E+02  0.53002579747E+02  0.00000000000E+00 0.  1.
</event>
<event>
 4    1  0.9957587E-003  0.9118800E+02  0.7818608E-02  0.1130116E+00
         25   -1    0    0    0    0  0.00000000000E+00  0.00000000000E+00  0.99999998245E-14  0.12500000000E+03  0.12500000000E+03 0.  0.
        -13    1    1    0    0    0  0.10112132344E+02  0.55153465807E+02  0.20000199806E+02  0.59533009057E+02  0.10566000000E+00 0. -1.
         13    1    1    0    0    0  0.47331480837E+00 -0.18843094338E+01  0.52312854451E+01  0.55814120430E+01  0.10566000000E+00 0.  1.
         22    1    1    0    0    0 -0.10585447153E+02 -0.53269156374E+02 -0.25231485251E+02  0.59885578900E+02  0.00000000000E+00 0. -1.
</event>
<event>
 4    1  0.9957587E-003  0.9118800E+02  0.7818608E-02  0.1130116E+00
         25   -1    0    0    0    0  0.00000000000E+00  0.00000000000E+00  0.99999998245E-14  0.12500000000E+03  0.12500000000E+03 0.  0.
        -13    1    1    0    0    0  0.49793717784E+02 -0.23859528688E+02  0.12297760505E+02  0.56567990219E+02  0.10566000000E+00 0. -1.
         13    1    1    0    0    0  0.57043895681E+01 -0.19548910850E+01 -0.16606779762E+00  0.60332745709E+01  0.10566000000E+00 0.  1.
         22    1    1    0    0    0 -0.55498107352E+02  0.25814419773E+02 -0.12131692708E+02  0.62398735210E+02  0.00000000000E+00 0. -1.
</event>
<event>
 4    1  0.9957587E-003  0.9118800E+02  0.7818608E-02  0.1130116E+00
         25   -1    0    0    0    0  0.00000000000E+00  0.00000000000E+00  0.99999998245E-14  0.12500000000E+03  0.12500000000E+03 0.  0.
        -13    1    1    0    0    0  0.23082460471E+02 -0.30258032045E+02 -0.30820734075E+02  0.48972209441E+02  0.10566000000E+00 0. -1.
         13    1    1    0    0    0  0.10266424418E+02 -0.20562200257E+01 -0.97927211619E+01  0.14336528970E+02  0.10566000000E+00 0.  1.
         22    1    1    0    0    0 -0.33348884888E+02  0.32314252070E+02  0.40613455237E+02  0.61691261589E+02  0.00000000000E+00 0. -1.
</event>
<event>
 4    1  0.9957587E-003  0.9118800E+02  0.7818608E-02  0.1130116E+00
         25   -1    0    0    0    0  0.00000000000E+00  0.00000000000E+00  0.99999998245E-14  0.12500000000E+03  0.12500000000E+03 0.  0.
        -13    1    1    0    0    0 -0.28985348847E+02 -0.27284755862E+02  0.45850001976E+02  0.60719372489E+02  0.10566000000E+00 0.  1.
         13    1    1    0    0    0 -0.13637938229E+01 -0.10923678928E+01  0.69958611223E+00  0.18851487922E+01  0.10566000000E+00 0. -1.
         22    1    1    0    0    0  0.30349142670E+02  0.28377123755E+02 -0.46549588088E+02  0.62395478719E+02  0.00000000000E+00 0.  1.
</event>
<event>
 4    1  0.9957587E-003  0.9118800E+02  0.7818608E-02  0.1130116E+00
         25   -1    0    0    0    0  0.00000000000E+00  0.00000000000E+00  0.99999998245E-14  0.12500000000E+03  0.12500000000E+03 0.  0.
        -13    1    1    0    0    0 -0.24063931918E+01  0.46705960619E+02  0.63060184203E+01  0.47191254676E+02  0.10566000000E+00 0.  1.
         13    1    1    0    0    0 -0.35549350933E+01  0.14728162522E+02  0.28302233589E+01  0.15413554524E+02  0.10566000000E+00 0. -1.
         22    1    1    0    0    0  0.59613282852E+01 -0.61434123141E+02 -0.91362417792E+01  0.62395190799E+02  0.00000000000E+00 0.  1.
</event>
<event>
 4    1  0.9957587E-003  0.9118800E+02  0.7818608E-02  0.1130116E+00
         25   -1    0    0    0    0  0.00000000000E+00  0.00000000000E+00  0.99999998245E-14  0.12500000000E+03  0.12500000000E+03 0.  0.
        -13    1    1    0    0    0 -0.22977086613E+01 -0.43120669295E+02  0.11230130192E+02  0.44618365879E+02  0.10566000000E+00 0.  1.
         13    1    1    0    0    0 -0.49555757637E+01 -0.16910747677E+02  0.39018186569E+01  0.18049001940E+02  0.10566000000E+00 0. -1.
         22    1    1    0    0    0  0.72532844251E+01  0.60031416972E+02 -0.15131948849E+02  0.62332632181E+02  0.00000000000E+00 0.  1.
</event>
<event>
 4    1  0.9957587E-003  0.9118800E+02  0.7818608E-02  0.1130116E+00
         25   -1    0    0    0    0  0.00000000000E+00  0.00000000000E+00  0.99999998245E-14  0.12500000000E+03  0.12500000000E+03 0.  0.
        -13    1    1    0    0    0  0.49152426768E+02 -0.13846323841E+02  0.61078556062E+01  0.51429551867E+02  0.10566000000E+00 0. -1.
         13    1    1    0    0    0  0.91382849236E+01 -0.67192479513E+01 -0.27240504176E+01  0.11665682967E+02  0.10566000000E+00 0.  1.
         22    1    1    0    0    0 -0.58290711692E+02  0.20565571792E+02 -0.33838051886E+01  0.61904765166E+02  0.00000000000E+00 0. -1.
</event>
<event>
 4    1  0.9957587E-003  0.9118800E+02  0.7818608E-02  0.1130116E+00
         25   -1    0    0    0    0  0.00000000000E+00  0.00000000000E+00  0.99999998245E-14  0.12500000000E+03  0.12500000000E+03 0.  0.
        -13    1    1    0    0    0  0.21155596853E+02 -0.19268130871E+02 -0.51379096091E+02  0.58810227212E+02  0.10566000000E+00 0.  1.
         13    1    1    0    0    0 -0.15975082029E+02  0.26771405438E+02  0.31498157885E+02  0.44317677164E+02  0.10566000000E+00 0. -1.
         22    1    1    0    0    0 -0.51805148241E+01 -0.75032745667E+01  0.19880938206E+02  0.21872095625E+02  0.00000000000E+00 0.  1.
</event>
<event>
 4    1  0.9957587E-003  0.9118800E+02  0.7818608E-02  0.1130116E+00
         25   -1    0    0    0    0  0.00000000000E+00  0.00000000000E+00  0.99999998245E-14  0.12500000000E+03  0.12500000000E+03 0.  0.
        -13    1    1    0    0    0 -0.42955485854E+02 -0.13375265141E+02  0.29094575674E+02  0.53577765727E+02  0.10566000000E+00 0.  1.
         13    1    1    0    0    0 -0.72683656774E+01 -0.25044956786E+01  0.45364529748E+01  0.89270492243E+01  0.10566000000E+00 0. -1.
         22    1    1    0    0    0  0.50223851532E+02  0.15879760820E+02 -0.33631028649E+02  0.62495185049E+02  0.00000000000E+00 0.  1.
</event>
<event>
 4    1  0.9957587E-003  0.9118800E+02  0.7818608E-02  0.1130116E+00
         25   -1    0    0    0    0  0.00000000000E+00  0.00000000000E+00  0.99999998245E-14  0.12500000000E+03  0.12500000000E+03 0.  0.
        -13    1    1    0    0    0 -0.84774108577E+01  0.36993767438E+02  0.24508187458E+02  0.45178177704E+02  0.10566000000E+00 0. -1.
         13    1    1    0    0    0 -0.33849233612E+01  0.14126422868E+02  0.94359340060E+01  0.17322284602E+02  0.10566000000E+00 0.  1.
         22    1    1    0    0    0  0.11862334219E+02 -0.51120190307E+02 -0.33944121464E+02  0.62499537695E+02  0.00000000000E+00 0. -1.
</event>
<event>
 4    1  0.9957587E-003  0.9118800E+02  0.7818608E-02  0.1130116E+00
         25   -1    0    0    0    0  0.00000000000E+00  0.00000000000E+00  0.99999998245E-14  0.12500000000E+03  0.12500000000E+03 0.  0.
        -13    1    1    0    0    0 -0.13854530338E+02  0.31665564463E+00  0.22646452451E+00  0.13860401578E+02  0.10566000000E+00 0. -1.
         13    1    1    0    0    0 -0.48458001301E+02  0.25299551991E+01  0.35052535102E+01  0.48650555286E+02  0.10566000000E+00 0.  1.
         22    1    1    0    0    0  0.62312531639E+02 -0.28466108437E+01 -0.37317180347E+01  0.62489043136E+02  0.00000000000E+00 0.  1.
</event>
<event>
 4    1  0.9957587E-003  0.9118800E+02  0.7818608E-02  0.1130116E+00
         25   -1    0    0    0    0  0.00000000000E+00  0.00000000000E+00  0.99999998245E-14  0.12500000000E+03  0.12500000000E+03 0.  0.
        -13    1    1    0    0    0 -0.50812360459E+02  0.10067500922E+02  0.25743414561E+02  0.57844490727E+02  0.10566000000E+00 0. -1.
         13    1    1    0    0    0 -0.24837615813E+01  0.28106134973E+01  0.33982163538E+01  0.50623767389E+01  0.10566000000E+00 0.  1.
         22    1    1    0    0    0  0.53296122040E+02 -0.12878114419E+02 -0.29141630915E+02  0.62093132534E+02  0.00000000000E+00 0. -1.
</event>
<event>
 4    1  0.9957587E-003  0.9118800E+02  0.7818608E-02  0.1130116E+00
         25   -1    0    0    0    0  0.00000000000E+00  0.00000000000E+00  0.99999998245E-14  0.12500000000E+03  0.12500000000E+03 0.  0.
        -13    1    1    0    0    0  0.24812030498E+01  0.56749821526E+01 -0.16191551342E+01  0.64027039906E+01  0.10566000000E+00 0.  1.
         13    1    1    0    0    0  0.21021545666E+02  0.47414621942E+02 -0.21445205092E+02  0.56124502149E+02  0.10566000000E+00 0. -1.
         22    1    1    0    0    0 -0.23502748715E+02 -0.53089604094E+02  0.23064360226E+02  0.62472793860E+02  0.00000000000E+00 0. -1.
</event>
<event>
 4    1  0.9957587E-003  0.9118800E+02  0.7818608E-02  0.1130116E+00
         25   -1    0    0    0    0  0.00000000000E+00  0.00000000000E+00  0.99999998245E-14  0.12500000000E+03  0.12500000000E+03 0.  0.
        -13    1    1    0    0    0  0.28556998281E+02 -0.19734174678E+02 -0.28678383138E+02  0.45026665705E+02  0.10566000000E+00 0. -1.
         13    1    1    0    0    0  0.11176477736E+02 -0.74633910883E+01 -0.11167611613E+02  0.17474054318E+02  0.10566000000E+00 0. -1.
         22    1    1    0    0    0 -0.39733476017E+02  0.27197565766E+02  0.39845994751E+02  0.62499279978E+02  0.00000000000E+00 0. -1.
</event>
<event>
 4    1  0.9957587E-003  0.9118800E+02  0.7818608E-02  0.1130116E+00
         25   -1    0    0    0    0  0.00000000000E+00  0.00000000000E+00  0.99999998245E-14  0.12500000000E+03  0.12500000000E+03 0.  0.
        -13    1    1    0    0    0  0.26843928655E+01  0.82997630750E+00  0.50523196294E+01  0.57820345381E+01  0.10566000000E+00 0.  1.
         13    1    1    0    0    0  0.23122793990E+02  0.10864586078E+02  0.50647291429E+02  0.56726203166E+02  0.10566000000E+00 0. -1.
         22    1    1    0    0    0 -0.25807186856E+02 -0.11694562385E+02 -0.55699611058E+02  0.62491762296E+02  0.00000000000E+00 0. -1.
</event>
<event>
 4    1  0.9957587E-003  0.9118800E+02  0.7818608E-02  0.1130116E+00
         25   -1    0    0    0    0  0.00000000000E+00  0.00000000000E+00  0.99999998245E-14  0.12500000000E+03  0.12500000000E+03 0.  0.
        -13    1    1    0    0    0  0.19900799286E+02 -0.34167155030E+02 -0.38185540012E+02  0.54968926905E+02  0.10566000000E+00 0. -1.
         13    1    1    0    0    0  0.17993399663E+01  0.92752923166E+00 -0.85069944072E+01  0.87451731069E+01  0.10566000000E+00 0.  1.
         22    1    1    0    0    0 -0.21700139253E+02  0.33239625798E+02  0.46692534419E+02  0.61285899988E+02  0.00000000000E+00 0. -1.
</event>
<event>
 4    1  0.9957587E-003  0.9118800E+02  0.7818608E-02  0.1130116E+00
         25   -1    0    0    0    0  0.00000000000E+00  0.00000000000E+00  0.99999998245E-14  0.12500000000E+03  0.12500000000E+03 0.  0.
        -13    1    1    0    0    0  0.17275332266E+02 -0.27777401569E+02 -0.20036481609E+02  0.38360043041E+02  0.10566000000E+00 0.  1.
         13    1    1    0    0    0  0.10751948169E+02 -0.17660266619E+02 -0.12460622473E+02  0.24140581661E+02  0.10566000000E+00 0. -1.
         22    1    1    0    0    0 -0.28027280434E+02  0.45437668188E+02  0.32497104082E+02  0.62499375298E+02  0.00000000000E+00 0. -1.
</event>
<event>
 4    1  0.9957587E-003  0.9118800E+02  0.7818608E-02  0.1130116E+00
         25   -1    0    0    0    0  0.00000000000E+00  0.00000000000E+00  0.99999998245E-14  0.12500000000E+03  0.12500000000E+03 0.  0.
        -13    1    1    0    0    0  0.73043748350E+01 -0.42908115694E+02  0.27226441980E+01  0.43610597790E+02  0.10566000000E+00 0.  1.
         13    1    1    0    0    0  0.23269501040E+02 -0.13363803887E+01  0.11165827499E+02  0.25844582778E+02  0.10566000000E+00 0. -1.
         22    1    1    0    0    0 -0.30573875875E+02  0.44244496083E+02 -0.13888471697E+02  0.55544819432E+02  0.00000000000E+00 0.  1.
</event>
<event>
 4    1  0.9957587E-003  0.9118800E+02  0.7818608E-02  0.1130116E+00
         25   -1    0    0    0    0  0.00000000000E+00  0.00000000000E+00  0.99999998245E-14  0.12500000000E+03  0.12500000000E+03 0.  0.
        -13    1    1    0    0    0 -0.32434502075E+01 -0.37285454869E+01 -0.24275902100E+00  0.49489510681E+01  0.10566000000E+00 0. -1.
         13    1    1    0    0    0 -0.13301488677E+02 -0.56238023353E+02 -0.16810072639E+01  0.57814200861E+02  0.10566000000E+00 0.  1.
         22    1    1    0    0    0  0.16544938884E+02  0.59966568840E+02  0.19237662849E+01  0.62236848071E+02  0.00000000000E+00 0.  1.
</event>
<event>
 4    1  0.9957587E-003  0.9118800E+02  0.7818608E-02  0.1130116E+00
         25   -1    0    0    0    0  0.00000000000E+00  0.00000000000E+00  0.99999998245E-14  0.12500000000E+03  0.12500000000E+03 0.  0.
        -13    1    1    0    0    0  0.19720255701E+00  0.17999379630E+02 -0.51059950911E+02  0.54140061941E+02  0.10566000000E+00 0.  1.
         13    1    1    0    0    0  0.99407704342E+00  0.64399257516E+01 -0.59476896187E+01  0.88230951877E+01  0.10566000000E+00 0. -1.
         22    1    1    0    0    0 -0.11912796004E+01 -0.24439305382E+02  0.57007640530E+02  0.62036842871E+02  0.00000000000E+00 0.  1.
</event>
<event>
 4    1  0.9957587E-003  0.9118800E+02  0.7818608E-02  0.1130116E+00
         25   -1    0    0    0    0  0.00000000000E+00  0.00000000000E+00  0.99999998245E-14  0.12500000000E+03  0.12500000000E+03 0.  0.
        -13    1    1    0    0    0 -0.20074796065E+02  0.10267047362E+02  0.44818758585E+02  0.50171126993E+02  0.10566000000E+00 0.  1.
         13    1    1    0    0    0 -0.45572298861E+01  0.36528649444E+01  0.10883993453E+02  0.12352499507E+02  0.10566000000E+00 0. -1.
         22    1    1    0    0    0  0.24632025951E+02 -0.13919912306E+02 -0.55702752039E+02  0.62476373500E+02  0.00000000000E+00 0.  1.
</event>
<event>
 4    1  0.9957587E-003  0.9118800E+02  0.7818608E-02  0.1130116E+00
         25   -1    0    0    0    0  0.00000000000E+00  0.00000000000E+00  0.99999998245E-14  0.12500000000E+03  0.12500000000E+03 0.  0.
        -13    1    1    0    0    0  0.12241966255E+02 -0.27654213632E+02  0.12841145342E+02  0.32856163001E+02  0.10566000000E+00 0. -1.
         13    1    1    0    0    0  0.15168849239E+02 -0.22535223489E+02  0.12120745328E+02  0.29746494184E+02  0.10566000000E+00 0.  1.
         22    1    1    0    0    0 -0.27410815495E+02  0.50189437120E+02 -0.24961890670E+02  0.62397342815E+02  0.00000000000E+00 0.  1.
</event>
<event>
 4    1  0.9957587E-003  0.9118800E+02  0.7818608E-02  0.1130116E+00
         25   -1    0    0    0    0  0.00000000000E+00  0.00000000000E+00  0.99999998245E-14  0.12500000000E+03  0.12500000000E+03 0.  0.
        -13    1    1    0    0    0  0.43489938775E+02  0.92524910095E+01 -0.16174448002E+02  0.47313922864E+02  0.10566000000E+00 0. -1.
         13    1    1    0    0    0  0.14389144397E+02  0.31349525014E+01 -0.38128687248E+01  0.15212643939E+02  0.10566000000E+00 0.  1.
         22    1    1    0    0    0 -0.57879083172E+02 -0.12387443511E+02  0.19987316727E+02  0.62473433198E+02  0.00000000000E+00 0. -1.
</event>
<event>
 4    1  0.9957587E-003  0.9118800E+02  0.7818608E-02  0.1130116E+00
         25   -1    0    0    0    0  0.00000000000E+00  0.00000000000E+00  0.99999998245E-14  0.12500000000E+03  0.12500000000E+03 0.  0.
        -13    1    1    0    0    0  0.13114140061E+02 -0.21041480751E+02  0.45184676989E+02  0.51540186073E+02  0.10566000000E+00 0. -1.
         13    1    1    0    0    0 -0.39123194040E+01  0.46299115528E+00  0.11660334576E+02  0.12308337434E+02  0.10566000000E+00 0.  1.
         22    1    1    0    0    0 -0.92018206567E+01  0.20578489596E+02 -0.56845011565E+02  0.61151476493E+02  0.00000000000E+00 0. -1.
</event>
<event>
 4    1  0.9957587E-003  0.9118800E+02  0.7818608E-02  0.1130116E+00
         25   -1    0    0    0    0  0.00000000000E+00  0.00000000000E+00  0.99999998245E-14  0.12500000000E+03  0.12500000000E+03 0.  0.
        -13    1    1    0    0    0 -0.26810591247E+02 -0.55099576930E+01  0.40923138248E+02  0.49232934555E+02  0.10566000000E+00 0.  1.
         13    1    1    0    0    0 -0.84167481549E+01 -0.36841996274E-01  0.10331806305E+02  0.13326679721E+02  0.10566000000E+00 0. -1.
         22    1    1    0    0    0  0.35227339402E+02  0.55467996892E+01 -0.51254944553E+02  0.62440385723E+02  0.00000000000E+00 0.  1.
</event>
<event>
 4    1  0.9957587E-003  0.9118800E+02  0.7818608E-02  0.1130116E+00
         25   -1    0    0    0    0  0.00000000000E+00  0.00000000000E+00  0.99999998245E-14  0.12500000000E+03  0.12500000000E+03 0.  0.
        -13    1    1    0    0    0  0.15410951268E+01  0.10706444212E+00  0.18334508314E+01  0.23998214457E+01  0.10566000000E+00 0.  1.
         13    1    1    0    0    0  0.34315019546E+02  0.43482022718E+01  0.49156330173E+02  0.60106433845E+02  0.10566000000E+00 0. -1.
         22    1    1    0    0    0 -0.35856114673E+02 -0.44552667139E+01 -0.50989781005E+02  0.62493744709E+02  0.00000000000E+00 0. -1.
</event>
