<event>
 5    1  0.1245581E-004  0.9118800E+02  0.7818608E-02  0.1130116E+00
         25   -1    0    0    0    0  0.00000000000E+00  0.00000000000E+00  0.99999998245E-14  0.12500000000E+03  0.12500000000E+03 0.  0.
        -13    1    3    3    0    0 -0.43904801962E+02  0.18942965026E+02  0.33083975739E+02  0.58146609308E+02  0.10566000000E+00 0. -1.
         23    2    1    0    0    0 -0.28605891024E+02  0.58562306232E+01  0.12981711131E+01  0.95771970874E+02  0.91203030204E+02 0.  0.
         13    1    3    3    0    0  0.15298910938E+02 -0.13086734403E+02 -0.31785804626E+02  0.37625361566E+02  0.10566000000E+00 0.  1.
         22    1    1    0    0    0  0.28605891024E+02 -0.58562306232E+01 -0.12981711131E+01  0.29228029126E+02  0.00000000000E+00 0. -1.
</event>
<event>
 5    1  0.1245581E-004  0.9118800E+02  0.7818608E-02  0.1130116E+00
         25   -1    0    0    0    0  0.00000000000E+00  0.00000000000E+00  0.99999998245E-14  0.12500000000E+03  0.12500000000E+03 0.  0.
        -13    1    3    3    0    0 -0.14361001181E+02 -0.43152991583E+02  0.40509392715E+02  0.60905181222E+02  0.10566000000E+00 0.  1.
         23    2    1    0    0    0 -0.12294303370E+02 -0.12214027909E+02  0.21913696542E+02  0.97061809843E+02  0.92954034129E+02 0.  0.
         13    1    3    3    0    0  0.20666978116E+01  0.30938963674E+02 -0.18595696173E+02  0.36156628621E+02  0.10566000000E+00 0. -1.
         22    1    1    0    0    0  0.12294303370E+02  0.12214027909E+02 -0.21913696542E+02  0.27938190157E+02  0.00000000000E+00 0.  1.
</event>
<event>
 5    1  0.1245581E-004  0.9118800E+02  0.7818608E-02  0.1130116E+00
         25   -1    0    0    0    0  0.00000000000E+00  0.00000000000E+00  0.99999998245E-14  0.12500000000E+03  0.12500000000E+03 0.  0.
        -13    1    3    3    0    0  0.13560331768E+02  0.21071076378E+02  0.25366750410E+02  0.35656080095E+02  0.10566000000E+00 0.  1.
         23    2    1    0    0    0 -0.25842097129E+02 -0.13400663000E+02 -0.38926798949E+01  0.95630888511E+02  0.91009461749E+02 0.  0.
         13    1    3    3    0    0 -0.39402428897E+02 -0.34471739378E+02 -0.29259430305E+02  0.59974808416E+02  0.10566000000E+00 0. -1.
         22    1    1    0    0    0  0.25842097129E+02  0.13400663000E+02  0.38926798949E+01  0.29369111489E+02  0.00000000000E+00 0. -1.
</event>
<event>
 5    1  0.1245581E-004  0.9118800E+02  0.7818608E-02  0.1130116E+00
         25   -1    0    0    0    0  0.00000000000E+00  0.00000000000E+00  0.99999998245E-14  0.12500000000E+03  0.12500000000E+03 0.  0.
        -13    1    3    3    0    0 -0.35115798386E+02 -0.40200687871E+01 -0.11436108052E+02  0.37149373894E+02  0.10566000000E+00 0.  1.
         23    2    1    0    0    0  0.50144828123E+01  0.28302636535E+02 -0.20797518201E+02  0.89521541239E+02  0.82191151043E+02 0.  0.
         13    1    3    3    0    0  0.40130281198E+02  0.32322705322E+02 -0.93614101489E+01  0.52372167345E+02  0.10566000000E+00 0. -1.
         22    1    1    0    0    0 -0.50144828123E+01 -0.28302636535E+02  0.20797518201E+02  0.35478458761E+02  0.00000000000E+00 0. -1.
</event>
<event>
 5    1  0.1245581E-004  0.9118800E+02  0.7818608E-02  0.1130116E+00
         25   -1    0    0    0    0  0.00000000000E+00  0.00000000000E+00  0.99999998245E-14  0.12500000000E+03  0.12500000000E+03 0.  0.
        -13    1    3    3    0    0 -0.49190372430E+02  0.30065456780E+02  0.12536763700E+02  0.58998356242E+02  0.10566000000E+00 0. -1.
         23    2    1    0    0    0 -0.15306617330E+02  0.16608328771E+02  0.18327129817E+02  0.95913700717E+02  0.91397074238E+02 0.  0.
         13    1    3    3    0    0  0.33883755099E+02 -0.13457128009E+02  0.57903661167E+01  0.36915344475E+02  0.10566000000E+00 0.  1.
         22    1    1    0    0    0  0.15306617330E+02 -0.16608328771E+02 -0.18327129817E+02  0.29086299283E+02  0.00000000000E+00 0. -1.
</event>
<event>
 5    1  0.1245581E-004  0.9118800E+02  0.7818608E-02  0.1130116E+00
         25   -1    0    0    0    0  0.00000000000E+00  0.00000000000E+00  0.99999998245E-14  0.12500000000E+03  0.12500000000E+03 0.  0.
        -13    1    3    3    0    0  0.39123863629E+02  0.25012244266E+02 -0.24518957384E+02  0.52511708254E+02  0.10566000000E+00 0.  1.
         23    2    1    0    0    0  0.82126355382E+01  0.23165218628E+02  0.96232459261E+01  0.98605273278E+02  0.95006938271E+02 0.  0.
         13    1    3    3    0    0 -0.30911228090E+02 -0.18470256383E+01  0.34142203310E+02  0.46093565025E+02  0.10566000000E+00 0. -1.
         22    1    1    0    0    0 -0.82126355382E+01 -0.23165218628E+02 -0.96232459261E+01  0.26394726722E+02  0.00000000000E+00 0. -1.
</event>
<event>
 5    1  0.1245581E-004  0.9118800E+02  0.7818608E-02  0.1130116E+00
         25   -1    0    0    0    0  0.00000000000E+00  0.00000000000E+00  0.99999998245E-14  0.12500000000E+03  0.12500000000E+03 0.  0.
        -13    1    3    3    0    0  0.34171875625E+02  0.21172030682E+02 -0.33294523455E+02  0.52196823879E+02  0.10566000000E+00 0.  1.
         23    2    1    0    0    0 -0.67989476628E+01  0.71991846303E+01 -0.27376623236E+02  0.95887572267E+02  0.91361332449E+02 0.  0.
         13    1    3    3    0    0 -0.40970823288E+02 -0.13972846052E+02  0.59179002183E+01  0.43690748388E+02  0.10566000000E+00 0. -1.
         22    1    1    0    0    0  0.67989476628E+01 -0.71991846303E+01  0.27376623236E+02  0.29112427733E+02  0.00000000000E+00 0.  1.
</event>
<event>
 5    1  0.1245581E-004  0.9118800E+02  0.7818608E-02  0.1130116E+00
         25   -1    0    0    0    0  0.00000000000E+00  0.00000000000E+00  0.99999998245E-14  0.12500000000E+03  0.12500000000E+03 0.  0.
        -13    1    3    3    0    0 -0.21309123517E+02 -0.27505339755E+02 -0.69522254852E+01  0.35481925868E+02  0.10566000000E+00 0.  1.
         23    2    1    0    0    0 -0.81212426946E+01  0.28719106909E+02  0.57326598915E+01  0.94609128443E+02  0.89595100931E+02 0.  0.
         13    1    3    3    0    0  0.13187880822E+02  0.56224446664E+02  0.12684885377E+02  0.59127202575E+02  0.10566000000E+00 0. -1.
         22    1    1    0    0    0  0.81212426946E+01 -0.28719106909E+02 -0.57326598915E+01  0.30390871557E+02  0.00000000000E+00 0. -1.
</event>
<event>
 5    1  0.1245581E-004  0.9118800E+02  0.7818608E-02  0.1130116E+00
         25   -1    0    0    0    0  0.00000000000E+00  0.00000000000E+00  0.99999998245E-14  0.12500000000E+03  0.12500000000E+03 0.  0.
        -13    1    3    3    0    0 -0.15417600662E+02  0.31867656007E+02  0.40418870861E+01  0.35631417665E+02  0.10566000000E+00 0.  1.
         23    2    1    0    0    0  0.14872165417E+02 -0.10341503579E+02 -0.24205553502E+02  0.94766958128E+02  0.89815029545E+02 0.  0.
         13    1    3    3    0    0  0.30289766080E+02 -0.42209159586E+02 -0.28247440588E+02  0.59135540464E+02  0.10566000000E+00 0. -1.
         22    1    1    0    0    0 -0.14872165417E+02  0.10341503579E+02  0.24205553502E+02  0.30233041872E+02  0.00000000000E+00 0. -1.
</event>
<event>
 5    1  0.1245581E-004  0.9118800E+02  0.7818608E-02  0.1130116E+00
         25   -1    0    0    0    0  0.00000000000E+00  0.00000000000E+00  0.99999998245E-14  0.12500000000E+03  0.12500000000E+03 0.  0.
        -13    1    3    3    0    0  0.20376673659E+02 -0.26026914054E+02  0.34634171270E+02  0.47876362312E+02  0.10566000000E+00 0.  1.
         23    2    1    0    0    0 -0.16174058020E+02  0.31960510733E+01  0.24027252593E+02  0.95860271750E+02  0.91323972414E+02 0.  0.
         13    1    3    3    0    0 -0.36550731679E+02  0.29222965128E+02 -0.10606918677E+02  0.47983909438E+02  0.10566000000E+00 0. -1.
         22    1    1    0    0    0  0.16174058020E+02 -0.31960510733E+01 -0.24027252593E+02  0.29139728250E+02  0.00000000000E+00 0. -1.
</event>
<event>
 5    1  0.1245581E-004  0.9118800E+02  0.7818608E-02  0.1130116E+00
         25   -1    0    0    0    0  0.00000000000E+00  0.00000000000E+00  0.99999998245E-14  0.12500000000E+03  0.12500000000E+03 0.  0.
        -13    1    3    3    0    0  0.26796891318E+02  0.36915969099E+02 -0.15485886784E+02  0.48173499067E+02  0.10566000000E+00 0. -1.
         23    2    1    0    0    0 -0.17034424143E+02  0.23174142212E+02 -0.14623265572E+01  0.96201547401E+02  0.91789906037E+02 0.  0.
         13    1    3    3    0    0 -0.43831315461E+02 -0.13741826887E+02  0.14023560227E+02  0.48028048333E+02  0.10566000000E+00 0.  1.
         22    1    1    0    0    0  0.17034424143E+02 -0.23174142212E+02  0.14623265572E+01  0.28798452599E+02  0.00000000000E+00 0.  1.
</event>
<event>
 5    1  0.1245581E-004  0.9118800E+02  0.7818608E-02  0.1130116E+00
         25   -1    0    0    0    0  0.00000000000E+00  0.00000000000E+00  0.99999998245E-14  0.12500000000E+03  0.12500000000E+03 0.  0.
        -13    1    3    3    0    0  0.56311565886E+02 -0.57228357882E+01  0.83321978097E+01  0.57211711968E+02  0.10566000000E+00 0.  1.
         23    2    1    0    0    0  0.18522448871E+02 -0.18860482471E+02 -0.18677207250E+01  0.98499296388E+02  0.94867402711E+02 0.  0.
         13    1    3    3    0    0 -0.37789117015E+02 -0.13137646683E+02 -0.10199918535E+02  0.41287584420E+02  0.10566000000E+00 0. -1.
         22    1    1    0    0    0 -0.18522448871E+02  0.18860482471E+02  0.18677207250E+01  0.26500703612E+02  0.00000000000E+00 0.  1.
</event>
<event>
 5    1  0.1245581E-004  0.9118800E+02  0.7818608E-02  0.1130116E+00
         25   -1    0    0    0    0  0.00000000000E+00  0.00000000000E+00  0.99999998245E-14  0.12500000000E+03  0.12500000000E+03 0.  0.
        -13    1    3    3    0    0  0.68558646042E+00 -0.52530082679E+02 -0.10365100730E+02  0.53547419100E+02  0.10566000000E+00 0. -1.
         23    2    1    0    0    0 -0.19531720426E+01 -0.23920496315E+02  0.18819373160E+02  0.94501248696E+02  0.89444464188E+02 0.  0.
         13    1    3    3    0    0 -0.26387585030E+01  0.28609586364E+02  0.29184473889E+02  0.40953829596E+02  0.10566000000E+00 0.  1.
         22    1    1    0    0    0  0.19531720426E+01  0.23920496315E+02 -0.18819373160E+02  0.30498751304E+02  0.00000000000E+00 0. -1.
</event>
<event>
 5    1  0.1245581E-004  0.9118800E+02  0.7818608E-02  0.1130116E+00
         25   -1    0    0    0    0  0.00000000000E+00  0.00000000000E+00  0.99999998245E-14  0.12500000000E+03  0.12500000000E+03 0.  0.
        -13    1    3    3    0    0  0.35789287875E+02  0.83450286846E+01 -0.10825884614E+02  0.38310880596E+02  0.10566000000E+00 0.  1.
         23    2    1    0    0    0 -0.22196805968E+00 -0.99698792948E+01  0.28569490046E+02  0.94740067343E+02  0.89777596513E+02 0.  0.
         13    1    3    3    0    0 -0.36011255934E+02 -0.18314907979E+02  0.39395374660E+02  0.56429186747E+02  0.10566000000E+00 0. -1.
         22    1    1    0    0    0  0.22196805968E+00  0.99698792948E+01 -0.28569490046E+02  0.30259932657E+02  0.00000000000E+00 0. -1.
</event>
<event>
 5    1  0.1245581E-004  0.9118800E+02  0.7818608E-02  0.1130116E+00
         25   -1    0    0    0    0  0.00000000000E+00  0.00000000000E+00  0.99999998245E-14  0.12500000000E+03  0.12500000000E+03 0.  0.
        -13    1    3    3    0    0 -0.56915372821E+02  0.99196366200E+01  0.19322438370E+02  0.60919017085E+02  0.10566000000E+00 0.  1.
         23    2    1    0    0    0 -0.29493207500E+02 -0.22218588343E+01  0.24686152265E+01  0.95320377252E+02  0.90581975652E+02 0.  0.
         13    1    3    3    0    0  0.27422165321E+02 -0.12141495454E+02 -0.16853823144E+02  0.34401360167E+02  0.10566000000E+00 0. -1.
         22    1    1    0    0    0  0.29493207500E+02  0.22218588343E+01 -0.24686152265E+01  0.29679622748E+02  0.00000000000E+00 0.  1.
</event>
<event>
 5    1  0.1245581E-004  0.9118800E+02  0.7818608E-02  0.1130116E+00
         25   -1    0    0    0    0  0.00000000000E+00  0.00000000000E+00  0.99999998245E-14  0.12500000000E+03  0.12500000000E+03 0.  0.
        -13    1    3    3    0    0  0.43143263866E+02  0.89944182963E+01 -0.34349722702E+02  0.55876250690E+02  0.10566000000E+00 0.  1.
         23    2    1    0    0    0  0.21111357931E+02 -0.16084642559E+02 -0.13657053412E+02  0.95151712481E+02  0.90348924289E+02 0.  0.
         13    1    3    3    0    0 -0.22031905935E+02 -0.25079060855E+02  0.20692669290E+02  0.39275461791E+02  0.10566000000E+00 0. -1.
         22    1    1    0    0    0 -0.21111357931E+02  0.16084642559E+02  0.13657053412E+02  0.29848287519E+02  0.00000000000E+00 0.  1.
</event>
<event>
 5    1  0.1245581E-004  0.9118800E+02  0.7818608E-02  0.1130116E+00
         25   -1    0    0    0    0  0.00000000000E+00  0.00000000000E+00  0.99999998245E-14  0.12500000000E+03  0.12500000000E+03 0.  0.
        -13    1    3    3    0    0 -0.39785756444E+02 -0.81299794878E+01 -0.10514138690E+01  0.40621664386E+02  0.10566000000E+00 0.  1.
         23    2    1    0    0    0  0.77165713713E+01  0.73318858135E+01 -0.26323482470E+02  0.96605850027E+02  0.92338846142E+02 0.  0.
         13    1    3    3    0    0  0.47502327816E+02  0.15461865301E+02 -0.25272068601E+02  0.55984185641E+02  0.10566000000E+00 0. -1.
         22    1    1    0    0    0 -0.77165713713E+01 -0.73318858135E+01  0.26323482470E+02  0.28394149973E+02  0.00000000000E+00 0. -1.
</event>
<event>
 5    1  0.1245581E-004  0.9118800E+02  0.7818608E-02  0.1130116E+00
         25   -1    0    0    0    0  0.00000000000E+00  0.00000000000E+00  0.99999998245E-14  0.12500000000E+03  0.12500000000E+03 0.  0.
        -13    1    3    3    0    0  0.91835864882E+01 -0.30036751433E+02  0.39868386339E+02  0.50754744515E+02  0.10566000000E+00 0. -1.
         23    2    1    0    0    0 -0.85593181493E+01  0.76893696755E+01  0.28944420423E+02  0.93852483135E+02  0.88533162057E+02 0.  0.
         13    1    3    3    0    0 -0.17742904637E+02  0.37726121109E+02 -0.10923965916E+02  0.43097738621E+02  0.10566000000E+00 0.  1.
         22    1    1    0    0    0  0.85593181493E+01 -0.76893696755E+01 -0.28944420423E+02  0.31147516865E+02  0.00000000000E+00 0.  1.
</event>
<event>
 5    1  0.1245581E-004  0.9118800E+02  0.7818608E-02  0.1130116E+00
         25   -1    0    0    0    0  0.00000000000E+00  0.00000000000E+00  0.99999998245E-14  0.12500000000E+03  0.12500000000E+03 0.  0.
        -13    1    3    3    0    0 -0.17767693846E+02  0.13503942267E+02 -0.26356773893E+02  0.34536040529E+02  0.10566000000E+00 0. -1.
         23    2    1    0    0    0  0.21644287479E+01 -0.24040834292E+01  0.29176328509E+02  0.95644889471E+02  0.91028689806E+02 0.  0.
         13    1    3    3    0    0  0.19932122594E+02 -0.15908025696E+02  0.55533102401E+02  0.61108848942E+02  0.10566000000E+00 0.  1.
         22    1    1    0    0    0 -0.21644287479E+01  0.24040834292E+01 -0.29176328509E+02  0.29355110529E+02  0.00000000000E+00 0.  1.
</event>
<event>
 5    1  0.1245581E-004  0.9118800E+02  0.7818608E-02  0.1130116E+00
         25   -1    0    0    0    0  0.00000000000E+00  0.00000000000E+00  0.99999998245E-14  0.12500000000E+03  0.12500000000E+03 0.  0.
        -13    1    3    3    0    0 -0.18340212729E+02 -0.34316338772E+02 -0.48614976781E+02  0.62268785448E+02  0.10566000000E+00 0.  1.
         23    2    1    0    0    0 -0.55038640020E+01 -0.18291014483E+02 -0.22662120493E+02  0.95361757221E+02  0.90639060593E+02 0.  0.
         13    1    3    3    0    0  0.12836348727E+02  0.16025324289E+02  0.25952856288E+02  0.33092971773E+02  0.10566000000E+00 0. -1.
         22    1    1    0    0    0  0.55038640020E+01  0.18291014483E+02  0.22662120493E+02  0.29638242779E+02  0.00000000000E+00 0.  1.
</event>
<event>
 5    1  0.1245581E-004  0.9118800E+02  0.7818608E-02  0.1130116E+00
         25   -1    0    0    0    0  0.00000000000E+00  0.00000000000E+00  0.99999998245E-14  0.12500000000E+03  0.12500000000E+03 0.  0.
        -13    1    3    3    0    0 -0.18124653348E+02  0.19827869433E+02 -0.20334683045E+02  0.33692105363E+02  0.10566000000E+00 0.  1.
         23    2    1    0    0    0  0.15858923734E+02 -0.21520447260E+02  0.11425748975E+02  0.95927971314E+02  0.91416589461E+02 0.  0.
         13    1    3    3    0    0  0.33983577082E+02 -0.41348316693E+02  0.31760432020E+02  0.62235865951E+02  0.10566000000E+00 0. -1.
         22    1    1    0    0    0 -0.15858923734E+02  0.21520447260E+02 -0.11425748975E+02  0.29072028686E+02  0.00000000000E+00 0. -1.
</event>
<event>
 5    1  0.1245581E-004  0.9118800E+02  0.7818608E-02  0.1130116E+00
         25   -1    0    0    0    0  0.00000000000E+00  0.00000000000E+00  0.99999998245E-14  0.12500000000E+03  0.12500000000E+03 0.  0.
        -13    1    3    3    0    0  0.30325781221E+02 -0.28132915053E+02 -0.10229306113E+02  0.42611779869E+02  0.10566000000E+00 0.  1.
         23    2    1    0    0    0 -0.20831441383E+02 -0.13287589293E+02 -0.15003391035E+02  0.96093067927E+02  0.91642059022E+02 0.  0.
         13    1    3    3    0    0 -0.51157222604E+02  0.14845325760E+02 -0.47740849213E+01  0.53481288058E+02  0.10566000000E+00 0. -1.
         22    1    1    0    0    0  0.20831441383E+02  0.13287589293E+02  0.15003391035E+02  0.28906932073E+02  0.00000000000E+00 0. -1.
</event>
<event>
 5    1  0.1245581E-004  0.9118800E+02  0.7818608E-02  0.1130116E+00
         25   -1    0    0    0    0  0.00000000000E+00  0.00000000000E+00  0.99999998245E-14  0.12500000000E+03  0.12500000000E+03 0.  0.
        -13    1    3    3    0    0 -0.83293832619E+00  0.21568458187E+01 -0.57265113829E+02  0.57311867846E+02  0.10566000000E+00 0.  1.
         23    2    1    0    0    0  0.24399760417E+01  0.18537133024E+02 -0.23620152306E+02  0.94875419027E+02  0.89965853282E+02 0.  0.
         13    1    3    3    0    0  0.32729143679E+01  0.16380287206E+02  0.33644961523E+02  0.37563551181E+02  0.10566000000E+00 0. -1.
         22    1    1    0    0    0 -0.24399760417E+01 -0.18537133024E+02  0.23620152306E+02  0.30124580973E+02  0.00000000000E+00 0.  1.
</event>
<event>
 5    1  0.1245581E-004  0.9118800E+02  0.7818608E-02  0.1130116E+00
         25   -1    0    0    0    0  0.00000000000E+00  0.00000000000E+00  0.99999998245E-14  0.12500000000E+03  0.12500000000E+03 0.  0.
        -13    1    3    3    0    0  0.17105535177E+01  0.50791241113E+02 -0.16375166943E+02  0.53393196417E+02  0.10566000000E+00 0. -1.
         23    2    1    0    0    0 -0.21354635036E+02  0.21128032993E+02  0.13285467274E+01  0.94930426473E+02  0.90042249074E+02 0.  0.
         13    1    3    3    0    0 -0.23065188554E+02 -0.29663208120E+02  0.17703713671E+02  0.41537230056E+02  0.10566000000E+00 0.  1.
         22    1    1    0    0    0  0.21354635036E+02 -0.21128032993E+02 -0.13285467274E+01  0.30069573527E+02  0.00000000000E+00 0. -1.
</event>
<event>
 5    1  0.1245581E-004  0.9118800E+02  0.7818608E-02  0.1130116E+00
         25   -1    0    0    0    0  0.00000000000E+00  0.00000000000E+00  0.99999998245E-14  0.12500000000E+03  0.12500000000E+03 0.  0.
        -13    1    3    3    0    0  0.59789759312E+01  0.14325173047E+02 -0.52912222197E+02  0.55142299171E+02  0.10566000000E+00 0. -1.
         23    2    1    0    0    0 -0.13869169969E+02  0.18233766214E+02 -0.16601218596E+02  0.96708224431E+02  0.92477327534E+02 0.  0.
         13    1    3    3    0    0 -0.19848145900E+02  0.39085931668E+01  0.36311003601E+02  0.41565925260E+02  0.10566000000E+00 0.  1.
         22    1    1    0    0    0  0.13869169969E+02 -0.18233766214E+02  0.16601218596E+02  0.28291775569E+02  0.00000000000E+00 0.  1.
</event>
<event>
 5    1  0.1245581E-004  0.9118800E+02  0.7818608E-02  0.1130116E+00
         25   -1    0    0    0    0  0.00000000000E+00  0.00000000000E+00  0.99999998245E-14  0.12500000000E+03  0.12500000000E+03 0.  0.
        -13    1    3    3    0    0 -0.25648296952E+02  0.40442295054E+02 -0.69734333259E+00  0.47894799483E+02  0.10566000000E+00 0.  1.
         23    2    1    0    0    0 -0.26067706981E+02 -0.13120137920E+01  0.17636877007E+02  0.93499108616E+02  0.88032818618E+02 0.  0.
         13    1    3    3    0    0 -0.41941002903E+00 -0.41754308846E+02  0.18334220340E+02  0.45604309133E+02  0.10566000000E+00 0. -1.
         22    1    1    0    0    0  0.26067706981E+02  0.13120137920E+01 -0.17636877007E+02  0.31500891384E+02  0.00000000000E+00 0.  1.
</event>
<event>
 5    1  0.1245581E-004  0.9118800E+02  0.7818608E-02  0.1130116E+00
         25   -1    0    0    0    0  0.00000000000E+00  0.00000000000E+00  0.99999998245E-14  0.12500000000E+03  0.12500000000E+03 0.  0.
        -13    1    3    3    0    0  0.20596753309E+02  0.24939239777E+02 -0.33831964253E+02  0.46806034834E+02  0.10566000000E+00 0. -1.
         23    2    1    0    0    0  0.28957201695E+02 -0.75505244060E+01  0.85495163124E+00  0.95062383343E+02  0.90225250545E+02 0.  0.
         13    1    3    3    0    0  0.83604483851E+01 -0.32489764183E+02  0.34686915884E+02  0.48256348510E+02  0.10566000000E+00 0.  1.
         22    1    1    0    0    0 -0.28957201695E+02  0.75505244060E+01 -0.85495163124E+00  0.29937616657E+02  0.00000000000E+00 0.  1.
</event>
<event>
 5    1  0.1245581E-004  0.9118800E+02  0.7818608E-02  0.1130116E+00
         25   -1    0    0    0    0  0.00000000000E+00  0.00000000000E+00  0.99999998245E-14  0.12500000000E+03  0.12500000000E+03 0.  0.
        -13    1    3    3    0    0  0.23497871664E+02  0.15396376013E+02 -0.44716015538E+02  0.52808442286E+02  0.10566000000E+00 0. -1.
         23    2    1    0    0    0  0.28767442147E+02  0.24268015537E+01 -0.40116792562E+01  0.95852981904E+02  0.91313993867E+02 0.  0.
         13    1    3    3    0    0  0.52695704827E+01 -0.12969574460E+02  0.40704336281E+02  0.43044539617E+02  0.10566000000E+00 0.  1.
         22    1    1    0    0    0 -0.28767442147E+02 -0.24268015537E+01  0.40116792562E+01  0.29147018096E+02  0.00000000000E+00 0. -1.
</event>
<event>
 5    1  0.1245581E-004  0.9118800E+02  0.7818608E-02  0.1130116E+00
         25   -1    0    0    0    0  0.00000000000E+00  0.00000000000E+00  0.99999998245E-14  0.12500000000E+03  0.12500000000E+03 0.  0.
        -13    1    3    3    0    0  0.14063661596E+02  0.60280585915E+02 -0.50988898374E+01  0.62109141496E+02  0.10566000000E+00 0.  1.
         23    2    1    0    0    0  0.60414147889E+01  0.31198149100E+02  0.21931541306E+01  0.93146693657E+02  0.87530985453E+02 0.  0.
         13    1    3    3    0    0 -0.80222468072E+01 -0.29082436815E+02  0.72920439680E+01  0.31037552162E+02  0.10566000000E+00 0. -1.
         22    1    1    0    0    0 -0.60414147889E+01 -0.31198149100E+02 -0.21931541306E+01  0.31853306343E+02  0.00000000000E+00 0.  1.
</event>
<event>
 5    1  0.1245581E-004  0.9118800E+02  0.7818608E-02  0.1130116E+00
         25   -1    0    0    0    0  0.00000000000E+00  0.00000000000E+00  0.99999998245E-14  0.12500000000E+03  0.12500000000E+03 0.  0.
        -13    1    3    3    0    0  0.21401347501E+02  0.46108951096E+01 -0.55307391507E+02  0.59482743279E+02  0.10566000000E+00 0.  1.
         23    2    1    0    0    0 -0.33264794418E+01  0.32614978247E+00 -0.28877831445E+02  0.95929379295E+02  0.91418514667E+02 0.  0.
         13    1    3    3    0    0 -0.24727826943E+02 -0.42847453271E+01  0.26429560062E+02  0.36446636017E+02  0.10566000000E+00 0. -1.
         22    1    1    0    0    0  0.33264794418E+01 -0.32614978247E+00  0.28877831445E+02  0.29070620705E+02  0.00000000000E+00 0.  1.
</event>
<event>
 5    1  0.1245581E-004  0.9118800E+02  0.7818608E-02  0.1130116E+00
         25   -1    0    0    0    0  0.00000000000E+00  0.00000000000E+00  0.99999998245E-14  0.12500000000E+03  0.12500000000E+03 0.  0.
        -13    1    3    3    0    0  0.33963579622E+02 -0.32141417946E+02 -0.76650783008E+01  0.47385230586E+02  0.10566000000E+00 0.  1.
         23    2    1    0    0    0 -0.12859527509E+02 -0.21778376826E+02 -0.14532132456E+02  0.95830700751E+02  0.91283488035E+02 0.  0.
         13    1    3    3    0    0 -0.46823107131E+02  0.10363041120E+02 -0.68670541554E+01  0.48445470165E+02  0.10566000000E+00 0. -1.
         22    1    1    0    0    0  0.12859527509E+02  0.21778376826E+02  0.14532132456E+02  0.29169299249E+02  0.00000000000E+00 0. -1.
</event>
<event>
 5    1  0.1245581E-004  0.9118800E+02  0.7818608E-02  0.1130116E+00
         25   -1    0    0    0    0  0.00000000000E+00  0.00000000000E+00  0.99999998245E-14  0.12500000000E+03  0.12500000000E+03 0.  0.
        -13    1    3    3    0    0 -0.27212059477E+02  0.28011736093E+02 -0.21932984820E+02  0.44790853163E+02  0.10566000000E+00 0.  1.
         23    2    1    0    0    0  0.18651561796E+02  0.11501801336E+02 -0.22573538997E+02  0.93539916493E+02  0.88090743687E+02 0.  0.
         13    1    3    3    0    0  0.45863621273E+02 -0.16509934757E+02 -0.64055417713E+00  0.48749063330E+02  0.10566000000E+00 0. -1.
         22    1    1    0    0    0 -0.18651561796E+02 -0.11501801336E+02  0.22573538997E+02  0.31460083507E+02  0.00000000000E+00 0.  1.
</event>
<event>
 5    1  0.1245581E-004  0.9118800E+02  0.7818608E-02  0.1130116E+00
         25   -1    0    0    0    0  0.00000000000E+00  0.00000000000E+00  0.99999998245E-14  0.12500000000E+03  0.12500000000E+03 0.  0.
        -13    1    3    3    0    0  0.15844380681E+02 -0.41572311635E+02  0.22417964690E+01  0.44545912375E+02  0.10566000000E+00 0. -1.
         23    2    1    0    0    0 -0.77519325491E+01 -0.27206039218E+01  0.27327324124E+02  0.96464464474E+02  0.92147252366E+02 0.  0.
         13    1    3    3    0    0 -0.23596313230E+02  0.38851707713E+02  0.25085527655E+02  0.51918552099E+02  0.10566000000E+00 0.  1.
         22    1    1    0    0    0  0.77519325491E+01  0.27206039218E+01 -0.27327324124E+02  0.28535535526E+02  0.00000000000E+00 0.  1.
</event>
<event>
 5    1  0.1245581E-004  0.9118800E+02  0.7818608E-02  0.1130116E+00
         25   -1    0    0    0    0  0.00000000000E+00  0.00000000000E+00  0.99999998245E-14  0.12500000000E+03  0.12500000000E+03 0.  0.
        -13    1    3    3    0    0  0.29191368487E+02  0.21649176878E+02  0.45768287208E+02  0.58442879221E+02  0.10566000000E+00 0. -1.
         23    2    1    0    0    0  0.26695180428E+02  0.11813584055E+02  0.12465352928E+02  0.93257623751E+02  0.87689257824E+02 0.  0.
         13    1    3    3    0    0 -0.24961880587E+01 -0.98355928234E+01 -0.33302934280E+02  0.34814744530E+02  0.10566000000E+00 0.  1.
         22    1    1    0    0    0 -0.26695180428E+02 -0.11813584055E+02 -0.12465352928E+02  0.31742376249E+02  0.00000000000E+00 0. -1.
</event>
<event>
 5    1  0.1245581E-004  0.9118800E+02  0.7818608E-02  0.1130116E+00
         25   -1    0    0    0    0  0.00000000000E+00  0.00000000000E+00  0.99999998245E-14  0.12500000000E+03  0.12500000000E+03 0.  0.
        -13    1    3    3    0    0  0.27195703937E+02 -0.33070093244E+02  0.76701178852E+01  0.43498037337E+02  0.10566000000E+00 0.  1.
         23    2    1    0    0    0 -0.15153319220E+02 -0.64970722849E+01  0.23813872187E+02  0.96035616005E+02  0.91563660921E+02 0.  0.
         13    1    3    3    0    0 -0.42349023157E+02  0.26573020959E+02  0.16143754302E+02  0.52537578668E+02  0.10566000000E+00 0. -1.
         22    1    1    0    0    0  0.15153319220E+02  0.64970722849E+01 -0.23813872187E+02  0.28964383995E+02  0.00000000000E+00 0. -1.
</event>
<event>
 5    1  0.1245581E-004  0.9118800E+02  0.7818608E-02  0.1130116E+00
         25   -1    0    0    0    0  0.00000000000E+00  0.00000000000E+00  0.99999998245E-14  0.12500000000E+03  0.12500000000E+03 0.  0.
        -13    1    3    3    0    0  0.35272038604E+02  0.13834169431E+02  0.22105230300E+02  0.43865172083E+02  0.10566000000E+00 0.  1.
         23    2    1    0    0    0 -0.14804746638E+02 -0.94376266700E+01  0.18937268636E+02  0.99176184179E+02  0.95755135866E+02 0.  0.
         13    1    3    3    0    0 -0.50076785242E+02 -0.23271796101E+02 -0.31679616645E+01  0.55311012096E+02  0.10566000000E+00 0. -1.
         22    1    1    0    0    0  0.14804746638E+02  0.94376266700E+01 -0.18937268636E+02  0.25823815821E+02  0.00000000000E+00 0. -1.
</event>
<event>
 5    1  0.1245581E-004  0.9118800E+02  0.7818608E-02  0.1130116E+00
         25   -1    0    0    0    0  0.00000000000E+00  0.00000000000E+00  0.99999998245E-14  0.12500000000E+03  0.12500000000E+03 0.  0.
        -13    1    3    3    0    0 -0.10134162589E+02  0.55071186204E+02 -0.17024606086E+02  0.58526790256E+02  0.10566000000E+00 0. -1.
         23    2    1    0    0    0  0.10220902760E+02  0.24377895781E+02 -0.12899418547E+02  0.95586675557E+02  0.90948715710E+02 0.  0.
         13    1    3    3    0    0  0.20355065348E+02 -0.30693290422E+02  0.41251875390E+01  0.37059885301E+02  0.10566000000E+00 0.  1.
         22    1    1    0    0    0 -0.10220902760E+02 -0.24377895781E+02  0.12899418547E+02  0.29413324443E+02  0.00000000000E+00 0. -1.
</event>
<event>
 5    1  0.1245581E-004  0.9118800E+02  0.7818608E-02  0.1130116E+00
         25   -1    0    0    0    0  0.00000000000E+00  0.00000000000E+00  0.99999998245E-14  0.12500000000E+03  0.12500000000E+03 0.  0.
        -13    1    3    3    0    0  0.11920590971E+02  0.12819500763E+02 -0.45301388391E+02  0.48566110026E+02  0.10566000000E+00 0. -1.
         23    2    1    0    0    0 -0.14464020296E+02  0.22910312314E+02 -0.55323505206E+01  0.97346841126E+02  0.93336543119E+02 0.  0.
         13    1    3    3    0    0 -0.26384611267E+02  0.10090811551E+02  0.39769037870E+02  0.48780731100E+02  0.10566000000E+00 0.  1.
         22    1    1    0    0    0  0.14464020296E+02 -0.22910312314E+02  0.55323505206E+01  0.27653158874E+02  0.00000000000E+00 0.  1.
</event>
<event>
 5    1  0.1245581E-004  0.9118800E+02  0.7818608E-02  0.1130116E+00
         25   -1    0    0    0    0  0.00000000000E+00  0.00000000000E+00  0.99999998245E-14  0.12500000000E+03  0.12500000000E+03 0.  0.
        -13    1    3    3    0    0 -0.11971058687E+02  0.41420693511E+02 -0.19602866675E+01  0.43160560526E+02  0.10566000000E+00 0. -1.
         23    2    1    0    0    0 -0.24735835462E+02 -0.10176955655E+02  0.76596025871E+01  0.97177320507E+02  0.93109237601E+02 0.  0.
         13    1    3    3    0    0 -0.12764776775E+02 -0.51597649166E+02  0.96198892546E+01  0.54016759981E+02  0.10566000000E+00 0.  1.
         22    1    1    0    0    0  0.24735835462E+02  0.10176955655E+02 -0.76596025871E+01  0.27822679493E+02  0.00000000000E+00 0.  1.
</event>
<event>
 5    1  0.1245581E-004  0.9118800E+02  0.7818608E-02  0.1130116E+00
         25   -1    0    0    0    0  0.00000000000E+00  0.00000000000E+00  0.99999998245E-14  0.12500000000E+03  0.12500000000E+03 0.  0.
        -13    1    3    3    0    0  0.54888135611E+01  0.18209126686E+02  0.12719452155E+02  0.22880013028E+02  0.10566000000E+00 0.  1.
         23    2    1    0    0    0 -0.21410159991E+01 -0.31942661810E+02 -0.23563420861E+02  0.85248869253E+02  0.75413641427E+02 0.  0.
         13    1    3    3    0    0 -0.76298295602E+01 -0.50151788496E+02 -0.36282873017E+02  0.62368856225E+02  0.10566000000E+00 0. -1.
         22    1    1    0    0    0  0.21410159991E+01  0.31942661810E+02  0.23563420861E+02  0.39751130747E+02  0.00000000000E+00 0. -1.
</event>
<event>
 5    1  0.1245581E-004  0.9118800E+02  0.7818608E-02  0.1130116E+00
         25   -1    0    0    0    0  0.00000000000E+00  0.00000000000E+00  0.99999998245E-14  0.12500000000E+03  0.12500000000E+03 0.  0.
        -13    1    3    3    0    0 -0.30486679264E+02  0.11354881482E+02 -0.49626751877E+02  0.59339671484E+02  0.10566000000E+00 0.  1.
         23    2    1    0    0    0 -0.24390668198E+02 -0.96544660181E+00 -0.15618291386E+02  0.96021252476E+02  0.91544050156E+02 0.  0.
         13    1    3    3    0    0  0.60960110659E+01 -0.12320328084E+02  0.34008460491E+02  0.36681580991E+02  0.10566000000E+00 0. -1.
         22    1    1    0    0    0  0.24390668198E+02  0.96544660181E+00  0.15618291386E+02  0.28978747524E+02  0.00000000000E+00 0.  1.
</event>
<event>
 5    1  0.1245581E-004  0.9118800E+02  0.7818608E-02  0.1130116E+00
         25   -1    0    0    0    0  0.00000000000E+00  0.00000000000E+00  0.99999998245E-14  0.12500000000E+03  0.12500000000E+03 0.  0.
        -13    1    3    3    0    0 -0.28466066248E+02  0.46942431216E+01 -0.17242643610E+02  0.33610605005E+02  0.10566000000E+00 0.  1.
         23    2    1    0    0    0  0.28799703499E+02  0.92987859897E+00  0.60674622585E+01  0.95553409466E+02  0.90902983265E+02 0.  0.
         13    1    3    3    0    0  0.57265769746E+02 -0.37643645227E+01  0.23310105869E+02  0.61942804461E+02  0.10566000000E+00 0. -1.
         22    1    1    0    0    0 -0.28799703499E+02 -0.92987859897E+00 -0.60674622585E+01  0.29446590534E+02  0.00000000000E+00 0. -1.
</event>
<event>
 5    1  0.1245581E-004  0.9118800E+02  0.7818608E-02  0.1130116E+00
         25   -1    0    0    0    0  0.00000000000E+00  0.00000000000E+00  0.99999998245E-14  0.12500000000E+03  0.12500000000E+03 0.  0.
        -13    1    3    3    0    0  0.17945130576E+02  0.15676915413E+02 -0.43422617767E+02  0.49531084038E+02  0.10566000000E+00 0.  1.
         23    2    1    0    0    0  0.14789796230E+02  0.32877463991E+02 -0.94648511078E+01  0.87727367714E+02  0.79415627735E+02 0.  0.
         13    1    3    3    0    0 -0.31553343457E+01  0.17200548577E+02  0.33957766659E+02  0.38196283676E+02  0.10566000000E+00 0. -1.
         22    1    1    0    0    0 -0.14789796230E+02 -0.32877463991E+02  0.94648511078E+01  0.37272632286E+02  0.00000000000E+00 0. -1.
</event>
<event>
 5    1  0.1245581E-004  0.9118800E+02  0.7818608E-02  0.1130116E+00
         25   -1    0    0    0    0  0.00000000000E+00  0.00000000000E+00  0.99999998245E-14  0.12500000000E+03  0.12500000000E+03 0.  0.
        -13    1    3    3    0    0 -0.65287046495E+01 -0.33339492818E+02  0.29797741785E+02  0.45189183942E+02  0.10566000000E+00 0. -1.
         23    2    1    0    0    0 -0.12524152829E+02  0.15916928774E+02  0.21436661887E+02  0.95508755561E+02  0.90841559268E+02 0.  0.
         13    1    3    3    0    0 -0.59954481797E+01  0.49256421592E+02 -0.83610798978E+01  0.50319571620E+02  0.10566000000E+00 0.  1.
         22    1    1    0    0    0  0.12524152829E+02 -0.15916928774E+02 -0.21436661887E+02  0.29491244439E+02  0.00000000000E+00 0.  1.
</event>
<event>
 5    1  0.1245581E-004  0.9118800E+02  0.7818608E-02  0.1130116E+00
         25   -1    0    0    0    0  0.00000000000E+00  0.00000000000E+00  0.99999998245E-14  0.12500000000E+03  0.12500000000E+03 0.  0.
        -13    1    3    3    0    0  0.92509266708E+01 -0.98567873834E+01 -0.32548482093E+02  0.35244159125E+02  0.10566000000E+00 0. -1.
         23    2    1    0    0    0 -0.20640392669E+02  0.17521200350E+02  0.11922682271E+02  0.95416750960E+02  0.90714870556E+02 0.  0.
         13    1    3    3    0    0 -0.29891319340E+02  0.27377987733E+02  0.44471164364E+02  0.60172591835E+02  0.10566000000E+00 0.  1.
         22    1    1    0    0    0  0.20640392669E+02 -0.17521200350E+02 -0.11922682271E+02  0.29583249040E+02  0.00000000000E+00 0.  1.
</event>
<event>
 5    1  0.1245581E-004  0.9118800E+02  0.7818608E-02  0.1130116E+00
         25   -1    0    0    0    0  0.00000000000E+00  0.00000000000E+00  0.99999998245E-14  0.12500000000E+03  0.12500000000E+03 0.  0.
        -13    1    3    3    0    0 -0.56790935000E+02  0.11043503012E+01  0.20981747883E+02  0.60553074208E+02  0.10566000000E+00 0. -1.
         23    2    1    0    0    0 -0.27179566847E+02 -0.97660247770E+01  0.58751587818E+01  0.95527613184E+02  0.90867504070E+02 0.  0.
         13    1    3    3    0    0  0.29611368153E+02 -0.10870375078E+02 -0.15106589102E+02  0.34974538975E+02  0.10566000000E+00 0.  1.
         22    1    1    0    0    0  0.27179566847E+02  0.97660247770E+01 -0.58751587818E+01  0.29472386816E+02  0.00000000000E+00 0. -1.
</event>
<event>
 5    1  0.1245581E-004  0.9118800E+02  0.7818608E-02  0.1130116E+00
         25   -1    0    0    0    0  0.00000000000E+00  0.00000000000E+00  0.99999998245E-14  0.12500000000E+03  0.12500000000E+03 0.  0.
        -13    1    3    3    0    0  0.31660946128E+02 -0.41221240245E+02  0.20508407892E+02  0.55876758275E+02  0.10566000000E+00 0.  1.
         23    2    1    0    0    0  0.35625817071E+00 -0.28347592444E+02 -0.20858892531E+01  0.96573536076E+02  0.92295092063E+02 0.  0.
         13    1    3    3    0    0 -0.31304687958E+02  0.12873647801E+02 -0.22594297145E+02  0.40696777801E+02  0.10566000000E+00 0. -1.
         22    1    1    0    0    0 -0.35625817071E+00  0.28347592444E+02  0.20858892531E+01  0.28426463924E+02  0.00000000000E+00 0. -1.
</event>
<event>
 5    1  0.1245581E-004  0.9118800E+02  0.7818608E-02  0.1130116E+00
         25   -1    0    0    0    0  0.00000000000E+00  0.00000000000E+00  0.99999998245E-14  0.12500000000E+03  0.12500000000E+03 0.  0.
        -13    1    3    3    0    0  0.24447840529E+02 -0.21907002514E+02 -0.10782659703E+02  0.34552721745E+02  0.10566000000E+00 0.  1.
         23    2    1    0    0    0 -0.27737980496E+02  0.31101850783E+00  0.10790308401E+02  0.95235540491E+02  0.90464828097E+02 0.  0.
         13    1    3    3    0    0 -0.52185821024E+02  0.22218021022E+02  0.21572968105E+02  0.60682818746E+02  0.10566000000E+00 0. -1.
         22    1    1    0    0    0  0.27737980496E+02 -0.31101850783E+00 -0.10790308401E+02  0.29764459509E+02  0.00000000000E+00 0. -1.
</event>
<event>
 5    1  0.1245581E-004  0.9118800E+02  0.7818608E-02  0.1130116E+00
         25   -1    0    0    0    0  0.00000000000E+00  0.00000000000E+00  0.99999998245E-14  0.12500000000E+03  0.12500000000E+03 0.  0.
        -13    1    3    3    0    0  0.23623288820E+02  0.25343077984E+02  0.15396071908E+02  0.37912815388E+02  0.10566000000E+00 0. -1.
         23    2    1    0    0    0  0.73317781556E+01 -0.17710103159E+02 -0.20979336102E+02  0.96582834974E+02  0.92307685181E+02 0.  0.
         13    1    3    3    0    0 -0.16291510665E+02 -0.43053181143E+02 -0.36375408010E+02  0.58670019586E+02  0.10566000000E+00 0.  1.
         22    1    1    0    0    0 -0.73317781556E+01  0.17710103159E+02  0.20979336102E+02  0.28417165026E+02  0.00000000000E+00 0.  1.
</event>
<event>
 5    1  0.1245581E-004  0.9118800E+02  0.7818608E-02  0.1130116E+00
         25   -1    0    0    0    0  0.00000000000E+00  0.00000000000E+00  0.99999998245E-14  0.12500000000E+03  0.12500000000E+03 0.  0.
        -13    1    3    3    0    0  0.76056395086E+01  0.25684775462E+02 -0.26098836061E+02  0.37399383024E+02  0.10566000000E+00 0. -1.
         23    2    1    0    0    0  0.16024970458E+02 -0.20812856079E+02  0.10030531677E+02  0.96882634866E+02  0.92712775369E+02 0.  0.
         13    1    3    3    0    0  0.84193309489E+01 -0.46497631541E+02  0.36129367738E+02  0.59483251842E+02  0.10566000000E+00 0.  1.
         22    1    1    0    0    0 -0.16024970458E+02  0.20812856079E+02 -0.10030531677E+02  0.28117365134E+02  0.00000000000E+00 0.  1.
</event>
<event>
 5    1  0.1245581E-004  0.9118800E+02  0.7818608E-02  0.1130116E+00
         25   -1    0    0    0    0  0.00000000000E+00  0.00000000000E+00  0.99999998245E-14  0.12500000000E+03  0.12500000000E+03 0.  0.
        -13    1    3    3    0    0 -0.14112973537E+02  0.30361761651E+02  0.55623847330E+01  0.33940593403E+02  0.10566000000E+00 0.  1.
         23    2    1    0    0    0  0.20694067423E+02 -0.14360751901E+02 -0.16645713752E+02  0.94808024113E+02  0.89872164924E+02 0.  0.
         13    1    3    3    0    0  0.34807040961E+02 -0.44722513552E+02 -0.22208098485E+02  0.60867430709E+02  0.10566000000E+00 0. -1.
         22    1    1    0    0    0 -0.20694067423E+02  0.14360751901E+02  0.16645713752E+02  0.30191975887E+02  0.00000000000E+00 0. -1.
</event>
<event>
 5    1  0.1245581E-004  0.9118800E+02  0.7818608E-02  0.1130116E+00
         25   -1    0    0    0    0  0.00000000000E+00  0.00000000000E+00  0.99999998245E-14  0.12500000000E+03  0.12500000000E+03 0.  0.
        -13    1    3    3    0    0  0.35023351198E+02 -0.27052032667E+02  0.43057797298E+02  0.61744899973E+02  0.10566000000E+00 0. -1.
         23    2    1    0    0    0  0.11904985692E+02 -0.88316969580E+01  0.23935001362E+02  0.96846637045E+02  0.92664228596E+02 0.  0.
         13    1    3    3    0    0 -0.23118365506E+02  0.18220335709E+02 -0.19122795936E+02  0.35101737072E+02  0.10566000000E+00 0.  1.
         22    1    1    0    0    0 -0.11904985692E+02  0.88316969580E+01 -0.23935001362E+02  0.28153362955E+02  0.00000000000E+00 0. -1.
</event>
<event>
 5    1  0.1245581E-004  0.9118800E+02  0.7818608E-02  0.1130116E+00
         25   -1    0    0    0    0  0.00000000000E+00  0.00000000000E+00  0.99999998245E-14  0.12500000000E+03  0.12500000000E+03 0.  0.
        -13    1    3    3    0    0 -0.18363839837E+02  0.20200850758E+02 -0.18961902524E+02  0.33239583275E+02  0.10566000000E+00 0.  1.
         23    2    1    0    0    0  0.13205234064E+02  0.12983281984E+02  0.28689061487E+02  0.90853169009E+02  0.84191996367E+02 0.  0.
         13    1    3    3    0    0  0.31569073901E+02 -0.72175687739E+01  0.47650964010E+02  0.57613585734E+02  0.10566000000E+00 0. -1.
         22    1    1    0    0    0 -0.13205234064E+02 -0.12983281984E+02 -0.28689061487E+02  0.34146830991E+02  0.00000000000E+00 0. -1.
</event>
<event>
 5    1  0.1245581E-004  0.9118800E+02  0.7818608E-02  0.1130116E+00
         25   -1    0    0    0    0  0.00000000000E+00  0.00000000000E+00  0.99999998245E-14  0.12500000000E+03  0.12500000000E+03 0.  0.
        -13    1    3    3    0    0  0.34667658897E+02 -0.21554161825E+02  0.29628625265E+02  0.50441005784E+02  0.10566000000E+00 0. -1.
         23    2    1    0    0    0  0.23103126918E+02  0.15504793269E+02  0.41702767828E+01  0.96865602972E+02  0.92689809272E+02 0.  0.
         13    1    3    3    0    0 -0.11564531979E+02  0.37058955094E+02 -0.25458348482E+02  0.46424597188E+02  0.10566000000E+00 0.  1.
         22    1    1    0    0    0 -0.23103126918E+02 -0.15504793269E+02 -0.41702767828E+01  0.28134397028E+02  0.00000000000E+00 0. -1.
</event>
<event>
 5    1  0.1245581E-004  0.9118800E+02  0.7818608E-02  0.1130116E+00
         25   -1    0    0    0    0  0.00000000000E+00  0.00000000000E+00  0.99999998245E-14  0.12500000000E+03  0.12500000000E+03 0.  0.
        -13    1    3    3    0    0 -0.95159988412E+01 -0.50635762967E+02 -0.21530615040E+02  0.55840068708E+02  0.10566000000E+00 0.  1.
         23    2    1    0    0    0 -0.99333804830E+01 -0.10781253241E+02 -0.25179789536E+02  0.95863609174E+02  0.91328540411E+02 0.  0.
         13    1    3    3    0    0 -0.41738164184E+00  0.39854509726E+02 -0.36491744956E+01  0.40023540467E+02  0.10566000000E+00 0. -1.
         22    1    1    0    0    0  0.99333804830E+01  0.10781253241E+02  0.25179789536E+02  0.29136390826E+02  0.00000000000E+00 0.  1.
</event>
<event>
 5    1  0.1245581E-004  0.9118800E+02  0.7818608E-02  0.1130116E+00
         25   -1    0    0    0    0  0.00000000000E+00  0.00000000000E+00  0.99999998245E-14  0.12500000000E+03  0.12500000000E+03 0.  0.
        -13    1    3    3    0    0  0.17276271392E+02  0.14820926940E+02  0.37074389953E+02  0.43504608755E+02  0.10566000000E+00 0. -1.
         23    2    1    0    0    0 -0.26261591700E+02  0.79552433462E+01  0.76022841611E+01  0.96526295994E+02  0.92231090195E+02 0.  0.
         13    1    3    3    0    0 -0.43537863092E+02 -0.68656835934E+01 -0.29472105792E+02  0.53021687239E+02  0.10566000000E+00 0.  1.
         22    1    1    0    0    0  0.26261591700E+02 -0.79552433462E+01 -0.76022841611E+01  0.28473704006E+02  0.00000000000E+00 0.  1.
</event>
<event>
 5    1  0.1245581E-004  0.9118800E+02  0.7818608E-02  0.1130116E+00
         25   -1    0    0    0    0  0.00000000000E+00  0.00000000000E+00  0.99999998245E-14  0.12500000000E+03  0.12500000000E+03 0.  0.
        -13    1    3    3    0    0  0.45335307162E+02 -0.54358976849E+01 -0.16599124157E+02  0.48583753930E+02  0.10566000000E+00 0.  1.
         23    2    1    0    0    0  0.12179148759E+01 -0.21078360992E+02 -0.20521814519E+02  0.95556401547E+02  0.90907097559E+02 0.  0.
         13    1    3    3    0    0 -0.44117392286E+02 -0.15642463307E+02 -0.39226903614E+01  0.46972647617E+02  0.10566000000E+00 0. -1.
         22    1    1    0    0    0 -0.12179148759E+01  0.21078360992E+02  0.20521814519E+02  0.29443598453E+02  0.00000000000E+00 0.  1.
</event>
<event>
 5    1  0.1245581E-004  0.9118800E+02  0.7818608E-02  0.1130116E+00
         25   -1    0    0    0    0  0.00000000000E+00  0.00000000000E+00  0.99999998245E-14  0.12500000000E+03  0.12500000000E+03 0.  0.
        -13    1    3    3    0    0  0.14469059106E+02  0.48192605175E+02 -0.21741785618E+02  0.54814206834E+02  0.10566000000E+00 0.  1.
         23    2    1    0    0    0 -0.12934642427E+02  0.18405174841E+02 -0.19293995754E+02  0.95363642130E+02  0.90641660027E+02 0.  0.
         13    1    3    3    0    0 -0.27403701533E+02 -0.29787430333E+02  0.24477898632E+01  0.40549435296E+02  0.10566000000E+00 0. -1.
         22    1    1    0    0    0  0.12934642427E+02 -0.18405174841E+02  0.19293995754E+02  0.29636357870E+02  0.00000000000E+00 0.  1.
</event>
<event>
 5    1  0.1245581E-004  0.9118800E+02  0.7818608E-02  0.1130116E+00
         25   -1    0    0    0    0  0.00000000000E+00  0.00000000000E+00  0.99999998245E-14  0.12500000000E+03  0.12500000000E+03 0.  0.
        -13    1    3    3    0    0 -0.13401814792E+02 -0.25464658636E+02  0.21937496743E+02  0.36184560334E+02  0.10566000000E+00 0.  1.
         23    2    1    0    0    0  0.28288245084E+02 -0.41086184608E+01 -0.11969098262E+02  0.94010245745E+02  0.88755627631E+02 0.  0.
         13    1    3    3    0    0  0.41690059876E+02  0.21356040175E+02 -0.33906595004E+02  0.57825685411E+02  0.10566000000E+00 0. -1.
         22    1    1    0    0    0 -0.28288245084E+02  0.41086184608E+01  0.11969098262E+02  0.30989754255E+02  0.00000000000E+00 0. -1.
</event>
<event>
 5    1  0.1245581E-004  0.9118800E+02  0.7818608E-02  0.1130116E+00
         25   -1    0    0    0    0  0.00000000000E+00  0.00000000000E+00  0.99999998245E-14  0.12500000000E+03  0.12500000000E+03 0.  0.
        -13    1    3    3    0    0  0.32305939284E+02 -0.13640503391E+02  0.33293605556E+02  0.48355065720E+02  0.10566000000E+00 0.  1.
         23    2    1    0    0    0 -0.13727752909E+02 -0.11607857669E+02  0.23412971367E+02  0.95481179092E+02  0.90803605506E+02 0.  0.
         13    1    3    3    0    0 -0.46033692193E+02  0.20326457216E+01 -0.98806341897E+01  0.47126113372E+02  0.10566000000E+00 0. -1.
         22    1    1    0    0    0  0.13727752909E+02  0.11607857669E+02 -0.23412971367E+02  0.29518820908E+02  0.00000000000E+00 0. -1.
</event>
<event>
 5    1  0.1245581E-004  0.9118800E+02  0.7818608E-02  0.1130116E+00
         25   -1    0    0    0    0  0.00000000000E+00  0.00000000000E+00  0.99999998245E-14  0.12500000000E+03  0.12500000000E+03 0.  0.
        -13    1    3    3    0    0 -0.28514923490E+02 -0.58197177765E+01  0.33790884686E+02  0.44596020322E+02  0.10566000000E+00 0.  1.
         23    2    1    0    0    0 -0.62694262731E+01 -0.24225337401E+02  0.43295708809E+02  0.74993089685E+02  0.55886245367E+02 0.  0.
         13    1    3    3    0    0  0.22245497217E+02 -0.18405619625E+02  0.95048241233E+01  0.30397069363E+02  0.10566000000E+00 0. -1.
         22    1    1    0    0    0  0.62694262731E+01  0.24225337401E+02 -0.43295708809E+02  0.50006910315E+02  0.00000000000E+00 0. -1.
</event>
<event>
 5    1  0.1245581E-004  0.9118800E+02  0.7818608E-02  0.1130116E+00
         25   -1    0    0    0    0  0.00000000000E+00  0.00000000000E+00  0.99999998245E-14  0.12500000000E+03  0.12500000000E+03 0.  0.
        -13    1    3    3    0    0 -0.24771545003E+02  0.10945362953E+02 -0.30033493660E+02  0.40440725976E+02  0.10566000000E+00 0. -1.
         23    2    1    0    0    0  0.21029796798E+02 -0.15125477554E+02 -0.14145270829E+02  0.95485239093E+02  0.90809194321E+02 0.  0.
         13    1    3    3    0    0  0.45801341801E+02 -0.26070840507E+02  0.15888222831E+02  0.55044513117E+02  0.10566000000E+00 0.  1.
         22    1    1    0    0    0 -0.21029796798E+02  0.15125477554E+02  0.14145270829E+02  0.29514760907E+02  0.00000000000E+00 0.  1.
</event>
<event>
 5    1  0.1245581E-004  0.9118800E+02  0.7818608E-02  0.1130116E+00
         25   -1    0    0    0    0  0.00000000000E+00  0.00000000000E+00  0.99999998245E-14  0.12500000000E+03  0.12500000000E+03 0.  0.
        -13    1    3    3    0    0 -0.51363714203E+02  0.20053565911E+02 -0.29201071458E+02  0.62394634231E+02  0.10566000000E+00 0.  1.
         23    2    1    0    0    0 -0.25856139172E+02  0.76795573792E+01 -0.12845267178E+02  0.95124986639E+02  0.90311940848E+02 0.  0.
         13    1    3    3    0    0  0.25507575031E+02 -0.12374008532E+02  0.16355804280E+02  0.32730352408E+02  0.10566000000E+00 0. -1.
         22    1    1    0    0    0  0.25856139172E+02 -0.76795573792E+01  0.12845267178E+02  0.29875013361E+02  0.00000000000E+00 0.  1.
</event>
<event>
 5    1  0.1245581E-004  0.9118800E+02  0.7818608E-02  0.1130116E+00
         25   -1    0    0    0    0  0.00000000000E+00  0.00000000000E+00  0.99999998245E-14  0.12500000000E+03  0.12500000000E+03 0.  0.
        -13    1    3    3    0    0 -0.70419588811E+01 -0.15456033041E+02  0.33874382761E+02  0.37894103944E+02  0.10566000000E+00 0.  1.
         23    2    1    0    0    0  0.81000214565E+01  0.27597354852E+02 -0.23231462230E+01  0.96144821075E+02  0.91712623279E+02 0.  0.
         13    1    3    3    0    0  0.15141980338E+02  0.43053387893E+02 -0.36197528984E+02  0.58250717131E+02  0.10566000000E+00 0. -1.
         22    1    1    0    0    0 -0.81000214565E+01 -0.27597354852E+02  0.23231462230E+01  0.28855178925E+02  0.00000000000E+00 0. -1.
</event>
<event>
 5    1  0.1245581E-004  0.9118800E+02  0.7818608E-02  0.1130116E+00
         25   -1    0    0    0    0  0.00000000000E+00  0.00000000000E+00  0.99999998245E-14  0.12500000000E+03  0.12500000000E+03 0.  0.
        -13    1    3    3    0    0  0.31837311158E+02 -0.20217255157E+02 -0.85365726319E+01  0.38668281888E+02  0.10566000000E+00 0. -1.
         23    2    1    0    0    0 -0.23225917672E+02 -0.26046058377E+01 -0.15586190541E+02  0.96908069507E+02  0.92747061283E+02 0.  0.
         13    1    3    3    0    0 -0.55063228830E+02  0.17612649319E+02 -0.70496179089E+01  0.58239787619E+02  0.10566000000E+00 0.  1.
         22    1    1    0    0    0  0.23225917672E+02  0.26046058377E+01  0.15586190541E+02  0.28091930493E+02  0.00000000000E+00 0.  1.
</event>
<event>
 5    1  0.1245581E-004  0.9118800E+02  0.7818608E-02  0.1130116E+00
         25   -1    0    0    0    0  0.00000000000E+00  0.00000000000E+00  0.99999998245E-14  0.12500000000E+03  0.12500000000E+03 0.  0.
        -13    1    3    3    0    0  0.14338143934E+02 -0.43448040466E+01 -0.60317857878E+02  0.62150742850E+02  0.10566000000E+00 0. -1.
         23    2    1    0    0    0  0.92799881595E+01  0.16872329589E+01 -0.26545887836E+02  0.96828221634E+02  0.92639383680E+02 0.  0.
         13    1    3    3    0    0 -0.50581557743E+01  0.60320370055E+01  0.33771970043E+02  0.34677478785E+02  0.10566000000E+00 0.  1.
         22    1    1    0    0    0 -0.92799881595E+01 -0.16872329589E+01  0.26545887836E+02  0.28171778366E+02  0.00000000000E+00 0. -1.
</event>
<event>
 5    1  0.1245581E-004  0.9118800E+02  0.7818608E-02  0.1130116E+00
         25   -1    0    0    0    0  0.00000000000E+00  0.00000000000E+00  0.99999998245E-14  0.12500000000E+03  0.12500000000E+03 0.  0.
        -13    1    3    3    0    0 -0.39035718185E+02  0.14461787190E+01  0.35286080346E+01  0.39221689991E+02  0.10566000000E+00 0.  1.
         23    2    1    0    0    0  0.57848436399E+01  0.95045655418E+01 -0.28173389719E+02  0.94709059600E+02  0.89734413131E+02 0.  0.
         13    1    3    3    0    0  0.44820561825E+02  0.80583868228E+01 -0.31701997753E+02  0.55487369608E+02  0.10566000000E+00 0. -1.
         22    1    1    0    0    0 -0.57848436399E+01 -0.95045655418E+01  0.28173389719E+02  0.30290940400E+02  0.00000000000E+00 0. -1.
</event>
<event>
 5    1  0.1245581E-004  0.9118800E+02  0.7818608E-02  0.1130116E+00
         25   -1    0    0    0    0  0.00000000000E+00  0.00000000000E+00  0.99999998245E-14  0.12500000000E+03  0.12500000000E+03 0.  0.
        -13    1    3    3    0    0  0.90250415644E+01  0.40740723722E+02 -0.20038020969E+01  0.41776600286E+02  0.10566000000E+00 0.  1.
         23    2    1    0    0    0 -0.15276993777E+02  0.44776280667E+01  0.26623841489E+02  0.93979609487E+02  0.88712470215E+02 0.  0.
         13    1    3    3    0    0 -0.24302035341E+02 -0.36263095655E+02  0.28627643586E+02  0.52203009200E+02  0.10566000000E+00 0. -1.
         22    1    1    0    0    0  0.15276993777E+02 -0.44776280667E+01 -0.26623841489E+02  0.31020390513E+02  0.00000000000E+00 0. -1.
</event>
<event>
 5    1  0.1245581E-004  0.9118800E+02  0.7818608E-02  0.1130116E+00
         25   -1    0    0    0    0  0.00000000000E+00  0.00000000000E+00  0.99999998245E-14  0.12500000000E+03  0.12500000000E+03 0.  0.
        -13    1    3    3    0    0 -0.10426738112E+02  0.32982277080E+02  0.38647841463E+02  0.51867275645E+02  0.10566000000E+00 0.  1.
         23    2    1    0    0    0 -0.56225893841E+01  0.26164915749E+02 -0.62371008960E+01  0.97520593982E+02  0.93568950488E+02 0.  0.
         13    1    3    3    0    0  0.48041487280E+01 -0.68173613306E+01 -0.44884942359E+02  0.45653318337E+02  0.10566000000E+00 0. -1.
         22    1    1    0    0    0  0.56225893841E+01 -0.26164915749E+02  0.62371008960E+01  0.27479406018E+02  0.00000000000E+00 0.  1.
</event>
<event>
 5    1  0.1245581E-004  0.9118800E+02  0.7818608E-02  0.1130116E+00
         25   -1    0    0    0    0  0.00000000000E+00  0.00000000000E+00  0.99999998245E-14  0.12500000000E+03  0.12500000000E+03 0.  0.
        -13    1    3    3    0    0 -0.28826130473E+02 -0.22077182287E+01  0.19773360214E+02  0.35025944042E+02  0.10566000000E+00 0.  1.
         23    2    1    0    0    0  0.29141665828E+02  0.90138177364E+00  0.11476048638E+02  0.93667127985E+02  0.88271071118E+02 0.  0.
         13    1    3    3    0    0  0.57967796301E+02  0.31091000024E+01 -0.82973115762E+01  0.58641183943E+02  0.10566000000E+00 0. -1.
         22    1    1    0    0    0 -0.29141665828E+02 -0.90138177364E+00 -0.11476048638E+02  0.31332872015E+02  0.00000000000E+00 0. -1.
</event>
<event>
 5    1  0.1245581E-004  0.9118800E+02  0.7818608E-02  0.1130116E+00
         25   -1    0    0    0    0  0.00000000000E+00  0.00000000000E+00  0.99999998245E-14  0.12500000000E+03  0.12500000000E+03 0.  0.
        -13    1    3    3    0    0  0.37482582596E+02 -0.76708402609E+01  0.84043929803E+00  0.38268829230E+02  0.10566000000E+00 0. -1.
         23    2    1    0    0    0 -0.11981264234E+02  0.73184923781E+01  0.25771193113E+02  0.95652676139E+02  0.91039381780E+02 0.  0.
         13    1    3    3    0    0 -0.49463846831E+02  0.14989332639E+02  0.24930753815E+02  0.57383846909E+02  0.10566000000E+00 0.  1.
         22    1    1    0    0    0  0.11981264234E+02 -0.73184923781E+01 -0.25771193113E+02  0.29347323861E+02  0.00000000000E+00 0.  1.
</event>
<event>
 5    1  0.1245581E-004  0.9118800E+02  0.7818608E-02  0.1130116E+00
         25   -1    0    0    0    0  0.00000000000E+00  0.00000000000E+00  0.99999998245E-14  0.12500000000E+03  0.12500000000E+03 0.  0.
        -13    1    3    3    0    0 -0.22192798140E+02 -0.13013377167E+02 -0.14354246532E+02  0.29460547043E+02  0.10566000000E+00 0. -1.
         23    2    1    0    0    0  0.26222577219E+02  0.10459943556E+02  0.17302263266E+02  0.91888034046E+02  0.85714692507E+02 0.  0.
         13    1    3    3    0    0  0.48415375359E+02  0.23473320723E+02  0.31656509797E+02  0.62427487003E+02  0.10566000000E+00 0.  1.
         22    1    1    0    0    0 -0.26222577219E+02 -0.10459943556E+02 -0.17302263266E+02  0.33111965954E+02  0.00000000000E+00 0.  1.
</event>
<event>
 5    1  0.1245581E-004  0.9118800E+02  0.7818608E-02  0.1130116E+00
         25   -1    0    0    0    0  0.00000000000E+00  0.00000000000E+00  0.99999998245E-14  0.12500000000E+03  0.12500000000E+03 0.  0.
        -13    1    3    3    0    0 -0.19334271792E+02  0.30767508139E+02 -0.45709230451E+02  0.58393480246E+02  0.10566000000E+00 0.  1.
         23    2    1    0    0    0 -0.98444050572E+01 -0.25745076092E+00 -0.27919349159E+02  0.95394786788E+02  0.90684600110E+02 0.  0.
         13    1    3    3    0    0  0.94898667348E+01 -0.31024958900E+02  0.17789881292E+02  0.37001306542E+02  0.10566000000E+00 0. -1.
         22    1    1    0    0    0  0.98444050572E+01  0.25745076092E+00  0.27919349159E+02  0.29605213212E+02  0.00000000000E+00 0.  1.
</event>
<event>
 5    1  0.1245581E-004  0.9118800E+02  0.7818608E-02  0.1130116E+00
         25   -1    0    0    0    0  0.00000000000E+00  0.00000000000E+00  0.99999998245E-14  0.12500000000E+03  0.12500000000E+03 0.  0.
        -13    1    3    3    0    0  0.41900785360E+01 -0.49640594310E+02  0.30928647659E+02  0.58637341103E+02  0.10566000000E+00 0.  1.
         23    2    1    0    0    0  0.41375008576E+01 -0.43744014826E+02  0.10605498789E+02  0.79798956306E+02  0.65762748396E+02 0.  0.
         13    1    3    3    0    0 -0.52577678413E-01  0.58965794839E+01 -0.20323148870E+02  0.21161615204E+02  0.10566000000E+00 0. -1.
         22    1    1    0    0    0 -0.41375008576E+01  0.43744014826E+02 -0.10605498789E+02  0.45201043694E+02  0.00000000000E+00 0.  1.
</event>
<event>
 5    1  0.1245581E-004  0.9118800E+02  0.7818608E-02  0.1130116E+00
         25   -1    0    0    0    0  0.00000000000E+00  0.00000000000E+00  0.99999998245E-14  0.12500000000E+03  0.12500000000E+03 0.  0.
        -13    1    3    3    0    0  0.17374746214E+02 -0.70515554307E+01 -0.46371085588E+02  0.50018946237E+02  0.10566000000E+00 0. -1.
         23    2    1    0    0    0 -0.12513147325E+02 -0.22143023640E+02 -0.19467074751E+02  0.92970960813E+02  0.87279666608E+02 0.  0.
         13    1    3    3    0    0 -0.29887893540E+02 -0.15091468209E+02  0.26904010838E+02  0.42952014576E+02  0.10566000000E+00 0.  1.
         22    1    1    0    0    0  0.12513147325E+02  0.22143023640E+02  0.19467074751E+02  0.32029039187E+02  0.00000000000E+00 0. -1.
</event>
<event>
 5    1  0.1245581E-004  0.9118800E+02  0.7818608E-02  0.1130116E+00
         25   -1    0    0    0    0  0.00000000000E+00  0.00000000000E+00  0.99999998245E-14  0.12500000000E+03  0.12500000000E+03 0.  0.
        -13    1    3    3    0    0  0.24117252114E+02  0.34532790719E+02 -0.19145210639E+02  0.46267761334E+02  0.10566000000E+00 0.  1.
         23    2    1    0    0    0  0.26879941536E+02 -0.55502998862E+01  0.98750720125E+01  0.95830595943E+02  0.91283344515E+02 0.  0.
         13    1    3    3    0    0  0.27626894215E+01 -0.40083090605E+02  0.29020282652E+02  0.49562834609E+02  0.10566000000E+00 0. -1.
         22    1    1    0    0    0 -0.26879941536E+02  0.55502998862E+01 -0.98750720125E+01  0.29169404057E+02  0.00000000000E+00 0. -1.
</event>
<event>
 5    1  0.1245581E-004  0.9118800E+02  0.7818608E-02  0.1130116E+00
         25   -1    0    0    0    0  0.00000000000E+00  0.00000000000E+00  0.99999998245E-14  0.12500000000E+03  0.12500000000E+03 0.  0.
        -13    1    3    3    0    0 -0.18197506883E+02  0.27913229147E+02 -0.46815000021E+02  0.57462622714E+02  0.10566000000E+00 0. -1.
         23    2    1    0    0    0 -0.18527250881E+02  0.19028656241E+02 -0.80293127126E+01  0.97254394110E+02  0.93212652186E+02 0.  0.
         13    1    3    3    0    0 -0.32974399866E+00 -0.88845729063E+01  0.38785687308E+02  0.39791771396E+02  0.10566000000E+00 0.  1.
         22    1    1    0    0    0  0.18527250881E+02 -0.19028656241E+02  0.80293127126E+01  0.27745605890E+02  0.00000000000E+00 0. -1.
</event>
<event>
 5    1  0.1245581E-004  0.9118800E+02  0.7818608E-02  0.1130116E+00
         25   -1    0    0    0    0  0.00000000000E+00  0.00000000000E+00  0.99999998245E-14  0.12500000000E+03  0.12500000000E+03 0.  0.
        -13    1    3    3    0    0  0.49279129636E+01 -0.32199232963E+02  0.15856493754E+02  0.36228641815E+02  0.10566000000E+00 0. -1.
         23    2    1    0    0    0  0.15102419184E+02  0.24974249063E+02  0.34468595687E+01  0.95611617561E+02  0.90982989566E+02 0.  0.
         13    1    3    3    0    0  0.10174506220E+02  0.57173482026E+02 -0.12409634185E+02  0.59382975746E+02  0.10566000000E+00 0.  1.
         22    1    1    0    0    0 -0.15102419184E+02 -0.24974249063E+02 -0.34468595687E+01  0.29388382439E+02  0.00000000000E+00 0.  1.
</event>
<event>
 5    1  0.1245581E-004  0.9118800E+02  0.7818608E-02  0.1130116E+00
         25   -1    0    0    0    0  0.00000000000E+00  0.00000000000E+00  0.99999998245E-14  0.12500000000E+03  0.12500000000E+03 0.  0.
        -13    1    3    3    0    0  0.30548895975E+02 -0.52014255926E+01 -0.27913182703E+01  0.31114184791E+02  0.10566000000E+00 0. -1.
         23    2    1    0    0    0 -0.21661290777E+02  0.23599733491E+02  0.86269496646E+01  0.91824961198E+02  0.85622662302E+02 0.  0.
         13    1    3    3    0    0 -0.52210186752E+02  0.28801159084E+02  0.11418267935E+02  0.60710776407E+02  0.10566000000E+00 0.  1.
         22    1    1    0    0    0  0.21661290777E+02 -0.23599733491E+02 -0.86269496646E+01  0.33175038802E+02  0.00000000000E+00 0.  1.
</event>
<event>
 5    1  0.1245581E-004  0.9118800E+02  0.7818608E-02  0.1130116E+00
         25   -1    0    0    0    0  0.00000000000E+00  0.00000000000E+00  0.99999998245E-14  0.12500000000E+03  0.12500000000E+03 0.  0.
        -13    1    3    3    0    0  0.47082983407E+02  0.86861623131E+01 -0.38155847635E+02  0.61222027204E+02  0.10566000000E+00 0. -1.
         23    2    1    0    0    0  0.23406692778E+02  0.10852978492E+02 -0.12073984353E+02  0.96514187617E+02  0.92214678356E+02 0.  0.
         13    1    3    3    0    0 -0.23676290629E+02  0.21668161791E+01  0.26081863281E+02  0.35292160413E+02  0.10566000000E+00 0.  1.
         22    1    1    0    0    0 -0.23406692778E+02 -0.10852978492E+02  0.12073984353E+02  0.28485812383E+02  0.00000000000E+00 0. -1.
</event>
<event>
 5    1  0.1245581E-004  0.9118800E+02  0.7818608E-02  0.1130116E+00
         25   -1    0    0    0    0  0.00000000000E+00  0.00000000000E+00  0.99999998245E-14  0.12500000000E+03  0.12500000000E+03 0.  0.
        -13    1    3    3    0    0  0.30175427889E+02 -0.23530606549E+02  0.59504932545E+01  0.38725513900E+02  0.10566000000E+00 0. -1.
         23    2    1    0    0    0  0.39293144137E+01  0.26273719678E+02  0.12932061138E+02  0.95453662448E+02  0.90765718264E+02 0.  0.
         13    1    3    3    0    0 -0.26246113475E+02  0.49804326227E+02  0.69815678835E+01  0.56728148547E+02  0.10566000000E+00 0.  1.
         22    1    1    0    0    0 -0.39293144137E+01 -0.26273719678E+02 -0.12932061138E+02  0.29546337552E+02  0.00000000000E+00 0.  1.
</event>
<event>
 5    1  0.1245581E-004  0.9118800E+02  0.7818608E-02  0.1130116E+00
         25   -1    0    0    0    0  0.00000000000E+00  0.00000000000E+00  0.99999998245E-14  0.12500000000E+03  0.12500000000E+03 0.  0.
        -13    1    3    3    0    0 -0.39874700661E+02 -0.74598831173E+01  0.35596455488E+01  0.40722522631E+02  0.10566000000E+00 0. -1.
         23    2    1    0    0    0  0.84161273817E+01  0.38365421585E+01  0.27639568488E+02  0.95853885301E+02  0.91315230521E+02 0.  0.
         13    1    3    3    0    0  0.48290828043E+02  0.11296425276E+02  0.24079922940E+02  0.55131362670E+02  0.10566000000E+00 0.  1.
         22    1    1    0    0    0 -0.84161273817E+01 -0.38365421585E+01 -0.27639568488E+02  0.29146114699E+02  0.00000000000E+00 0.  1.
</event>
<event>
 5    1  0.1245581E-004  0.9118800E+02  0.7818608E-02  0.1130116E+00
         25   -1    0    0    0    0  0.00000000000E+00  0.00000000000E+00  0.99999998245E-14  0.12500000000E+03  0.12500000000E+03 0.  0.
        -13    1    3    3    0    0 -0.15685616543E+02 -0.14879296531E+02  0.29811475911E+02  0.36826176718E+02  0.10566000000E+00 0.  1.
         23    2    1    0    0    0 -0.14530869510E+02  0.10832994045E+02 -0.23083735649E+02  0.95651085536E+02  0.91037197803E+02 0.  0.
         13    1    3    3    0    0  0.11547470327E+01  0.25712290576E+02 -0.52895211561E+02  0.58824908818E+02  0.10566000000E+00 0. -1.
         22    1    1    0    0    0  0.14530869510E+02 -0.10832994045E+02  0.23083735649E+02  0.29348914464E+02  0.00000000000E+00 0. -1.
</event>
<event>
 5    1  0.1245581E-004  0.9118800E+02  0.7818608E-02  0.1130116E+00
         25   -1    0    0    0    0  0.00000000000E+00  0.00000000000E+00  0.99999998245E-14  0.12500000000E+03  0.12500000000E+03 0.  0.
        -13    1    3    3    0    0 -0.29941604267E+02 -0.25525352600E+02 -0.19011872368E+02  0.43697891785E+02  0.10566000000E+00 0. -1.
         23    2    1    0    0    0 -0.28048018905E+02  0.55415218224E+01 -0.35897935166E+02  0.79108153471E+02  0.64436312494E+02 0.  0.
         13    1    3    3    0    0  0.18935853623E+01  0.31066874422E+02 -0.16886062798E+02  0.35410261687E+02  0.10566000000E+00 0.  1.
         22    1    1    0    0    0  0.28048018905E+02 -0.55415218224E+01  0.35897935166E+02  0.45891846529E+02  0.00000000000E+00 0. -1.
</event>
<event>
 5    1  0.1245581E-004  0.9118800E+02  0.7818608E-02  0.1130116E+00
         25   -1    0    0    0    0  0.00000000000E+00  0.00000000000E+00  0.99999998245E-14  0.12500000000E+03  0.12500000000E+03 0.  0.
        -13    1    3    3    0    0 -0.44092412165E+02 -0.25029574453E+01  0.32428825573E+02  0.54790925331E+02  0.10566000000E+00 0. -1.
         23    2    1    0    0    0 -0.97865904788E+01  0.15645770722E+02  0.24372402523E+02  0.94429074279E+02  0.89343542407E+02 0.  0.
         13    1    3    3    0    0  0.34305821686E+02  0.18148728167E+02 -0.80564230499E+01  0.39638148948E+02  0.10566000000E+00 0.  1.
         22    1    1    0    0    0  0.97865904788E+01 -0.15645770722E+02 -0.24372402523E+02  0.30570925721E+02  0.00000000000E+00 0. -1.
</event>
<event>
 4    1  0.1245581E-004  0.9118800E+02  0.7818608E-02  0.1130116E+00
         25   -1    0    0    0    0  0.00000000000E+00  0.00000000000E+00  0.99999998245E-14  0.12500000000E+03  0.12500000000E+03 0.  0.
        -13    1    1    0    0    0  0.10256452929E+02 -0.49581285581E+01  0.45366125876E+01  0.12262539838E+02  0.10566000000E+00 0.  1.
         13    1    1    0    0    0 -0.15450970877E+02 -0.42176465755E+02  0.30051504030E+02  0.54043416095E+02  0.10566000000E+00 0. -1.
         22    1    1    0    0    0  0.51945179488E+01  0.47134594314E+02 -0.34588116618E+02  0.58694044067E+02  0.00000000000E+00 0. -1.
</event>
<event>
 5    1  0.1245581E-004  0.9118800E+02  0.7818608E-02  0.1130116E+00
         25   -1    0    0    0    0  0.00000000000E+00  0.00000000000E+00  0.99999998245E-14  0.12500000000E+03  0.12500000000E+03 0.  0.
        -13    1    3    3    0    0 -0.34495607657E+02 -0.25597751245E+02  0.32123326913E+02  0.53638709086E+02  0.10566000000E+00 0.  1.
         23    2    1    0    0    0  0.33351223834E+01  0.35066864953E+01  0.22055381462E+02  0.10241992598E+03  0.99899857327E+02 0.  0.
         13    1    3    3    0    0  0.37830730040E+02  0.29104437741E+02 -0.10067945450E+02  0.48781216890E+02  0.10566000000E+00 0. -1.
         22    1    1    0    0    0 -0.33351223834E+01 -0.35066864953E+01 -0.22055381462E+02  0.22580074024E+02  0.00000000000E+00 0. -1.
</event>
<event>
 5    1  0.1245581E-004  0.9118800E+02  0.7818608E-02  0.1130116E+00
         25   -1    0    0    0    0  0.00000000000E+00  0.00000000000E+00  0.99999998245E-14  0.12500000000E+03  0.12500000000E+03 0.  0.
        -13    1    3    3    0    0  0.29406167892E+02 -0.19773148955E+02  0.28721500484E+02  0.45613987808E+02  0.10566000000E+00 0. -1.
         23    2    1    0    0    0 -0.79775902029E+01  0.12351860172E+02  0.26183822577E+02  0.94969965703E+02  0.90097122183E+02 0.  0.
         13    1    3    3    0    0 -0.37383758095E+02  0.32125009127E+02 -0.25376779073E+01  0.49355977894E+02  0.10566000000E+00 0.  1.
         22    1    1    0    0    0  0.79775902029E+01 -0.12351860172E+02 -0.26183822577E+02  0.30030034297E+02  0.00000000000E+00 0.  1.
</event>
<event>
 5    1  0.1245581E-004  0.9118800E+02  0.7818608E-02  0.1130116E+00
         25   -1    0    0    0    0  0.00000000000E+00  0.00000000000E+00  0.99999998245E-14  0.12500000000E+03  0.12500000000E+03 0.  0.
        -13    1    3    3    0    0 -0.18347148486E+02 -0.34539070885E+02 -0.59818119281E+01  0.39564611879E+02  0.10566000000E+00 0.  1.
         23    2    1    0    0    0  0.11489540578E+02  0.14682684432E+02 -0.18788722975E+02  0.98531020498E+02  0.94909194099E+02 0.  0.
         13    1    3    3    0    0  0.29836689065E+02  0.49221755317E+02 -0.12806911047E+02  0.58966408619E+02  0.10566000000E+00 0. -1.
         22    1    1    0    0    0 -0.11489540578E+02 -0.14682684432E+02  0.18788722975E+02  0.26468979502E+02  0.00000000000E+00 0. -1.
</event>
<event>
 5    1  0.1245581E-004  0.9118800E+02  0.7818608E-02  0.1130116E+00
         25   -1    0    0    0    0  0.00000000000E+00  0.00000000000E+00  0.99999998245E-14  0.12500000000E+03  0.12500000000E+03 0.  0.
        -13    1    3    3    0    0 -0.29674262922E+02 -0.53564458425E+02  0.12157135659E+02  0.62430122520E+02  0.10566000000E+00 0.  1.
         23    2    1    0    0    0 -0.15285633492E+02 -0.23302557860E+02  0.54312521602E+01  0.96607073168E+02  0.92340501904E+02 0.  0.
         13    1    3    3    0    0  0.14388629430E+02  0.30261900565E+02 -0.67258834983E+01  0.34176950648E+02  0.10566000000E+00 0. -1.
         22    1    1    0    0    0  0.15285633492E+02  0.23302557860E+02 -0.54312521602E+01  0.28392926832E+02  0.00000000000E+00 0.  1.
</event>
<event>
 5    1  0.1245581E-004  0.9118800E+02  0.7818608E-02  0.1130116E+00
         25   -1    0    0    0    0  0.00000000000E+00  0.00000000000E+00  0.99999998245E-14  0.12500000000E+03  0.12500000000E+03 0.  0.
        -13    1    3    3    0    0 -0.18178131924E+02  0.36187102333E+02 -0.32160958302E+02  0.51713530709E+02  0.10566000000E+00 0.  1.
         23    2    1    0    0    0  0.12222888917E+02  0.53816041055E+01 -0.26450324697E+02  0.95369266752E+02  0.90649416369E+02 0.  0.
         13    1    3    3    0    0  0.30401020841E+02 -0.30805498227E+02  0.57106336044E+01  0.43655736043E+02  0.10566000000E+00 0. -1.
         22    1    1    0    0    0 -0.12222888917E+02 -0.53816041055E+01  0.26450324697E+02  0.29630733248E+02  0.00000000000E+00 0.  1.
</event>
<event>
 5    1  0.1245581E-004  0.9118800E+02  0.7818608E-02  0.1130116E+00
         25   -1    0    0    0    0  0.00000000000E+00  0.00000000000E+00  0.99999998245E-14  0.12500000000E+03  0.12500000000E+03 0.  0.
        -13    1    3    3    0    0 -0.82589831111E+01 -0.18024273456E+02 -0.43845858227E+02  0.48120221148E+02  0.10566000000E+00 0.  1.
         23    2    1    0    0    0  0.25647879489E+01 -0.28586441060E+02  0.18356204705E+01  0.96240092973E+02  0.91842382609E+02 0.  0.
         13    1    3    3    0    0  0.10823771060E+02 -0.10562167604E+02  0.45681478697E+02  0.48119871825E+02  0.10566000000E+00 0. -1.
         22    1    1    0    0    0 -0.25647879489E+01  0.28586441060E+02 -0.18356204705E+01  0.28759907027E+02  0.00000000000E+00 0.  1.
</event>
<event>
 5    1  0.1245581E-004  0.9118800E+02  0.7818608E-02  0.1130116E+00
         25   -1    0    0    0    0  0.00000000000E+00  0.00000000000E+00  0.99999998245E-14  0.12500000000E+03  0.12500000000E+03 0.  0.
        -13    1    3    3    0    0  0.22995425261E+02  0.32082519434E+02  0.26871474425E+01  0.39563993246E+02  0.10566000000E+00 0.  1.
         23    2    1    0    0    0 -0.16313363243E+02 -0.14030507115E+00  0.25059584401E+02  0.95098022203E+02  0.90274611884E+02 0.  0.
         13    1    3    3    0    0 -0.39308788503E+02 -0.32222824505E+02  0.22372436959E+02  0.55534028957E+02  0.10566000000E+00 0. -1.
         22    1    1    0    0    0  0.16313363243E+02  0.14030507115E+00 -0.25059584401E+02  0.29901977797E+02  0.00000000000E+00 0. -1.
</event>
<event>
 5    1  0.1245581E-004  0.9118800E+02  0.7818608E-02  0.1130116E+00
         25   -1    0    0    0    0  0.00000000000E+00  0.00000000000E+00  0.99999998245E-14  0.12500000000E+03  0.12500000000E+03 0.  0.
        -13    1    3    3    0    0 -0.40311880876E+01  0.25391856026E+02 -0.38584860910E+02  0.46365930222E+02  0.10566000000E+00 0. -1.
         23    2    1    0    0    0  0.40928293804E+00 -0.20459040609E+02 -0.21013702135E+02  0.95668864110E+02  0.91061605672E+02 0.  0.
         13    1    3    3    0    0  0.44404710256E+01 -0.45850896635E+02  0.17571158776E+02  0.49302933888E+02  0.10566000000E+00 0.  1.
         22    1    1    0    0    0 -0.40928293804E+00  0.20459040609E+02  0.21013702135E+02  0.29331135890E+02  0.00000000000E+00 0.  1.
</event>
<event>
 5    1  0.1245581E-004  0.9118800E+02  0.7818608E-02  0.1130116E+00
         25   -1    0    0    0    0  0.00000000000E+00  0.00000000000E+00  0.99999998245E-14  0.12500000000E+03  0.12500000000E+03 0.  0.
        -13    1    3    3    0    0  0.46844644304E+02 -0.62132019014E+00  0.18018360779E+02  0.50194414310E+02  0.10566000000E+00 0.  1.
         23    2    1    0    0    0  0.21897848145E+02  0.16022289888E+01 -0.19720163423E+02  0.95487837481E+02  0.90812770965E+02 0.  0.
         13    1    3    3    0    0 -0.24946796159E+02  0.22235491789E+01 -0.37738524202E+02  0.45293423171E+02  0.10566000000E+00 0. -1.
         22    1    1    0    0    0 -0.21897848145E+02 -0.16022289888E+01  0.19720163423E+02  0.29512162519E+02  0.00000000000E+00 0. -1.
</event>
<event>
 5    1  0.1245581E-004  0.9118800E+02  0.7818608E-02  0.1130116E+00
         25   -1    0    0    0    0  0.00000000000E+00  0.00000000000E+00  0.99999998245E-14  0.12500000000E+03  0.12500000000E+03 0.  0.
        -13    1    3    3    0    0  0.48680821340E+02  0.12257288629E+02 -0.27254189489E+02  0.57121497701E+02  0.10566000000E+00 0.  1.
         23    2    1    0    0    0  0.22046988053E+02 -0.12791735239E+02 -0.91746619223E+01  0.97909917055E+02  0.94087614826E+02 0.  0.
         13    1    3    3    0    0 -0.26633833288E+02 -0.25049023867E+02  0.18079527566E+02  0.40788419354E+02  0.10566000000E+00 0. -1.
         22    1    1    0    0    0 -0.22046988053E+02  0.12791735239E+02  0.91746619223E+01  0.27090082945E+02  0.00000000000E+00 0.  1.
</event>
<event>
 5    1  0.1245581E-004  0.9118800E+02  0.7818608E-02  0.1130116E+00
         25   -1    0    0    0    0  0.00000000000E+00  0.00000000000E+00  0.99999998245E-14  0.12500000000E+03  0.12500000000E+03 0.  0.
        -13    1    3    3    0    0  0.43974168898E+02  0.32789313622E+02 -0.44343622099E+01  0.55032184677E+02  0.10566000000E+00 0. -1.
         23    2    1    0    0    0  0.22933897260E+02  0.54491728278E+01  0.17258814203E+02  0.95784870431E+02  0.91220708218E+02 0.  0.
         13    1    3    3    0    0 -0.21040271638E+02 -0.27340140794E+02  0.21693176413E+02  0.40752685754E+02  0.10566000000E+00 0.  1.
         22    1    1    0    0    0 -0.22933897260E+02 -0.54491728278E+01 -0.17258814203E+02  0.29215129569E+02  0.00000000000E+00 0. -1.
</event>
<event>
 5    1  0.1245581E-004  0.9118800E+02  0.7818608E-02  0.1130116E+00
         25   -1    0    0    0    0  0.00000000000E+00  0.00000000000E+00  0.99999998245E-14  0.12500000000E+03  0.12500000000E+03 0.  0.
        -13    1    3    3    0    0  0.29341994465E+02  0.15214763667E+02 -0.11601529299E+02  0.35029249475E+02  0.10566000000E+00 0.  1.
         23    2    1    0    0    0 -0.28778898606E+02 -0.56669687861E+00 -0.87664805483E+00  0.96202176086E+02  0.91790762180E+02 0.  0.
         13    1    3    3    0    0 -0.58120893072E+02 -0.15781460546E+02  0.10724881244E+02  0.61172926611E+02  0.10566000000E+00 0. -1.
         22    1    1    0    0    0  0.28778898606E+02  0.56669687861E+00  0.87664805483E+00  0.28797823914E+02  0.00000000000E+00 0. -1.
</event>
<event>
 5    1  0.1245581E-004  0.9118800E+02  0.7818608E-02  0.1130116E+00
         25   -1    0    0    0    0  0.00000000000E+00  0.00000000000E+00  0.99999998245E-14  0.12500000000E+03  0.12500000000E+03 0.  0.
        -13    1    3    3    0    0 -0.25773840660E+02 -0.34516821417E+02  0.35629890046E+02  0.55903506615E+02  0.10566000000E+00 0.  1.
         23    2    1    0    0    0 -0.63516309745E+01 -0.29518393821E+02  0.24073189525E+01  0.94710167146E+02  0.89735955929E+02 0.  0.
         13    1    3    3    0    0  0.19422209686E+02  0.49984275958E+01 -0.33222571093E+02  0.38806660531E+02  0.10566000000E+00 0. -1.
         22    1    1    0    0    0  0.63516309745E+01  0.29518393821E+02 -0.24073189525E+01  0.30289832854E+02  0.00000000000E+00 0.  1.
</event>
<event>
 5    1  0.1245581E-004  0.9118800E+02  0.7818608E-02  0.1130116E+00
         25   -1    0    0    0    0  0.00000000000E+00  0.00000000000E+00  0.99999998245E-14  0.12500000000E+03  0.12500000000E+03 0.  0.
        -13    1    3    3    0    0 -0.45930823317E+01 -0.52574425487E+02 -0.17818346997E+02  0.55701627214E+02  0.10566000000E+00 0. -1.
         23    2    1    0    0    0  0.47239897725E+01 -0.27969259396E+02 -0.29130444138E+02  0.84340704307E+02  0.73893004248E+02 0.  0.
         13    1    3    3    0    0  0.93170721042E+01  0.24605166091E+02 -0.11312097142E+02  0.28639077093E+02  0.10566000000E+00 0.  1.
         22    1    1    0    0    0 -0.47239897725E+01  0.27969259396E+02  0.29130444138E+02  0.40659295693E+02  0.00000000000E+00 0. -1.
</event>
<event>
 5    1  0.1245581E-004  0.9118800E+02  0.7818608E-02  0.1130116E+00
         25   -1    0    0    0    0  0.00000000000E+00  0.00000000000E+00  0.99999998245E-14  0.12500000000E+03  0.12500000000E+03 0.  0.
        -13    1    3    3    0    0 -0.26911284365E+02 -0.76832378105E+01 -0.48666275676E+02  0.56139708956E+02  0.10566000000E+00 0.  1.
         23    2    1    0    0    0 -0.15705016963E+02 -0.20308472806E+02 -0.11682335371E+02  0.96794351891E+02  0.92593671343E+02 0.  0.
         13    1    3    3    0    0  0.11206267403E+02 -0.12625234995E+02  0.36983940304E+02  0.40654642936E+02  0.10566000000E+00 0. -1.
         22    1    1    0    0    0  0.15705016963E+02  0.20308472806E+02  0.11682335371E+02  0.28205648109E+02  0.00000000000E+00 0.  1.
</event>
<event>
 5    1  0.1245581E-004  0.9118800E+02  0.7818608E-02  0.1130116E+00
         25   -1    0    0    0    0  0.00000000000E+00  0.00000000000E+00  0.99999998245E-14  0.12500000000E+03  0.12500000000E+03 0.  0.
        -13    1    3    3    0    0  0.41603004737E+02  0.37319885282E+02  0.12582269756E+02  0.57287943905E+02  0.10566000000E+00 0.  1.
         23    2    1    0    0    0  0.19081514405E+02  0.20526859429E+02 -0.11900150439E+02  0.94552180202E+02  0.89515613445E+02 0.  0.
         13    1    3    3    0    0 -0.22521490333E+02 -0.16793025853E+02 -0.24482420196E+02  0.37264236297E+02  0.10566000000E+00 0. -1.
         22    1    1    0    0    0 -0.19081514405E+02 -0.20526859429E+02  0.11900150439E+02  0.30447819798E+02  0.00000000000E+00 0.  1.
</event>
<event>
 5    1  0.1245581E-004  0.9118800E+02  0.7818608E-02  0.1130116E+00
         25   -1    0    0    0    0  0.00000000000E+00  0.00000000000E+00  0.99999998245E-14  0.12500000000E+03  0.12500000000E+03 0.  0.
        -13    1    3    3    0    0  0.21266749163E+02 -0.16845688771E+02  0.34517954244E+02  0.43903897087E+02  0.10566000000E+00 0. -1.
         23    2    1    0    0    0 -0.36514301316E+01 -0.27890085601E+02 -0.91854135718E+01  0.95410109170E+02  0.90705718081E+02 0.  0.
         13    1    3    3    0    0 -0.24918179295E+02 -0.11044396829E+02 -0.43703367816E+02  0.51506212084E+02  0.10566000000E+00 0.  1.
         22    1    1    0    0    0  0.36514301316E+01  0.27890085601E+02  0.91854135718E+01  0.29589890830E+02  0.00000000000E+00 0. -1.
</event>
<event>
 5    1  0.1245581E-004  0.9118800E+02  0.7818608E-02  0.1130116E+00
         25   -1    0    0    0    0  0.00000000000E+00  0.00000000000E+00  0.99999998245E-14  0.12500000000E+03  0.12500000000E+03 0.  0.
        -13    1    3    3    0    0  0.23009214081E+01 -0.32236335574E+02  0.60030122427E+01  0.32871308014E+02  0.10566000000E+00 0. -1.
         23    2    1    0    0    0 -0.35646655970E+02  0.56472239765E+01 -0.74362570153E+01  0.88150669763E+02  0.80079132368E+02 0.  0.
         13    1    3    3    0    0 -0.37947577379E+02  0.37883559550E+02 -0.13439269258E+02  0.55279361749E+02  0.10566000000E+00 0.  1.
         22    1    1    0    0    0  0.35646655970E+02 -0.56472239765E+01  0.74362570153E+01  0.36849330237E+02  0.00000000000E+00 0.  1.
</event>
<event>
 5    1  0.1245581E-004  0.9118800E+02  0.7818608E-02  0.1130116E+00
         25   -1    0    0    0    0  0.00000000000E+00  0.00000000000E+00  0.99999998245E-14  0.12500000000E+03  0.12500000000E+03 0.  0.
        -13    1    3    3    0    0  0.41405952934E+02  0.39856733199E+01  0.29630405219E+02  0.51071622333E+02  0.10566000000E+00 0. -1.
         23    2    1    0    0    0  0.34175002925E+01 -0.18720080703E+02  0.21880570342E+02  0.96002067518E+02  0.91517850059E+02 0.  0.
         13    1    3    3    0    0 -0.37988452642E+02 -0.22705754023E+02 -0.77498348772E+01  0.44930445185E+02  0.10566000000E+00 0.  1.
         22    1    1    0    0    0 -0.34175002925E+01  0.18720080703E+02 -0.21880570342E+02  0.28997932482E+02  0.00000000000E+00 0. -1.
</event>
<event>
 5    1  0.1245581E-004  0.9118800E+02  0.7818608E-02  0.1130116E+00
         25   -1    0    0    0    0  0.00000000000E+00  0.00000000000E+00  0.99999998245E-14  0.12500000000E+03  0.12500000000E+03 0.  0.
        -13    1    3    3    0    0  0.24630845003E+02  0.53194319481E+02 -0.76392116177E+01  0.59115842790E+02  0.10566000000E+00 0.  1.
         23    2    1    0    0    0  0.19962678371E+02  0.18028222084E+02 -0.13222635308E+02  0.95027289015E+02  0.90176617001E+02 0.  0.
         13    1    3    3    0    0 -0.46681666321E+01 -0.35166097397E+02 -0.55834236906E+01  0.35911446225E+02  0.10566000000E+00 0. -1.
         22    1    1    0    0    0 -0.19962678371E+02 -0.18028222084E+02  0.13222635308E+02  0.29972710985E+02  0.00000000000E+00 0.  1.
</event>
<event>
 5    1  0.1245581E-004  0.9118800E+02  0.7818608E-02  0.1130116E+00
         25   -1    0    0    0    0  0.00000000000E+00  0.00000000000E+00  0.99999998245E-14  0.12500000000E+03  0.12500000000E+03 0.  0.
        -13    1    3    3    0    0  0.50795102022E+02 -0.17390522810E+02 -0.28237451626E+02  0.60662488503E+02  0.10566000000E+00 0.  1.
         23    2    1    0    0    0  0.28444584105E+02 -0.18938778080E+02 -0.10462261688E+02  0.89261636863E+02  0.81794921699E+02 0.  0.
         13    1    3    3    0    0 -0.22350517917E+02 -0.15482552695E+01  0.17775189938E+02  0.28599148360E+02  0.10566000000E+00 0. -1.
         22    1    1    0    0    0 -0.28444584105E+02  0.18938778080E+02  0.10462261688E+02  0.35738363137E+02  0.00000000000E+00 0.  1.
</event>
<event>
 5    1  0.1245581E-004  0.9118800E+02  0.7818608E-02  0.1130116E+00
         25   -1    0    0    0    0  0.00000000000E+00  0.00000000000E+00  0.99999998245E-14  0.12500000000E+03  0.12500000000E+03 0.  0.
        -13    1    3    3    0    0 -0.29803801516E+02  0.68660497458E+00  0.30126317141E+02  0.42383300482E+02  0.10566000000E+00 0. -1.
         23    2    1    0    0    0 -0.27484591006E+01  0.29002460904E+02 -0.55303373552E+01  0.95347320573E+02  0.90619148877E+02 0.  0.
         13    1    3    3    0    0  0.27055342416E+02  0.28315855930E+02 -0.35656654496E+02  0.52964020091E+02  0.10566000000E+00 0.  1.
         22    1    1    0    0    0  0.27484591006E+01 -0.29002460904E+02  0.55303373552E+01  0.29652679427E+02  0.00000000000E+00 0.  1.
</event>
<event>
 5    1  0.1245581E-004  0.9118800E+02  0.7818608E-02  0.1130116E+00
         25   -1    0    0    0    0  0.00000000000E+00  0.00000000000E+00  0.99999998245E-14  0.12500000000E+03  0.12500000000E+03 0.  0.
        -13    1    3    3    0    0 -0.17448361389E+01 -0.38835737783E+01  0.35649442719E+02  0.35902932035E+02  0.10566000000E+00 0. -1.
         23    2    1    0    0    0  0.21290690556E+02 -0.67926483042E+01 -0.19246083844E+02  0.95506859803E+02  0.90838950626E+02 0.  0.
         13    1    3    3    0    0  0.23035526695E+02 -0.29090745259E+01 -0.54895526563E+02  0.59603927768E+02  0.10566000000E+00 0.  1.
         22    1    1    0    0    0 -0.21290690556E+02  0.67926483042E+01  0.19246083844E+02  0.29493140197E+02  0.00000000000E+00 0.  1.
</event>
<event>
 5    1  0.1245581E-004  0.9118800E+02  0.7818608E-02  0.1130116E+00
         25   -1    0    0    0    0  0.00000000000E+00  0.00000000000E+00  0.99999998245E-14  0.12500000000E+03  0.12500000000E+03 0.  0.
        -13    1    3    3    0    0  0.42028712198E+02 -0.10874509589E+02 -0.36269408548E+02  0.56569857418E+02  0.10566000000E+00 0. -1.
         23    2    1    0    0    0  0.20530618126E+02 -0.25364317730E+01  0.48854222359E+01  0.10374424508E+03  0.10154339599E+03 0.  0.
         13    1    3    3    0    0 -0.21498094072E+02  0.83380778164E+01  0.41154830784E+02  0.47174387662E+02  0.10566000000E+00 0.  1.
         22    1    1    0    0    0 -0.20530618126E+02  0.25364317730E+01 -0.48854222359E+01  0.21255754920E+02  0.00000000000E+00 0. -1.
</event>
<event>
 5    1  0.1245581E-004  0.9118800E+02  0.7818608E-02  0.1130116E+00
         25   -1    0    0    0    0  0.00000000000E+00  0.00000000000E+00  0.99999998245E-14  0.12500000000E+03  0.12500000000E+03 0.  0.
        -13    1    3    3    0    0  0.26668441846E+02  0.29108395158E+02 -0.11863716501E+00  0.39478218019E+02  0.10566000000E+00 0.  1.
         23    2    1    0    0    0  0.10180418771E+02 -0.24800073695E+02  0.92819813900E+01  0.96630302078E+02  0.92371941192E+02 0.  0.
         13    1    3    3    0    0 -0.16488023075E+02 -0.53908468853E+02  0.94006185550E+01  0.57152084059E+02  0.10566000000E+00 0. -1.
         22    1    1    0    0    0 -0.10180418771E+02  0.24800073695E+02 -0.92819813900E+01  0.28369697922E+02  0.00000000000E+00 0. -1.
</event>
<event>
 5    1  0.1245581E-004  0.9118800E+02  0.7818608E-02  0.1130116E+00
         25   -1    0    0    0    0  0.00000000000E+00  0.00000000000E+00  0.99999998245E-14  0.12500000000E+03  0.12500000000E+03 0.  0.
        -13    1    3    3    0    0 -0.11743764923E+02 -0.11921326937E+02 -0.31609190993E+02  0.35765712208E+02  0.10566000000E+00 0.  1.
         23    2    1    0    0    0 -0.95139322823E+01  0.21316511789E+01  0.27112995645E+02  0.96187270572E+02  0.91770461713E+02 0.  0.
         13    1    3    3    0    0  0.22298326402E+01  0.14052978116E+02  0.58722186638E+02  0.60421558364E+02  0.10566000000E+00 0. -1.
         22    1    1    0    0    0  0.95139322823E+01 -0.21316511789E+01 -0.27112995645E+02  0.28812729428E+02  0.00000000000E+00 0. -1.
</event>
<event>
 5    1  0.1245581E-004  0.9118800E+02  0.7818608E-02  0.1130116E+00
         25   -1    0    0    0    0  0.00000000000E+00  0.00000000000E+00  0.99999998245E-14  0.12500000000E+03  0.12500000000E+03 0.  0.
        -13    1    3    3    0    0  0.32719226406E+02 -0.30223236628E+02  0.24159251751E+02  0.50672205577E+02  0.10566000000E+00 0. -1.
         23    2    1    0    0    0 -0.95230840267E+01 -0.13564705183E+02  0.23695977518E+02  0.96083055026E+02  0.91628400382E+02 0.  0.
         13    1    3    3    0    0 -0.42242310433E+02  0.16658531445E+02 -0.46327423255E+00  0.45410849449E+02  0.10566000000E+00 0.  1.
         22    1    1    0    0    0  0.95230840267E+01  0.13564705183E+02 -0.23695977518E+02  0.28916944974E+02  0.00000000000E+00 0.  1.
</event>
<event>
 5    1  0.1245581E-004  0.9118800E+02  0.7818608E-02  0.1130116E+00
         25   -1    0    0    0    0  0.00000000000E+00  0.00000000000E+00  0.99999998245E-14  0.12500000000E+03  0.12500000000E+03 0.  0.
        -13    1    3    3    0    0  0.28623387531E+02 -0.72645617447E+01 -0.19067409988E+02  0.35151805911E+02  0.10566000000E+00 0. -1.
         23    2    1    0    0    0 -0.12982954406E+02  0.10072619578E+02  0.22950722402E+02  0.96773232048E+02  0.92565155495E+02 0.  0.
         13    1    3    3    0    0 -0.41606341937E+02  0.17337181323E+02  0.42018132390E+02  0.61621426137E+02  0.10566000000E+00 0.  1.
         22    1    1    0    0    0  0.12982954406E+02 -0.10072619578E+02 -0.22950722402E+02  0.28226767952E+02  0.00000000000E+00 0.  1.
</event>
<event>
 5    1  0.1245581E-004  0.9118800E+02  0.7818608E-02  0.1130116E+00
         25   -1    0    0    0    0  0.00000000000E+00  0.00000000000E+00  0.99999998245E-14  0.12500000000E+03  0.12500000000E+03 0.  0.
        -13    1    3    3    0    0  0.44745385722E+01  0.25166943244E+02 -0.55680538106E+02  0.61267691449E+02  0.10566000000E+00 0. -1.
         23    2    1    0    0    0  0.48132477325E+01  0.18658908993E+02 -0.21232091024E+02  0.96327296468E+02  0.91960992367E+02 0.  0.
         13    1    3    3    0    0  0.33870916025E+00 -0.65080342509E+01  0.34448447082E+02  0.35059605019E+02  0.10566000000E+00 0.  1.
         22    1    1    0    0    0 -0.48132477325E+01 -0.18658908993E+02  0.21232091024E+02  0.28672703532E+02  0.00000000000E+00 0. -1.
</event>
<event>
 5    1  0.1245581E-004  0.9118800E+02  0.7818608E-02  0.1130116E+00
         25   -1    0    0    0    0  0.00000000000E+00  0.00000000000E+00  0.99999998245E-14  0.12500000000E+03  0.12500000000E+03 0.  0.
        -13    1    3    3    0    0 -0.36531883448E+02 -0.41818283931E+02 -0.11617130308E+02  0.56730205886E+02  0.10566000000E+00 0.  1.
         23    2    1    0    0    0 -0.18439950982E+02 -0.17534130487E+02  0.13609245958E+02  0.96143647151E+02  0.91711023262E+02 0.  0.
         13    1    3    3    0    0  0.18091932466E+02  0.24284153444E+02  0.25226376266E+02  0.39413441265E+02  0.10566000000E+00 0. -1.
         22    1    1    0    0    0  0.18439950982E+02  0.17534130487E+02 -0.13609245958E+02  0.28856352849E+02  0.00000000000E+00 0.  1.
</event>
<event>
 5    1  0.1245581E-004  0.9118800E+02  0.7818608E-02  0.1130116E+00
         25   -1    0    0    0    0  0.00000000000E+00  0.00000000000E+00  0.99999998245E-14  0.12500000000E+03  0.12500000000E+03 0.  0.
        -13    1    3    3    0    0 -0.53810028104E+02 -0.10125195362E+02 -0.78107230239E+01  0.55308744913E+02  0.10566000000E+00 0.  1.
         23    2    1    0    0    0 -0.23224727767E+02 -0.30032726795E+01  0.17599995737E+02  0.95705504330E+02  0.91111887712E+02 0.  0.
         13    1    3    3    0    0  0.30585300337E+02  0.71219226828E+01  0.25410718761E+02  0.40396759417E+02  0.10566000000E+00 0. -1.
         22    1    1    0    0    0  0.23224727767E+02  0.30032726795E+01 -0.17599995737E+02  0.29294495670E+02  0.00000000000E+00 0.  1.
</event>
<event>
 5    1  0.1245581E-004  0.9118800E+02  0.7818608E-02  0.1130116E+00
         25   -1    0    0    0    0  0.00000000000E+00  0.00000000000E+00  0.99999998245E-14  0.12500000000E+03  0.12500000000E+03 0.  0.
        -13    1    3    3    0    0 -0.18928362081E+02 -0.26225183281E+02 -0.49092485036E+02  0.58788828703E+02  0.10566000000E+00 0. -1.
         23    2    1    0    0    0 -0.39295538404E+00 -0.45483676253E+00 -0.28205352517E+02  0.96788243567E+02  0.92585424835E+02 0.  0.
         13    1    3    3    0    0  0.18535406697E+02  0.25770346519E+02  0.20887132519E+02  0.37999414864E+02  0.10566000000E+00 0.  1.
         22    1    1    0    0    0  0.39295538404E+00  0.45483676253E+00  0.28205352517E+02  0.28211756433E+02  0.00000000000E+00 0. -1.
</event>
<event>
 5    1  0.1245581E-004  0.9118800E+02  0.7818608E-02  0.1130116E+00
         25   -1    0    0    0    0  0.00000000000E+00  0.00000000000E+00  0.99999998245E-14  0.12500000000E+03  0.12500000000E+03 0.  0.
        -13    1    3    3    0    0 -0.35147171038E+02  0.12554295508E+02  0.26988342506E+02  0.46057743789E+02  0.10566000000E+00 0.  1.
         23    2    1    0    0    0  0.66612988873E+01 -0.12977142025E+02  0.26154535940E+02  0.95052731874E+02  0.90211878200E+02 0.  0.
         13    1    3    3    0    0  0.41808469925E+02 -0.25531437533E+02 -0.83380656593E+00  0.48994988085E+02  0.10566000000E+00 0. -1.
         22    1    1    0    0    0 -0.66612988873E+01  0.12977142025E+02 -0.26154535940E+02  0.29947268126E+02  0.00000000000E+00 0.  1.
</event>
<event>
 5    1  0.1245581E-004  0.9118800E+02  0.7818608E-02  0.1130116E+00
         25   -1    0    0    0    0  0.00000000000E+00  0.00000000000E+00  0.99999998245E-14  0.12500000000E+03  0.12500000000E+03 0.  0.
        -13    1    3    3    0    0  0.25529240051E+02  0.26296805117E+02 -0.46559690813E+02  0.59254367177E+02  0.10566000000E+00 0.  1.
         23    2    1    0    0    0 -0.15995644926E+01  0.14097167658E+02 -0.25892766444E+02  0.95475025882E+02  0.90795134619E+02 0.  0.
         13    1    3    3    0    0 -0.27128804543E+02 -0.12199637458E+02  0.20666924370E+02  0.36220658705E+02  0.10566000000E+00 0. -1.
         22    1    1    0    0    0  0.15995644926E+01 -0.14097167658E+02  0.25892766444E+02  0.29524974118E+02  0.00000000000E+00 0.  1.
</event>
<event>
 5    1  0.1245581E-004  0.9118800E+02  0.7818608E-02  0.1130116E+00
         25   -1    0    0    0    0  0.00000000000E+00  0.00000000000E+00  0.99999998245E-14  0.12500000000E+03  0.12500000000E+03 0.  0.
        -13    1    3    3    0    0 -0.22405003116E+02 -0.64064040588E+01  0.45071673351E+02  0.50739462751E+02  0.10566000000E+00 0. -1.
         23    2    1    0    0    0  0.16241995938E+02 -0.94180632741E+01  0.22866525440E+02  0.95413172972E+02  0.90709940155E+02 0.  0.
         13    1    3    3    0    0  0.38646999054E+02 -0.30116592153E+01 -0.22205147910E+02  0.44673710221E+02  0.10566000000E+00 0.  1.
         22    1    1    0    0    0 -0.16241995938E+02  0.94180632741E+01 -0.22866525440E+02  0.29586827028E+02  0.00000000000E+00 0. -1.
</event>
<event>
 5    1  0.1245581E-004  0.9118800E+02  0.7818608E-02  0.1130116E+00
         25   -1    0    0    0    0  0.00000000000E+00  0.00000000000E+00  0.99999998245E-14  0.12500000000E+03  0.12500000000E+03 0.  0.
        -13    1    3    3    0    0  0.10658651627E+02 -0.14676783409E+02  0.27904371102E+02  0.33281825616E+02  0.10566000000E+00 0. -1.
         23    2    1    0    0    0 -0.18767422091E+02  0.10208076545E+02 -0.20660871747E+02  0.95279761440E+02  0.90525909883E+02 0.  0.
         13    1    3    3    0    0 -0.29426073718E+02  0.24884859955E+02 -0.48565242849E+02  0.61997935824E+02  0.10566000000E+00 0.  1.
         22    1    1    0    0    0  0.18767422091E+02 -0.10208076545E+02  0.20660871747E+02  0.29720238560E+02  0.00000000000E+00 0.  1.
</event>
<event>
 5    1  0.1245581E-004  0.9118800E+02  0.7818608E-02  0.1130116E+00
         25   -1    0    0    0    0  0.00000000000E+00  0.00000000000E+00  0.99999998245E-14  0.12500000000E+03  0.12500000000E+03 0.  0.
        -13    1    3    3    0    0  0.60353358408E+02  0.85323122908E+01 -0.37386083787E+01  0.61068130647E+02  0.10566000000E+00 0.  1.
         23    2    1    0    0    0  0.26408677196E+02  0.11874200619E+02  0.31761545740E+01  0.95870928105E+02  0.91338557172E+02 0.  0.
         13    1    3    3    0    0 -0.33944681212E+02  0.33418883282E+01  0.69147629527E+01  0.34802797458E+02  0.10566000000E+00 0. -1.
         22    1    1    0    0    0 -0.26408677196E+02 -0.11874200619E+02 -0.31761545740E+01  0.29129071895E+02  0.00000000000E+00 0.  1.
</event>
<event>
 5    1  0.1245581E-004  0.9118800E+02  0.7818608E-02  0.1130116E+00
         25   -1    0    0    0    0  0.00000000000E+00  0.00000000000E+00  0.99999998245E-14  0.12500000000E+03  0.12500000000E+03 0.  0.
        -13    1    3    3    0    0 -0.11502482584E+02 -0.46491557916E+02 -0.22918679372E+02  0.53094718111E+02  0.10566000000E+00 0.  1.
         23    2    1    0    0    0 -0.26424112857E+02 -0.10449260491E+02 -0.45105277709E+01  0.96229083333E+02  0.91827396965E+02 0.  0.
         13    1    3    3    0    0 -0.14921630273E+02  0.36042297426E+02  0.18408151601E+02  0.43134365222E+02  0.10566000000E+00 0. -1.
         22    1    1    0    0    0  0.26424112857E+02  0.10449260491E+02  0.45105277709E+01  0.28770916667E+02  0.00000000000E+00 0. -1.
</event>
<event>
 5    1  0.1245581E-004  0.9118800E+02  0.7818608E-02  0.1130116E+00
         25   -1    0    0    0    0  0.00000000000E+00  0.00000000000E+00  0.99999998245E-14  0.12500000000E+03  0.12500000000E+03 0.  0.
        -13    1    3    3    0    0  0.32416989463E+02  0.32017484420E+02 -0.73856687903E+01  0.46157770548E+02  0.10566000000E+00 0. -1.
         23    2    1    0    0    0 -0.13318862225E+02  0.19615586348E+02 -0.18612574898E+02  0.94857152373E+02  0.89940469719E+02 0.  0.
         13    1    3    3    0    0 -0.45735851688E+02 -0.12401898072E+02 -0.11226906108E+02  0.48699381825E+02  0.10566000000E+00 0.  1.
         22    1    1    0    0    0  0.13318862225E+02 -0.19615586348E+02  0.18612574898E+02  0.30142847627E+02  0.00000000000E+00 0. -1.
</event>
<event>
 5    1  0.1245581E-004  0.9118800E+02  0.7818608E-02  0.1130116E+00
         25   -1    0    0    0    0  0.00000000000E+00  0.00000000000E+00  0.99999998245E-14  0.12500000000E+03  0.12500000000E+03 0.  0.
        -13    1    3    3    0    0 -0.26797063595E+02 -0.51616627521E+02 -0.17280913723E+02  0.60671245224E+02  0.10566000000E+00 0.  1.
         23    2    1    0    0    0 -0.70627532302E+01 -0.28446563006E+02  0.39287098152E-01  0.95689746274E+02  0.91090266047E+02 0.  0.
         13    1    3    3    0    0  0.19734310365E+02  0.23170064515E+02  0.17320200821E+02  0.35018501049E+02  0.10566000000E+00 0. -1.
         22    1    1    0    0    0  0.70627532302E+01  0.28446563006E+02 -0.39287098152E-01  0.29310253726E+02  0.00000000000E+00 0.  1.
</event>
<event>
 5    1  0.1245581E-004  0.9118800E+02  0.7818608E-02  0.1130116E+00
         25   -1    0    0    0    0  0.00000000000E+00  0.00000000000E+00  0.99999998245E-14  0.12500000000E+03  0.12500000000E+03 0.  0.
        -13    1    3    3    0    0 -0.41488725517E+01 -0.37432046418E+02 -0.44340498552E+02  0.58176131002E+02  0.10566000000E+00 0.  1.
         23    2    1    0    0    0  0.12886716119E+02 -0.11800589022E+02 -0.24908133180E+02  0.94574082559E+02  0.89546192771E+02 0.  0.
         13    1    3    3    0    0  0.17035588670E+02  0.25631457396E+02  0.19432365371E+02  0.36397951557E+02  0.10566000000E+00 0. -1.
         22    1    1    0    0    0 -0.12886716119E+02  0.11800589022E+02  0.24908133180E+02  0.30425917441E+02  0.00000000000E+00 0.  1.
</event>
<event>
 5    1  0.1245581E-004  0.9118800E+02  0.7818608E-02  0.1130116E+00
         25   -1    0    0    0    0  0.00000000000E+00  0.00000000000E+00  0.99999998245E-14  0.12500000000E+03  0.12500000000E+03 0.  0.
        -13    1    3    3    0    0  0.33261993601E+02 -0.19519348161E+02  0.12814149746E+02  0.40639620676E+02  0.10566000000E+00 0.  1.
         23    2    1    0    0    0 -0.20626236635E+02 -0.10776821632E+02  0.18142368869E+02  0.95491915169E+02  0.90818383559E+02 0.  0.
         13    1    3    3    0    0 -0.53888230236E+02  0.87425265291E+01  0.53282191230E+01  0.54852294493E+02  0.10566000000E+00 0. -1.
         22    1    1    0    0    0  0.20626236635E+02  0.10776821632E+02 -0.18142368869E+02  0.29508084831E+02  0.00000000000E+00 0. -1.
</event>
<event>
 5    1  0.1245581E-004  0.9118800E+02  0.7818608E-02  0.1130116E+00
         25   -1    0    0    0    0  0.00000000000E+00  0.00000000000E+00  0.99999998245E-14  0.12500000000E+03  0.12500000000E+03 0.  0.
        -13    1    3    3    0    0 -0.20148333101E+02  0.57604185636E+00 -0.30412338346E+02  0.36485731987E+02  0.10566000000E+00 0. -1.
         23    2    1    0    0    0  0.23156769993E+02 -0.21631715513E+02 -0.11137725158E+01  0.93291836986E+02  0.87738014831E+02 0.  0.
         13    1    3    3    0    0  0.43305103094E+02 -0.22207757369E+02  0.29298565830E+02  0.56806104998E+02  0.10566000000E+00 0.  1.
         22    1    1    0    0    0 -0.23156769993E+02  0.21631715513E+02  0.11137725158E+01  0.31708163014E+02  0.00000000000E+00 0.  1.
</event>
<event>
 5    1  0.1245581E-004  0.9118800E+02  0.7818608E-02  0.1130116E+00
         25   -1    0    0    0    0  0.00000000000E+00  0.00000000000E+00  0.99999998245E-14  0.12500000000E+03  0.12500000000E+03 0.  0.
        -13    1    3    3    0    0 -0.20758810966E+02  0.89358612457E+01  0.46930646306E+02  0.52089102273E+02  0.10566000000E+00 0.  1.
         23    2    1    0    0    0 -0.26662447906E+02 -0.11258983469E+02  0.10399621133E+02  0.94246090382E+02  0.89087162910E+02 0.  0.
         13    1    3    3    0    0 -0.59036369403E+01 -0.20194844715E+02 -0.36531025173E+02  0.42156988108E+02  0.10566000000E+00 0. -1.
         22    1    1    0    0    0  0.26662447906E+02  0.11258983469E+02 -0.10399621133E+02  0.30753909618E+02  0.00000000000E+00 0.  1.
</event>
<event>
 5    1  0.1245581E-004  0.9118800E+02  0.7818608E-02  0.1130116E+00
         25   -1    0    0    0    0  0.00000000000E+00  0.00000000000E+00  0.99999998245E-14  0.12500000000E+03  0.12500000000E+03 0.  0.
        -13    1    3    3    0    0 -0.11644863458E+02  0.26101755280E+02 -0.19562764011E+02  0.34635492972E+02  0.10566000000E+00 0.  1.
         23    2    1    0    0    0  0.20314860080E+02 -0.20217388575E+02  0.47682854222E+01  0.95945346557E+02  0.91440344702E+02 0.  0.
         13    1    3    3    0    0  0.31959723538E+02 -0.46319143854E+02  0.24331049433E+02  0.61309853585E+02  0.10566000000E+00 0. -1.
         22    1    1    0    0    0 -0.20314860080E+02  0.20217388575E+02 -0.47682854222E+01  0.29054653443E+02  0.00000000000E+00 0. -1.
</event>
<event>
 5    1  0.1245581E-004  0.9118800E+02  0.7818608E-02  0.1130116E+00
         25   -1    0    0    0    0  0.00000000000E+00  0.00000000000E+00  0.99999998245E-14  0.12500000000E+03  0.12500000000E+03 0.  0.
        -13    1    3    3    0    0 -0.30461029948E+02  0.41698937187E+02 -0.15939438633E+02  0.54043987418E+02  0.10566000000E+00 0.  1.
         23    2    1    0    0    0  0.11114332932E+02  0.16778007600E+02 -0.87820922259E+01  0.10304197005E+03  0.10067518320E+03 0.  0.
         13    1    3    3    0    0  0.41575362880E+02 -0.24920929587E+02  0.71573464071E+01  0.48997982629E+02  0.10566000000E+00 0. -1.
         22    1    1    0    0    0 -0.11114332932E+02 -0.16778007600E+02  0.87820922259E+01  0.21958029953E+02  0.00000000000E+00 0.  1.
</event>
<event>
 5    1  0.1245581E-004  0.9118800E+02  0.7818608E-02  0.1130116E+00
         25   -1    0    0    0    0  0.00000000000E+00  0.00000000000E+00  0.99999998245E-14  0.12500000000E+03  0.12500000000E+03 0.  0.
        -13    1    3    3    0    0 -0.30925333108E+01 -0.48607183272E+02  0.89942866846E+01  0.49529086251E+02  0.10566000000E+00 0.  1.
         23    2    1    0    0    0  0.22320202294E+02 -0.10234766732E+02  0.15427173437E+02  0.96001042074E+02  0.91516449443E+02 0.  0.
         13    1    3    3    0    0  0.25412735605E+02  0.38372416540E+02  0.64328867528E+01  0.46471955823E+02  0.10566000000E+00 0. -1.
         22    1    1    0    0    0 -0.22320202294E+02  0.10234766732E+02 -0.15427173437E+02  0.28998957926E+02  0.00000000000E+00 0. -1.
</event>
<event>
 5    1  0.1245581E-004  0.9118800E+02  0.7818608E-02  0.1130116E+00
         25   -1    0    0    0    0  0.00000000000E+00  0.00000000000E+00  0.99999998245E-14  0.12500000000E+03  0.12500000000E+03 0.  0.
        -13    1    3    3    0    0  0.48062096076E+02 -0.12963436607E+02  0.26982151838E+01  0.49852856458E+02  0.10566000000E+00 0.  1.
         23    2    1    0    0    0  0.21234635108E+02  0.22024319389E+02 -0.27751156926E+01  0.94280598316E+02  0.89135568540E+02 0.  0.
         13    1    3    3    0    0 -0.26827460968E+02  0.34987755996E+02 -0.54733308763E+01  0.44427741857E+02  0.10566000000E+00 0. -1.
         22    1    1    0    0    0 -0.21234635108E+02 -0.22024319389E+02  0.27751156926E+01  0.30719401684E+02  0.00000000000E+00 0.  1.
</event>
<event>
 5    1  0.1245581E-004  0.9118800E+02  0.7818608E-02  0.1130116E+00
         25   -1    0    0    0    0  0.00000000000E+00  0.00000000000E+00  0.99999998245E-14  0.12500000000E+03  0.12500000000E+03 0.  0.
        -13    1    3    3    0    0  0.87187503093E+01  0.86729932825E+01  0.33039247530E+02  0.35253942486E+02  0.10566000000E+00 0.  1.
         23    2    1    0    0    0 -0.91636367520E+01  0.12553619788E+02 -0.24696312678E+02  0.95819981697E+02  0.91268808605E+02 0.  0.
         13    1    3    3    0    0 -0.17882387061E+02  0.38806265055E+01 -0.57735560208E+02  0.60566039210E+02  0.10566000000E+00 0. -1.
         22    1    1    0    0    0  0.91636367520E+01 -0.12553619788E+02  0.24696312678E+02  0.29180018303E+02  0.00000000000E+00 0. -1.
</event>
<event>
 5    1  0.1245581E-004  0.9118800E+02  0.7818608E-02  0.1130116E+00
         25   -1    0    0    0    0  0.00000000000E+00  0.00000000000E+00  0.99999998245E-14  0.12500000000E+03  0.12500000000E+03 0.  0.
        -13    1    3    3    0    0  0.20661275227E+02 -0.23269469820E+02 -0.45687381606E+02  0.55278427273E+02  0.10566000000E+00 0.  1.
         23    2    1    0    0    0 -0.81997575259E+01 -0.24062412730E+01 -0.29297970168E+02  0.94481201260E+02  0.89416443203E+02 0.  0.
         13    1    3    3    0    0 -0.28861032753E+02  0.20863228547E+02  0.16389411438E+02  0.39202773987E+02  0.10566000000E+00 0. -1.
         22    1    1    0    0    0  0.81997575259E+01  0.24062412730E+01  0.29297970168E+02  0.30518798740E+02  0.00000000000E+00 0.  1.
</event>
<event>
 5    1  0.1245581E-004  0.9118800E+02  0.7818608E-02  0.1130116E+00
         25   -1    0    0    0    0  0.00000000000E+00  0.00000000000E+00  0.99999998245E-14  0.12500000000E+03  0.12500000000E+03 0.  0.
        -13    1    3    3    0    0  0.41626745678E+02 -0.27675844296E+01  0.40158808636E+02  0.57906705608E+02  0.10566000000E+00 0.  1.
         23    2    1    0    0    0  0.21123512106E+02 -0.15806604226E+02  0.96533616494E+01  0.96906604122E+02  0.92745086287E+02 0.  0.
         13    1    3    3    0    0 -0.20503233572E+02 -0.13039019796E+02 -0.30505446986E+02  0.38999898513E+02  0.10566000000E+00 0. -1.
         22    1    1    0    0    0 -0.21123512106E+02  0.15806604226E+02 -0.96533616494E+01  0.28093395878E+02  0.00000000000E+00 0.  1.
</event>
<event>
 5    1  0.1245581E-004  0.9118800E+02  0.7818608E-02  0.1130116E+00
         25   -1    0    0    0    0  0.00000000000E+00  0.00000000000E+00  0.99999998245E-14  0.12500000000E+03  0.12500000000E+03 0.  0.
        -13    1    3    3    0    0 -0.20578739668E+02 -0.34177883519E+02  0.84741720360E+01  0.40785230217E+02  0.10566000000E+00 0.  1.
         23    2    1    0    0    0 -0.13870863579E+02  0.22444845638E+02 -0.10503808928E+01  0.98594029990E+02  0.94992144399E+02 0.  0.
         13    1    3    3    0    0  0.67078760883E+01  0.56622729156E+02 -0.95245529287E+01  0.57808799773E+02  0.10566000000E+00 0. -1.
         22    1    1    0    0    0  0.13870863579E+02 -0.22444845638E+02  0.10503808928E+01  0.26405970010E+02  0.00000000000E+00 0.  1.
</event>
<event>
 5    1  0.1245581E-004  0.9118800E+02  0.7818608E-02  0.1130116E+00
         25   -1    0    0    0    0  0.00000000000E+00  0.00000000000E+00  0.99999998245E-14  0.12500000000E+03  0.12500000000E+03 0.  0.
        -13    1    3    3    0    0 -0.21116088540E+02 -0.43702242459E+02  0.35620494934E+02  0.60204700934E+02  0.10566000000E+00 0. -1.
         23    2    1    0    0    0 -0.16665479383E+02 -0.30266233041E+02  0.10760111347E+02  0.88812114434E+02  0.81105046751E+02 0.  0.
         13    1    3    3    0    0  0.44506091567E+01  0.13436009418E+02 -0.24860383588E+02  0.28607413499E+02  0.10566000000E+00 0.  1.
         22    1    1    0    0    0  0.16665479383E+02  0.30266233041E+02 -0.10760111347E+02  0.36187885566E+02  0.00000000000E+00 0. -1.
</event>
<event>
 5    1  0.1245581E-004  0.9118800E+02  0.7818608E-02  0.1130116E+00
         25   -1    0    0    0    0  0.00000000000E+00  0.00000000000E+00  0.99999998245E-14  0.12500000000E+03  0.12500000000E+03 0.  0.
        -13    1    3    3    0    0 -0.10933332872E+02  0.75322928551E+01 -0.54584747043E+02  0.56176320430E+02  0.10566000000E+00 0. -1.
         23    2    1    0    0    0  0.26227253171E+01 -0.15031869078E+02 -0.24344914233E+02  0.96268299301E+02  0.91880764175E+02 0.  0.
         13    1    3    3    0    0  0.13556058189E+02 -0.22564161933E+02  0.30239832810E+02  0.40091978871E+02  0.10566000000E+00 0.  1.
         22    1    1    0    0    0 -0.26227253171E+01  0.15031869078E+02  0.24344914233E+02  0.28731700699E+02  0.00000000000E+00 0. -1.
</event>
<event>
 5    1  0.1245581E-004  0.9118800E+02  0.7818608E-02  0.1130116E+00
         25   -1    0    0    0    0  0.00000000000E+00  0.00000000000E+00  0.99999998245E-14  0.12500000000E+03  0.12500000000E+03 0.  0.
        -13    1    3    3    0    0  0.44344532896E+02  0.12248720281E+02  0.64672921032E+01  0.46457569646E+02  0.10566000000E+00 0. -1.
         23    2    1    0    0    0  0.63135974228E+01  0.30755608503E+02 -0.10302610832E+02  0.91955896793E+02  0.85813601475E+02 0.  0.
         13    1    3    3    0    0 -0.38030935473E+02  0.18506888222E+02 -0.16769902935E+02  0.45498327146E+02  0.10566000000E+00 0.  1.
         22    1    1    0    0    0 -0.63135974228E+01 -0.30755608503E+02  0.10302610832E+02  0.33044103207E+02  0.00000000000E+00 0. -1.
</event>
<event>
 5    1  0.1245581E-004  0.9118800E+02  0.7818608E-02  0.1130116E+00
         25   -1    0    0    0    0  0.00000000000E+00  0.00000000000E+00  0.99999998245E-14  0.12500000000E+03  0.12500000000E+03 0.  0.
        -13    1    3    3    0    0 -0.30747396665E+02 -0.69213617218E+01 -0.30636931865E+02  0.43953844063E+02  0.10566000000E+00 0. -1.
         23    2    1    0    0    0 -0.12755014029E+02  0.29415479745E+02 -0.23791389124E+02  0.85075182807E+02  0.75125200177E+02 0.  0.
         13    1    3    3    0    0  0.17992382635E+02  0.36336841466E+02  0.68455427414E+01  0.41121338744E+02  0.10566000000E+00 0.  1.
         22    1    1    0    0    0  0.12755014029E+02 -0.29415479745E+02  0.23791389124E+02  0.39924817193E+02  0.00000000000E+00 0.  1.
</event>
<event>
 5    1  0.1245581E-004  0.9118800E+02  0.7818608E-02  0.1130116E+00
         25   -1    0    0    0    0  0.00000000000E+00  0.00000000000E+00  0.99999998245E-14  0.12500000000E+03  0.12500000000E+03 0.  0.
        -13    1    3    3    0    0 -0.11664418451E+02  0.29504169651E+02  0.33647657828E+02  0.46246413114E+02  0.10566000000E+00 0. -1.
         23    2    1    0    0    0  0.24592467038E+02  0.44560270916E+00  0.14036097865E+02  0.96680394776E+02  0.92439703018E+02 0.  0.
         13    1    3    3    0    0  0.36256885489E+02 -0.29058566941E+02 -0.19611559963E+02  0.50433981662E+02  0.10566000000E+00 0.  1.
         22    1    1    0    0    0 -0.24592467038E+02 -0.44560270916E+00 -0.14036097865E+02  0.28319605224E+02  0.00000000000E+00 0. -1.
</event>
<event>
 5    1  0.1245581E-004  0.9118800E+02  0.7818608E-02  0.1130116E+00
         25   -1    0    0    0    0  0.00000000000E+00  0.00000000000E+00  0.99999998245E-14  0.12500000000E+03  0.12500000000E+03 0.  0.
        -13    1    3    3    0    0 -0.13340483779E+02 -0.24405902982E+02 -0.34797902954E+02  0.44547972140E+02  0.10566000000E+00 0. -1.
         23    2    1    0    0    0 -0.81385008346E+01  0.22907067337E+02 -0.16867792022E+02  0.95411297130E+02  0.90707355173E+02 0.  0.
         13    1    3    3    0    0  0.52019829442E+01  0.47312970319E+02  0.17930110932E+02  0.50863324990E+02  0.10566000000E+00 0.  1.
         22    1    1    0    0    0  0.81385008346E+01 -0.22907067337E+02  0.16867792022E+02  0.29588702870E+02  0.00000000000E+00 0.  1.
</event>
<event>
 5    1  0.1245581E-004  0.9118800E+02  0.7818608E-02  0.1130116E+00
         25   -1    0    0    0    0  0.00000000000E+00  0.00000000000E+00  0.99999998245E-14  0.12500000000E+03  0.12500000000E+03 0.  0.
        -13    1    3    3    0    0  0.53037223818E+01  0.28625507572E+02  0.18426049174E+02  0.34454021639E+02  0.10566000000E+00 0. -1.
         23    2    1    0    0    0  0.63001439048E+01 -0.22892188198E+02 -0.15950800686E+02  0.96396291565E+02  0.92054727696E+02 0.  0.
         13    1    3    3    0    0  0.99642152304E+00 -0.51517695770E+02 -0.34376849861E+02  0.61942269926E+02  0.10566000000E+00 0.  1.
         22    1    1    0    0    0 -0.63001439048E+01  0.22892188198E+02  0.15950800686E+02  0.28603708435E+02  0.00000000000E+00 0.  1.
</event>
<event>
 5    1  0.1245581E-004  0.9118800E+02  0.7818608E-02  0.1130116E+00
         25   -1    0    0    0    0  0.00000000000E+00  0.00000000000E+00  0.99999998245E-14  0.12500000000E+03  0.12500000000E+03 0.  0.
        -13    1    3    3    0    0  0.44290278889E+02 -0.38972283169E+02 -0.19057037132E+02  0.61997173224E+02  0.10566000000E+00 0.  1.
         23    2    1    0    0    0  0.23041053417E+02 -0.13227521257E+02 -0.10271835012E+02  0.96515476910E+02  0.92216426018E+02 0.  0.
         13    1    3    3    0    0 -0.21249225472E+02  0.25744761912E+02  0.87852021197E+01  0.34518303686E+02  0.10566000000E+00 0. -1.
         22    1    1    0    0    0 -0.23041053417E+02  0.13227521257E+02  0.10271835012E+02  0.28484523090E+02  0.00000000000E+00 0.  1.
</event>
<event>
 5    1  0.1245581E-004  0.9118800E+02  0.7818608E-02  0.1130116E+00
         25   -1    0    0    0    0  0.00000000000E+00  0.00000000000E+00  0.99999998245E-14  0.12500000000E+03  0.12500000000E+03 0.  0.
        -13    1    3    3    0    0  0.14209576647E+02  0.23830304270E+02 -0.50860935621E+02  0.57936529119E+02  0.10566000000E+00 0.  1.
         23    2    1    0    0    0  0.15592934302E+02 -0.31815057881E+01 -0.25043993595E+02  0.95327399939E+02  0.90591666199E+02 0.  0.
         13    1    3    3    0    0  0.13833576550E+01 -0.27011810058E+02  0.25816942026E+02  0.37390870820E+02  0.10566000000E+00 0. -1.
         22    1    1    0    0    0 -0.15592934302E+02  0.31815057881E+01  0.25043993595E+02  0.29672600061E+02  0.00000000000E+00 0.  1.
</event>
<event>
 5    1  0.1245581E-004  0.9118800E+02  0.7818608E-02  0.1130116E+00
         25   -1    0    0    0    0  0.00000000000E+00  0.00000000000E+00  0.99999998245E-14  0.12500000000E+03  0.12500000000E+03 0.  0.
        -13    1    3    3    0    0  0.39369710148E+02 -0.96658452483E+01 -0.84591825692E+01  0.41412215291E+02  0.10566000000E+00 0. -1.
         23    2    1    0    0    0  0.11732606354E+01  0.28168774419E+02  0.37912051346E+01  0.96553038314E+02  0.92267326712E+02 0.  0.
         13    1    3    3    0    0 -0.38196449513E+02  0.37834619667E+02  0.12250387704E+02  0.55140823023E+02  0.10566000000E+00 0.  1.
         22    1    1    0    0    0 -0.11732606354E+01 -0.28168774419E+02 -0.37912051346E+01  0.28446961686E+02  0.00000000000E+00 0.  1.
</event>
<event>
 5    1  0.1245581E-004  0.9118800E+02  0.7818608E-02  0.1130116E+00
         25   -1    0    0    0    0  0.00000000000E+00  0.00000000000E+00  0.99999998245E-14  0.12500000000E+03  0.12500000000E+03 0.  0.
        -13    1    3    3    0    0  0.15393964475E+02 -0.22414795194E+02 -0.50774822064E+02  0.57597664063E+02  0.10566000000E+00 0. -1.
         23    2    1    0    0    0  0.28552419801E+01 -0.25742367810E+02 -0.16387388284E+02  0.94350882525E+02  0.89234077746E+02 0.  0.
         13    1    3    3    0    0 -0.12538722494E+02 -0.33275726163E+01  0.34387433780E+02  0.36753218462E+02  0.10566000000E+00 0.  1.
         22    1    1    0    0    0 -0.28552419801E+01  0.25742367810E+02  0.16387388284E+02  0.30649117475E+02  0.00000000000E+00 0.  1.
</event>
<event>
 5    1  0.1245581E-004  0.9118800E+02  0.7818608E-02  0.1130116E+00
         25   -1    0    0    0    0  0.00000000000E+00  0.00000000000E+00  0.99999998245E-14  0.12500000000E+03  0.12500000000E+03 0.  0.
        -13    1    3    3    0    0 -0.39763905241E+02  0.69697648558E+01  0.40934627673E+01  0.40577252046E+02  0.10566000000E+00 0. -1.
         23    2    1    0    0    0  0.73401129277E+01 -0.94471863503E+01  0.26999944588E+02  0.95468261218E+02  0.90785821054E+02 0.  0.
         13    1    3    3    0    0  0.47104018168E+02 -0.16416951206E+02  0.22906481821E+02  0.54891009172E+02  0.10566000000E+00 0.  1.
         22    1    1    0    0    0 -0.73401129277E+01  0.94471863503E+01 -0.26999944588E+02  0.29531738782E+02  0.00000000000E+00 0.  1.
</event>
<event>
 5    1  0.1245581E-004  0.9118800E+02  0.7818608E-02  0.1130116E+00
         25   -1    0    0    0    0  0.00000000000E+00  0.00000000000E+00  0.99999998245E-14  0.12500000000E+03  0.12500000000E+03 0.  0.
        -13    1    3    3    0    0 -0.15344987289E+02  0.24985774178E+02  0.18413889102E+02  0.34624269263E+02  0.10566000000E+00 0. -1.
         23    2    1    0    0    0  0.21260815508E+02 -0.13652186734E+02 -0.13162000852E+02  0.96510655587E+02  0.92209890449E+02 0.  0.
         13    1    3    3    0    0  0.36605802796E+02 -0.38637960912E+02 -0.31575889953E+02  0.61886386323E+02  0.10566000000E+00 0.  1.
         22    1    1    0    0    0 -0.21260815508E+02  0.13652186734E+02  0.13162000852E+02  0.28489344413E+02  0.00000000000E+00 0.  1.
</event>
<event>
 5    1  0.1245581E-004  0.9118800E+02  0.7818608E-02  0.1130116E+00
         25   -1    0    0    0    0  0.00000000000E+00  0.00000000000E+00  0.99999998245E-14  0.12500000000E+03  0.12500000000E+03 0.  0.
        -13    1    3    3    0    0 -0.89906607575E+01 -0.15383436343E+02 -0.21895498455E+02  0.28229525522E+02  0.10566000000E+00 0.  1.
         23    2    1    0    0    0  0.26122086302E+02  0.54928629954E+01  0.23597584422E+02  0.89371627497E+02  0.81962838373E+02 0.  0.
         13    1    3    3    0    0  0.35112747060E+02  0.20876299339E+02  0.45493082877E+02  0.61142101975E+02  0.10566000000E+00 0. -1.
         22    1    1    0    0    0 -0.26122086302E+02 -0.54928629954E+01 -0.23597584422E+02  0.35628372503E+02  0.00000000000E+00 0. -1.
</event>
<event>
 5    1  0.1245581E-004  0.9118800E+02  0.7818608E-02  0.1130116E+00
         25   -1    0    0    0    0  0.00000000000E+00  0.00000000000E+00  0.99999998245E-14  0.12500000000E+03  0.12500000000E+03 0.  0.
        -13    1    3    3    0    0  0.98325036800E+01 -0.28795034038E+02  0.20681980899E+02  0.36791134963E+02  0.10566000000E+00 0. -1.
         23    2    1    0    0    0 -0.30454522311E+02  0.22190962485E+01 -0.54914473858E+01  0.93974876121E+02  0.88705800432E+02 0.  0.
         13    1    3    3    0    0 -0.40287025991E+02  0.31014130287E+02 -0.26173428285E+02  0.57183741158E+02  0.10566000000E+00 0.  1.
         22    1    1    0    0    0  0.30454522311E+02 -0.22190962485E+01  0.54914473858E+01  0.31025123879E+02  0.00000000000E+00 0. -1.
</event>
<event>
 5    1  0.1245581E-004  0.9118800E+02  0.7818608E-02  0.1130116E+00
         25   -1    0    0    0    0  0.00000000000E+00  0.00000000000E+00  0.99999998245E-14  0.12500000000E+03  0.12500000000E+03 0.  0.
        -13    1    3    3    0    0 -0.87841258380E+01  0.36621989352E+02  0.48643650587E+02  0.61518670965E+02  0.10566000000E+00 0.  1.
         23    2    1    0    0    0 -0.12210990863E+02  0.17579271227E+02  0.24231724828E+02  0.92668659743E+02  0.86845638553E+02 0.  0.
         13    1    3    3    0    0 -0.34268650248E+01 -0.19042718126E+02 -0.24411925759E+02  0.31149988777E+02  0.10566000000E+00 0. -1.
         22    1    1    0    0    0  0.12210990863E+02 -0.17579271227E+02 -0.24231724828E+02  0.32331340257E+02  0.00000000000E+00 0.  1.
</event>
<event>
 5    1  0.1245581E-004  0.9118800E+02  0.7818608E-02  0.1130116E+00
         25   -1    0    0    0    0  0.00000000000E+00  0.00000000000E+00  0.99999998245E-14  0.12500000000E+03  0.12500000000E+03 0.  0.
        -13    1    3    3    0    0  0.12167569292E+02 -0.34471090608E+02  0.29708405219E+02  0.47105268653E+02  0.10566000000E+00 0.  1.
         23    2    1    0    0    0 -0.25111468735E+02 -0.17888987774E+02  0.88804717513E+01  0.92914730418E+02  0.87199097499E+02 0.  0.
         13    1    3    3    0    0 -0.37279038027E+02  0.16582102834E+02 -0.20827933468E+02  0.45809461765E+02  0.10566000000E+00 0. -1.
         22    1    1    0    0    0  0.25111468735E+02  0.17888987774E+02 -0.88804717513E+01  0.32085269582E+02  0.00000000000E+00 0. -1.
</event>
<event>
 5    1  0.1245581E-004  0.9118800E+02  0.7818608E-02  0.1130116E+00
         25   -1    0    0    0    0  0.00000000000E+00  0.00000000000E+00  0.99999998245E-14  0.12500000000E+03  0.12500000000E+03 0.  0.
        -13    1    3    3    0    0 -0.26037959626E+02 -0.26889614070E+02 -0.25896446864E+02  0.45515533728E+02  0.10566000000E+00 0. -1.
         23    2    1    0    0    0 -0.25187046783E+02 -0.61838205967E+01  0.17572978755E+02  0.93672112341E+02  0.88278129145E+02 0.  0.
         13    1    3    3    0    0  0.85091284339E+00  0.20705793473E+02  0.43469425620E+02  0.48156578613E+02  0.10566000000E+00 0.  1.
         22    1    1    0    0    0  0.25187046783E+02  0.61838205967E+01 -0.17572978755E+02  0.31327887659E+02  0.00000000000E+00 0. -1.
</event>
<event>
 5    1  0.1245581E-004  0.9118800E+02  0.7818608E-02  0.1130116E+00
         25   -1    0    0    0    0  0.00000000000E+00  0.00000000000E+00  0.99999998245E-14  0.12500000000E+03  0.12500000000E+03 0.  0.
        -13    1    3    3    0    0  0.30097655039E+02 -0.37077581885E+02 -0.20585378000E+02  0.52003700529E+02  0.10566000000E+00 0. -1.
         23    2    1    0    0    0  0.28892909204E+02 -0.19818795552E+01  0.52073770494E+01  0.95574758717E+02  0.90932335719E+02 0.  0.
         13    1    3    3    0    0 -0.12047458358E+01  0.35095702330E+02  0.25792755049E+02  0.43571058188E+02  0.10566000000E+00 0.  1.
         22    1    1    0    0    0 -0.28892909204E+02  0.19818795552E+01 -0.52073770494E+01  0.29425241283E+02  0.00000000000E+00 0. -1.
</event>
<event>
 5    1  0.1245581E-004  0.9118800E+02  0.7818608E-02  0.1130116E+00
         25   -1    0    0    0    0  0.00000000000E+00  0.00000000000E+00  0.99999998245E-14  0.12500000000E+03  0.12500000000E+03 0.  0.
        -13    1    3    3    0    0  0.66822789334E+01  0.40362855970E+02  0.32709548027E+02  0.52380709139E+02  0.10566000000E+00 0. -1.
         23    2    1    0    0    0  0.12785223456E+02 -0.22225791237E+01  0.26026958134E+02  0.95917284403E+02  0.91401975366E+02 0.  0.
         13    1    3    3    0    0  0.61029445228E+01 -0.42585435094E+02 -0.66825898928E+01  0.43536575264E+02  0.10566000000E+00 0.  1.
         22    1    1    0    0    0 -0.12785223456E+02  0.22225791237E+01 -0.26026958134E+02  0.29082715597E+02  0.00000000000E+00 0. -1.
</event>
<event>
 5    1  0.1245581E-004  0.9118800E+02  0.7818608E-02  0.1130116E+00
         25   -1    0    0    0    0  0.00000000000E+00  0.00000000000E+00  0.99999998245E-14  0.12500000000E+03  0.12500000000E+03 0.  0.
        -13    1    3    3    0    0  0.37816251696E+02  0.92151534501E+01 -0.39587925729E+02  0.55517591564E+02  0.10566000000E+00 0. -1.
         23    2    1    0    0    0  0.42353352439E+01  0.20788912052E+02 -0.18670111145E+02  0.96738896358E+02  0.92518776956E+02 0.  0.
         13    1    3    3    0    0 -0.33580916452E+02  0.11573758601E+02  0.20917814584E+02  0.41221304794E+02  0.10566000000E+00 0.  1.
         22    1    1    0    0    0 -0.42353352439E+01 -0.20788912052E+02  0.18670111145E+02  0.28261103642E+02  0.00000000000E+00 0. -1.
</event>
<event>
 5    1  0.1245581E-004  0.9118800E+02  0.7818608E-02  0.1130116E+00
         25   -1    0    0    0    0  0.00000000000E+00  0.00000000000E+00  0.99999998245E-14  0.12500000000E+03  0.12500000000E+03 0.  0.
        -13    1    3    3    0    0 -0.34458179729E+02 -0.21646926261E+02  0.14462400855E+02  0.43187125041E+02  0.10566000000E+00 0.  1.
         23    2    1    0    0    0  0.14729408655E+02 -0.20033849814E+02 -0.10064677007E+02  0.98174483398E+02  0.94438450059E+02 0.  0.
         13    1    3    3    0    0  0.49187588384E+02  0.16130764466E+01 -0.24527077862E+02  0.54987358357E+02  0.10566000000E+00 0. -1.
         22    1    1    0    0    0 -0.14729408655E+02  0.20033849814E+02  0.10064677007E+02  0.26825516602E+02  0.00000000000E+00 0. -1.
</event>
<event>
 5    1  0.1245581E-004  0.9118800E+02  0.7818608E-02  0.1130116E+00
         25   -1    0    0    0    0  0.00000000000E+00  0.00000000000E+00  0.99999998245E-14  0.12500000000E+03  0.12500000000E+03 0.  0.
        -13    1    3    3    0    0  0.36310432585E+02 -0.91004754307E+01  0.28570094111E+02  0.47090631862E+02  0.10566000000E+00 0.  1.
         23    2    1    0    0    0  0.18358844895E+02  0.18245017722E+02 -0.96308094471E+01  0.97383332059E+02  0.93385400436E+02 0.  0.
         13    1    3    3    0    0 -0.17951587690E+02  0.27345493153E+02 -0.38200903559E+02  0.50292700197E+02  0.10566000000E+00 0. -1.
         22    1    1    0    0    0 -0.18358844895E+02 -0.18245017722E+02  0.96308094471E+01  0.27616667941E+02  0.00000000000E+00 0. -1.
</event>
<event>
 5    1  0.1245581E-004  0.9118800E+02  0.7818608E-02  0.1130116E+00
         25   -1    0    0    0    0  0.00000000000E+00  0.00000000000E+00  0.99999998245E-14  0.12500000000E+03  0.12500000000E+03 0.  0.
        -13    1    3    3    0    0  0.20093932241E+02 -0.48400327277E+02  0.13454296380E+02  0.54105332903E+02  0.10566000000E+00 0. -1.
         23    2    1    0    0    0  0.22905530550E+02 -0.35375396762E+01  0.11569446005E+02  0.99095761011E+02  0.95650092801E+02 0.  0.
         13    1    3    3    0    0  0.28115983094E+01  0.44862787601E+02 -0.18848503749E+01  0.44990428108E+02  0.10566000000E+00 0.  1.
         22    1    1    0    0    0 -0.22905530550E+02  0.35375396762E+01 -0.11569446005E+02  0.25904238989E+02  0.00000000000E+00 0. -1.
</event>
<event>
 5    1  0.1245581E-004  0.9118800E+02  0.7818608E-02  0.1130116E+00
         25   -1    0    0    0    0  0.00000000000E+00  0.00000000000E+00  0.99999998245E-14  0.12500000000E+03  0.12500000000E+03 0.  0.
        -13    1    3    3    0    0  0.16698249925E+02  0.25690023610E+02  0.18474493338E+02  0.35778861521E+02  0.10566000000E+00 0.  1.
         23    2    1    0    0    0 -0.14727113890E+02 -0.22567422666E+02 -0.43095059982E+01  0.97709923209E+02  0.93821536985E+02 0.  0.
         13    1    3    3    0    0 -0.31425363815E+02 -0.48257446276E+02 -0.22783999336E+02  0.61931061688E+02  0.10566000000E+00 0. -1.
         22    1    1    0    0    0  0.14727113890E+02  0.22567422666E+02  0.43095059982E+01  0.27290076791E+02  0.00000000000E+00 0. -1.
</event>
<event>
 5    1  0.1245581E-004  0.9118800E+02  0.7818608E-02  0.1130116E+00
         25   -1    0    0    0    0  0.00000000000E+00  0.00000000000E+00  0.99999998245E-14  0.12500000000E+03  0.12500000000E+03 0.  0.
        -13    1    3    3    0    0  0.23454099201E+02 -0.37248586431E+02 -0.33101597443E+02  0.55075211100E+02  0.10566000000E+00 0.  1.
         23    2    1    0    0    0 -0.24274621981E+01 -0.28615192305E+02 -0.23493136542E+01  0.96186095752E+02  0.91768861484E+02 0.  0.
         13    1    3    3    0    0 -0.25881561399E+02  0.86333941261E+01  0.30752283789E+02  0.41110884652E+02  0.10566000000E+00 0. -1.
         22    1    1    0    0    0  0.24274621981E+01  0.28615192305E+02  0.23493136542E+01  0.28813904248E+02  0.00000000000E+00 0. -1.
</event>
<event>
 5    1  0.1245581E-004  0.9118800E+02  0.7818608E-02  0.1130116E+00
         25   -1    0    0    0    0  0.00000000000E+00  0.00000000000E+00  0.99999998245E-14  0.12500000000E+03  0.12500000000E+03 0.  0.
        -13    1    3    3    0    0 -0.30540216274E+02 -0.10701951794E+01  0.46660333953E+02  0.55776769864E+02  0.10566000000E+00 0.  1.
         23    2    1    0    0    0 -0.16208836886E+02 -0.19600581617E+02  0.14007891069E+02  0.95963295554E+02  0.91464877895E+02 0.  0.
         13    1    3    3    0    0  0.14331379387E+02 -0.18530386437E+02 -0.32652442885E+02  0.40186525690E+02  0.10566000000E+00 0. -1.
         22    1    1    0    0    0  0.16208836886E+02  0.19600581617E+02 -0.14007891069E+02  0.29036704446E+02  0.00000000000E+00 0.  1.
</event>
<event>
 5    1  0.1245581E-004  0.9118800E+02  0.7818608E-02  0.1130116E+00
         25   -1    0    0    0    0  0.00000000000E+00  0.00000000000E+00  0.99999998245E-14  0.12500000000E+03  0.12500000000E+03 0.  0.
        -13    1    3    3    0    0  0.20148175904E+02 -0.86081688634E+01  0.33815539486E+02  0.40293317537E+02  0.10566000000E+00 0.  1.
         23    2    1    0    0    0  0.19697219222E+02  0.38881870660E+01 -0.20663386453E+02  0.96188995446E+02  0.91772811123E+02 0.  0.
         13    1    3    3    0    0 -0.45095668168E+00  0.12496355929E+02 -0.54478925938E+02  0.55895677908E+02  0.10566000000E+00 0. -1.
         22    1    1    0    0    0 -0.19697219222E+02 -0.38881870660E+01  0.20663386453E+02  0.28811004554E+02  0.00000000000E+00 0. -1.
</event>
<event>
 5    1  0.1245581E-004  0.9118800E+02  0.7818608E-02  0.1130116E+00
         25   -1    0    0    0    0  0.00000000000E+00  0.00000000000E+00  0.99999998245E-14  0.12500000000E+03  0.12500000000E+03 0.  0.
        -13    1    3    3    0    0 -0.42203555023E+02  0.25224343488E+02  0.24910072418E+02  0.55117424040E+02  0.10566000000E+00 0. -1.
         23    2    1    0    0    0 -0.38914186882E+02  0.57974570323E+01  0.16216540735E+01  0.85622922777E+02  0.76031116618E+02 0.  0.
         13    1    3    3    0    0  0.32893681406E+01 -0.19426886455E+02 -0.23288418345E+02  0.30505498736E+02  0.10566000000E+00 0.  1.
         22    1    1    0    0    0  0.38914186882E+02 -0.57974570323E+01 -0.16216540735E+01  0.39377077223E+02  0.00000000000E+00 0. -1.
</event>
<event>
 5    1  0.1245581E-004  0.9118800E+02  0.7818608E-02  0.1130116E+00
         25   -1    0    0    0    0  0.00000000000E+00  0.00000000000E+00  0.99999998245E-14  0.12500000000E+03  0.12500000000E+03 0.  0.
        -13    1    3    3    0    0  0.22220264487E+02 -0.24177542273E+02 -0.15692627378E+02  0.36394552096E+02  0.10566000000E+00 0. -1.
         23    2    1    0    0    0 -0.41099833100E+01  0.30758162845E+01  0.29319537931E+02  0.95234450902E+02  0.90463322543E+02 0.  0.
         13    1    3    3    0    0 -0.26330247797E+02  0.27253358557E+02  0.45012165308E+02  0.58839898806E+02  0.10566000000E+00 0.  1.
         22    1    1    0    0    0  0.41099833100E+01 -0.30758162845E+01 -0.29319537931E+02  0.29765549098E+02  0.00000000000E+00 0.  1.
</event>
<event>
 5    1  0.1245581E-004  0.9118800E+02  0.7818608E-02  0.1130116E+00
         25   -1    0    0    0    0  0.00000000000E+00  0.00000000000E+00  0.99999998245E-14  0.12500000000E+03  0.12500000000E+03 0.  0.
        -13    1    3    3    0    0  0.12468410341E+02 -0.47827204126E+01 -0.30765887683E+02  0.33539330344E+02  0.10566000000E+00 0.  1.
         23    2    1    0    0    0 -0.13251865569E+02 -0.72368484308E+01  0.25449725179E+02  0.95408237161E+02  0.90703138260E+02 0.  0.
         13    1    3    3    0    0 -0.25720275910E+02 -0.24541280182E+01  0.56215612862E+02  0.61868906816E+02  0.10566000000E+00 0. -1.
         22    1    1    0    0    0  0.13251865569E+02  0.72368484308E+01 -0.25449725179E+02  0.29591762839E+02  0.00000000000E+00 0. -1.
</event>
<event>
 5    1  0.1245581E-004  0.9118800E+02  0.7818608E-02  0.1130116E+00
         25   -1    0    0    0    0  0.00000000000E+00  0.00000000000E+00  0.99999998245E-14  0.12500000000E+03  0.12500000000E+03 0.  0.
        -13    1    3    3    0    0  0.32796650599E+02  0.78888987855E+01 -0.31668491002E+01  0.33880600818E+02  0.10566000000E+00 0.  1.
         23    2    1    0    0    0 -0.16754427360E+02  0.30788674131E+02 -0.90915309683E+01  0.88787996103E+02  0.81067866789E+02 0.  0.
         13    1    3    3    0    0 -0.49551077959E+02  0.22899775345E+02 -0.59246818681E+01  0.54907395285E+02  0.10566000000E+00 0. -1.
         22    1    1    0    0    0  0.16754427360E+02 -0.30788674131E+02  0.90915309683E+01  0.36212003897E+02  0.00000000000E+00 0. -1.
</event>
<event>
 5    1  0.1245581E-004  0.9118800E+02  0.7818608E-02  0.1130116E+00
         25   -1    0    0    0    0  0.00000000000E+00  0.00000000000E+00  0.99999998245E-14  0.12500000000E+03  0.12500000000E+03 0.  0.
        -13    1    3    3    0    0 -0.15646344539E+00 -0.19850517633E+02  0.32255479159E+02  0.37874722850E+02  0.10566000000E+00 0. -1.
         23    2    1    0    0    0 -0.27831183924E+02  0.73905205824E+01 -0.92897869887E+01  0.94742856457E+02  0.89781479795E+02 0.  0.
         13    1    3    3    0    0 -0.27674720479E+02  0.27241038215E+02 -0.41545266148E+02  0.56868133607E+02  0.10566000000E+00 0.  1.
         22    1    1    0    0    0  0.27831183924E+02 -0.73905205824E+01  0.92897869887E+01  0.30257143543E+02  0.00000000000E+00 0.  1.
</event>
<event>
 5    1  0.1245581E-004  0.9118800E+02  0.7818608E-02  0.1130116E+00
         25   -1    0    0    0    0  0.00000000000E+00  0.00000000000E+00  0.99999998245E-14  0.12500000000E+03  0.12500000000E+03 0.  0.
        -13    1    3    3    0    0  0.58924162218E+01 -0.17454105867E+02  0.46405178426E+02  0.49928129639E+02  0.10566000000E+00 0.  1.
         23    2    1    0    0    0 -0.18439531999E+02  0.10890024124E+02  0.20220683989E+02  0.95546901237E+02  0.90894033408E+02 0.  0.
         13    1    3    3    0    0 -0.24331948221E+02  0.28344129990E+02 -0.26184494437E+02  0.45618771598E+02  0.10566000000E+00 0. -1.
         22    1    1    0    0    0  0.18439531999E+02 -0.10890024124E+02 -0.20220683989E+02  0.29453098763E+02  0.00000000000E+00 0.  1.
</event>
<event>
 5    1  0.1245581E-004  0.9118800E+02  0.7818608E-02  0.1130116E+00
         25   -1    0    0    0    0  0.00000000000E+00  0.00000000000E+00  0.99999998245E-14  0.12500000000E+03  0.12500000000E+03 0.  0.
        -13    1    3    3    0    0  0.41868675555E+01 -0.29870092458E+02  0.22767047700E+02  0.37790235622E+02  0.10566000000E+00 0. -1.
         23    2    1    0    0    0 -0.23893757675E+02  0.16665478193E+02  0.26389447985E+01  0.95749122254E+02  0.91171709228E+02 0.  0.
         13    1    3    3    0    0 -0.28080625230E+02  0.46535570651E+02 -0.20128102902E+02  0.57958886632E+02  0.10566000000E+00 0.  1.
         22    1    1    0    0    0  0.23893757675E+02 -0.16665478193E+02 -0.26389447985E+01  0.29250877746E+02  0.00000000000E+00 0.  1.
</event>
<event>
 5    1  0.1245581E-004  0.9118800E+02  0.7818608E-02  0.1130116E+00
         25   -1    0    0    0    0  0.00000000000E+00  0.00000000000E+00  0.99999998245E-14  0.12500000000E+03  0.12500000000E+03 0.  0.
        -13    1    3    3    0    0  0.32949712573E+02 -0.26333213265E+02  0.10059190595E+01  0.42191761242E+02  0.10566000000E+00 0. -1.
         23    2    1    0    0    0  0.11061785585E+02  0.14979252698E+02 -0.23531356308E+02  0.94992236981E+02  0.90128015873E+02 0.  0.
         13    1    3    3    0    0 -0.21887926988E+02  0.41312465963E+02 -0.24537275368E+02  0.52800475739E+02  0.10566000000E+00 0.  1.
         22    1    1    0    0    0 -0.11061785585E+02 -0.14979252698E+02  0.23531356308E+02  0.30007763019E+02  0.00000000000E+00 0.  1.
</event>
<event>
 5    1  0.1245581E-004  0.9118800E+02  0.7818608E-02  0.1130116E+00
         25   -1    0    0    0    0  0.00000000000E+00  0.00000000000E+00  0.99999998245E-14  0.12500000000E+03  0.12500000000E+03 0.  0.
        -13    1    3    3    0    0 -0.10680509833E+02  0.13972832817E+02 -0.58208973357E+02  0.60807968972E+02  0.10566000000E+00 0. -1.
         23    2    1    0    0    0 -0.26252648915E+01  0.15804330440E+02 -0.23019564313E+02  0.96954158640E+02  0.92809157200E+02 0.  0.
         13    1    3    3    0    0  0.80552449413E+01  0.18314976232E+01  0.35189409044E+02  0.36146189668E+02  0.10566000000E+00 0.  1.
         22    1    1    0    0    0  0.26252648915E+01 -0.15804330440E+02  0.23019564313E+02  0.28045841360E+02  0.00000000000E+00 0. -1.
</event>
<event>
 5    1  0.1245581E-004  0.9118800E+02  0.7818608E-02  0.1130116E+00
         25   -1    0    0    0    0  0.00000000000E+00  0.00000000000E+00  0.99999998245E-14  0.12500000000E+03  0.12500000000E+03 0.  0.
        -13    1    3    3    0    0  0.97776030189E+01  0.40158146119E+02 -0.45136916351E+01  0.41577190823E+02  0.10566000000E+00 0.  1.
         23    2    1    0    0    0  0.17719929504E+02 -0.82430873433E+01 -0.23732110625E+02  0.94256586635E+02  0.89101889199E+02 0.  0.
         13    1    3    3    0    0  0.79423264855E+01 -0.48401233462E+02 -0.19218418990E+02  0.52679395813E+02  0.10566000000E+00 0. -1.
         22    1    1    0    0    0 -0.17719929504E+02  0.82430873433E+01  0.23732110625E+02  0.30743413365E+02  0.00000000000E+00 0. -1.
</event>
<event>
 5    1  0.1245581E-004  0.9118800E+02  0.7818608E-02  0.1130116E+00
         25   -1    0    0    0    0  0.00000000000E+00  0.00000000000E+00  0.99999998245E-14  0.12500000000E+03  0.12500000000E+03 0.  0.
        -13    1    3    3    0    0  0.28694756912E+02 -0.22917059085E+02  0.14270780351E+02  0.39398566055E+02  0.10566000000E+00 0. -1.
         23    2    1    0    0    0  0.22851249594E+01 -0.33001718649E+01 -0.30099153673E+02  0.94634361817E+02  0.89630298751E+02 0.  0.
         13    1    3    3    0    0 -0.26409631952E+02  0.19616887221E+02 -0.44369934024E+02  0.55235795762E+02  0.10566000000E+00 0.  1.
         22    1    1    0    0    0 -0.22851249594E+01  0.33001718649E+01  0.30099153673E+02  0.30365638183E+02  0.00000000000E+00 0.  1.
</event>
<event>
 5    1  0.1245581E-004  0.9118800E+02  0.7818608E-02  0.1130116E+00
         25   -1    0    0    0    0  0.00000000000E+00  0.00000000000E+00  0.99999998245E-14  0.12500000000E+03  0.12500000000E+03 0.  0.
        -13    1    3    3    0    0  0.76803672169E+01 -0.11047834947E+02  0.36796800313E+02  0.39179821017E+02  0.10566000000E+00 0. -1.
         23    2    1    0    0    0  0.17345299326E+02  0.23133005759E+02 -0.66824416345E+01  0.95324245749E+02  0.90587313887E+02 0.  0.
         13    1    3    3    0    0  0.96649321095E+01  0.34180840706E+02 -0.43479241948E+02  0.56144424732E+02  0.10566000000E+00 0.  1.
         22    1    1    0    0    0 -0.17345299326E+02 -0.23133005759E+02  0.66824416345E+01  0.29675754251E+02  0.00000000000E+00 0.  1.
</event>
<event>
 5    1  0.1245581E-004  0.9118800E+02  0.7818608E-02  0.1130116E+00
         25   -1    0    0    0    0  0.00000000000E+00  0.00000000000E+00  0.99999998245E-14  0.12500000000E+03  0.12500000000E+03 0.  0.
        -13    1    3    3    0    0 -0.30754747971E+02 -0.17000244698E+02  0.32313862378E+01  0.35289033192E+02  0.10566000000E+00 0.  1.
         23    2    1    0    0    0 -0.10897545283E+02  0.30287673156E+02 -0.14689736176E+02  0.89617970842E+02  0.82337674916E+02 0.  0.
         13    1    3    3    0    0  0.19857202688E+02  0.47287917854E+02 -0.17921122414E+02  0.54328937650E+02  0.10566000000E+00 0. -1.
         22    1    1    0    0    0  0.10897545283E+02 -0.30287673156E+02  0.14689736176E+02  0.35382029158E+02  0.00000000000E+00 0. -1.
</event>
<event>
 5    1  0.1245581E-004  0.9118800E+02  0.7818608E-02  0.1130116E+00
         25   -1    0    0    0    0  0.00000000000E+00  0.00000000000E+00  0.99999998245E-14  0.12500000000E+03  0.12500000000E+03 0.  0.
        -13    1    3    3    0    0 -0.48422096440E+02  0.22705503513E+02  0.12114787015E+02  0.54836288550E+02  0.10566000000E+00 0.  1.
         23    2    1    0    0    0 -0.16907258960E+02 -0.40476084339E+01  0.21623048589E+02  0.97254824386E+02  0.93213229192E+02 0.  0.
         13    1    3    3    0    0  0.31514837480E+02 -0.26753111947E+02  0.95082615736E+01  0.42418535836E+02  0.10566000000E+00 0. -1.
         22    1    1    0    0    0  0.16907258960E+02  0.40476084339E+01 -0.21623048589E+02  0.27745175614E+02  0.00000000000E+00 0.  1.
</event>
<event>
 5    1  0.1245581E-004  0.9118800E+02  0.7818608E-02  0.1130116E+00
         25   -1    0    0    0    0  0.00000000000E+00  0.00000000000E+00  0.99999998245E-14  0.12500000000E+03  0.12500000000E+03 0.  0.
        -13    1    3    3    0    0  0.27974294934E+02  0.28476193883E+02  0.42292862254E+02  0.58156273581E+02  0.10566000000E+00 0. -1.
         23    2    1    0    0    0  0.12749692339E+02  0.28170919747E+02  0.12438172251E+02  0.91670380994E+02  0.85396693429E+02 0.  0.
         13    1    3    3    0    0 -0.15224602596E+02 -0.30527413535E+00 -0.29854690003E+02  0.33514107414E+02  0.10566000000E+00 0.  1.
         22    1    1    0    0    0 -0.12749692339E+02 -0.28170919747E+02 -0.12438172251E+02  0.33329619006E+02  0.00000000000E+00 0. -1.
</event>
<event>
 5    1  0.1245581E-004  0.9118800E+02  0.7818608E-02  0.1130116E+00
         25   -1    0    0    0    0  0.00000000000E+00  0.00000000000E+00  0.99999998245E-14  0.12500000000E+03  0.12500000000E+03 0.  0.
        -13    1    3    3    0    0 -0.54906348415E+02  0.44103163348E+01  0.16060312800E+02  0.57376848969E+02  0.10566000000E+00 0.  1.
         23    2    1    0    0    0 -0.27537717405E+02  0.57926643194E+01 -0.99433499496E+01  0.95154547281E+02  0.90352846221E+02 0.  0.
         13    1    3    3    0    0  0.27368631010E+02  0.13823479846E+01 -0.26003662749E+02  0.37777698312E+02  0.10566000000E+00 0. -1.
         22    1    1    0    0    0  0.27537717405E+02 -0.57926643194E+01  0.99433499496E+01  0.29845452719E+02  0.00000000000E+00 0.  1.
</event>
<event>
 5    1  0.1245581E-004  0.9118800E+02  0.7818608E-02  0.1130116E+00
         25   -1    0    0    0    0  0.00000000000E+00  0.00000000000E+00  0.99999998245E-14  0.12500000000E+03  0.12500000000E+03 0.  0.
        -13    1    3    3    0    0  0.31042318775E+02  0.15444694878E+02  0.66577172969E+00  0.34678791369E+02  0.10566000000E+00 0. -1.
         23    2    1    0    0    0 -0.28114732066E+02  0.13162324572E+01  0.74725585822E+01  0.95879392885E+02  0.91350140784E+02 0.  0.
         13    1    3    3    0    0 -0.59157050841E+02 -0.14128462420E+02  0.68067868525E+01  0.61200601515E+02  0.10566000000E+00 0.  1.
         22    1    1    0    0    0  0.28114732066E+02 -0.13162324572E+01 -0.74725585822E+01  0.29120607115E+02  0.00000000000E+00 0.  1.
</event>
<event>
 5    1  0.1245581E-004  0.9118800E+02  0.7818608E-02  0.1130116E+00
         25   -1    0    0    0    0  0.00000000000E+00  0.00000000000E+00  0.99999998245E-14  0.12500000000E+03  0.12500000000E+03 0.  0.
        -13    1    3    3    0    0  0.13237716453E+02  0.38642510997E+01  0.47584879107E+02  0.49542925399E+02  0.10566000000E+00 0. -1.
         23    2    1    0    0    0  0.24380529598E+02  0.15472542609E+02  0.41941485471E+01  0.95821228945E+02  0.91270516796E+02 0.  0.
         13    1    3    3    0    0  0.11142813145E+02  0.11608291509E+02 -0.43390730560E+02  0.46278303546E+02  0.10566000000E+00 0.  1.
         22    1    1    0    0    0 -0.24380529598E+02 -0.15472542609E+02 -0.41941485471E+01  0.29178771055E+02  0.00000000000E+00 0. -1.
</event>
<event>
 5    1  0.1245581E-004  0.9118800E+02  0.7818608E-02  0.1130116E+00
         25   -1    0    0    0    0  0.00000000000E+00  0.00000000000E+00  0.99999998245E-14  0.12500000000E+03  0.12500000000E+03 0.  0.
        -13    1    3    3    0    0 -0.44793968310E+02  0.71778079380E+01 -0.89613873142E+01  0.46242168530E+02  0.10566000000E+00 0. -1.
         23    2    1    0    0    0 -0.35200748553E+01 -0.93405725204E+01 -0.28499609435E+02  0.94802898153E+02  0.89865035127E+02 0.  0.
         13    1    3    3    0    0  0.41273893455E+02 -0.16518380458E+02 -0.19538222121E+02  0.48560729623E+02  0.10566000000E+00 0.  1.
         22    1    1    0    0    0  0.35200748553E+01  0.93405725204E+01  0.28499609435E+02  0.30197101847E+02  0.00000000000E+00 0.  1.
</event>
<event>
 5    1  0.1245581E-004  0.9118800E+02  0.7818608E-02  0.1130116E+00
         25   -1    0    0    0    0  0.00000000000E+00  0.00000000000E+00  0.99999998245E-14  0.12500000000E+03  0.12500000000E+03 0.  0.
        -13    1    3    3    0    0  0.16659734898E+02  0.27211363074E+02  0.21511620341E+02  0.38480722719E+02  0.10566000000E+00 0.  1.
         23    2    1    0    0    0 -0.21512439437E+02 -0.14614351623E+02  0.13584035383E+02  0.95659067139E+02  0.91048156405E+02 0.  0.
         13    1    3    3    0    0 -0.38172174334E+02 -0.41825714697E+02 -0.79275849580E+01  0.57178344420E+02  0.10566000000E+00 0. -1.
         22    1    1    0    0    0  0.21512439437E+02  0.14614351623E+02 -0.13584035383E+02  0.29340932861E+02  0.00000000000E+00 0. -1.
</event>
<event>
 5    1  0.1245581E-004  0.9118800E+02  0.7818608E-02  0.1130116E+00
         25   -1    0    0    0    0  0.00000000000E+00  0.00000000000E+00  0.99999998245E-14  0.12500000000E+03  0.12500000000E+03 0.  0.
        -13    1    3    3    0    0 -0.27648712362E+02 -0.31851146452E+02  0.40409629882E+02  0.58411438750E+02  0.10566000000E+00 0.  1.
         23    2    1    0    0    0 -0.42915585703E+01 -0.26740609237E+02  0.12472714597E+02  0.95183121110E+02  0.90392368470E+02 0.  0.
         13    1    3    3    0    0  0.23357153792E+02  0.51105372158E+01 -0.27936915285E+02  0.36771682360E+02  0.10566000000E+00 0. -1.
         22    1    1    0    0    0  0.42915585703E+01  0.26740609237E+02 -0.12472714597E+02  0.29816878890E+02  0.00000000000E+00 0.  1.
</event>
<event>
 5    1  0.1245581E-004  0.9118800E+02  0.7818608E-02  0.1130116E+00
         25   -1    0    0    0    0  0.00000000000E+00  0.00000000000E+00  0.99999998245E-14  0.12500000000E+03  0.12500000000E+03 0.  0.
        -13    1    3    3    0    0 -0.19394227526E+02 -0.21430456960E+02  0.21811730785E+02  0.36209989101E+02  0.10566000000E+00 0.  1.
         23    2    1    0    0    0  0.17274112514E+02 -0.11456082128E+00 -0.21893377162E+02  0.97112223988E+02  0.93021803880E+02 0.  0.
         13    1    3    3    0    0  0.36668340040E+02  0.21315896139E+02 -0.43705107947E+02  0.60902234887E+02  0.10566000000E+00 0. -1.
         22    1    1    0    0    0 -0.17274112514E+02  0.11456082128E+00  0.21893377162E+02  0.27887776012E+02  0.00000000000E+00 0. -1.
</event>
<event>
 5    1  0.1245581E-004  0.9118800E+02  0.7818608E-02  0.1130116E+00
         25   -1    0    0    0    0  0.00000000000E+00  0.00000000000E+00  0.99999998245E-14  0.12500000000E+03  0.12500000000E+03 0.  0.
        -13    1    3    3    0    0  0.35024377354E+00 -0.82542479364E+01  0.24123951189E+02  0.25499636560E+02  0.10566000000E+00 0.  1.
         23    2    1    0    0    0 -0.99287817658E+01 -0.40653660815E+02 -0.17843847764E+02  0.79506003165E+02  0.65203533579E+02 0.  0.
         13    1    3    3    0    0 -0.10279025539E+02 -0.32399412879E+02 -0.41967798952E+02  0.54006366605E+02  0.10566000000E+00 0. -1.
         22    1    1    0    0    0  0.99287817658E+01  0.40653660815E+02  0.17843847764E+02  0.45493996835E+02  0.00000000000E+00 0. -1.
</event>
<event>
 5    1  0.1245581E-004  0.9118800E+02  0.7818608E-02  0.1130116E+00
         25   -1    0    0    0    0  0.00000000000E+00  0.00000000000E+00  0.99999998245E-14  0.12500000000E+03  0.12500000000E+03 0.  0.
        -13    1    3    3    0    0  0.13027463576E+02 -0.39051010054E+02 -0.42422557602E+02  0.59113287432E+02  0.10566000000E+00 0. -1.
         23    2    1    0    0    0 -0.47243006901E+01 -0.11495602671E+02 -0.26870952196E+02  0.95393987609E+02  0.90683498511E+02 0.  0.
         13    1    3    3    0    0 -0.17751764266E+02  0.27555407383E+02  0.15551605406E+02  0.36280700177E+02  0.10566000000E+00 0.  1.
         22    1    1    0    0    0  0.47243006901E+01  0.11495602671E+02  0.26870952196E+02  0.29606012391E+02  0.00000000000E+00 0. -1.
</event>
<event>
 5    1  0.1245581E-004  0.9118800E+02  0.7818608E-02  0.1130116E+00
         25   -1    0    0    0    0  0.00000000000E+00  0.00000000000E+00  0.99999998245E-14  0.12500000000E+03  0.12500000000E+03 0.  0.
        -13    1    3    3    0    0  0.33533944833E+02 -0.19081986255E+02  0.45129938027E+02  0.59374827376E+02  0.10566000000E+00 0.  1.
         23    2    1    0    0    0  0.25875422441E+02 -0.77723940455E+01  0.11567474207E+02  0.95610306990E+02  0.90981188977E+02 0.  0.
         13    1    3    3    0    0 -0.76585223927E+01  0.11309592210E+02 -0.33562463820E+02  0.36235479615E+02  0.10566000000E+00 0. -1.
         22    1    1    0    0    0 -0.25875422441E+02  0.77723940455E+01 -0.11567474207E+02  0.29389693010E+02  0.00000000000E+00 0.  1.
</event>
<event>
 5    1  0.1245581E-004  0.9118800E+02  0.7818608E-02  0.1130116E+00
         25   -1    0    0    0    0  0.00000000000E+00  0.00000000000E+00  0.99999998245E-14  0.12500000000E+03  0.12500000000E+03 0.  0.
        -13    1    3    3    0    0 -0.41289293364E+02  0.26027086253E+02 -0.24177879110E+01  0.48867901815E+02  0.10566000000E+00 0. -1.
         23    2    1    0    0    0 -0.35526473027E+01  0.19834992186E+02  0.22719912798E+02  0.94631551646E+02  0.89626379552E+02 0.  0.
         13    1    3    3    0    0  0.37736646062E+02 -0.61920940671E+01  0.25137700709E+02  0.45763649831E+02  0.10566000000E+00 0.  1.
         22    1    1    0    0    0  0.35526473027E+01 -0.19834992186E+02 -0.22719912798E+02  0.30368448354E+02  0.00000000000E+00 0. -1.
</event>
<event>
 5    1  0.1245581E-004  0.9118800E+02  0.7818608E-02  0.1130116E+00
         25   -1    0    0    0    0  0.00000000000E+00  0.00000000000E+00  0.99999998245E-14  0.12500000000E+03  0.12500000000E+03 0.  0.
        -13    1    3    3    0    0  0.57049272122E+01 -0.60495572955E+02 -0.38977312463E+01  0.60888948213E+02  0.10566000000E+00 0. -1.
         23    2    1    0    0    0  0.68137297146E-01 -0.28197941725E+02  0.78724144228E+01  0.95723670498E+02  0.91136807189E+02 0.  0.
         13    1    3    3    0    0 -0.56367899150E+01  0.32297631229E+02  0.11770145669E+02  0.34834722285E+02  0.10566000000E+00 0.  1.
         22    1    1    0    0    0 -0.68137297146E-01  0.28197941725E+02 -0.78724144228E+01  0.29276329502E+02  0.00000000000E+00 0. -1.
</event>
<event>
 5    1  0.1245581E-004  0.9118800E+02  0.7818608E-02  0.1130116E+00
         25   -1    0    0    0    0  0.00000000000E+00  0.00000000000E+00  0.99999998245E-14  0.12500000000E+03  0.12500000000E+03 0.  0.
        -13    1    3    3    0    0  0.16212288055E+02  0.29172460479E+01  0.46157729671E+02  0.49009139769E+02  0.10566000000E+00 0. -1.
         23    2    1    0    0    0  0.19810318508E+00 -0.26342989619E+02  0.14835659167E+02  0.94766093044E+02  0.89813825556E+02 0.  0.
         13    1    3    3    0    0 -0.16014184870E+02 -0.29260235667E+02 -0.31322070504E+02  0.45756953275E+02  0.10566000000E+00 0.  1.
         22    1    1    0    0    0 -0.19810318508E+00  0.26342989619E+02 -0.14835659167E+02  0.30233906956E+02  0.00000000000E+00 0. -1.
</event>
<event>
 5    1  0.1245581E-004  0.9118800E+02  0.7818608E-02  0.1130116E+00
         25   -1    0    0    0    0  0.00000000000E+00  0.00000000000E+00  0.99999998245E-14  0.12500000000E+03  0.12500000000E+03 0.  0.
        -13    1    3    3    0    0  0.14098847020E+02 -0.34068763019E+02  0.16442307338E+02  0.40371013556E+02  0.10566000000E+00 0.  1.
         23    2    1    0    0    0  0.14769929814E+02  0.26152707653E+01 -0.25077286262E+02  0.95779104152E+02  0.91212806327E+02 0.  0.
         13    1    3    3    0    0  0.67108279397E+00  0.36684033784E+02 -0.41519593600E+02  0.55408090596E+02  0.10566000000E+00 0. -1.
         22    1    1    0    0    0 -0.14769929814E+02 -0.26152707653E+01  0.25077286262E+02  0.29220895848E+02  0.00000000000E+00 0. -1.
</event>
<event>
 5    1  0.1245581E-004  0.9118800E+02  0.7818608E-02  0.1130116E+00
         25   -1    0    0    0    0  0.00000000000E+00  0.00000000000E+00  0.99999998245E-14  0.12500000000E+03  0.12500000000E+03 0.  0.
        -13    1    3    3    0    0 -0.47772664532E+01 -0.58878589103E+01  0.35026674931E+02  0.35838084185E+02  0.10566000000E+00 0.  1.
         23    2    1    0    0    0  0.19471301532E+02  0.21483518144E+02 -0.10438110311E+02  0.94183976862E+02  0.88999967502E+02 0.  0.
         13    1    3    3    0    0  0.24248567986E+02  0.27371377054E+02 -0.45464785241E+02  0.58345892677E+02  0.10566000000E+00 0. -1.
         22    1    1    0    0    0 -0.19471301532E+02 -0.21483518144E+02  0.10438110311E+02  0.30816023138E+02  0.00000000000E+00 0. -1.
</event>
<event>
 5    1  0.1245581E-004  0.9118800E+02  0.7818608E-02  0.1130116E+00
         25   -1    0    0    0    0  0.00000000000E+00  0.00000000000E+00  0.99999998245E-14  0.12500000000E+03  0.12500000000E+03 0.  0.
        -13    1    3    3    0    0  0.29906046410E+02 -0.98201391520E+01  0.18585870306E+02  0.36554787428E+02  0.10566000000E+00 0. -1.
         23    2    1    0    0    0 -0.70838933245E+01  0.27809393269E+02 -0.73875393982E+01  0.95366916512E+02  0.90646175474E+02 0.  0.
         13    1    3    3    0    0 -0.36989939734E+02  0.37629532421E+02 -0.25973409704E+02  0.58812129085E+02  0.10566000000E+00 0.  1.
         22    1    1    0    0    0  0.70838933245E+01 -0.27809393269E+02  0.73875393982E+01  0.29633083488E+02  0.00000000000E+00 0.  1.
</event>
<event>
 5    1  0.1245581E-004  0.9118800E+02  0.7818608E-02  0.1130116E+00
         25   -1    0    0    0    0  0.00000000000E+00  0.00000000000E+00  0.99999998245E-14  0.12500000000E+03  0.12500000000E+03 0.  0.
        -13    1    3    3    0    0  0.30564935458E+02 -0.38266412426E+01 -0.24864898370E+02  0.39587028150E+02  0.10566000000E+00 0.  1.
         23    2    1    0    0    0 -0.93441004288E+01  0.25128658625E+02  0.56894323683E+01  0.97593224601E+02  0.93665928438E+02 0.  0.
         13    1    3    3    0    0 -0.39909035887E+02  0.28955299867E+02  0.30554330738E+02  0.58006196451E+02  0.10566000000E+00 0. -1.
         22    1    1    0    0    0  0.93441004288E+01 -0.25128658625E+02 -0.56894323683E+01  0.27406775399E+02  0.00000000000E+00 0. -1.
</event>
<event>
 5    1  0.1245581E-004  0.9118800E+02  0.7818608E-02  0.1130116E+00
         25   -1    0    0    0    0  0.00000000000E+00  0.00000000000E+00  0.99999998245E-14  0.12500000000E+03  0.12500000000E+03 0.  0.
        -13    1    3    3    0    0  0.21283618153E+01 -0.41711743625E+02  0.14760367871E+02  0.44297619620E+02  0.10566000000E+00 0.  1.
         23    2    1    0    0    0 -0.30121142025E+02 -0.53111065930E+01  0.35125075577E+01  0.94213172306E+02  0.89040962913E+02 0.  0.
         13    1    3    3    0    0 -0.32249503840E+02  0.36400637032E+02 -0.11247860314E+02  0.49915552686E+02  0.10566000000E+00 0. -1.
         22    1    1    0    0    0  0.30121142025E+02  0.53111065930E+01 -0.35125075577E+01  0.30786827694E+02  0.00000000000E+00 0. -1.
</event>
<event>
 5    1  0.1245581E-004  0.9118800E+02  0.7818608E-02  0.1130116E+00
         25   -1    0    0    0    0  0.00000000000E+00  0.00000000000E+00  0.99999998245E-14  0.12500000000E+03  0.12500000000E+03 0.  0.
        -13    1    3    3    0    0  0.36840299070E+02  0.36426221894E+02  0.23694477011E+02  0.56969436384E+02  0.10566000000E+00 0.  1.
         23    2    1    0    0    0  0.29499303704E+01  0.28820484643E+02  0.92328010198E+01  0.94593306018E+02  0.89573023308E+02 0.  0.
         13    1    3    3    0    0 -0.33890368699E+02 -0.76057372514E+01 -0.14461675991E+02  0.37623869634E+02  0.10566000000E+00 0. -1.
         22    1    1    0    0    0 -0.29499303704E+01 -0.28820484643E+02 -0.92328010198E+01  0.30406693982E+02  0.00000000000E+00 0.  1.
</event>
<event>
 5    1  0.1245581E-004  0.9118800E+02  0.7818608E-02  0.1130116E+00
         25   -1    0    0    0    0  0.00000000000E+00  0.00000000000E+00  0.99999998245E-14  0.12500000000E+03  0.12500000000E+03 0.  0.
        -13    1    3    3    0    0  0.92489382241E+01 -0.27453795910E+02  0.45982352591E+02  0.54347416516E+02  0.10566000000E+00 0.  1.
         23    2    1    0    0    0 -0.29553701481E+01 -0.29810816142E+02  0.84655011076E+01  0.93869891090E+02  0.88557736943E+02 0.  0.
         13    1    3    3    0    0 -0.12204308372E+02 -0.23570202316E+01 -0.37516851483E+02  0.39522474574E+02  0.10566000000E+00 0. -1.
         22    1    1    0    0    0  0.29553701481E+01  0.29810816142E+02 -0.84655011076E+01  0.31130108910E+02  0.00000000000E+00 0.  1.
</event>
<event>
 5    1  0.1245581E-004  0.9118800E+02  0.7818608E-02  0.1130116E+00
         25   -1    0    0    0    0  0.00000000000E+00  0.00000000000E+00  0.99999998245E-14  0.12500000000E+03  0.12500000000E+03 0.  0.
        -13    1    3    3    0    0 -0.86769677046E+01  0.18610512447E+02  0.54471610703E+02  0.58213473344E+02  0.10566000000E+00 0. -1.
         23    2    1    0    0    0  0.93526113343E+01  0.17024399901E+02  0.20168362354E+02  0.96998850545E+02  0.92869330978E+02 0.  0.
         13    1    3    3    0    0  0.18029579039E+02 -0.15861125464E+01 -0.34303248350E+02  0.38785377202E+02  0.10566000000E+00 0.  1.
         22    1    1    0    0    0 -0.93526113343E+01 -0.17024399901E+02 -0.20168362354E+02  0.28001149455E+02  0.00000000000E+00 0. -1.
</event>
<event>
 5    1  0.1245581E-004  0.9118800E+02  0.7818608E-02  0.1130116E+00
         25   -1    0    0    0    0  0.00000000000E+00  0.00000000000E+00  0.99999998245E-14  0.12500000000E+03  0.12500000000E+03 0.  0.
        -13    1    3    3    0    0 -0.51361544072E+01  0.45254286185E+02 -0.27362082585E+00  0.45545763058E+02  0.10566000000E+00 0. -1.
         23    2    1    0    0    0  0.23497438313E+02  0.71229754978E+01  0.15724373005E+02  0.95843143283E+02  0.91300524756E+02 0.  0.
         13    1    3    3    0    0  0.28633592720E+02 -0.38131310687E+02  0.15997993831E+02  0.50297380224E+02  0.10566000000E+00 0.  1.
         22    1    1    0    0    0 -0.23497438313E+02 -0.71229754978E+01 -0.15724373005E+02  0.29156856717E+02  0.00000000000E+00 0. -1.
</event>
<event>
 5    1  0.1245581E-004  0.9118800E+02  0.7818608E-02  0.1130116E+00
         25   -1    0    0    0    0  0.00000000000E+00  0.00000000000E+00  0.99999998245E-14  0.12500000000E+03  0.12500000000E+03 0.  0.
        -13    1    3    3    0    0  0.15340642612E+02 -0.28080214533E+02  0.23540443491E+02  0.39724015505E+02  0.10566000000E+00 0.  1.
         23    2    1    0    0    0 -0.91493378690E+01 -0.15544265402E+02 -0.24195853136E+02  0.94820969543E+02  0.89890168460E+02 0.  0.
         13    1    3    3    0    0 -0.24489980481E+02  0.12535949131E+02 -0.47736296627E+02  0.55096954039E+02  0.10566000000E+00 0. -1.
         22    1    1    0    0    0  0.91493378690E+01  0.15544265402E+02  0.24195853136E+02  0.30179030457E+02  0.00000000000E+00 0. -1.
</event>
<event>
 5    1  0.1245581E-004  0.9118800E+02  0.7818608E-02  0.1130116E+00
         25   -1    0    0    0    0  0.00000000000E+00  0.00000000000E+00  0.99999998245E-14  0.12500000000E+03  0.12500000000E+03 0.  0.
        -13    1    3    3    0    0  0.41338832302E+01  0.28837153693E+02  0.48505246058E+02  0.56581273252E+02  0.10566000000E+00 0. -1.
         23    2    1    0    0    0  0.16603206774E+01 -0.44449207612E+01  0.29769589027E+02  0.94854645198E+02  0.89936985158E+02 0.  0.
         13    1    3    3    0    0 -0.24735625529E+01 -0.33282074454E+02 -0.18735657031E+02  0.38273371945E+02  0.10566000000E+00 0.  1.
         22    1    1    0    0    0 -0.16603206774E+01  0.44449207612E+01 -0.29769589027E+02  0.30145354802E+02  0.00000000000E+00 0. -1.
</event>
<event>
 5    1  0.1245581E-004  0.9118800E+02  0.7818608E-02  0.1130116E+00
         25   -1    0    0    0    0  0.00000000000E+00  0.00000000000E+00  0.99999998245E-14  0.12500000000E+03  0.12500000000E+03 0.  0.
        -13    1    3    3    0    0  0.22074723931E+02 -0.12317800348E+02  0.55097243198E+02  0.60619625652E+02  0.10566000000E+00 0.  1.
         23    2    1    0    0    0  0.12242582075E+02  0.50382100939E+01  0.24659528157E+02  0.97011489755E+02  0.92886341508E+02 0.  0.
         13    1    3    3    0    0 -0.98321418561E+01  0.17356010442E+02 -0.30437715041E+02  0.36391864103E+02  0.10566000000E+00 0. -1.
         22    1    1    0    0    0 -0.12242582075E+02 -0.50382100939E+01 -0.24659528157E+02  0.27988510245E+02  0.00000000000E+00 0.  1.
</event>
<event>
 5    1  0.1245581E-004  0.9118800E+02  0.7818608E-02  0.1130116E+00
         25   -1    0    0    0    0  0.00000000000E+00  0.00000000000E+00  0.99999998245E-14  0.12500000000E+03  0.12500000000E+03 0.  0.
        -13    1    3    3    0    0 -0.35129893639E+02 -0.23126322621E+02  0.14966694367E+02  0.44642461058E+02  0.10566000000E+00 0.  1.
         23    2    1    0    0    0 -0.92946065477E+01 -0.72868158216E+01 -0.26491180793E+02  0.95995344244E+02  0.91508666590E+02 0.  0.
         13    1    3    3    0    0  0.25835287091E+02  0.15839506799E+02 -0.41457875160E+02  0.51352883186E+02  0.10566000000E+00 0. -1.
         22    1    1    0    0    0  0.92946065477E+01  0.72868158216E+01  0.26491180793E+02  0.29004655756E+02  0.00000000000E+00 0.  1.
</event>
<event>
 5    1  0.1245581E-004  0.9118800E+02  0.7818608E-02  0.1130116E+00
         25   -1    0    0    0    0  0.00000000000E+00  0.00000000000E+00  0.99999998245E-14  0.12500000000E+03  0.12500000000E+03 0.  0.
        -13    1    3    3    0    0 -0.85448682272E+01  0.29211443687E+02  0.50988620706E+02  0.59381594967E+02  0.10566000000E+00 0.  1.
         23    2    1    0    0    0 -0.46735808242E+01  0.21946218596E+02  0.11372347285E+02  0.99844301816E+02  0.96623369088E+02 0.  0.
         13    1    3    3    0    0  0.38712874029E+01 -0.72652250919E+01 -0.39616273420E+02  0.40462706849E+02  0.10566000000E+00 0. -1.
         22    1    1    0    0    0  0.46735808242E+01 -0.21946218596E+02 -0.11372347285E+02  0.25155698184E+02  0.00000000000E+00 0.  1.
</event>
<event>
 5    1  0.1245581E-004  0.9118800E+02  0.7818608E-02  0.1130116E+00
         25   -1    0    0    0    0  0.00000000000E+00  0.00000000000E+00  0.99999998245E-14  0.12500000000E+03  0.12500000000E+03 0.  0.
        -13    1    3    3    0    0 -0.87282291135E+01  0.44159936076E+01  0.57687080965E+02  0.58510626875E+02  0.10566000000E+00 0. -1.
         23    2    1    0    0    0  0.84161463949E+01 -0.77619755904E+01  0.26578963861E+02  0.96060043105E+02  0.91597002004E+02 0.  0.
         13    1    3    3    0    0  0.17144375508E+02 -0.12177969198E+02 -0.31108117105E+02  0.37549416230E+02  0.10566000000E+00 0.  1.
         22    1    1    0    0    0 -0.84161463949E+01  0.77619755904E+01 -0.26578963861E+02  0.28939956895E+02  0.00000000000E+00 0. -1.
</event>
<event>
 5    1  0.1245581E-004  0.9118800E+02  0.7818608E-02  0.1130116E+00
         25   -1    0    0    0    0  0.00000000000E+00  0.00000000000E+00  0.99999998245E-14  0.12500000000E+03  0.12500000000E+03 0.  0.
        -13    1    3    3    0    0 -0.40182138599E+02 -0.34063641307E+02 -0.21443634949E+02  0.56875096179E+02  0.10566000000E+00 0.  1.
         23    2    1    0    0    0 -0.27522560234E+02  0.68151084695E+00 -0.11462150788E+02  0.95178251568E+02  0.90385634323E+02 0.  0.
         13    1    3    3    0    0  0.12659578365E+02  0.34745152154E+02  0.99814841612E+01  0.38303155389E+02  0.10566000000E+00 0. -1.
         22    1    1    0    0    0  0.27522560234E+02 -0.68151084695E+00  0.11462150788E+02  0.29821748432E+02  0.00000000000E+00 0.  1.
</event>
<event>
 5    1  0.1245581E-004  0.9118800E+02  0.7818608E-02  0.1130116E+00
         25   -1    0    0    0    0  0.00000000000E+00  0.00000000000E+00  0.99999998245E-14  0.12500000000E+03  0.12500000000E+03 0.  0.
        -13    1    3    3    0    0 -0.95625444448E+01  0.38125656921E+02 -0.36315760698E+02  0.53514984920E+02  0.10566000000E+00 0.  1.
         23    2    1    0    0    0 -0.10442533248E+02 -0.43725504068E+01 -0.25081420621E+02  0.97481944871E+02  0.93517304377E+02 0.  0.
         13    1    3    3    0    0 -0.87998880267E+00 -0.42498207327E+02  0.11234340077E+02  0.43966959951E+02  0.10566000000E+00 0. -1.
         22    1    1    0    0    0  0.10442533248E+02  0.43725504068E+01  0.25081420621E+02  0.27518055129E+02  0.00000000000E+00 0.  1.
</event>
<event>
 5    1  0.1245581E-004  0.9118800E+02  0.7818608E-02  0.1130116E+00
         25   -1    0    0    0    0  0.00000000000E+00  0.00000000000E+00  0.99999998245E-14  0.12500000000E+03  0.12500000000E+03 0.  0.
        -13    1    3    3    0    0  0.36105312485E+02  0.10240138364E+01 -0.15611867197E+02  0.39349507689E+02  0.10566000000E+00 0.  1.
         23    2    1    0    0    0 -0.10390654176E+02  0.28395595464E+02 -0.46241562168E+01  0.94411466909E+02  0.89318904646E+02 0.  0.
         13    1    3    3    0    0 -0.46495966661E+02  0.27371581627E+02  0.10987710980E+02  0.55061959220E+02  0.10566000000E+00 0. -1.
         22    1    1    0    0    0  0.10390654176E+02 -0.28395595464E+02  0.46241562168E+01  0.30588533091E+02  0.00000000000E+00 0. -1.
</event>
<event>
 5    1  0.1245581E-004  0.9118800E+02  0.7818608E-02  0.1130116E+00
         25   -1    0    0    0    0  0.00000000000E+00  0.00000000000E+00  0.99999998245E-14  0.12500000000E+03  0.12500000000E+03 0.  0.
        -13    1    3    3    0    0 -0.48747529705E+02 -0.32168771785E+02  0.19830992231E+02  0.61680069288E+02  0.10566000000E+00 0. -1.
         23    2    1    0    0    0 -0.19209607977E+02 -0.20299037315E+02  0.58594759406E+01  0.96444905658E+02  0.92120716533E+02 0.  0.
         13    1    3    3    0    0  0.29537921728E+02  0.11869734469E+02 -0.13971516291E+02  0.34764836370E+02  0.10566000000E+00 0.  1.
         22    1    1    0    0    0  0.19209607977E+02  0.20299037315E+02 -0.58594759406E+01  0.28555094342E+02  0.00000000000E+00 0. -1.
</event>
<event>
 5    1  0.1245581E-004  0.9118800E+02  0.7818608E-02  0.1130116E+00
         25   -1    0    0    0    0  0.00000000000E+00  0.00000000000E+00  0.99999998245E-14  0.12500000000E+03  0.12500000000E+03 0.  0.
        -13    1    3    3    0    0 -0.92292829334E+01  0.47364781212E+02  0.35168624164E+02  0.59711351118E+02  0.10566000000E+00 0.  1.
         23    2    1    0    0    0 -0.22462169072E+00  0.27775372736E+02  0.50233848488E+01  0.96773130162E+02  0.92565017909E+02 0.  0.
         13    1    3    3    0    0  0.90046612427E+01 -0.19589408476E+02 -0.30145239315E+02  0.37061779044E+02  0.10566000000E+00 0. -1.
         22    1    1    0    0    0  0.22462169072E+00 -0.27775372736E+02 -0.50233848488E+01  0.28226869838E+02  0.00000000000E+00 0.  1.
</event>
<event>
 5    1  0.1245581E-004  0.9118800E+02  0.7818608E-02  0.1130116E+00
         25   -1    0    0    0    0  0.00000000000E+00  0.00000000000E+00  0.99999998245E-14  0.12500000000E+03  0.12500000000E+03 0.  0.
        -13    1    3    3    0    0 -0.39914703955E+02  0.62521716699E+01  0.32992828360E+02  0.52161395012E+02  0.10566000000E+00 0.  1.
         23    2    1    0    0    0  0.34682277484E+01 -0.42200872218E+01  0.27307905017E+02  0.97151132585E+02  0.93074073438E+02 0.  0.
         13    1    3    3    0    0  0.43382931703E+02 -0.10472258892E+02 -0.56849233427E+01  0.44989737573E+02  0.10566000000E+00 0. -1.
         22    1    1    0    0    0 -0.34682277484E+01  0.42200872218E+01 -0.27307905017E+02  0.27848867415E+02  0.00000000000E+00 0.  1.
</event>
<event>
 5    1  0.1245581E-004  0.9118800E+02  0.7818608E-02  0.1130116E+00
         25   -1    0    0    0    0  0.00000000000E+00  0.00000000000E+00  0.99999998245E-14  0.12500000000E+03  0.12500000000E+03 0.  0.
        -13    1    3    3    0    0  0.87579590107E+01  0.38695511636E+02 -0.43703308080E+02  0.59025712770E+02  0.10566000000E+00 0. -1.
         23    2    1    0    0    0  0.17876121564E+02  0.12853840131E+02 -0.19760761317E+02  0.95415128594E+02  0.90712634999E+02 0.  0.
         13    1    3    3    0    0  0.91181625529E+01 -0.25841671505E+02  0.23942546763E+02  0.36389415824E+02  0.10566000000E+00 0.  1.
         22    1    1    0    0    0 -0.17876121564E+02 -0.12853840131E+02  0.19760761317E+02  0.29584871406E+02  0.00000000000E+00 0. -1.
</event>
<event>
 5    1  0.1245581E-004  0.9118800E+02  0.7818608E-02  0.1130116E+00
         25   -1    0    0    0    0  0.00000000000E+00  0.00000000000E+00  0.99999998245E-14  0.12500000000E+03  0.12500000000E+03 0.  0.
        -13    1    3    3    0    0  0.54058744081E+02  0.16785153601E+02  0.47981488459E+01  0.56807768742E+02  0.10566000000E+00 0.  1.
         23    2    1    0    0    0  0.23310942071E+02  0.15030403455E+02 -0.15046072000E+02  0.93445327907E+02  0.87956420895E+02 0.  0.
         13    1    3    3    0    0 -0.30747802010E+02 -0.17547501460E+01 -0.19844220846E+02  0.36637559165E+02  0.10566000000E+00 0. -1.
         22    1    1    0    0    0 -0.23310942071E+02 -0.15030403455E+02  0.15046072000E+02  0.31554672093E+02  0.00000000000E+00 0.  1.
</event>
<event>
 5    1  0.1245581E-004  0.9118800E+02  0.7818608E-02  0.1130116E+00
         25   -1    0    0    0    0  0.00000000000E+00  0.00000000000E+00  0.99999998245E-14  0.12500000000E+03  0.12500000000E+03 0.  0.
        -13    1    3    3    0    0  0.13074598601E+02  0.19754525822E+02 -0.54913008051E+02  0.59804983373E+02  0.10566000000E+00 0.  1.
         23    2    1    0    0    0 -0.25342552674E+01  0.18337511193E+02 -0.22084165512E+02  0.96183387901E+02  0.91765172997E+02 0.  0.
         13    1    3    3    0    0 -0.15608853868E+02 -0.14170146290E+01  0.32828842539E+02  0.36378404528E+02  0.10566000000E+00 0. -1.
         22    1    1    0    0    0  0.25342552674E+01 -0.18337511193E+02  0.22084165512E+02  0.28816612099E+02  0.00000000000E+00 0.  1.
</event>
<event>
 5    1  0.1245581E-004  0.9118800E+02  0.7818608E-02  0.1130116E+00
         25   -1    0    0    0    0  0.00000000000E+00  0.00000000000E+00  0.99999998245E-14  0.12500000000E+03  0.12500000000E+03 0.  0.
        -13    1    3    3    0    0 -0.13990772814E+02  0.37379670633E+02 -0.20018115439E+02  0.44651065053E+02  0.10566000000E+00 0.  1.
         23    2    1    0    0    0 -0.27773123394E+02 -0.12857354887E+01  0.99450170750E+01  0.95471998655E+02  0.90790966863E+02 0.  0.
         13    1    3    3    0    0 -0.13782350579E+02 -0.38665406122E+02  0.29963132514E+02  0.50820933602E+02  0.10566000000E+00 0. -1.
         22    1    1    0    0    0  0.27773123394E+02  0.12857354887E+01 -0.99450170750E+01  0.29528001345E+02  0.00000000000E+00 0.  1.
</event>
<event>
 5    1  0.1245581E-004  0.9118800E+02  0.7818608E-02  0.1130116E+00
         25   -1    0    0    0    0  0.00000000000E+00  0.00000000000E+00  0.99999998245E-14  0.12500000000E+03  0.12500000000E+03 0.  0.
        -13    1    3    3    0    0 -0.28007074968E+02  0.27701668684E+02  0.92900538878E+00  0.39403716972E+02  0.10566000000E+00 0.  1.
         23    2    1    0    0    0 -0.54568824030E+01 -0.24460787233E+02  0.11859485748E+02  0.97273567127E+02  0.93238360034E+02 0.  0.
         13    1    3    3    0    0  0.22550192565E+02 -0.52162455918E+02  0.10930480359E+02  0.57869850155E+02  0.10566000000E+00 0. -1.
         22    1    1    0    0    0  0.54568824030E+01  0.24460787233E+02 -0.11859485748E+02  0.27726432873E+02  0.00000000000E+00 0. -1.
</event>
<event>
 5    1  0.1245581E-004  0.9118800E+02  0.7818608E-02  0.1130116E+00
         25   -1    0    0    0    0  0.00000000000E+00  0.00000000000E+00  0.99999998245E-14  0.12500000000E+03  0.12500000000E+03 0.  0.
        -13    1    3    3    0    0  0.52412300616E+02 -0.77323786547E+01 -0.19793983800E+02  0.56556625556E+02  0.10566000000E+00 0. -1.
         23    2    1    0    0    0  0.13159755001E+02 -0.17227317361E+02 -0.17730591029E+02  0.96994045751E+02  0.92862863609E+02 0.  0.
         13    1    3    3    0    0 -0.39252545615E+02 -0.94949387065E+01  0.20633927707E+01  0.40437420195E+02  0.10566000000E+00 0.  1.
         22    1    1    0    0    0 -0.13159755001E+02  0.17227317361E+02  0.17730591029E+02  0.28005954249E+02  0.00000000000E+00 0. -1.
</event>
<event>
 5    1  0.1245581E-004  0.9118800E+02  0.7818608E-02  0.1130116E+00
         25   -1    0    0    0    0  0.00000000000E+00  0.00000000000E+00  0.99999998245E-14  0.12500000000E+03  0.12500000000E+03 0.  0.
        -13    1    3    3    0    0 -0.32827325737E+02  0.27890771577E+02 -0.37537947111E+02  0.57137002822E+02  0.10566000000E+00 0. -1.
         23    2    1    0    0    0 -0.16504806267E+02  0.17457899103E+02  0.17192979342E+01  0.10091384513E+03  0.97997251404E+02 0.  0.
         13    1    3    3    0    0  0.16322519470E+02 -0.10432872473E+02  0.39257245045E+02  0.43776842308E+02  0.10566000000E+00 0.  1.
         22    1    1    0    0    0  0.16504806267E+02 -0.17457899103E+02 -0.17192979342E+01  0.24086154869E+02  0.00000000000E+00 0. -1.
</event>
<event>
 5    1  0.1245581E-004  0.9118800E+02  0.7818608E-02  0.1130116E+00
         25   -1    0    0    0    0  0.00000000000E+00  0.00000000000E+00  0.99999998245E-14  0.12500000000E+03  0.12500000000E+03 0.  0.
        -13    1    3    3    0    0  0.32887556864E+02 -0.13995314296E+02  0.39388346781E+02  0.53187529036E+02  0.10566000000E+00 0.  1.
         23    2    1    0    0    0  0.11394037692E+02 -0.27742862311E+02  0.73923554901E+01  0.94110885027E+02  0.88897251120E+02 0.  0.
         13    1    3    3    0    0 -0.21493519172E+02 -0.13747548015E+02 -0.31995991291E+02  0.40923355991E+02  0.10566000000E+00 0. -1.
         22    1    1    0    0    0 -0.11394037692E+02  0.27742862311E+02 -0.73923554901E+01  0.30889114973E+02  0.00000000000E+00 0.  1.
</event>
<event>
 5    1  0.1245581E-004  0.9118800E+02  0.7818608E-02  0.1130116E+00
         25   -1    0    0    0    0  0.00000000000E+00  0.00000000000E+00  0.99999998245E-14  0.12500000000E+03  0.12500000000E+03 0.  0.
        -13    1    3    3    0    0 -0.38453320756E+02 -0.43666157589E+02 -0.11881124673E+02  0.59384875880E+02  0.10566000000E+00 0.  1.
         23    2    1    0    0    0 -0.53834525686E+01 -0.26936313734E+02 -0.51865010427E+01  0.97045638047E+02  0.92932284550E+02 0.  0.
         13    1    3    3    0    0  0.33069868188E+02  0.16729843855E+02  0.66946236306E+01  0.37660762166E+02  0.10566000000E+00 0. -1.
         22    1    1    0    0    0  0.53834525686E+01  0.26936313734E+02  0.51865010427E+01  0.27954361953E+02  0.00000000000E+00 0.  1.
</event>
<event>
 5    1  0.1245581E-004  0.9118800E+02  0.7818608E-02  0.1130116E+00
         25   -1    0    0    0    0  0.00000000000E+00  0.00000000000E+00  0.99999998245E-14  0.12500000000E+03  0.12500000000E+03 0.  0.
        -13    1    3    3    0    0 -0.27914001649E+01  0.39779132801E+02  0.22811487209E+01  0.39942284922E+02  0.10566000000E+00 0. -1.
         23    2    1    0    0    0 -0.25805783406E+01 -0.51648830857E+01 -0.29469216258E+02  0.94970512680E+02  0.90097881051E+02 0.  0.
         13    1    3    3    0    0  0.21082182436E+00 -0.44944015886E+02 -0.31750364979E+02  0.55028227758E+02  0.10566000000E+00 0.  1.
         22    1    1    0    0    0  0.25805783406E+01  0.51648830857E+01  0.29469216258E+02  0.30029487320E+02  0.00000000000E+00 0.  1.
</event>
<event>
 5    1  0.1245581E-004  0.9118800E+02  0.7818608E-02  0.1130116E+00
         25   -1    0    0    0    0  0.00000000000E+00  0.00000000000E+00  0.99999998245E-14  0.12500000000E+03  0.12500000000E+03 0.  0.
        -13    1    3    3    0    0  0.14775805170E+01 -0.17398357763E+02 -0.16179903060E+02  0.23805178514E+02  0.10566000000E+00 0. -1.
         23    2    1    0    0    0  0.41792389964E+01  0.33412034696E+02 -0.33448644778E+02  0.77537994790E+02  0.61314751059E+02 0.  0.
         13    1    3    3    0    0  0.27016584794E+01  0.50810392459E+02 -0.17268741718E+02  0.53732816275E+02  0.10566000000E+00 0.  1.
         22    1    1    0    0    0 -0.41792389964E+01 -0.33412034696E+02  0.33448644778E+02  0.47462005210E+02  0.00000000000E+00 0.  1.
</event>
<event>
 5    1  0.1245581E-004  0.9118800E+02  0.7818608E-02  0.1130116E+00
         25   -1    0    0    0    0  0.00000000000E+00  0.00000000000E+00  0.99999998245E-14  0.12500000000E+03  0.12500000000E+03 0.  0.
        -13    1    3    3    0    0  0.87317548928E+01 -0.35438619241E+01 -0.35930557697E+02  0.37145910156E+02  0.10566000000E+00 0.  1.
         23    2    1    0    0    0  0.31782927239E+01  0.14811855949E+02  0.22067892345E+02  0.98232772017E+02  0.94515570169E+02 0.  0.
         13    1    3    3    0    0 -0.55534621689E+01  0.18355717873E+02  0.57998450043E+02  0.61086861862E+02  0.10566000000E+00 0. -1.
         22    1    1    0    0    0 -0.31782927239E+01 -0.14811855949E+02 -0.22067892345E+02  0.26767227983E+02  0.00000000000E+00 0. -1.
</event>
<event>
 5    1  0.1245581E-004  0.9118800E+02  0.7818608E-02  0.1130116E+00
         25   -1    0    0    0    0  0.00000000000E+00  0.00000000000E+00  0.99999998245E-14  0.12500000000E+03  0.12500000000E+03 0.  0.
        -13    1    3    3    0    0 -0.20332312042E+02  0.16317212455E+02 -0.50430889477E+02  0.56770944265E+02  0.10566000000E+00 0.  1.
         23    2    1    0    0    0  0.73433122606E+01  0.16732372569E+02 -0.20493101096E+02  0.97543421202E+02  0.93599440706E+02 0.  0.
         13    1    3    3    0    0  0.27675624302E+02  0.41516011442E+00  0.29937788381E+02  0.40772476937E+02  0.10566000000E+00 0. -1.
         22    1    1    0    0    0 -0.73433122606E+01 -0.16732372569E+02  0.20493101096E+02  0.27456578798E+02  0.00000000000E+00 0.  1.
</event>
<event>
 5    1  0.1245581E-004  0.9118800E+02  0.7818608E-02  0.1130116E+00
         25   -1    0    0    0    0  0.00000000000E+00  0.00000000000E+00  0.99999998245E-14  0.12500000000E+03  0.12500000000E+03 0.  0.
        -13    1    3    3    0    0  0.49788977479E+01  0.45707366566E+02  0.17596796116E+02  0.49230185646E+02  0.10566000000E+00 0.  1.
         23    2    1    0    0    0  0.30516376326E+01  0.13743301880E+02 -0.21209954566E+02  0.99543114654E+02  0.96232939598E+02 0.  0.
         13    1    3    3    0    0 -0.19272601152E+01 -0.31964064686E+02 -0.38806750682E+02  0.50312929008E+02  0.10566000000E+00 0. -1.
         22    1    1    0    0    0 -0.30516376326E+01 -0.13743301880E+02  0.21209954566E+02  0.25456885346E+02  0.00000000000E+00 0.  1.
</event>
<event>
 5    1  0.1245581E-004  0.9118800E+02  0.7818608E-02  0.1130116E+00
         25   -1    0    0    0    0  0.00000000000E+00  0.00000000000E+00  0.99999998245E-14  0.12500000000E+03  0.12500000000E+03 0.  0.
        -13    1    3    3    0    0  0.31045220632E+02  0.39569498840E+02  0.30693392800E+02  0.58920679630E+02  0.10566000000E+00 0.  1.
         23    2    1    0    0    0  0.85695012146E+01  0.27835785484E+02  0.42307453495E+01  0.95569293063E+02  0.90924822055E+02 0.  0.
         13    1    3    3    0    0 -0.22475719417E+02 -0.11733713355E+02 -0.26462647451E+02  0.36648613433E+02  0.10566000000E+00 0. -1.
         22    1    1    0    0    0 -0.85695012146E+01 -0.27835785484E+02 -0.42307453495E+01  0.29430706937E+02  0.00000000000E+00 0.  1.
</event>
<event>
 5    1  0.1245581E-004  0.9118800E+02  0.7818608E-02  0.1130116E+00
         25   -1    0    0    0    0  0.00000000000E+00  0.00000000000E+00  0.99999998245E-14  0.12500000000E+03  0.12500000000E+03 0.  0.
        -13    1    3    3    0    0  0.41749379760E+02  0.41368144114E+02  0.11429470540E+02  0.59874685959E+02  0.10566000000E+00 0. -1.
         23    2    1    0    0    0  0.18243065795E+02  0.26194089230E+02 -0.55467180945E+01  0.92600835786E+02  0.86747962203E+02 0.  0.
         13    1    3    3    0    0 -0.23506313966E+02 -0.15174054885E+02 -0.16976188635E+02  0.32726149827E+02  0.10566000000E+00 0.  1.
         22    1    1    0    0    0 -0.18243065795E+02 -0.26194089230E+02  0.55467180945E+01  0.32399164214E+02  0.00000000000E+00 0. -1.
</event>
<event>
 5    1  0.1245581E-004  0.9118800E+02  0.7818608E-02  0.1130116E+00
         25   -1    0    0    0    0  0.00000000000E+00  0.00000000000E+00  0.99999998245E-14  0.12500000000E+03  0.12500000000E+03 0.  0.
        -13    1    3    3    0    0 -0.42657284449E+02 -0.40515123626E+02  0.15223450275E+02  0.60769102028E+02  0.10566000000E+00 0. -1.
         23    2    1    0    0    0 -0.23691078998E+02 -0.88192626850E+01  0.86162909173E+01  0.98292564939E+02  0.94594615252E+02 0.  0.
         13    1    3    3    0    0  0.18966205451E+02  0.31695860941E+02 -0.66071593581E+01  0.37523462911E+02  0.10566000000E+00 0.  1.
         22    1    1    0    0    0  0.23691078998E+02  0.88192626850E+01 -0.86162909173E+01  0.26707435061E+02  0.00000000000E+00 0. -1.
</event>
<event>
 5    1  0.1245581E-004  0.9118800E+02  0.7818608E-02  0.1130116E+00
         25   -1    0    0    0    0  0.00000000000E+00  0.00000000000E+00  0.99999998245E-14  0.12500000000E+03  0.12500000000E+03 0.  0.
        -13    1    3    3    0    0  0.30480140273E+02  0.15029316727E+02 -0.25842606237E+01  0.34082383710E+02  0.10566000000E+00 0. -1.
         23    2    1    0    0    0 -0.25998035288E+02 -0.10089940752E+02  0.59610309911E+01  0.96482660824E+02  0.92171932854E+02 0.  0.
         13    1    3    3    0    0 -0.56478175561E+02 -0.25119257479E+02  0.85452916149E+01  0.62400277114E+02  0.10566000000E+00 0.  1.
         22    1    1    0    0    0  0.25998035288E+02  0.10089940752E+02 -0.59610309911E+01  0.28517339176E+02  0.00000000000E+00 0.  1.
</event>
<event>
 5    1  0.1245581E-004  0.9118800E+02  0.7818608E-02  0.1130116E+00
         25   -1    0    0    0    0  0.00000000000E+00  0.00000000000E+00  0.99999998245E-14  0.12500000000E+03  0.12500000000E+03 0.  0.
        -13    1    3    3    0    0 -0.12841629882E+01  0.32709430098E+02 -0.13283047305E+02  0.35327134071E+02  0.10566000000E+00 0.  1.
         23    2    1    0    0    0  0.13920814295E+02 -0.13856904930E+02  0.21857430344E+02  0.95613776253E+02  0.90985955307E+02 0.  0.
         13    1    3    3    0    0  0.15204977283E+02 -0.46566335028E+02  0.35140477649E+02  0.60286642182E+02  0.10566000000E+00 0. -1.
         22    1    1    0    0    0 -0.13920814295E+02  0.13856904930E+02 -0.21857430344E+02  0.29386223747E+02  0.00000000000E+00 0. -1.
</event>
<event>
 5    1  0.1245581E-004  0.9118800E+02  0.7818608E-02  0.1130116E+00
         25   -1    0    0    0    0  0.00000000000E+00  0.00000000000E+00  0.99999998245E-14  0.12500000000E+03  0.12500000000E+03 0.  0.
        -13    1    3    3    0    0 -0.31259555838E+01 -0.13398231166E+02 -0.41653187566E+02  0.43866654706E+02  0.10566000000E+00 0. -1.
         23    2    1    0    0    0 -0.99185528945E+01  0.25829727281E+02 -0.74686432459E+01  0.96341089782E+02  0.91979739321E+02 0.  0.
         13    1    3    3    0    0 -0.67925973107E+01  0.39227958447E+02  0.34184544320E+02  0.52474435076E+02  0.10566000000E+00 0.  1.
         22    1    1    0    0    0  0.99185528945E+01 -0.25829727281E+02  0.74686432459E+01  0.28658910218E+02  0.00000000000E+00 0.  1.
</event>
<event>
 5    1  0.1245581E-004  0.9118800E+02  0.7818608E-02  0.1130116E+00
         25   -1    0    0    0    0  0.00000000000E+00  0.00000000000E+00  0.99999998245E-14  0.12500000000E+03  0.12500000000E+03 0.  0.
        -13    1    3    3    0    0  0.75945276344E+01  0.40446097597E+02  0.18449711198E+02  0.45099519600E+02  0.10566000000E+00 0. -1.
         23    2    1    0    0    0  0.33165319836E+02  0.50599644041E+01  0.33999373894E+01  0.91279068016E+02  0.84821972413E+02 0.  0.
         13    1    3    3    0    0  0.25570792202E+02 -0.35386133193E+02 -0.15049773809E+02  0.46179548416E+02  0.10566000000E+00 0.  1.
         22    1    1    0    0    0 -0.33165319836E+02 -0.50599644041E+01 -0.33999373894E+01  0.33720931984E+02  0.00000000000E+00 0.  1.
</event>
<event>
 5    1  0.1245581E-004  0.9118800E+02  0.7818608E-02  0.1130116E+00
         25   -1    0    0    0    0  0.00000000000E+00  0.00000000000E+00  0.99999998245E-14  0.12500000000E+03  0.12500000000E+03 0.  0.
        -13    1    3    3    0    0 -0.47337602322E+02  0.34921143033E+02  0.11706180082E+02  0.59978168032E+02  0.10566000000E+00 0.  1.
         23    2    1    0    0    0 -0.27580436559E+02  0.92982843906E+01 -0.34184398410E+01  0.95694295703E+02  0.91096508857E+02 0.  0.
         13    1    3    3    0    0  0.19757165763E+02 -0.25622858642E+02 -0.15124619923E+02  0.35716127672E+02  0.10566000000E+00 0. -1.
         22    1    1    0    0    0  0.27580436559E+02 -0.92982843906E+01  0.34184398410E+01  0.29305704297E+02  0.00000000000E+00 0.  1.
</event>
<event>
 5    1  0.1245581E-004  0.9118800E+02  0.7818608E-02  0.1130116E+00
         25   -1    0    0    0    0  0.00000000000E+00  0.00000000000E+00  0.99999998245E-14  0.12500000000E+03  0.12500000000E+03 0.  0.
        -13    1    3    3    0    0  0.28732073412E+01  0.25264616282E+02  0.41031491798E+02  0.48271633901E+02  0.10566000000E+00 0.  1.
         23    2    1    0    0    0 -0.17717487759E+02  0.23192742925E+02 -0.17146169429E+01  0.95763847583E+02  0.91191895999E+02 0.  0.
         13    1    3    3    0    0 -0.20590695100E+02 -0.20718733566E+01 -0.42746108741E+02  0.47492213682E+02  0.10566000000E+00 0. -1.
         22    1    1    0    0    0  0.17717487759E+02 -0.23192742925E+02  0.17146169429E+01  0.29236152417E+02  0.00000000000E+00 0.  1.
</event>
<event>
 5    1  0.1245581E-004  0.9118800E+02  0.7818608E-02  0.1130116E+00
         25   -1    0    0    0    0  0.00000000000E+00  0.00000000000E+00  0.99999998245E-14  0.12500000000E+03  0.12500000000E+03 0.  0.
        -13    1    3    3    0    0  0.23331895155E+02 -0.39235776974E+02  0.18317406705E+02  0.49187011281E+02  0.10566000000E+00 0. -1.
         23    2    1    0    0    0  0.20736189553E+02 -0.11358638887E+02 -0.18171988465E+02  0.95180050314E+02  0.90388121888E+02 0.  0.
         13    1    3    3    0    0 -0.25957056025E+01  0.27877138088E+02 -0.36489395170E+02  0.45993039033E+02  0.10566000000E+00 0.  1.
         22    1    1    0    0    0 -0.20736189553E+02  0.11358638887E+02  0.18171988465E+02  0.29819949686E+02  0.00000000000E+00 0. -1.
</event>
<event>
 5    1  0.1245581E-004  0.9118800E+02  0.7818608E-02  0.1130116E+00
         25   -1    0    0    0    0  0.00000000000E+00  0.00000000000E+00  0.99999998245E-14  0.12500000000E+03  0.12500000000E+03 0.  0.
        -13    1    3    3    0    0 -0.27766962976E+02  0.26143762814E+02 -0.57126566158E+01  0.38563534286E+02  0.10566000000E+00 0.  1.
         23    2    1    0    0    0 -0.57443782802E+01 -0.27462091048E+02 -0.48763493223E+01  0.96522937138E+02  0.92226537853E+02 0.  0.
         13    1    3    3    0    0  0.22022584696E+02 -0.53605853862E+02  0.83630729353E+00  0.57959402851E+02  0.10566000000E+00 0. -1.
         22    1    1    0    0    0  0.57443782802E+01  0.27462091048E+02  0.48763493223E+01  0.28477062862E+02  0.00000000000E+00 0. -1.
</event>
<event>
 5    1  0.1245581E-004  0.9118800E+02  0.7818608E-02  0.1130116E+00
         25   -1    0    0    0    0  0.00000000000E+00  0.00000000000E+00  0.99999998245E-14  0.12500000000E+03  0.12500000000E+03 0.  0.
        -13    1    3    3    0    0 -0.21039207893E+02  0.13653756966E+01  0.37247187562E+02  0.42800428326E+02  0.10566000000E+00 0.  1.
         23    2    1    0    0    0 -0.65648476265E+01  0.21572507685E+02 -0.13080295803E+02  0.98931542998E+02  0.95435243749E+02 0.  0.
         13    1    3    3    0    0  0.14474360267E+02  0.20207131989E+02 -0.50327483365E+02  0.56131114671E+02  0.10566000000E+00 0. -1.
         22    1    1    0    0    0  0.65648476265E+01 -0.21572507685E+02  0.13080295803E+02  0.26068457002E+02  0.00000000000E+00 0. -1.
</event>
<event>
 5    1  0.1245581E-004  0.9118800E+02  0.7818608E-02  0.1130116E+00
         25   -1    0    0    0    0  0.00000000000E+00  0.00000000000E+00  0.99999998245E-14  0.12500000000E+03  0.12500000000E+03 0.  0.
        -13    1    3    3    0    0  0.37538668387E+02  0.41275740806E+02 -0.24331197788E+02  0.60867534477E+02  0.10566000000E+00 0.  1.
         23    2    1    0    0    0  0.91111248863E+01  0.24864303486E+02 -0.98218348568E+01  0.96756157759E+02  0.92542095502E+02 0.  0.
         13    1    3    3    0    0 -0.28427543501E+02 -0.16411437320E+02  0.14509362931E+02  0.35888623283E+02  0.10566000000E+00 0. -1.
         22    1    1    0    0    0 -0.91111248863E+01 -0.24864303486E+02  0.98218348568E+01  0.28243842241E+02  0.00000000000E+00 0.  1.
</event>
<event>
 5    1  0.1245581E-004  0.9118800E+02  0.7818608E-02  0.1130116E+00
         25   -1    0    0    0    0  0.00000000000E+00  0.00000000000E+00  0.99999998245E-14  0.12500000000E+03  0.12500000000E+03 0.  0.
        -13    1    3    3    0    0 -0.56794757705E+02  0.53478782322E+01  0.81387414417E+01  0.57623732790E+02  0.10566000000E+00 0.  1.
         23    2    1    0    0    0 -0.22656943095E+02 -0.83522603106E+01 -0.10272379402E+02  0.98758447049E+02  0.95208254696E+02 0.  0.
         13    1    3    3    0    0  0.34137814610E+02 -0.13700138543E+02 -0.18411120844E+02  0.41134714259E+02  0.10566000000E+00 0. -1.
         22    1    1    0    0    0  0.22656943095E+02  0.83522603106E+01  0.10272379402E+02  0.26241552951E+02  0.00000000000E+00 0.  1.
</event>
<event>
 5    1  0.1245581E-004  0.9118800E+02  0.7818608E-02  0.1130116E+00
         25   -1    0    0    0    0  0.00000000000E+00  0.00000000000E+00  0.99999998245E-14  0.12500000000E+03  0.12500000000E+03 0.  0.
        -13    1    3    3    0    0 -0.16265939040E+02 -0.21366177219E+02 -0.32212800385E+02  0.41937691573E+02  0.10566000000E+00 0. -1.
         23    2    1    0    0    0  0.27887537736E+02 -0.50060180391E+01 -0.52934876192E+01  0.96176468142E+02  0.91755746607E+02 0.  0.
         13    1    3    3    0    0  0.44153476777E+02  0.16360159180E+02  0.26919312765E+02  0.54238776569E+02  0.10566000000E+00 0.  1.
         22    1    1    0    0    0 -0.27887537736E+02  0.50060180391E+01  0.52934876192E+01  0.28823531858E+02  0.00000000000E+00 0.  1.
</event>
<event>
 5    1  0.1245581E-004  0.9118800E+02  0.7818608E-02  0.1130116E+00
         25   -1    0    0    0    0  0.00000000000E+00  0.00000000000E+00  0.99999998245E-14  0.12500000000E+03  0.12500000000E+03 0.  0.
        -13    1    3    3    0    0 -0.68703203927E+01 -0.22818967577E+02  0.57383319277E+02  0.62135039059E+02  0.10566000000E+00 0. -1.
         23    2    1    0    0    0 -0.74052514458E+01 -0.84416520240E+01  0.27248015939E+02  0.95528766390E+02  0.90869090441E+02 0.  0.
         13    1    3    3    0    0 -0.53493105313E+00  0.14377315553E+02 -0.30135303339E+02  0.33393727331E+02  0.10566000000E+00 0.  1.
         22    1    1    0    0    0  0.74052514458E+01  0.84416520240E+01 -0.27248015939E+02  0.29471233610E+02  0.00000000000E+00 0. -1.
</event>
<event>
 5    1  0.1245581E-004  0.9118800E+02  0.7818608E-02  0.1130116E+00
         25   -1    0    0    0    0  0.00000000000E+00  0.00000000000E+00  0.99999998245E-14  0.12500000000E+03  0.12500000000E+03 0.  0.
        -13    1    3    3    0    0  0.17315046470E+02  0.52878973351E+01 -0.33469580886E+02  0.38052551835E+02  0.10566000000E+00 0.  1.
         23    2    1    0    0    0  0.10182229223E+02 -0.19897918924E+02  0.18331834981E+02  0.96092195807E+02  0.91640869440E+02 0.  0.
         13    1    3    3    0    0 -0.71328172468E+01 -0.25185816259E+02  0.51801415867E+02  0.58039643972E+02  0.10566000000E+00 0. -1.
         22    1    1    0    0    0 -0.10182229223E+02  0.19897918924E+02 -0.18331834981E+02  0.28907804193E+02  0.00000000000E+00 0. -1.
</event>
<event>
 5    1  0.1245581E-004  0.9118800E+02  0.7818608E-02  0.1130116E+00
         25   -1    0    0    0    0  0.00000000000E+00  0.00000000000E+00  0.99999998245E-14  0.12500000000E+03  0.12500000000E+03 0.  0.
        -13    1    3    3    0    0 -0.19223385456E+02 -0.44113131098E+02  0.45190359568E+01  0.48331560431E+02  0.10566000000E+00 0.  1.
         23    2    1    0    0    0 -0.33069670507E+02 -0.34294903266E+01  0.54069415572E+01  0.91316182990E+02  0.84876650190E+02 0.  0.
         13    1    3    3    0    0 -0.13846285051E+02  0.40683640772E+02  0.88790560036E+00  0.42984622559E+02  0.10566000000E+00 0. -1.
         22    1    1    0    0    0  0.33069670507E+02  0.34294903266E+01 -0.54069415572E+01  0.33683817010E+02  0.00000000000E+00 0. -1.
</event>
<event>
 5    1  0.1245581E-004  0.9118800E+02  0.7818608E-02  0.1130116E+00
         25   -1    0    0    0    0  0.00000000000E+00  0.00000000000E+00  0.99999998245E-14  0.12500000000E+03  0.12500000000E+03 0.  0.
        -13    1    3    3    0    0 -0.90240109708E+01 -0.27304583401E+02  0.45211933401E+02  0.53582675695E+02  0.10566000000E+00 0. -1.
         23    2    1    0    0    0  0.84577570973E+01  0.60925587168E+01  0.28191547580E+02  0.94943115900E+02  0.90059863285E+02 0.  0.
         13    1    3    3    0    0  0.17481768068E+02  0.33397142118E+02 -0.17020385821E+02  0.41360440205E+02  0.10566000000E+00 0.  1.
         22    1    1    0    0    0 -0.84577570973E+01 -0.60925587168E+01 -0.28191547580E+02  0.30056884100E+02  0.00000000000E+00 0. -1.
</event>
<event>
 5    1  0.1245581E-004  0.9118800E+02  0.7818608E-02  0.1130116E+00
         25   -1    0    0    0    0  0.00000000000E+00  0.00000000000E+00  0.99999998245E-14  0.12500000000E+03  0.12500000000E+03 0.  0.
        -13    1    3    3    0    0 -0.17261300335E+02  0.29454050682E+02  0.63944254151E+01  0.34733174794E+02  0.10566000000E+00 0.  1.
         23    2    1    0    0    0  0.20778616553E+02 -0.10984880967E+02 -0.18020329194E+02  0.95383268581E+02  0.90668721978E+02 0.  0.
         13    1    3    3    0    0  0.38039916887E+02 -0.40438931649E+02 -0.24414754609E+02  0.60650093787E+02  0.10566000000E+00 0. -1.
         22    1    1    0    0    0 -0.20778616553E+02  0.10984880967E+02  0.18020329194E+02  0.29616731419E+02  0.00000000000E+00 0. -1.
</event>
<event>
 5    1  0.1245581E-004  0.9118800E+02  0.7818608E-02  0.1130116E+00
         25   -1    0    0    0    0  0.00000000000E+00  0.00000000000E+00  0.99999998245E-14  0.12500000000E+03  0.12500000000E+03 0.  0.
        -13    1    3    3    0    0 -0.59542163410E+01 -0.96090111233E+01 -0.37644658298E+02  0.39305435368E+02  0.10566000000E+00 0.  1.
         23    2    1    0    0    0 -0.40933239393E+01  0.28526463076E+02  0.41154772564E+01  0.95888978899E+02  0.91363256973E+02 0.  0.
         13    1    3    3    0    0  0.18608924017E+01  0.38135474199E+02  0.41760135555E+02  0.56583543531E+02  0.10566000000E+00 0. -1.
         22    1    1    0    0    0  0.40933239393E+01 -0.28526463076E+02 -0.41154772564E+01  0.29111021101E+02  0.00000000000E+00 0. -1.
</event>
<event>
 5    1  0.1245581E-004  0.9118800E+02  0.7818608E-02  0.1130116E+00
         25   -1    0    0    0    0  0.00000000000E+00  0.00000000000E+00  0.99999998245E-14  0.12500000000E+03  0.12500000000E+03 0.  0.
        -13    1    3    3    0    0 -0.46192530318E+02 -0.23972958737E+02  0.15337020487E+02  0.54255764388E+02  0.10566000000E+00 0.  1.
         23    2    1    0    0    0 -0.18722737069E+02 -0.17052756979E+02 -0.14841390571E+02  0.95646903434E+02  0.91031455325E+02 0.  0.
         13    1    3    3    0    0  0.27469793249E+02  0.69202017585E+01 -0.30178411058E+02  0.41391139047E+02  0.10566000000E+00 0. -1.
         22    1    1    0    0    0  0.18722737069E+02  0.17052756979E+02  0.14841390571E+02  0.29353096566E+02  0.00000000000E+00 0.  1.
</event>
<event>
 5    1  0.1245581E-004  0.9118800E+02  0.7818608E-02  0.1130116E+00
         25   -1    0    0    0    0  0.00000000000E+00  0.00000000000E+00  0.99999998245E-14  0.12500000000E+03  0.12500000000E+03 0.  0.
        -13    1    3    3    0    0 -0.28230499683E+02 -0.44992365231E+02  0.21346252386E+02  0.57244630284E+02  0.10566000000E+00 0.  1.
         23    2    1    0    0    0 -0.93109818613E+01 -0.12897410164E+02  0.25721458198E+02  0.94757133337E+02  0.89801354857E+02 0.  0.
         13    1    3    3    0    0  0.18919517822E+02  0.32094955067E+02  0.43752058120E+01  0.37512503053E+02  0.10566000000E+00 0. -1.
         22    1    1    0    0    0  0.93109818613E+01  0.12897410164E+02 -0.25721458198E+02  0.30242866663E+02  0.00000000000E+00 0.  1.
</event>
<event>
 5    1  0.1245581E-004  0.9118800E+02  0.7818608E-02  0.1130116E+00
         25   -1    0    0    0    0  0.00000000000E+00  0.00000000000E+00  0.99999998245E-14  0.12500000000E+03  0.12500000000E+03 0.  0.
        -13    1    3    3    0    0 -0.45013469816E+02  0.12132974544E+02  0.13163431422E+02  0.48442838759E+02  0.10566000000E+00 0.  1.
         23    2    1    0    0    0 -0.33102791190E+02 -0.40624933028E+00 -0.20339061100E+02  0.86145949638E+02  0.76886197783E+02 0.  0.
         13    1    3    3    0    0  0.11910678627E+02 -0.12539223874E+02 -0.33502492523E+02  0.37703110879E+02  0.10566000000E+00 0. -1.
         22    1    1    0    0    0  0.33102791190E+02  0.40624933028E+00  0.20339061100E+02  0.38854050362E+02  0.00000000000E+00 0. -1.
</event>
<event>
 5    1  0.1245581E-004  0.9118800E+02  0.7818608E-02  0.1130116E+00
         25   -1    0    0    0    0  0.00000000000E+00  0.00000000000E+00  0.99999998245E-14  0.12500000000E+03  0.12500000000E+03 0.  0.
        -13    1    3    3    0    0  0.41975848376E+02  0.69128907476E+01  0.40944518769E+02  0.59044260404E+02  0.10566000000E+00 0. -1.
         23    2    1    0    0    0  0.20258238142E+02  0.16742421763E+02  0.13308885163E+02  0.95541023042E+02  0.90885949192E+02 0.  0.
         13    1    3    3    0    0 -0.21717610234E+02  0.98295310153E+01 -0.27635633606E+02  0.36496762638E+02  0.10566000000E+00 0.  1.
         22    1    1    0    0    0 -0.20258238142E+02 -0.16742421763E+02 -0.13308885163E+02  0.29458976958E+02  0.00000000000E+00 0. -1.
</event>
<event>
 5    1  0.1245581E-004  0.9118800E+02  0.7818608E-02  0.1130116E+00
         25   -1    0    0    0    0  0.00000000000E+00  0.00000000000E+00  0.99999998245E-14  0.12500000000E+03  0.12500000000E+03 0.  0.
        -13    1    3    3    0    0 -0.20636172655E+02  0.22540767752E+02 -0.22395282504E+02  0.37887962140E+02  0.10566000000E+00 0. -1.
         23    2    1    0    0    0  0.64518724991E+01 -0.25397514588E+02  0.31866067293E+01  0.98602748847E+02  0.95003616835E+02 0.  0.
         13    1    3    3    0    0  0.27088045154E+02 -0.47938282340E+02  0.25581889233E+02  0.60714786706E+02  0.10566000000E+00 0.  1.
         22    1    1    0    0    0 -0.64518724991E+01  0.25397514588E+02 -0.31866067293E+01  0.26397251153E+02  0.00000000000E+00 0.  1.
</event>
<event>
 5    1  0.1245581E-004  0.9118800E+02  0.7818608E-02  0.1130116E+00
         25   -1    0    0    0    0  0.00000000000E+00  0.00000000000E+00  0.99999998245E-14  0.12500000000E+03  0.12500000000E+03 0.  0.
        -13    1    3    3    0    0  0.78494130154E+01 -0.22850923431E+02 -0.38106651360E+02  0.45121015372E+02  0.10566000000E+00 0. -1.
         23    2    1    0    0    0 -0.32407925768E+01  0.20603134605E+02 -0.26181867864E+02  0.91526397013E+02  0.85185675165E+02 0.  0.
         13    1    3    3    0    0 -0.11090205592E+02  0.43454058035E+02  0.11924783495E+02  0.46405381641E+02  0.10566000000E+00 0.  1.
         22    1    1    0    0    0  0.32407925768E+01 -0.20603134605E+02  0.26181867864E+02  0.33473602987E+02  0.00000000000E+00 0.  1.
</event>
<event>
 5    1  0.1245581E-004  0.9118800E+02  0.7818608E-02  0.1130116E+00
         25   -1    0    0    0    0  0.00000000000E+00  0.00000000000E+00  0.99999998245E-14  0.12500000000E+03  0.12500000000E+03 0.  0.
        -13    1    3    3    0    0  0.38234125103E+02 -0.63867756620E+01  0.28646993059E+02  0.48200628638E+02  0.10566000000E+00 0.  1.
         23    2    1    0    0    0  0.23028381129E+02  0.11651676921E+02 -0.13027691864E+02  0.96089990180E+02  0.91637860870E+02 0.  0.
         13    1    3    3    0    0 -0.15205743974E+02  0.18038452583E+02 -0.41674684923E+02  0.47889361542E+02  0.10566000000E+00 0. -1.
         22    1    1    0    0    0 -0.23028381129E+02 -0.11651676921E+02  0.13027691864E+02  0.28910009820E+02  0.00000000000E+00 0. -1.
</event>
<event>
 5    1  0.1245581E-004  0.9118800E+02  0.7818608E-02  0.1130116E+00
         25   -1    0    0    0    0  0.00000000000E+00  0.00000000000E+00  0.99999998245E-14  0.12500000000E+03  0.12500000000E+03 0.  0.
        -13    1    3    3    0    0 -0.25907787371E+02 -0.10055303860E+02  0.15920019887E+02  0.32027812591E+02  0.10566000000E+00 0.  1.
         23    2    1    0    0    0  0.19962860751E+02 -0.30542822910E+02 -0.79617490420E+01  0.87653389866E+02  0.79299101297E+02 0.  0.
         13    1    3    3    0    0  0.45870648122E+02 -0.20487519050E+02 -0.23881768928E+02  0.55625577275E+02  0.10566000000E+00 0. -1.
         22    1    1    0    0    0 -0.19962860751E+02  0.30542822910E+02  0.79617490420E+01  0.37346610134E+02  0.00000000000E+00 0. -1.
</event>
<event>
 5    1  0.1245581E-004  0.9118800E+02  0.7818608E-02  0.1130116E+00
         25   -1    0    0    0    0  0.00000000000E+00  0.00000000000E+00  0.99999998245E-14  0.12500000000E+03  0.12500000000E+03 0.  0.
        -13    1    3    3    0    0 -0.29176952359E+02  0.27996504295E+02 -0.24715177523E+02  0.47391454564E+02  0.10566000000E+00 0. -1.
         23    2    1    0    0    0 -0.26146381611E+02  0.29948618503E+01  0.15215355910E+02  0.94600830204E+02  0.89583522765E+02 0.  0.
         13    1    3    3    0    0  0.30305707485E+01 -0.25001642444E+02  0.39930533433E+02  0.47209375639E+02  0.10566000000E+00 0.  1.
         22    1    1    0    0    0  0.26146381611E+02 -0.29948618503E+01 -0.15215355910E+02  0.30399169796E+02  0.00000000000E+00 0.  1.
</event>
<event>
 5    1  0.1245581E-004  0.9118800E+02  0.7818608E-02  0.1130116E+00
         25   -1    0    0    0    0  0.00000000000E+00  0.00000000000E+00  0.99999998245E-14  0.12500000000E+03  0.12500000000E+03 0.  0.
        -13    1    3    3    0    0 -0.46833641791E+02 -0.39112100492E+02  0.56963194316E+00  0.61020341304E+02  0.10566000000E+00 0. -1.
         23    2    1    0    0    0 -0.23529432932E+02 -0.16870404309E+02  0.96351986932E+01  0.94486366825E+02  0.89423664130E+02 0.  0.
         13    1    3    3    0    0  0.23304208859E+02  0.22241696183E+02  0.90655667501E+01  0.33466025521E+02  0.10566000000E+00 0.  1.
         22    1    1    0    0    0  0.23529432932E+02  0.16870404309E+02 -0.96351986932E+01  0.30513633175E+02  0.00000000000E+00 0. -1.
</event>
<event>
 5    1  0.1245581E-004  0.9118800E+02  0.7818608E-02  0.1130116E+00
         25   -1    0    0    0    0  0.00000000000E+00  0.00000000000E+00  0.99999998245E-14  0.12500000000E+03  0.12500000000E+03 0.  0.
        -13    1    3    3    0    0 -0.95575294896E+01 -0.16171393561E+02  0.91003339928E+01  0.20873130634E+02  0.10566000000E+00 0.  1.
         23    2    1    0    0    0 -0.81130422167E+01  0.28297282549E+02 -0.32053511038E+02  0.81480059473E+02  0.68884068319E+02 0.  0.
         13    1    3    3    0    0  0.14444872729E+01  0.44468676110E+02 -0.41153845030E+02  0.60606928839E+02  0.10566000000E+00 0. -1.
         22    1    1    0    0    0  0.81130422167E+01 -0.28297282549E+02  0.32053511038E+02  0.43519940527E+02  0.00000000000E+00 0. -1.
</event>
<event>
 5    1  0.1245581E-004  0.9118800E+02  0.7818608E-02  0.1130116E+00
         25   -1    0    0    0    0  0.00000000000E+00  0.00000000000E+00  0.99999998245E-14  0.12500000000E+03  0.12500000000E+03 0.  0.
        -13    1    3    3    0    0  0.17505852884E+01  0.22544659360E+02 -0.48882492431E+02  0.53859404423E+02  0.10566000000E+00 0. -1.
         23    2    1    0    0    0 -0.18461553245E+02  0.15739397015E+02 -0.89291156991E+01  0.99148758757E+02  0.95719327669E+02 0.  0.
         13    1    3    3    0    0 -0.20212138533E+02 -0.68052623441E+01  0.39953376732E+02  0.45289354334E+02  0.10566000000E+00 0.  1.
         22    1    1    0    0    0  0.18461553245E+02 -0.15739397015E+02  0.89291156991E+01  0.25851241243E+02  0.00000000000E+00 0. -1.
</event>
<event>
 5    1  0.1245581E-004  0.9118800E+02  0.7818608E-02  0.1130116E+00
         25   -1    0    0    0    0  0.00000000000E+00  0.00000000000E+00  0.99999998245E-14  0.12500000000E+03  0.12500000000E+03 0.  0.
        -13    1    3    3    0    0 -0.44329262343E+02 -0.22786543841E+02 -0.70344829608E+01  0.50336916818E+02  0.10566000000E+00 0. -1.
         23    2    1    0    0    0 -0.94928343719E+01 -0.24063169551E+01 -0.27656886601E+02  0.95660476449E+02  0.91050091226E+02 0.  0.
         13    1    3    3    0    0  0.34836427972E+02  0.20380226886E+02 -0.20622403640E+02  0.45323559632E+02  0.10566000000E+00 0.  1.
         22    1    1    0    0    0  0.94928343719E+01  0.24063169551E+01  0.27656886601E+02  0.29339523551E+02  0.00000000000E+00 0. -1.
</event>
<event>
 5    1  0.1245581E-004  0.9118800E+02  0.7818608E-02  0.1130116E+00
         25   -1    0    0    0    0  0.00000000000E+00  0.00000000000E+00  0.99999998245E-14  0.12500000000E+03  0.12500000000E+03 0.  0.
        -13    1    3    3    0    0 -0.66227534347E+00 -0.36469852206E+01  0.41877642989E+02  0.42041494457E+02  0.10566000000E+00 0.  1.
         23    2    1    0    0    0  0.19833142118E+02 -0.22399693555E+02 -0.31156636858E+01  0.94919987403E+02  0.90027756003E+02 0.  0.
         13    1    3    3    0    0  0.20495417461E+02 -0.18752708334E+02 -0.44993306675E+02  0.52878492947E+02  0.10566000000E+00 0. -1.
         22    1    1    0    0    0 -0.19833142118E+02  0.22399693555E+02  0.31156636858E+01  0.30080012597E+02  0.00000000000E+00 0. -1.
</event>
<event>
 5    1  0.1245581E-004  0.9118800E+02  0.7818608E-02  0.1130116E+00
         25   -1    0    0    0    0  0.00000000000E+00  0.00000000000E+00  0.99999998245E-14  0.12500000000E+03  0.12500000000E+03 0.  0.
        -13    1    3    3    0    0  0.36008817023E+01  0.37120079354E+02 -0.42313204282E+00  0.37296874467E+02  0.10566000000E+00 0.  1.
         23    2    1    0    0    0 -0.20502456927E+02 -0.12074063443E+02  0.18077233148E+02  0.95118231204E+02  0.90302590223E+02 0.  0.
         13    1    3    3    0    0 -0.24103338630E+02 -0.49194142797E+02  0.18500365191E+02  0.57821356737E+02  0.10566000000E+00 0. -1.
         22    1    1    0    0    0  0.20502456927E+02  0.12074063443E+02 -0.18077233148E+02  0.29881768796E+02  0.00000000000E+00 0. -1.
</event>
<event>
 5    1  0.1245581E-004  0.9118800E+02  0.7818608E-02  0.1130116E+00
         25   -1    0    0    0    0  0.00000000000E+00  0.00000000000E+00  0.99999998245E-14  0.12500000000E+03  0.12500000000E+03 0.  0.
        -13    1    3    3    0    0  0.35415473812E+02 -0.21379512580E+02  0.27637508098E+00  0.41369395581E+02  0.10566000000E+00 0. -1.
         23    2    1    0    0    0 -0.14652656818E+02 -0.13830313964E+02 -0.20641968815E+02  0.96154396995E+02  0.91725673880E+02 0.  0.
         13    1    3    3    0    0 -0.50068130631E+02  0.75491986155E+01 -0.20918343896E+02  0.54785001414E+02  0.10566000000E+00 0.  1.
         22    1    1    0    0    0  0.14652656818E+02  0.13830313964E+02  0.20641968815E+02  0.28845603005E+02  0.00000000000E+00 0.  1.
</event>
<event>
 5    1  0.1245581E-004  0.9118800E+02  0.7818608E-02  0.1130116E+00
         25   -1    0    0    0    0  0.00000000000E+00  0.00000000000E+00  0.99999998245E-14  0.12500000000E+03  0.12500000000E+03 0.  0.
        -13    1    3    3    0    0  0.76305601006E+01  0.37462401051E+02  0.90735809980E+00  0.38242533948E+02  0.10566000000E+00 0. -1.
         23    2    1    0    0    0 -0.11054727161E+02 -0.94663145662E+01  0.26423534725E+02  0.94833440842E+02  0.89907509200E+02 0.  0.
         13    1    3    3    0    0 -0.18685287262E+02 -0.46928715618E+02  0.25516176625E+02  0.56590906895E+02  0.10566000000E+00 0.  1.
         22    1    1    0    0    0  0.11054727161E+02  0.94663145662E+01 -0.26423534725E+02  0.30166559158E+02  0.00000000000E+00 0.  1.
</event>
<event>
 5    1  0.1245581E-004  0.9118800E+02  0.7818608E-02  0.1130116E+00
         25   -1    0    0    0    0  0.00000000000E+00  0.00000000000E+00  0.99999998245E-14  0.12500000000E+03  0.12500000000E+03 0.  0.
        -13    1    3    3    0    0  0.38163910277E+02  0.38839637624E+02 -0.12362403805E+02  0.55837636862E+02  0.10566000000E+00 0.  1.
         23    2    1    0    0    0  0.13084254336E+02  0.23279925618E+02  0.13496979287E+02  0.95078083314E+02  0.90246999000E+02 0.  0.
         13    1    3    3    0    0 -0.25079655941E+02 -0.15559712007E+02  0.25859383092E+02  0.39240446453E+02  0.10566000000E+00 0. -1.
         22    1    1    0    0    0 -0.13084254336E+02 -0.23279925618E+02 -0.13496979287E+02  0.29921916686E+02  0.00000000000E+00 0.  1.
</event>
<event>
 5    1  0.1245581E-004  0.9118800E+02  0.7818608E-02  0.1130116E+00
         25   -1    0    0    0    0  0.00000000000E+00  0.00000000000E+00  0.99999998245E-14  0.12500000000E+03  0.12500000000E+03 0.  0.
        -13    1    3    3    0    0  0.94904294028E+00 -0.29869648628E+02 -0.49668821380E+02  0.57966365877E+02  0.10566000000E+00 0. -1.
         23    2    1    0    0    0 -0.16293282990E+02 -0.13463160224E+02 -0.25361029774E+02  0.91986221286E+02  0.85857762150E+02 0.  0.
         13    1    3    3    0    0 -0.17242325930E+02  0.16406488404E+02  0.24307791606E+02  0.34019855409E+02  0.10566000000E+00 0.  1.
         22    1    1    0    0    0  0.16293282990E+02  0.13463160224E+02  0.25361029774E+02  0.33013778714E+02  0.00000000000E+00 0. -1.
</event>
<event>
 5    1  0.1245581E-004  0.9118800E+02  0.7818608E-02  0.1130116E+00
         25   -1    0    0    0    0  0.00000000000E+00  0.00000000000E+00  0.99999998245E-14  0.12500000000E+03  0.12500000000E+03 0.  0.
        -13    1    3    3    0    0  0.21149012370E+02  0.48046533104E+02 -0.36828597059E+01  0.52624373508E+02  0.10566000000E+00 0. -1.
         23    2    1    0    0    0  0.12502309996E+02  0.15338321729E+02  0.22229019678E+02  0.95239267742E+02  0.90469978089E+02 0.  0.
         13    1    3    3    0    0 -0.86467023730E+01 -0.32708211375E+02  0.25911879384E+02  0.42614894234E+02  0.10566000000E+00 0.  1.
         22    1    1    0    0    0 -0.12502309996E+02 -0.15338321729E+02 -0.22229019678E+02  0.29760732258E+02  0.00000000000E+00 0. -1.
</event>
<event>
 5    1  0.1245581E-004  0.9118800E+02  0.7818608E-02  0.1130116E+00
         25   -1    0    0    0    0  0.00000000000E+00  0.00000000000E+00  0.99999998245E-14  0.12500000000E+03  0.12500000000E+03 0.  0.
        -13    1    3    3    0    0  0.21888171558E+02 -0.40925789189E+02  0.39279424169E+02  0.60802110177E+02  0.10566000000E+00 0.  1.
         23    2    1    0    0    0  0.17026219161E+02 -0.16389822262E+02  0.99269005879E+01  0.99366783893E+02  0.96003624792E+02 0.  0.
         13    1    3    3    0    0 -0.48619523962E+01  0.24535966927E+02 -0.29352523581E+02  0.38564673715E+02  0.10566000000E+00 0. -1.
         22    1    1    0    0    0 -0.17026219161E+02  0.16389822262E+02 -0.99269005879E+01  0.25633216107E+02  0.00000000000E+00 0.  1.
</event>
<event>
 5    1  0.1245581E-004  0.9118800E+02  0.7818608E-02  0.1130116E+00
         25   -1    0    0    0    0  0.00000000000E+00  0.00000000000E+00  0.99999998245E-14  0.12500000000E+03  0.12500000000E+03 0.  0.
        -13    1    3    3    0    0 -0.47098511856E+02  0.36816228258E+02  0.54537480588E+01  0.60028818197E+02  0.10566000000E+00 0.  1.
         23    2    1    0    0    0 -0.15815317724E+02  0.26695685672E+02 -0.25436431479E+01  0.93867155146E+02  0.88553875051E+02 0.  0.
         13    1    3    3    0    0  0.31283194132E+02 -0.10120542586E+02 -0.79973912067E+01  0.33838336949E+02  0.10566000000E+00 0. -1.
         22    1    1    0    0    0  0.15815317724E+02 -0.26695685672E+02  0.25436431479E+01  0.31132844854E+02  0.00000000000E+00 0.  1.
</event>
<event>
 5    1  0.1245581E-004  0.9118800E+02  0.7818608E-02  0.1130116E+00
         25   -1    0    0    0    0  0.00000000000E+00  0.00000000000E+00  0.99999998245E-14  0.12500000000E+03  0.12500000000E+03 0.  0.
        -13    1    3    3    0    0 -0.22879176796E+02  0.18115443208E+02 -0.17300342628E+02  0.33925492370E+02  0.10566000000E+00 0. -1.
         23    2    1    0    0    0  0.21963608671E+02 -0.70513965069E+01  0.17524563528E+02  0.96030488002E+02  0.91556660055E+02 0.  0.
         13    1    3    3    0    0  0.44842785467E+02 -0.25166839715E+02  0.34824906155E+02  0.62104995632E+02  0.10566000000E+00 0.  1.
         22    1    1    0    0    0 -0.21963608671E+02  0.70513965069E+01 -0.17524563528E+02  0.28969511998E+02  0.00000000000E+00 0.  1.
</event>
<event>
 5    1  0.1245581E-004  0.9118800E+02  0.7818608E-02  0.1130116E+00
         25   -1    0    0    0    0  0.00000000000E+00  0.00000000000E+00  0.99999998245E-14  0.12500000000E+03  0.12500000000E+03 0.  0.
        -13    1    3    3    0    0 -0.46030365814E+02  0.23937480465E+02  0.25839925511E+01  0.51946951109E+02  0.10566000000E+00 0. -1.
         23    2    1    0    0    0 -0.13294513040E+02  0.22305505216E+02  0.22789283705E+02  0.90451033421E+02  0.83592812821E+02 0.  0.
         13    1    3    3    0    0  0.32735852774E+02 -0.16319752490E+01  0.20205291154E+02  0.38504082312E+02  0.10566000000E+00 0.  1.
         22    1    1    0    0    0  0.13294513040E+02 -0.22305505216E+02 -0.22789283705E+02  0.34548966579E+02  0.00000000000E+00 0. -1.
</event>
<event>
 5    1  0.1245581E-004  0.9118800E+02  0.7818608E-02  0.1130116E+00
         25   -1    0    0    0    0  0.00000000000E+00  0.00000000000E+00  0.99999998245E-14  0.12500000000E+03  0.12500000000E+03 0.  0.
        -13    1    3    3    0    0  0.31389679118E+02  0.31040717569E+02 -0.34946453251E+02  0.56303675379E+02  0.10566000000E+00 0.  1.
         23    2    1    0    0    0  0.72907759735E+00  0.71814312515E+01 -0.28394159958E+02  0.95702682227E+02  0.91108015876E+02 0.  0.
         13    1    3    3    0    0 -0.30660601521E+02 -0.23859286318E+02  0.65522932928E+01  0.39399006848E+02  0.10566000000E+00 0. -1.
         22    1    1    0    0    0 -0.72907759735E+00 -0.71814312515E+01  0.28394159958E+02  0.29297317773E+02  0.00000000000E+00 0.  1.
</event>
<event>
 5    1  0.1245581E-004  0.9118800E+02  0.7818608E-02  0.1130116E+00
         25   -1    0    0    0    0  0.00000000000E+00  0.00000000000E+00  0.99999998245E-14  0.12500000000E+03  0.12500000000E+03 0.  0.
        -13    1    3    3    0    0 -0.55187175451E+02 -0.37511944457E+00  0.10023863405E+02  0.56091479303E+02  0.10566000000E+00 0.  1.
         23    2    1    0    0    0 -0.18364103688E+02 -0.15672795809E+02  0.15455046937E+02  0.96334074085E+02  0.91970204530E+02 0.  0.
         13    1    3    3    0    0  0.36823071763E+02 -0.15297676364E+02  0.54311835314E+01  0.40242594782E+02  0.10566000000E+00 0. -1.
         22    1    1    0    0    0  0.18364103688E+02  0.15672795809E+02 -0.15455046937E+02  0.28665925915E+02  0.00000000000E+00 0.  1.
</event>
<event>
 5    1  0.1245581E-004  0.9118800E+02  0.7818608E-02  0.1130116E+00
         25   -1    0    0    0    0  0.00000000000E+00  0.00000000000E+00  0.99999998245E-14  0.12500000000E+03  0.12500000000E+03 0.  0.
        -13    1    3    3    0    0 -0.13912741551E+02  0.24084122909E+02  0.24946391598E+02  0.37362320211E+02  0.10566000000E+00 0.  1.
         23    2    1    0    0    0  0.29910625911E+01  0.96888414359E+01 -0.28238723258E+02  0.94995907029E+02  0.90133105778E+02 0.  0.
         13    1    3    3    0    0  0.16903804142E+02 -0.14395281473E+02 -0.53185114856E+02  0.57633586818E+02  0.10566000000E+00 0. -1.
         22    1    1    0    0    0 -0.29910625911E+01 -0.96888414359E+01  0.28238723258E+02  0.30004092971E+02  0.00000000000E+00 0. -1.
</event>
<event>
 5    1  0.1245581E-004  0.9118800E+02  0.7818608E-02  0.1130116E+00
         25   -1    0    0    0    0  0.00000000000E+00  0.00000000000E+00  0.99999998245E-14  0.12500000000E+03  0.12500000000E+03 0.  0.
        -13    1    3    3    0    0  0.23422645679E+02  0.43483209361E+02  0.15097506366E+02  0.51646448952E+02  0.10566000000E+00 0.  1.
         23    2    1    0    0    0  0.53784430548E+01  0.23232726765E+02 -0.18494393897E+02  0.94821699050E+02  0.89891182896E+02 0.  0.
         13    1    3    3    0    0 -0.18044202624E+02 -0.20250482596E+02 -0.33591900263E+02  0.43175250098E+02  0.10566000000E+00 0. -1.
         22    1    1    0    0    0 -0.53784430548E+01 -0.23232726765E+02  0.18494393897E+02  0.30178300950E+02  0.00000000000E+00 0.  1.
</event>
<event>
 5    1  0.1245581E-004  0.9118800E+02  0.7818608E-02  0.1130116E+00
         25   -1    0    0    0    0  0.00000000000E+00  0.00000000000E+00  0.99999998245E-14  0.12500000000E+03  0.12500000000E+03 0.  0.
        -13    1    3    3    0    0  0.70526777380E+01 -0.21239965155E+02  0.34767217899E+02  0.41347877666E+02  0.10566000000E+00 0.  1.
         23    2    1    0    0    0  0.25250017935E+02  0.11166190670E+02 -0.62435299032E+01  0.96694013258E+02  0.92458116542E+02 0.  0.
         13    1    3    3    0    0  0.18197340197E+02  0.32406155825E+02 -0.41010747802E+02  0.55346135591E+02  0.10566000000E+00 0. -1.
         22    1    1    0    0    0 -0.25250017935E+02 -0.11166190670E+02  0.62435299032E+01  0.28305986742E+02  0.00000000000E+00 0. -1.
</event>
<event>
 5    1  0.1245581E-004  0.9118800E+02  0.7818608E-02  0.1130116E+00
         25   -1    0    0    0    0  0.00000000000E+00  0.00000000000E+00  0.99999998245E-14  0.12500000000E+03  0.12500000000E+03 0.  0.
        -13    1    3    3    0    0  0.11778962535E+01  0.37930728742E+01 -0.50857108492E+02  0.51012071999E+02  0.10566000000E+00 0.  1.
         23    2    1    0    0    0 -0.24218061421E+02  0.64136576630E+01 -0.12728807823E+02  0.96898895890E+02  0.92734696703E+02 0.  0.
         13    1    3    3    0    0 -0.25395957674E+02  0.26205847887E+01  0.38128300670E+02  0.45886823891E+02  0.10566000000E+00 0. -1.
         22    1    1    0    0    0  0.24218061421E+02 -0.64136576630E+01  0.12728807823E+02  0.28101104110E+02  0.00000000000E+00 0.  1.
</event>
<event>
 5    1  0.1245581E-004  0.9118800E+02  0.7818608E-02  0.1130116E+00
         25   -1    0    0    0    0  0.00000000000E+00  0.00000000000E+00  0.99999998245E-14  0.12500000000E+03  0.12500000000E+03 0.  0.
        -13    1    3    3    0    0  0.24192251907E+02 -0.38225927207E+02  0.18482623491E+02  0.48868242226E+02  0.10566000000E+00 0. -1.
         23    2    1    0    0    0  0.98603505680E+01  0.66982969949E+01  0.25792145914E+02  0.96586473524E+02  0.92312612253E+02 0.  0.
         13    1    3    3    0    0 -0.14331901339E+02  0.44924224202E+02  0.73095224236E+01  0.47718231298E+02  0.10566000000E+00 0.  1.
         22    1    1    0    0    0 -0.98603505680E+01 -0.66982969949E+01 -0.25792145914E+02  0.28413526476E+02  0.00000000000E+00 0. -1.
</event>
<event>
 5    1  0.1245581E-004  0.9118800E+02  0.7818608E-02  0.1130116E+00
         25   -1    0    0    0    0  0.00000000000E+00  0.00000000000E+00  0.99999998245E-14  0.12500000000E+03  0.12500000000E+03 0.  0.
        -13    1    3    3    0    0  0.45096907268E+02 -0.32556594067E+02 -0.14556989540E+02  0.57494173365E+02  0.10566000000E+00 0.  1.
         23    2    1    0    0    0  0.23127604114E+02 -0.30853084435E+01 -0.19510205617E+02  0.94585310729E+02  0.89561865111E+02 0.  0.
         13    1    3    3    0    0 -0.21969303155E+02  0.29471285624E+02 -0.49532160778E+01  0.37091137364E+02  0.10566000000E+00 0. -1.
         22    1    1    0    0    0 -0.23127604114E+02  0.30853084435E+01  0.19510205617E+02  0.30414689271E+02  0.00000000000E+00 0.  1.
</event>
<event>
 5    1  0.1245581E-004  0.9118800E+02  0.7818608E-02  0.1130116E+00
         25   -1    0    0    0    0  0.00000000000E+00  0.00000000000E+00  0.99999998245E-14  0.12500000000E+03  0.12500000000E+03 0.  0.
        -13    1    3    3    0    0 -0.87213629787E+01  0.26784722920E+02  0.17868446930E+02  0.33358299025E+02  0.10566000000E+00 0.  1.
         23    2    1    0    0    0  0.17342101736E+02 -0.20281770720E+02 -0.12925846317E+02  0.95349094126E+02  0.90621595282E+02 0.  0.
         13    1    3    3    0    0  0.26063464715E+02 -0.47066493640E+02 -0.30794293247E+02  0.61990795100E+02  0.10566000000E+00 0. -1.
         22    1    1    0    0    0 -0.17342101736E+02  0.20281770720E+02  0.12925846317E+02  0.29650905874E+02  0.00000000000E+00 0. -1.
</event>
<event>
 5    1  0.1245581E-004  0.9118800E+02  0.7818608E-02  0.1130116E+00
         25   -1    0    0    0    0  0.00000000000E+00  0.00000000000E+00  0.99999998245E-14  0.12500000000E+03  0.12500000000E+03 0.  0.
        -13    1    3    3    0    0 -0.19982185354E+01  0.89638750800E+01 -0.41835766279E+02  0.42832072538E+02  0.10566000000E+00 0. -1.
         23    2    1    0    0    0 -0.55593489851E+00  0.28065578705E+02  0.76574684711E+01  0.95903220194E+02  0.91382739336E+02 0.  0.
         13    1    3    3    0    0  0.14422836369E+01  0.19101703625E+02  0.49493234750E+02  0.53071147656E+02  0.10566000000E+00 0.  1.
         22    1    1    0    0    0  0.55593489851E+00 -0.28065578705E+02 -0.76574684711E+01  0.29096779806E+02  0.00000000000E+00 0.  1.
</event>
<event>
 5    1  0.1245581E-004  0.9118800E+02  0.7818608E-02  0.1130116E+00
         25   -1    0    0    0    0  0.00000000000E+00  0.00000000000E+00  0.99999998245E-14  0.12500000000E+03  0.12500000000E+03 0.  0.
        -13    1    3    3    0    0  0.41279547852E+02  0.36624949997E+02  0.24081850030E+02  0.60210752346E+02  0.10566000000E+00 0. -1.
         23    2    1    0    0    0  0.26787048746E+02  0.82265483384E+01  0.83693215162E+01  0.95755041106E+02  0.91179823845E+02 0.  0.
         13    1    3    3    0    0 -0.14492499106E+02 -0.28398401658E+02 -0.15712528514E+02  0.35544288760E+02  0.10566000000E+00 0.  1.
         22    1    1    0    0    0 -0.26787048746E+02 -0.82265483384E+01 -0.83693215162E+01  0.29244958894E+02  0.00000000000E+00 0. -1.
</event>
<event>
 5    1  0.1245581E-004  0.9118800E+02  0.7818608E-02  0.1130116E+00
         25   -1    0    0    0    0  0.00000000000E+00  0.00000000000E+00  0.99999998245E-14  0.12500000000E+03  0.12500000000E+03 0.  0.
        -13    1    3    3    0    0 -0.19351079421E+02 -0.16783068182E+02 -0.53371612339E+02  0.59200302533E+02  0.10566000000E+00 0. -1.
         23    2    1    0    0    0 -0.16937689267E+02 -0.16591346798E+02 -0.16588309131E+02  0.96063343212E+02  0.91601505462E+02 0.  0.
         13    1    3    3    0    0  0.24133901543E+01  0.19172138473E+00  0.36783303208E+02  0.36863040678E+02  0.10566000000E+00 0.  1.
         22    1    1    0    0    0  0.16937689267E+02  0.16591346798E+02  0.16588309131E+02  0.28936656788E+02  0.00000000000E+00 0. -1.
</event>
<event>
 5    1  0.1245581E-004  0.9118800E+02  0.7818608E-02  0.1130116E+00
         25   -1    0    0    0    0  0.00000000000E+00  0.00000000000E+00  0.99999998245E-14  0.12500000000E+03  0.12500000000E+03 0.  0.
        -13    1    3    3    0    0 -0.46371728113E+01 -0.44830448547E+02  0.94681806365E+01  0.46053556835E+02  0.10566000000E+00 0.  1.
         23    2    1    0    0    0  0.20720975366E+02 -0.45102566553E+01  0.21100128823E+02  0.95084842110E+02  0.90256360040E+02 0.  0.
         13    1    3    3    0    0  0.25358148177E+02  0.40320191891E+02  0.11631948187E+02  0.49031285275E+02  0.10566000000E+00 0. -1.
         22    1    1    0    0    0 -0.20720975366E+02  0.45102566553E+01 -0.21100128823E+02  0.29915157890E+02  0.00000000000E+00 0.  1.
</event>
<event>
 5    1  0.1245581E-004  0.9118800E+02  0.7818608E-02  0.1130116E+00
         25   -1    0    0    0    0  0.00000000000E+00  0.00000000000E+00  0.99999998245E-14  0.12500000000E+03  0.12500000000E+03 0.  0.
        -13    1    3    3    0    0 -0.98295181858E+01 -0.55979807238E+02 -0.14388775035E+02  0.58629397551E+02  0.10566000000E+00 0.  1.
         23    2    1    0    0    0  0.15935168454E+01 -0.21856695727E+02 -0.20337608453E+02  0.95102295044E+02  0.90280528139E+02 0.  0.
         13    1    3    3    0    0  0.11423035031E+02  0.34123111511E+02 -0.59488334185E+01  0.36472897493E+02  0.10566000000E+00 0. -1.
         22    1    1    0    0    0 -0.15935168454E+01  0.21856695727E+02  0.20337608453E+02  0.29897704956E+02  0.00000000000E+00 0.  1.
</event>
<event>
 5    1  0.1245581E-004  0.9118800E+02  0.7818608E-02  0.1130116E+00
         25   -1    0    0    0    0  0.00000000000E+00  0.00000000000E+00  0.99999998245E-14  0.12500000000E+03  0.12500000000E+03 0.  0.
        -13    1    3    3    0    0 -0.39346485969E+02 -0.19931475535E+02  0.18871856970E+02  0.47974658151E+02  0.10566000000E+00 0. -1.
         23    2    1    0    0    0 -0.77300161900E-01 -0.30043900919E+02 -0.42545343184E+01  0.94656252374E+02  0.89660822512E+02 0.  0.
         13    1    3    3    0    0  0.39269185808E+02 -0.10112425384E+02 -0.23126391289E+02  0.46681594223E+02  0.10566000000E+00 0.  1.
         22    1    1    0    0    0  0.77300161900E-01  0.30043900919E+02  0.42545343184E+01  0.30343747626E+02  0.00000000000E+00 0.  1.
</event>
<event>
 5    1  0.1245581E-004  0.9118800E+02  0.7818608E-02  0.1130116E+00
         25   -1    0    0    0    0  0.00000000000E+00  0.00000000000E+00  0.99999998245E-14  0.12500000000E+03  0.12500000000E+03 0.  0.
        -13    1    3    3    0    0  0.38715463681E+02 -0.41043476331E+02 -0.20008362059E+02  0.59864846060E+02  0.10566000000E+00 0.  1.
         23    2    1    0    0    0  0.25770613476E+02 -0.10825809256E+02 -0.29735773774E+01  0.96890129360E+02  0.92722879269E+02 0.  0.
         13    1    3    3    0    0 -0.12944850205E+02  0.30217667075E+02  0.17034784682E+02  0.37025283300E+02  0.10566000000E+00 0. -1.
         22    1    1    0    0    0 -0.25770613476E+02  0.10825809256E+02  0.29735773774E+01  0.28109870640E+02  0.00000000000E+00 0.  1.
</event>
<event>
 5    1  0.1245581E-004  0.9118800E+02  0.7818608E-02  0.1130116E+00
         25   -1    0    0    0    0  0.00000000000E+00  0.00000000000E+00  0.99999998245E-14  0.12500000000E+03  0.12500000000E+03 0.  0.
        -13    1    3    3    0    0  0.23721121583E+02  0.28575422255E+02 -0.45451081462E+02  0.58694619314E+02  0.10566000000E+00 0. -1.
         23    2    1    0    0    0  0.16221001177E+00  0.23882266061E+02 -0.18555870563E+02  0.94755838966E+02  0.89799553126E+02 0.  0.
         13    1    3    3    0    0 -0.23558911571E+02 -0.46931561945E+01  0.26895210899E+02  0.36061219653E+02  0.10566000000E+00 0.  1.
         22    1    1    0    0    0 -0.16221001177E+00 -0.23882266061E+02  0.18555870563E+02  0.30244161034E+02  0.00000000000E+00 0. -1.
</event>
<event>
 5    1  0.1245581E-004  0.9118800E+02  0.7818608E-02  0.1130116E+00
         25   -1    0    0    0    0  0.00000000000E+00  0.00000000000E+00  0.99999998245E-14  0.12500000000E+03  0.12500000000E+03 0.  0.
        -13    1    3    3    0    0  0.26910139921E+02  0.28502312801E+02  0.42715352196E+01  0.39430884377E+02  0.10566000000E+00 0.  1.
         23    2    1    0    0    0 -0.16491978593E+02 -0.12771047352E+02  0.13675089459E+02  0.10005820616E+03  0.96899698345E+02 0.  0.
         13    1    3    3    0    0 -0.43402118514E+02 -0.41273360154E+02  0.94035542392E+01  0.60627321780E+02  0.10566000000E+00 0. -1.
         22    1    1    0    0    0  0.16491978593E+02  0.12771047352E+02 -0.13675089459E+02  0.24941793843E+02  0.00000000000E+00 0. -1.
</event>
<event>
 5    1  0.1245581E-004  0.9118800E+02  0.7818608E-02  0.1130116E+00
         25   -1    0    0    0    0  0.00000000000E+00  0.00000000000E+00  0.99999998245E-14  0.12500000000E+03  0.12500000000E+03 0.  0.
        -13    1    3    3    0    0  0.32488445963E+02 -0.83673332577E+01  0.11213935097E+02  0.35373364151E+02  0.10566000000E+00 0.  1.
         23    2    1    0    0    0 -0.23574962253E+02  0.14861601443E+02 -0.24261992120E+00  0.97130573973E+02  0.93046458789E+02 0.  0.
         13    1    3    3    0    0 -0.56063408216E+02  0.23228934700E+02 -0.11456555019E+02  0.61757209822E+02  0.10566000000E+00 0. -1.
         22    1    1    0    0    0  0.23574962253E+02 -0.14861601443E+02  0.24261992120E+00  0.27869426027E+02  0.00000000000E+00 0. -1.
</event>
<event>
 5    1  0.1245581E-004  0.9118800E+02  0.7818608E-02  0.1130116E+00
         25   -1    0    0    0    0  0.00000000000E+00  0.00000000000E+00  0.99999998245E-14  0.12500000000E+03  0.12500000000E+03 0.  0.
        -13    1    3    3    0    0  0.20163125149E+02  0.40906648448E+02 -0.87222273126E+01  0.46432681554E+02  0.10566000000E+00 0. -1.
         23    2    1    0    0    0  0.46643307055E+01  0.94625562696E+01  0.26713442174E+02  0.96278858921E+02  0.91895128980E+02 0.  0.
         13    1    3    3    0    0 -0.15498794443E+02 -0.31444092178E+02  0.35435669487E+02  0.49846177367E+02  0.10566000000E+00 0.  1.
         22    1    1    0    0    0 -0.46643307055E+01 -0.94625562696E+01 -0.26713442174E+02  0.28721141079E+02  0.00000000000E+00 0. -1.
</event>
<event>
 5    1  0.1245581E-004  0.9118800E+02  0.7818608E-02  0.1130116E+00
         25   -1    0    0    0    0  0.00000000000E+00  0.00000000000E+00  0.99999998245E-14  0.12500000000E+03  0.12500000000E+03 0.  0.
        -13    1    3    3    0    0 -0.12064403155E+02  0.37455213748E+02 -0.41548772218E+01  0.39569142386E+02  0.10566000000E+00 0. -1.
         23    2    1    0    0    0  0.23976040893E+02 -0.60341804851E+01 -0.13517626384E+02  0.96822205656E+02  0.92631265856E+02 0.  0.
         13    1    3    3    0    0  0.36040444048E+02 -0.43489394233E+02 -0.93627491621E+01  0.57253063270E+02  0.10566000000E+00 0.  1.
         22    1    1    0    0    0 -0.23976040893E+02  0.60341804851E+01  0.13517626384E+02  0.28177794344E+02  0.00000000000E+00 0.  1.
</event>
<event>
 5    1  0.1245581E-004  0.9118800E+02  0.7818608E-02  0.1130116E+00
         25   -1    0    0    0    0  0.00000000000E+00  0.00000000000E+00  0.99999998245E-14  0.12500000000E+03  0.12500000000E+03 0.  0.
        -13    1    3    3    0    0  0.15245560104E+02  0.11951720794E+02 -0.31073349497E+02  0.36617413151E+02  0.10566000000E+00 0. -1.
         23    2    1    0    0    0 -0.27655697828E+02 -0.55111977493E+01  0.62658458044E+01  0.96112775373E+02  0.91668936087E+02 0.  0.
         13    1    3    3    0    0 -0.42901257932E+02 -0.17462918544E+02  0.37339195302E+02  0.59495362223E+02  0.10566000000E+00 0.  1.
         22    1    1    0    0    0  0.27655697828E+02  0.55111977493E+01 -0.62658458044E+01  0.28887224627E+02  0.00000000000E+00 0. -1.
</event>
<event>
 5    1  0.1245581E-004  0.9118800E+02  0.7818608E-02  0.1130116E+00
         25   -1    0    0    0    0  0.00000000000E+00  0.00000000000E+00  0.99999998245E-14  0.12500000000E+03  0.12500000000E+03 0.  0.
        -13    1    3    3    0    0 -0.18370201554E+02  0.10468621271E+02 -0.25820708639E+02  0.33373290145E+02  0.10566000000E+00 0. -1.
         23    2    1    0    0    0  0.25978760663E+02 -0.20928615990E+02 -0.67277008261E+01  0.90968177668E+02  0.84362577112E+02 0.  0.
         13    1    3    3    0    0  0.44348962217E+02 -0.31397237261E+02  0.19093007813E+02  0.57594887523E+02  0.10566000000E+00 0.  1.
         22    1    1    0    0    0 -0.25978760663E+02  0.20928615990E+02  0.67277008261E+01  0.34031822332E+02  0.00000000000E+00 0.  1.
</event>
<event>
 5    1  0.1245581E-004  0.9118800E+02  0.7818608E-02  0.1130116E+00
         25   -1    0    0    0    0  0.00000000000E+00  0.00000000000E+00  0.99999998245E-14  0.12500000000E+03  0.12500000000E+03 0.  0.
        -13    1    3    3    0    0  0.25304178701E+02 -0.42175346539E+02 -0.13131452024E+02  0.50906851324E+02  0.10566000000E+00 0.  1.
         23    2    1    0    0    0  0.22681966953E+02  0.12354529638E+01 -0.19751881377E+02  0.94897927201E+02  0.89997121066E+02 0.  0.
         13    1    3    3    0    0 -0.26222117477E+01  0.43410799503E+02 -0.66204293531E+01  0.43991075877E+02  0.10566000000E+00 0. -1.
         22    1    1    0    0    0 -0.22681966953E+02 -0.12354529638E+01  0.19751881377E+02  0.30102072799E+02  0.00000000000E+00 0.  1.
</event>
<event>
 5    1  0.1245581E-004  0.9118800E+02  0.7818608E-02  0.1130116E+00
         25   -1    0    0    0    0  0.00000000000E+00  0.00000000000E+00  0.99999998245E-14  0.12500000000E+03  0.12500000000E+03 0.  0.
        -13    1    3    3    0    0 -0.14162725694E+02  0.44221439053E+02  0.44311843190E+01  0.46645096522E+02  0.10566000000E+00 0.  1.
         23    2    1    0    0    0 -0.20110552529E+02 -0.22748547280E+01  0.20494809254E+02  0.96196415268E+02  0.91782916804E+02 0.  0.
         13    1    3    3    0    0 -0.59478268353E+01 -0.46496293781E+02  0.16063624935E+02  0.49551318747E+02  0.10566000000E+00 0. -1.
         22    1    1    0    0    0  0.20110552529E+02  0.22748547280E+01 -0.20494809254E+02  0.28803584732E+02  0.00000000000E+00 0.  1.
</event>
<event>
 5    1  0.1245581E-004  0.9118800E+02  0.7818608E-02  0.1130116E+00
         25   -1    0    0    0    0  0.00000000000E+00  0.00000000000E+00  0.99999998245E-14  0.12500000000E+03  0.12500000000E+03 0.  0.
        -13    1    3    3    0    0 -0.29184085322E+02 -0.47436787562E+02  0.22378084376E+02  0.60022907916E+02  0.10566000000E+00 0.  1.
         23    2    1    0    0    0 -0.69882259566E+01 -0.28420730228E+02  0.19783833864E+01  0.95665937726E+02  0.91057588544E+02 0.  0.
         13    1    3    3    0    0  0.22195859366E+02  0.19016057334E+02 -0.20399700990E+02  0.35643029810E+02  0.10566000000E+00 0. -1.
         22    1    1    0    0    0  0.69882259566E+01  0.28420730228E+02 -0.19783833864E+01  0.29334062274E+02  0.00000000000E+00 0.  1.
</event>
<event>
 5    1  0.1245581E-004  0.9118800E+02  0.7818608E-02  0.1130116E+00
         25   -1    0    0    0    0  0.00000000000E+00  0.00000000000E+00  0.99999998245E-14  0.12500000000E+03  0.12500000000E+03 0.  0.
        -13    1    3    3    0    0  0.36114488442E+02 -0.31385250609E+02  0.45015861343E+01  0.48057940790E+02  0.10566000000E+00 0.  1.
         23    2    1    0    0    0  0.70606328027E+00 -0.12714650947E+02 -0.24431442264E+02  0.97449024605E+02  0.93473291112E+02 0.  0.
         13    1    3    3    0    0 -0.35408425161E+02  0.18670599662E+02 -0.28933028399E+02  0.49391083816E+02  0.10566000000E+00 0. -1.
         22    1    1    0    0    0 -0.70606328027E+00  0.12714650947E+02  0.24431442264E+02  0.27550975395E+02  0.00000000000E+00 0. -1.
</event>
<event>
 5    1  0.1245581E-004  0.9118800E+02  0.7818608E-02  0.1130116E+00
         25   -1    0    0    0    0  0.00000000000E+00  0.00000000000E+00  0.99999998245E-14  0.12500000000E+03  0.12500000000E+03 0.  0.
        -13    1    3    3    0    0 -0.34319519975E+02  0.17860314741E+02  0.91884124553E+01  0.39765039689E+02  0.10566000000E+00 0.  1.
         23    2    1    0    0    0 -0.54059448084E+01 -0.17393723597E+02 -0.23062020167E+02  0.95612542913E+02  0.90984260883E+02 0.  0.
         13    1    3    3    0    0  0.28913575166E+02 -0.35254038339E+02 -0.32250432622E+02  0.55847503225E+02  0.10566000000E+00 0. -1.
         22    1    1    0    0    0  0.54059448084E+01  0.17393723597E+02  0.23062020167E+02  0.29387457087E+02  0.00000000000E+00 0. -1.
</event>
<event>
 5    1  0.1245581E-004  0.9118800E+02  0.7818608E-02  0.1130116E+00
         25   -1    0    0    0    0  0.00000000000E+00  0.00000000000E+00  0.99999998245E-14  0.12500000000E+03  0.12500000000E+03 0.  0.
        -13    1    3    3    0    0  0.12219754461E+02 -0.50716087839E+01 -0.30166823456E+02  0.32940734907E+02  0.10566000000E+00 0. -1.
         23    2    1    0    0    0 -0.17310064901E+02 -0.42980863052E+01  0.24273010168E+02  0.94878729851E+02  0.89970453277E+02 0.  0.
         13    1    3    3    0    0 -0.29529819362E+02  0.77352247871E+00  0.54439833624E+02  0.61937994944E+02  0.10566000000E+00 0.  1.
         22    1    1    0    0    0  0.17310064901E+02  0.42980863052E+01 -0.24273010168E+02  0.30121270149E+02  0.00000000000E+00 0.  1.
</event>
<event>
 5    1  0.1245581E-004  0.9118800E+02  0.7818608E-02  0.1130116E+00
         25   -1    0    0    0    0  0.00000000000E+00  0.00000000000E+00  0.99999998245E-14  0.12500000000E+03  0.12500000000E+03 0.  0.
        -13    1    3    3    0    0 -0.31370457271E+02 -0.39182245630E+01 -0.15971162139E+02  0.35419588609E+02  0.10566000000E+00 0. -1.
         23    2    1    0    0    0  0.27386833012E+02  0.64313643933E+01 -0.14093426815E+01  0.96832868141E+02  0.92645653084E+02 0.  0.
         13    1    3    3    0    0  0.58757290283E+02  0.10349588956E+02  0.14561819457E+02  0.61413279532E+02  0.10566000000E+00 0.  1.
         22    1    1    0    0    0 -0.27386833012E+02 -0.64313643933E+01  0.14093426815E+01  0.28167131859E+02  0.00000000000E+00 0.  1.
</event>
<event>
 5    1  0.1245581E-004  0.9118800E+02  0.7818608E-02  0.1130116E+00
         25   -1    0    0    0    0  0.00000000000E+00  0.00000000000E+00  0.99999998245E-14  0.12500000000E+03  0.12500000000E+03 0.  0.
        -13    1    3    3    0    0 -0.18023010712E+02 -0.24563000757E+02 -0.14470324127E+02  0.33727901887E+02  0.10566000000E+00 0. -1.
         23    2    1    0    0    0  0.16323707666E+01 -0.39781322817E+01  0.34426971580E+02  0.90305525758E+02  0.83374944914E+02 0.  0.
         13    1    3    3    0    0  0.19655381479E+02  0.20584868476E+02  0.48897295708E+02  0.56577623870E+02  0.10566000000E+00 0.  1.
         22    1    1    0    0    0 -0.16323707666E+01  0.39781322817E+01 -0.34426971580E+02  0.34694474242E+02  0.00000000000E+00 0.  1.
</event>
<event>
 5    1  0.1245581E-004  0.9118800E+02  0.7818608E-02  0.1130116E+00
         25   -1    0    0    0    0  0.00000000000E+00  0.00000000000E+00  0.99999998245E-14  0.12500000000E+03  0.12500000000E+03 0.  0.
        -13    1    3    3    0    0 -0.21930267913E+02 -0.11714030024E+02 -0.39437759941E+02  0.46620845373E+02  0.10566000000E+00 0. -1.
         23    2    1    0    0    0 -0.27191828278E+02  0.11250027087E+02  0.32658433798E+01  0.95392156993E+02  0.90680975117E+02 0.  0.
         13    1    3    3    0    0 -0.52615603653E+01  0.22964057111E+02  0.42703603321E+02  0.48771311619E+02  0.10566000000E+00 0.  1.
         22    1    1    0    0    0  0.27191828278E+02 -0.11250027087E+02 -0.32658433798E+01  0.29607843007E+02  0.00000000000E+00 0. -1.
</event>
<event>
 5    1  0.1245581E-004  0.9118800E+02  0.7818608E-02  0.1130116E+00
         25   -1    0    0    0    0  0.00000000000E+00  0.00000000000E+00  0.99999998245E-14  0.12500000000E+03  0.12500000000E+03 0.  0.
        -13    1    3    3    0    0 -0.30604569189E+02 -0.17053969299E+02  0.15212978981E+02  0.38195856026E+02  0.10566000000E+00 0. -1.
         23    2    1    0    0    0  0.18360582011E+02 -0.22996752817E+02 -0.10418883633E+02  0.93782781225E+02  0.88434695150E+02 0.  0.
         13    1    3    3    0    0  0.48965151200E+02 -0.59427835181E+01 -0.25631862613E+02  0.55586925198E+02  0.10566000000E+00 0.  1.
         22    1    1    0    0    0 -0.18360582011E+02  0.22996752817E+02  0.10418883633E+02  0.31217218775E+02  0.00000000000E+00 0.  1.
</event>
<event>
 5    1  0.1245581E-004  0.9118800E+02  0.7818608E-02  0.1130116E+00
         25   -1    0    0    0    0  0.00000000000E+00  0.00000000000E+00  0.99999998245E-14  0.12500000000E+03  0.12500000000E+03 0.  0.
        -13    1    3    3    0    0  0.26864659418E+02 -0.82444809982E+01  0.11890420837E+02  0.30513516092E+02  0.10566000000E+00 0.  1.
         23    2    1    0    0    0 -0.28474515706E+02 -0.21899880190E+02  0.10673429960E+02  0.87525676736E+02  0.79097529569E+02 0.  0.
         13    1    3    3    0    0 -0.55339175124E+02 -0.13655399192E+02 -0.12169908764E+01  0.57012160644E+02  0.10566000000E+00 0. -1.
         22    1    1    0    0    0  0.28474515706E+02  0.21899880190E+02 -0.10673429960E+02  0.37474323264E+02  0.00000000000E+00 0. -1.
</event>
<event>
 5    1  0.1245581E-004  0.9118800E+02  0.7818608E-02  0.1130116E+00
         25   -1    0    0    0    0  0.00000000000E+00  0.00000000000E+00  0.99999998245E-14  0.12500000000E+03  0.12500000000E+03 0.  0.
        -13    1    3    3    0    0  0.58625236244E+02 -0.12811660783E+02  0.39337549152E+01  0.60137696734E+02  0.10566000000E+00 0.  1.
         23    2    1    0    0    0  0.26355036794E+02 -0.86987863787E+01 -0.99621791344E+01  0.95512683032E+02  0.90846963395E+02 0.  0.
         13    1    3    3    0    0 -0.32270199451E+02  0.41128744040E+01 -0.13895934050E+02  0.35374986298E+02  0.10566000000E+00 0. -1.
         22    1    1    0    0    0 -0.26355036794E+02  0.86987863787E+01  0.99621791344E+01  0.29487316968E+02  0.00000000000E+00 0.  1.
</event>
<event>
 5    1  0.1245581E-004  0.9118800E+02  0.7818608E-02  0.1130116E+00
         25   -1    0    0    0    0  0.00000000000E+00  0.00000000000E+00  0.99999998245E-14  0.12500000000E+03  0.12500000000E+03 0.  0.
        -13    1    3    3    0    0 -0.26000310769E+02 -0.37439457941E+02 -0.16321562235E+02  0.48416254799E+02  0.10566000000E+00 0.  1.
         23    2    1    0    0    0  0.17380574662E+02 -0.23551429463E+02 -0.59949742269E+01  0.95122016110E+02  0.90307829271E+02 0.  0.
         13    1    3    3    0    0  0.43380885431E+02  0.13888028477E+02  0.10326588008E+02  0.46705761311E+02  0.10566000000E+00 0. -1.
         22    1    1    0    0    0 -0.17380574662E+02  0.23551429463E+02  0.59949742269E+01  0.29877983890E+02  0.00000000000E+00 0. -1.
</event>
<event>
 5    1  0.1245581E-004  0.9118800E+02  0.7818608E-02  0.1130116E+00
         25   -1    0    0    0    0  0.00000000000E+00  0.00000000000E+00  0.99999998245E-14  0.12500000000E+03  0.12500000000E+03 0.  0.
        -13    1    3    3    0    0 -0.35027197122E+02 -0.41623211745E+02 -0.27481743534E+02  0.60947958833E+02  0.10566000000E+00 0.  1.
         23    2    1    0    0    0 -0.12960339825E+02 -0.14889939944E+02 -0.20936061938E+02  0.96225021122E+02  0.91821867115E+02 0.  0.
         13    1    3    3    0    0  0.22066857297E+02  0.26733271801E+02  0.65456815958E+01  0.35277062289E+02  0.10566000000E+00 0. -1.
         22    1    1    0    0    0  0.12960339825E+02  0.14889939944E+02  0.20936061938E+02  0.28774978878E+02  0.00000000000E+00 0.  1.
</event>
<event>
 5    1  0.1245581E-004  0.9118800E+02  0.7818608E-02  0.1130116E+00
         25   -1    0    0    0    0  0.00000000000E+00  0.00000000000E+00  0.99999998245E-14  0.12500000000E+03  0.12500000000E+03 0.  0.
        -13    1    3    3    0    0 -0.17942248163E+02  0.48964473627E+02  0.54384349864E+00  0.52151230824E+02  0.10566000000E+00 0.  1.
         23    2    1    0    0    0 -0.26683004823E+02  0.69302570793E+01  0.91774884838E+01  0.95944234575E+02  0.91438824598E+02 0.  0.
         13    1    3    3    0    0 -0.87407566597E+01 -0.42034216548E+02  0.86336449852E+01  0.43793003751E+02  0.10566000000E+00 0. -1.
         22    1    1    0    0    0  0.26683004823E+02 -0.69302570793E+01 -0.91774884838E+01  0.29055765425E+02  0.00000000000E+00 0.  1.
</event>
<event>
 5    1  0.1245581E-004  0.9118800E+02  0.7818608E-02  0.1130116E+00
         25   -1    0    0    0    0  0.00000000000E+00  0.00000000000E+00  0.99999998245E-14  0.12500000000E+03  0.12500000000E+03 0.  0.
        -13    1    3    3    0    0 -0.23764416002E+02  0.91866578791E+01  0.56173270126E+02  0.61681355300E+02  0.10566000000E+00 0. -1.
         23    2    1    0    0    0 -0.38656196227E+01  0.59797781001E+01  0.26552260001E+02  0.97509578534E+02  0.93554233648E+02 0.  0.
         13    1    3    3    0    0  0.19898796380E+02 -0.32068797789E+01 -0.29621010125E+02  0.35828223234E+02  0.10566000000E+00 0.  1.
         22    1    1    0    0    0  0.38656196227E+01 -0.59797781001E+01 -0.26552260001E+02  0.27490421466E+02  0.00000000000E+00 0. -1.
</event>
<event>
 5    1  0.1245581E-004  0.9118800E+02  0.7818608E-02  0.1130116E+00
         25   -1    0    0    0    0  0.00000000000E+00  0.00000000000E+00  0.99999998245E-14  0.12500000000E+03  0.12500000000E+03 0.  0.
        -13    1    3    3    0    0 -0.44166424056E+02  0.34379878552E+02 -0.25272483861E+02  0.61411388746E+02  0.10566000000E+00 0. -1.
         23    2    1    0    0    0 -0.19069304932E+02  0.24601018562E+02 -0.10385496420E+02  0.92186785577E+02  0.86149268100E+02 0.  0.
         13    1    3    3    0    0  0.25097119124E+02 -0.97788599898E+01  0.14886987440E+02  0.30775396831E+02  0.10566000000E+00 0.  1.
         22    1    1    0    0    0  0.19069304932E+02 -0.24601018562E+02  0.10385496420E+02  0.32813214423E+02  0.00000000000E+00 0. -1.
</event>
<event>
 5    1  0.1245581E-004  0.9118800E+02  0.7818608E-02  0.1130116E+00
         25   -1    0    0    0    0  0.00000000000E+00  0.00000000000E+00  0.99999998245E-14  0.12500000000E+03  0.12500000000E+03 0.  0.
        -13    1    3    3    0    0 -0.22544835602E+02 -0.31308376217E+02 -0.44017470388E+02  0.58532323524E+02  0.10566000000E+00 0.  1.
         23    2    1    0    0    0 -0.22968427199E+02 -0.10343576523E+02 -0.11303248661E+02  0.97390189179E+02  0.93394578509E+02 0.  0.
         13    1    3    3    0    0 -0.42359159685E+00  0.20964799694E+02  0.32714221728E+02  0.38857865656E+02  0.10566000000E+00 0. -1.
         22    1    1    0    0    0  0.22968427199E+02  0.10343576523E+02  0.11303248661E+02  0.27609810821E+02  0.00000000000E+00 0.  1.
</event>
<event>
 5    1  0.1245581E-004  0.9118800E+02  0.7818608E-02  0.1130116E+00
         25   -1    0    0    0    0  0.00000000000E+00  0.00000000000E+00  0.99999998245E-14  0.12500000000E+03  0.12500000000E+03 0.  0.
        -13    1    3    3    0    0 -0.22774084407E+02  0.36995981715E+02  0.35125859322E+02  0.55867689596E+02  0.10566000000E+00 0.  1.
         23    2    1    0    0    0 -0.38726662464E+01  0.28895341541E+02  0.85650844954E+00  0.95833719583E+02  0.91287621810E+02 0.  0.
         13    1    3    3    0    0  0.18901418161E+02 -0.81006401738E+01 -0.34269350872E+02  0.39966029987E+02  0.10566000000E+00 0. -1.
         22    1    1    0    0    0  0.38726662464E+01 -0.28895341541E+02 -0.85650844954E+00  0.29166280417E+02  0.00000000000E+00 0.  1.
</event>
<event>
 5    1  0.1245581E-004  0.9118800E+02  0.7818608E-02  0.1130116E+00
         25   -1    0    0    0    0  0.00000000000E+00  0.00000000000E+00  0.99999998245E-14  0.12500000000E+03  0.12500000000E+03 0.  0.
        -13    1    3    3    0    0 -0.39071936594E+01  0.10762222393E+02 -0.36287549773E+02  0.38051136983E+02  0.10566000000E+00 0. -1.
         23    2    1    0    0    0  0.20341704100E+02  0.12277926835E+02  0.16439825245E+02  0.96107089674E+02  0.91661182724E+02 0.  0.
         13    1    3    3    0    0  0.24248897759E+02  0.15157044420E+01  0.52727375018E+02  0.58055952691E+02  0.10566000000E+00 0.  1.
         22    1    1    0    0    0 -0.20341704100E+02 -0.12277926835E+02 -0.16439825245E+02  0.28892910326E+02  0.00000000000E+00 0.  1.
</event>
<event>
 5    1  0.1245581E-004  0.9118800E+02  0.7818608E-02  0.1130116E+00
         25   -1    0    0    0    0  0.00000000000E+00  0.00000000000E+00  0.99999998245E-14  0.12500000000E+03  0.12500000000E+03 0.  0.
        -13    1    3    3    0    0 -0.28917382931E+02  0.48926960203E+02  0.11348972015E+02  0.57955783146E+02  0.10566000000E+00 0.  1.
         23    2    1    0    0    0 -0.10506266202E+02  0.26024951142E+02 -0.10981056812E+02  0.94862592677E+02  0.89948030379E+02 0.  0.
         13    1    3    3    0    0  0.18411116729E+02 -0.22902009061E+02 -0.22330028827E+02  0.36906809530E+02  0.10566000000E+00 0. -1.
         22    1    1    0    0    0  0.10506266202E+02 -0.26024951142E+02  0.10981056812E+02  0.30137407323E+02  0.00000000000E+00 0.  1.
</event>
<event>
 5    1  0.1245581E-004  0.9118800E+02  0.7818608E-02  0.1130116E+00
         25   -1    0    0    0    0  0.00000000000E+00  0.00000000000E+00  0.99999998245E-14  0.12500000000E+03  0.12500000000E+03 0.  0.
        -13    1    3    3    0    0 -0.31202777991E+02 -0.20228153553E+02 -0.45989332785E+02  0.59142382811E+02  0.10566000000E+00 0. -1.
         23    2    1    0    0    0 -0.87389050697E+01 -0.21956016737E+02 -0.16847632631E+02  0.95977976327E+02  0.91484939099E+02 0.  0.
         13    1    3    3    0    0  0.22463872921E+02 -0.17278631838E+01  0.29141700154E+02  0.36835593516E+02  0.10566000000E+00 0.  1.
         22    1    1    0    0    0  0.87389050697E+01  0.21956016737E+02  0.16847632631E+02  0.29022023673E+02  0.00000000000E+00 0. -1.
</event>
<event>
 5    1  0.1245581E-004  0.9118800E+02  0.7818608E-02  0.1130116E+00
         25   -1    0    0    0    0  0.00000000000E+00  0.00000000000E+00  0.99999998245E-14  0.12500000000E+03  0.12500000000E+03 0.  0.
        -13    1    3    3    0    0 -0.29950437118E+02 -0.94390957682E+01 -0.20339126296E+02  0.37414120797E+02  0.10566000000E+00 0.  1.
         23    2    1    0    0    0  0.67522524691E+00  0.15001076180E+02  0.24065210594E+02  0.96634130074E+02  0.92377121186E+02 0.  0.
         13    1    3    3    0    0  0.30625662365E+02  0.24440171948E+02  0.44404336890E+02  0.59220009278E+02  0.10566000000E+00 0. -1.
         22    1    1    0    0    0 -0.67522524691E+00 -0.15001076180E+02 -0.24065210594E+02  0.28365869926E+02  0.00000000000E+00 0. -1.
</event>
<event>
 5    1  0.1245581E-004  0.9118800E+02  0.7818608E-02  0.1130116E+00
         25   -1    0    0    0    0  0.00000000000E+00  0.00000000000E+00  0.99999998245E-14  0.12500000000E+03  0.12500000000E+03 0.  0.
        -13    1    3    3    0    0  0.21416197972E+02 -0.21917642550E+02  0.35200163696E+02  0.46670111193E+02  0.10566000000E+00 0. -1.
         23    2    1    0    0    0 -0.14218909580E+02  0.40425446750E+01  0.30623144158E+02  0.90995639761E+02  0.84403257878E+02 0.  0.
         13    1    3    3    0    0 -0.35635107551E+02  0.25960187225E+02 -0.45770195378E+01  0.44325528568E+02  0.10566000000E+00 0.  1.
         22    1    1    0    0    0  0.14218909580E+02 -0.40425446750E+01 -0.30623144158E+02  0.34004360239E+02  0.00000000000E+00 0.  1.
</event>
<event>
 5    1  0.1245581E-004  0.9118800E+02  0.7818608E-02  0.1130116E+00
         25   -1    0    0    0    0  0.00000000000E+00  0.00000000000E+00  0.99999998245E-14  0.12500000000E+03  0.12500000000E+03 0.  0.
        -13    1    3    3    0    0  0.32333790555E+02  0.21483059713E+02  0.30701172334E+02  0.49493120865E+02  0.10566000000E+00 0.  1.
         23    2    1    0    0    0 -0.93877724183E+01  0.24623486711E+02  0.63869015359E+01  0.97884711324E+02  0.94054121818E+02 0.  0.
         13    1    3    3    0    0 -0.41721562973E+02  0.31404269977E+01 -0.24314270798E+02  0.48391590459E+02  0.10566000000E+00 0. -1.
         22    1    1    0    0    0  0.93877724183E+01 -0.24623486711E+02 -0.63869015359E+01  0.27115288676E+02  0.00000000000E+00 0. -1.
</event>
<event>
 5    1  0.1245581E-004  0.9118800E+02  0.7818608E-02  0.1130116E+00
         25   -1    0    0    0    0  0.00000000000E+00  0.00000000000E+00  0.99999998245E-14  0.12500000000E+03  0.12500000000E+03 0.  0.
        -13    1    3    3    0    0 -0.23262898199E+00  0.11803934153E+02 -0.52402064207E+02  0.53715681834E+02  0.10566000000E+00 0.  1.
         23    2    1    0    0    0  0.12134911371E+02 -0.11958364647E+02 -0.36118952705E+02  0.85064585847E+02  0.75107565943E+02 0.  0.
         13    1    3    3    0    0  0.12367540353E+02 -0.23762298800E+02  0.16283111501E+02  0.31348904013E+02  0.10566000000E+00 0. -1.
         22    1    1    0    0    0 -0.12134911371E+02  0.11958364647E+02  0.36118952705E+02  0.39935414153E+02  0.00000000000E+00 0.  1.
</event>
<event>
 5    1  0.1245581E-004  0.9118800E+02  0.7818608E-02  0.1130116E+00
         25   -1    0    0    0    0  0.00000000000E+00  0.00000000000E+00  0.99999998245E-14  0.12500000000E+03  0.12500000000E+03 0.  0.
        -13    1    3    3    0    0 -0.25652800582E+02 -0.19919605054E+02 -0.44651644836E+02  0.55214467251E+02  0.10566000000E+00 0.  1.
         23    2    1    0    0    0  0.28881414426E+01 -0.69528600505E+00 -0.33471585028E+02  0.91396848542E+02  0.84995365377E+02 0.  0.
         13    1    3    3    0    0  0.28540942025E+02  0.19224319049E+02  0.11180059808E+02  0.36182381291E+02  0.10566000000E+00 0. -1.
         22    1    1    0    0    0 -0.28881414426E+01  0.69528600505E+00  0.33471585028E+02  0.33603151458E+02  0.00000000000E+00 0.  1.
</event>
<event>
 5    1  0.1245581E-004  0.9118800E+02  0.7818608E-02  0.1130116E+00
         25   -1    0    0    0    0  0.00000000000E+00  0.00000000000E+00  0.99999998245E-14  0.12500000000E+03  0.12500000000E+03 0.  0.
        -13    1    3    3    0    0 -0.90096853169E+01  0.42186860694E+02 -0.52057574208E+01  0.43451314354E+02  0.10566000000E+00 0. -1.
         23    2    1    0    0    0 -0.18097132256E+02 -0.89633260784E+01 -0.19073329340E+02  0.97221603675E+02  0.93168669191E+02 0.  0.
         13    1    3    3    0    0 -0.90874469389E+01 -0.51150186772E+02 -0.13867571919E+02  0.53770289321E+02  0.10566000000E+00 0.  1.
         22    1    1    0    0    0  0.18097132256E+02  0.89633260784E+01  0.19073329340E+02  0.27778396325E+02  0.00000000000E+00 0.  1.
</event>
<event>
 5    1  0.1245581E-004  0.9118800E+02  0.7818608E-02  0.1130116E+00
         25   -1    0    0    0    0  0.00000000000E+00  0.00000000000E+00  0.99999998245E-14  0.12500000000E+03  0.12500000000E+03 0.  0.
        -13    1    3    3    0    0  0.28025447800E+02 -0.56988199605E+01 -0.31987632532E+02  0.42908298410E+02  0.10566000000E+00 0.  1.
         23    2    1    0    0    0 -0.45885494496E+00  0.28702076233E+02 -0.30358623897E+01  0.96134169189E+02  0.91698104109E+02 0.  0.
         13    1    3    3    0    0 -0.28484302745E+02  0.34400896194E+02  0.28951770142E+02  0.53225870779E+02  0.10566000000E+00 0. -1.
         22    1    1    0    0    0  0.45885494496E+00 -0.28702076233E+02  0.30358623897E+01  0.28865830811E+02  0.00000000000E+00 0.  1.
</event>
<event>
 5    1  0.1245581E-004  0.9118800E+02  0.7818608E-02  0.1130116E+00
         25   -1    0    0    0    0  0.00000000000E+00  0.00000000000E+00  0.99999998245E-14  0.12500000000E+03  0.12500000000E+03 0.  0.
        -13    1    3    3    0    0 -0.22326052617E+01  0.15944323862E+02 -0.32722066315E+02  0.36468490203E+02  0.10566000000E+00 0.  1.
         23    2    1    0    0    0  0.21759685731E+02  0.47161070338E+01  0.19743445046E+02  0.95242157152E+02  0.90473970224E+02 0.  0.
         13    1    3    3    0    0  0.23992290992E+02 -0.11228216829E+02  0.52465511362E+02  0.58773666950E+02  0.10566000000E+00 0. -1.
         22    1    1    0    0    0 -0.21759685731E+02 -0.47161070338E+01 -0.19743445046E+02  0.29757842848E+02  0.00000000000E+00 0. -1.
</event>
<event>
 5    1  0.1245581E-004  0.9118800E+02  0.7818608E-02  0.1130116E+00
         25   -1    0    0    0    0  0.00000000000E+00  0.00000000000E+00  0.99999998245E-14  0.12500000000E+03  0.12500000000E+03 0.  0.
        -13    1    3    3    0    0  0.16128596870E+01  0.30763293890E+02 -0.29823299765E+01  0.30949749974E+02  0.10566000000E+00 0.  1.
         23    2    1    0    0    0  0.34307614485E+02 -0.15131582249E+02 -0.38524885736E+01  0.87306249042E+02  0.78749998480E+02 0.  0.
         13    1    3    3    0    0  0.32694754798E+02 -0.45894876139E+02 -0.87015859703E+00  0.56356499068E+02  0.10566000000E+00 0. -1.
         22    1    1    0    0    0 -0.34307614485E+02  0.15131582249E+02  0.38524885736E+01  0.37693750958E+02  0.00000000000E+00 0. -1.
</event>
<event>
 5    1  0.1245581E-004  0.9118800E+02  0.7818608E-02  0.1130116E+00
         25   -1    0    0    0    0  0.00000000000E+00  0.00000000000E+00  0.99999998245E-14  0.12500000000E+03  0.12500000000E+03 0.  0.
        -13    1    3    3    0    0 -0.30346609264E+02  0.66877195727E+01  0.14401478232E+02  0.34249905492E+02  0.10566000000E+00 0. -1.
         23    2    1    0    0    0  0.16982632147E+02 -0.11699938111E+02 -0.20545406442E+02  0.95889656952E+02  0.91364184657E+02 0.  0.
         13    1    3    3    0    0  0.47329241411E+02 -0.18387657684E+02 -0.34946884675E+02  0.61639751461E+02  0.10566000000E+00 0.  1.
         22    1    1    0    0    0 -0.16982632147E+02  0.11699938111E+02  0.20545406442E+02  0.29110343048E+02  0.00000000000E+00 0.  1.
</event>
<event>
 5    1  0.1245581E-004  0.9118800E+02  0.7818608E-02  0.1130116E+00
         25   -1    0    0    0    0  0.00000000000E+00  0.00000000000E+00  0.99999998245E-14  0.12500000000E+03  0.12500000000E+03 0.  0.
        -13    1    3    3    0    0 -0.17768478206E+02  0.32259403481E+02  0.20190241457E+02  0.42000535055E+02  0.10566000000E+00 0.  1.
         23    2    1    0    0    0 -0.12353828397E+02 -0.21993367446E+02  0.11749311341E+02  0.97172466788E+02  0.93102721211E+02 0.  0.
         13    1    3    3    0    0  0.54146498089E+01 -0.54252770928E+02 -0.84409301167E+01  0.55171931733E+02  0.10566000000E+00 0. -1.
         22    1    1    0    0    0  0.12353828397E+02  0.21993367446E+02 -0.11749311341E+02  0.27827533212E+02  0.00000000000E+00 0. -1.
</event>
<event>
 5    1  0.1245581E-004  0.9118800E+02  0.7818608E-02  0.1130116E+00
         25   -1    0    0    0    0  0.00000000000E+00  0.00000000000E+00  0.99999998245E-14  0.12500000000E+03  0.12500000000E+03 0.  0.
        -13    1    3    3    0    0  0.23306963761E+02 -0.35935241535E+02  0.28934125175E+02  0.51688982458E+02  0.10566000000E+00 0. -1.
         23    2    1    0    0    0 -0.14250791792E+02 -0.12951388699E+02  0.21136899984E+02  0.96406432946E+02  0.92068497524E+02 0.  0.
         13    1    3    3    0    0 -0.37557755554E+02  0.22983852835E+02 -0.77972251901E+01  0.44717450487E+02  0.10566000000E+00 0.  1.
         22    1    1    0    0    0  0.14250791792E+02  0.12951388699E+02 -0.21136899984E+02  0.28593567054E+02  0.00000000000E+00 0.  1.
</event>
<event>
 5    1  0.1245581E-004  0.9118800E+02  0.7818608E-02  0.1130116E+00
         25   -1    0    0    0    0  0.00000000000E+00  0.00000000000E+00  0.99999998245E-14  0.12500000000E+03  0.12500000000E+03 0.  0.
        -13    1    3    3    0    0  0.46176030434E+02 -0.11129616408E+02  0.23136912023E+02  0.52833909661E+02  0.10566000000E+00 0.  1.
         23    2    1    0    0    0  0.76016645097E+01 -0.25587610817E+02  0.13253367421E+02  0.95197938349E+02  0.90412856317E+02 0.  0.
         13    1    3    3    0    0 -0.38574365925E+02 -0.14457994408E+02 -0.98835446016E+01  0.42364028689E+02  0.10566000000E+00 0. -1.
         22    1    1    0    0    0 -0.76016645097E+01  0.25587610817E+02 -0.13253367421E+02  0.29802061651E+02  0.00000000000E+00 0.  1.
</event>
<event>
 5    1  0.1245581E-004  0.9118800E+02  0.7818608E-02  0.1130116E+00
         25   -1    0    0    0    0  0.00000000000E+00  0.00000000000E+00  0.99999998245E-14  0.12500000000E+03  0.12500000000E+03 0.  0.
        -13    1    3    3    0    0  0.43002561329E+02  0.58712801655E+01  0.14370802445E+02  0.45718960384E+02  0.10566000000E+00 0. -1.
         23    2    1    0    0    0 -0.39123074508E+01 -0.32230409088E+01  0.28893490358E+02  0.95665243697E+02  0.91056635805E+02 0.  0.
         13    1    3    3    0    0 -0.46914868780E+02 -0.90943210742E+01  0.14522687913E+02  0.49946283313E+02  0.10566000000E+00 0.  1.
         22    1    1    0    0    0  0.39123074508E+01  0.32230409088E+01 -0.28893490358E+02  0.29334756303E+02  0.00000000000E+00 0.  1.
</event>
<event>
 5    1  0.1245581E-004  0.9118800E+02  0.7818608E-02  0.1130116E+00
         25   -1    0    0    0    0  0.00000000000E+00  0.00000000000E+00  0.99999998245E-14  0.12500000000E+03  0.12500000000E+03 0.  0.
        -13    1    3    3    0    0  0.28567386901E+02  0.69781267281E+01  0.31850941016E+02  0.43350703047E+02  0.10566000000E+00 0. -1.
         23    2    1    0    0    0  0.16289863862E+02 -0.23549142214E+02 -0.82288552420E+01  0.95206782278E+02  0.90425082634E+02 0.  0.
         13    1    3    3    0    0 -0.12277523040E+02 -0.30527268943E+02 -0.40079796258E+02  0.51856079231E+02  0.10566000000E+00 0.  1.
         22    1    1    0    0    0 -0.16289863862E+02  0.23549142214E+02  0.82288552420E+01  0.29793217722E+02  0.00000000000E+00 0. -1.
</event>
<event>
 5    1  0.1245581E-004  0.9118800E+02  0.7818608E-02  0.1130116E+00
         25   -1    0    0    0    0  0.00000000000E+00  0.00000000000E+00  0.99999998245E-14  0.12500000000E+03  0.12500000000E+03 0.  0.
        -13    1    3    3    0    0  0.15162992457E+02  0.54329974638E+02 -0.21302608005E+02  0.60294898261E+02  0.10566000000E+00 0.  1.
         23    2    1    0    0    0 -0.30704148165E+01  0.24502908195E+02 -0.15798116175E+02  0.95684467738E+02  0.91083022207E+02 0.  0.
         13    1    3    3    0    0 -0.18233407273E+02 -0.29827066444E+02  0.55044918293E+01  0.35389569477E+02  0.10566000000E+00 0. -1.
         22    1    1    0    0    0  0.30704148165E+01 -0.24502908195E+02  0.15798116175E+02  0.29315532262E+02  0.00000000000E+00 0.  1.
</event>
<event>
 5    1  0.1245581E-004  0.9118800E+02  0.7818608E-02  0.1130116E+00
         25   -1    0    0    0    0  0.00000000000E+00  0.00000000000E+00  0.99999998245E-14  0.12500000000E+03  0.12500000000E+03 0.  0.
        -13    1    3    3    0    0  0.46465512241E+01 -0.48505646990E+01  0.35659042502E+02  0.36286318254E+02  0.10566000000E+00 0.  1.
         23    2    1    0    0    0  0.66460379520E+01  0.12401134216E+02 -0.23317273449E+02  0.97766689673E+02  0.93897137433E+02 0.  0.
         13    1    3    3    0    0  0.19994867278E+01  0.17251698915E+02 -0.58976315951E+02  0.61480371419E+02  0.10566000000E+00 0. -1.
         22    1    1    0    0    0 -0.66460379520E+01 -0.12401134216E+02  0.23317273449E+02  0.27233310327E+02  0.00000000000E+00 0. -1.
</event>
<event>
 5    1  0.1245581E-004  0.9118800E+02  0.7818608E-02  0.1130116E+00
         25   -1    0    0    0    0  0.00000000000E+00  0.00000000000E+00  0.99999998245E-14  0.12500000000E+03  0.12500000000E+03 0.  0.
        -13    1    3    3    0    0 -0.12934019045E+02 -0.38946992709E+01 -0.44162525930E+02  0.46182219432E+02  0.10566000000E+00 0.  1.
         23    2    1    0    0    0  0.17748600904E+02  0.19531823948E+02 -0.14334158581E+02  0.94967133287E+02  0.90093192427E+02 0.  0.
         13    1    3    3    0    0  0.30682619950E+02  0.23426523219E+02  0.29828367349E+02  0.48784913855E+02  0.10566000000E+00 0. -1.
         22    1    1    0    0    0 -0.17748600904E+02 -0.19531823948E+02  0.14334158581E+02  0.30032866713E+02  0.00000000000E+00 0.  1.
</event>
<event>
 5    1  0.1245581E-004  0.9118800E+02  0.7818608E-02  0.1130116E+00
         25   -1    0    0    0    0  0.00000000000E+00  0.00000000000E+00  0.99999998245E-14  0.12500000000E+03  0.12500000000E+03 0.  0.
        -13    1    3    3    0    0  0.17907671182E+02 -0.23706226293E+02  0.28045112881E+02  0.40855958841E+02  0.10566000000E+00 0.  1.
         23    2    1    0    0    0  0.20784758212E+02  0.11171561246E+02 -0.15535021417E+02  0.96748507207E+02  0.92531761043E+02 0.  0.
         13    1    3    3    0    0  0.28770870308E+01  0.34877787540E+02 -0.43580134298E+02  0.55892548366E+02  0.10566000000E+00 0. -1.
         22    1    1    0    0    0 -0.20784758212E+02 -0.11171561246E+02  0.15535021417E+02  0.28251492793E+02  0.00000000000E+00 0. -1.
</event>
<event>
 5    1  0.1245581E-004  0.9118800E+02  0.7818608E-02  0.1130116E+00
         25   -1    0    0    0    0  0.00000000000E+00  0.00000000000E+00  0.99999998245E-14  0.12500000000E+03  0.12500000000E+03 0.  0.
        -13    1    3    3    0    0  0.11907668709E+02  0.20891392398E+02 -0.38121403612E+02  0.45072113638E+02  0.10566000000E+00 0. -1.
         23    2    1    0    0    0  0.31804565991E+02  0.49746639061E+01  0.21605491051E+01  0.92736310327E+02  0.86942955906E+02 0.  0.
         13    1    3    3    0    0  0.19896897282E+02 -0.15916728491E+02  0.40281952717E+02  0.47664196689E+02  0.10566000000E+00 0.  1.
         22    1    1    0    0    0 -0.31804565991E+02 -0.49746639061E+01 -0.21605491051E+01  0.32263689673E+02  0.00000000000E+00 0. -1.
</event>
<event>
 5    1  0.1245581E-004  0.9118800E+02  0.7818608E-02  0.1130116E+00
         25   -1    0    0    0    0  0.00000000000E+00  0.00000000000E+00  0.99999998245E-14  0.12500000000E+03  0.12500000000E+03 0.  0.
        -13    1    3    3    0    0  0.41706596859E+02 -0.63598832310E+01  0.44516540280E+02  0.61332062242E+02  0.10566000000E+00 0.  1.
         23    2    1    0    0    0  0.21805140541E+02  0.48142024161E+01  0.18003329506E+02  0.96316196692E+02  0.91945903513E+02 0.  0.
         13    1    3    3    0    0 -0.19901456318E+02  0.11174085647E+02 -0.26513210774E+02  0.34984134450E+02  0.10566000000E+00 0. -1.
         22    1    1    0    0    0 -0.21805140541E+02 -0.48142024161E+01 -0.18003329506E+02  0.28683803308E+02  0.00000000000E+00 0.  1.
</event>
<event>
 5    1  0.1245581E-004  0.9118800E+02  0.7818608E-02  0.1130116E+00
         25   -1    0    0    0    0  0.00000000000E+00  0.00000000000E+00  0.99999998245E-14  0.12500000000E+03  0.12500000000E+03 0.  0.
        -13    1    3    3    0    0 -0.73231077375E+01  0.39559811966E+02 -0.14012514549E+02  0.42602445443E+02  0.10566000000E+00 0. -1.
         23    2    1    0    0    0  0.13128673889E+02 -0.72262928208E+01 -0.25943882437E+02  0.95038918212E+02  0.90192735589E+02 0.  0.
         13    1    3    3    0    0  0.20451781626E+02 -0.46786104786E+02 -0.11931367887E+02  0.52436472769E+02  0.10566000000E+00 0.  1.
         22    1    1    0    0    0 -0.13128673889E+02  0.72262928208E+01  0.25943882437E+02  0.29961081788E+02  0.00000000000E+00 0.  1.
</event>
<event>
 5    1  0.1245581E-004  0.9118800E+02  0.7818608E-02  0.1130116E+00
         25   -1    0    0    0    0  0.00000000000E+00  0.00000000000E+00  0.99999998245E-14  0.12500000000E+03  0.12500000000E+03 0.  0.
        -13    1    3    3    0    0  0.11260722206E+02  0.48095893070E+02  0.24291460816E+02  0.55046389776E+02  0.10566000000E+00 0.  1.
         23    2    1    0    0    0  0.20324047198E+02  0.89424982263E+01  0.19367705105E+02  0.95535730621E+02  0.90878669968E+02 0.  0.
         13    1    3    3    0    0  0.90633249924E+01 -0.39153394843E+02 -0.49237557112E+01  0.40489340845E+02  0.10566000000E+00 0. -1.
         22    1    1    0    0    0 -0.20324047198E+02 -0.89424982263E+01 -0.19367705105E+02  0.29464269379E+02  0.00000000000E+00 0.  1.
</event>
<event>
 5    1  0.1245581E-004  0.9118800E+02  0.7818608E-02  0.1130116E+00
         25   -1    0    0    0    0  0.00000000000E+00  0.00000000000E+00  0.99999998245E-14  0.12500000000E+03  0.12500000000E+03 0.  0.
        -13    1    3    3    0    0  0.68726455763E+01  0.52462156596E+02 -0.12926763766E+02  0.54466719356E+02  0.10566000000E+00 0.  1.
         23    2    1    0    0    0 -0.11847099813E+02  0.44441563683E+02  0.75265149859E+00  0.79000295209E+02  0.64226737441E+02 0.  0.
         13    1    3    3    0    0 -0.18719745390E+02 -0.80205929138E+01  0.13679415264E+02  0.24533575853E+02  0.10566000000E+00 0. -1.
         22    1    1    0    0    0  0.11847099813E+02 -0.44441563683E+02 -0.75265149859E+00  0.45999704791E+02  0.00000000000E+00 0.  1.
</event>
<event>
 5    1  0.1245581E-004  0.9118800E+02  0.7818608E-02  0.1130116E+00
         25   -1    0    0    0    0  0.00000000000E+00  0.00000000000E+00  0.99999998245E-14  0.12500000000E+03  0.12500000000E+03 0.  0.
        -13    1    3    3    0    0 -0.61357583332E+01 -0.47001488366E+02 -0.14911938782E+02  0.49690688476E+02  0.10566000000E+00 0. -1.
         23    2    1    0    0    0  0.97632555672E+01 -0.22050749496E+02  0.18710800313E+02  0.94477045343E+02  0.89410633237E+02 0.  0.
         13    1    3    3    0    0  0.15899013900E+02  0.24950738869E+02  0.33622739096E+02  0.44786356867E+02  0.10566000000E+00 0.  1.
         22    1    1    0    0    0 -0.97632555672E+01  0.22050749496E+02 -0.18710800313E+02  0.30522954657E+02  0.00000000000E+00 0. -1.
</event>
<event>
 5    1  0.1245581E-004  0.9118800E+02  0.7818608E-02  0.1130116E+00
         25   -1    0    0    0    0  0.00000000000E+00  0.00000000000E+00  0.99999998245E-14  0.12500000000E+03  0.12500000000E+03 0.  0.
        -13    1    3    3    0    0  0.40536913472E+02 -0.18510722754E+02  0.28250027013E+02  0.52763277012E+02  0.10566000000E+00 0.  1.
         23    2    1    0    0    0  0.27120402670E+01 -0.62990322090E+01  0.31612012556E+02  0.92652630601E+02  0.86822564177E+02 0.  0.
         13    1    3    3    0    0 -0.37824873205E+02  0.12211690545E+02  0.33619855433E+01  0.39889353589E+02  0.10566000000E+00 0. -1.
         22    1    1    0    0    0 -0.27120402670E+01  0.62990322090E+01 -0.31612012556E+02  0.32347369399E+02  0.00000000000E+00 0.  1.
</event>
<event>
 5    1  0.1245581E-004  0.9118800E+02  0.7818608E-02  0.1130116E+00
         25   -1    0    0    0    0  0.00000000000E+00  0.00000000000E+00  0.99999998245E-14  0.12500000000E+03  0.12500000000E+03 0.  0.
        -13    1    3    3    0    0 -0.95565946972E+01  0.39534603584E+02  0.46912018163E+02  0.62089145548E+02  0.10566000000E+00 0.  1.
         23    2    1    0    0    0 -0.44787822494E+01  0.22710087369E+02  0.19094252562E+02  0.94993366739E+02  0.90129582740E+02 0.  0.
         13    1    3    3    0    0  0.50778124478E+01 -0.16824516216E+02 -0.27817765601E+02  0.32904221191E+02  0.10566000000E+00 0. -1.
         22    1    1    0    0    0  0.44787822494E+01 -0.22710087369E+02 -0.19094252562E+02  0.30006633261E+02  0.00000000000E+00 0.  1.
</event>
<event>
 5    1  0.1245581E-004  0.9118800E+02  0.7818608E-02  0.1130116E+00
         25   -1    0    0    0    0  0.00000000000E+00  0.00000000000E+00  0.99999998245E-14  0.12500000000E+03  0.12500000000E+03 0.  0.
        -13    1    3    3    0    0  0.28036475213E+02 -0.13284441023E+02 -0.16869658797E+02  0.35314541872E+02  0.10566000000E+00 0.  1.
         23    2    1    0    0    0 -0.14868975502E+02  0.25016054233E+02  0.19616466859E+01  0.95832595940E+02  0.91286083194E+02 0.  0.
         13    1    3    3    0    0 -0.42905450715E+02  0.38300495257E+02  0.18831305483E+02  0.60518054068E+02  0.10566000000E+00 0. -1.
         22    1    1    0    0    0  0.14868975502E+02 -0.25016054233E+02 -0.19616466859E+01  0.29167404060E+02  0.00000000000E+00 0. -1.
</event>
<event>
 5    1  0.1245581E-004  0.9118800E+02  0.7818608E-02  0.1130116E+00
         25   -1    0    0    0    0  0.00000000000E+00  0.00000000000E+00  0.99999998245E-14  0.12500000000E+03  0.12500000000E+03 0.  0.
        -13    1    3    3    0    0  0.38348279666E+01 -0.21928621729E+02 -0.56163897659E+02  0.60414939550E+02  0.10566000000E+00 0.  1.
         23    2    1    0    0    0  0.86073126957E+01 -0.12218158964E+01 -0.27905625364E+02  0.95771544808E+02  0.91202446251E+02 0.  0.
         13    1    3    3    0    0  0.47724847291E+01  0.20706805832E+02  0.28258272295E+02  0.35356605259E+02  0.10566000000E+00 0. -1.
         22    1    1    0    0    0 -0.86073126957E+01  0.12218158964E+01  0.27905625364E+02  0.29228455192E+02  0.00000000000E+00 0.  1.
</event>
<event>
 5    1  0.1245581E-004  0.9118800E+02  0.7818608E-02  0.1130116E+00
         25   -1    0    0    0    0  0.00000000000E+00  0.00000000000E+00  0.99999998245E-14  0.12500000000E+03  0.12500000000E+03 0.  0.
        -13    1    3    3    0    0 -0.22207579674E+02 -0.17160575390E+02  0.22091521212E+02  0.35717060576E+02  0.10566000000E+00 0. -1.
         23    2    1    0    0    0  0.60402474040E+01  0.27390745242E+02 -0.71809044191E+01  0.96046539035E+02  0.91578571504E+02 0.  0.
         13    1    3    3    0    0  0.28247827078E+02  0.44551320632E+02 -0.29272425631E+02  0.60329478458E+02  0.10566000000E+00 0.  1.
         22    1    1    0    0    0 -0.60402474040E+01 -0.27390745242E+02  0.71809044191E+01  0.28953460965E+02  0.00000000000E+00 0.  1.
</event>
<event>
 5    1  0.1245581E-004  0.9118800E+02  0.7818608E-02  0.1130116E+00
         25   -1    0    0    0    0  0.00000000000E+00  0.00000000000E+00  0.99999998245E-14  0.12500000000E+03  0.12500000000E+03 0.  0.
        -13    1    3    3    0    0  0.53481692866E+02  0.13547650534E+02  0.16684419852E+02  0.57638627123E+02  0.10566000000E+00 0.  1.
         23    2    1    0    0    0  0.22825513363E+02 -0.94830324621E+01  0.15142908801E+02  0.96013112414E+02  0.91532934529E+02 0.  0.
         13    1    3    3    0    0 -0.30656179503E+02 -0.23030682996E+02 -0.15415110508E+01  0.38374485291E+02  0.10566000000E+00 0. -1.
         22    1    1    0    0    0 -0.22825513363E+02  0.94830324621E+01 -0.15142908801E+02  0.28986887586E+02  0.00000000000E+00 0.  1.
</event>
<event>
 5    1  0.1245581E-004  0.9118800E+02  0.7818608E-02  0.1130116E+00
         25   -1    0    0    0    0  0.00000000000E+00  0.00000000000E+00  0.99999998245E-14  0.12500000000E+03  0.12500000000E+03 0.  0.
        -13    1    3    3    0    0 -0.18392841357E+02  0.42403596731E+02  0.30187150775E+01  0.46319385074E+02  0.10566000000E+00 0. -1.
         23    2    1    0    0    0 -0.12772559174E+02 -0.10171834461E+01 -0.24018291678E+02  0.97777743203E+02  0.93911851226E+02 0.  0.
         13    1    3    3    0    0  0.56202821825E+01 -0.43420780177E+02 -0.27037006755E+02  0.51458358129E+02  0.10566000000E+00 0.  1.
         22    1    1    0    0    0  0.12772559174E+02  0.10171834461E+01  0.24018291678E+02  0.27222256797E+02  0.00000000000E+00 0.  1.
</event>
<event>
 5    1  0.1245581E-004  0.9118800E+02  0.7818608E-02  0.1130116E+00
         25   -1    0    0    0    0  0.00000000000E+00  0.00000000000E+00  0.99999998245E-14  0.12500000000E+03  0.12500000000E+03 0.  0.
        -13    1    3    3    0    0  0.32720430025E+02  0.37817281242E+02  0.37294350363E+02  0.62383114981E+02  0.10566000000E+00 0.  1.
         23    2    1    0    0    0  0.18029701229E+02  0.17494334355E+02  0.16689444647E+02  0.94839439270E+02  0.89915848534E+02 0.  0.
         13    1    3    3    0    0 -0.14690728797E+02 -0.20322946887E+02 -0.20604905717E+02  0.32456324290E+02  0.10566000000E+00 0. -1.
         22    1    1    0    0    0 -0.18029701229E+02 -0.17494334355E+02 -0.16689444647E+02  0.30160560730E+02  0.00000000000E+00 0.  1.
</event>
<event>
 5    1  0.1245581E-004  0.9118800E+02  0.7818608E-02  0.1130116E+00
         25   -1    0    0    0    0  0.00000000000E+00  0.00000000000E+00  0.99999998245E-14  0.12500000000E+03  0.12500000000E+03 0.  0.
        -13    1    3    3    0    0 -0.46179704868E+02  0.12460599436E+01  0.57497861538E+00  0.46200211813E+02  0.10566000000E+00 0. -1.
         23    2    1    0    0    0 -0.54736677015E+01 -0.10068817996E+01  0.28723556558E+02  0.95742222395E+02  0.91162248759E+02 0.  0.
         13    1    3    3    0    0  0.40706037167E+02 -0.22529417432E+01  0.28148577942E+02  0.49542010582E+02  0.10566000000E+00 0.  1.
         22    1    1    0    0    0  0.54736677015E+01  0.10068817996E+01 -0.28723556558E+02  0.29257777605E+02  0.00000000000E+00 0.  1.
</event>
<event>
 5    1  0.1245581E-004  0.9118800E+02  0.7818608E-02  0.1130116E+00
         25   -1    0    0    0    0  0.00000000000E+00  0.00000000000E+00  0.99999998245E-14  0.12500000000E+03  0.12500000000E+03 0.  0.
        -13    1    3    3    0    0 -0.36547377079E+02 -0.21379256450E+02 -0.19675745552E+02  0.46689715193E+02  0.10566000000E+00 0. -1.
         23    2    1    0    0    0  0.14500068103E+02  0.14899606292E+01  0.71941754161E+01  0.10874490487E+03  0.10752314271E+03 0.  0.
         13    1    3    3    0    0  0.51047445182E+02  0.22869217079E+02  0.26869920968E+02  0.62055189681E+02  0.10566000000E+00 0.  1.
         22    1    1    0    0    0 -0.14500068103E+02 -0.14899606292E+01 -0.71941754161E+01  0.16255095127E+02  0.00000000000E+00 0.  1.
</event>
<event>
 5    1  0.1245581E-004  0.9118800E+02  0.7818608E-02  0.1130116E+00
         25   -1    0    0    0    0  0.00000000000E+00  0.00000000000E+00  0.99999998245E-14  0.12500000000E+03  0.12500000000E+03 0.  0.
        -13    1    3    3    0    0 -0.37214350570E+02 -0.38594896419E+02 -0.95728545298E+01  0.54462139380E+02  0.10566000000E+00 0. -1.
         23    2    1    0    0    0 -0.92642398525E+01  0.91564715223E+00 -0.19066815862E+02  0.10378189413E+03  0.10158973143E+03 0.  0.
         13    1    3    3    0    0  0.27950110718E+02  0.39510543571E+02 -0.94939613318E+01  0.49319754747E+02  0.10566000000E+00 0.  1.
         22    1    1    0    0    0  0.92642398525E+01 -0.91564715223E+00  0.19066815862E+02  0.21218105873E+02  0.00000000000E+00 0. -1.
</event>
<event>
 5    1  0.1245581E-004  0.9118800E+02  0.7818608E-02  0.1130116E+00
         25   -1    0    0    0    0  0.00000000000E+00  0.00000000000E+00  0.99999998245E-14  0.12500000000E+03  0.12500000000E+03 0.  0.
        -13    1    3    3    0    0 -0.19233864651E+02 -0.34268572969E+02  0.14158521816E+02  0.41770223207E+02  0.10566000000E+00 0. -1.
         23    2    1    0    0    0  0.48197152917E+01  0.12529032785E+02  0.26031821006E+02  0.95710718293E+02  0.91119040673E+02 0.  0.
         13    1    3    3    0    0  0.24053579942E+02  0.46797605754E+02  0.11873299190E+02  0.53940495085E+02  0.10566000000E+00 0.  1.
         22    1    1    0    0    0 -0.48197152917E+01 -0.12529032785E+02 -0.26031821006E+02  0.29289281707E+02  0.00000000000E+00 0.  1.
</event>
<event>
 5    1  0.1245581E-004  0.9118800E+02  0.7818608E-02  0.1130116E+00
         25   -1    0    0    0    0  0.00000000000E+00  0.00000000000E+00  0.99999998245E-14  0.12500000000E+03  0.12500000000E+03 0.  0.
        -13    1    3    3    0    0  0.39426635693E+02  0.44841096933E+02  0.14085736773E+02  0.61348208781E+02  0.10566000000E+00 0.  1.
         23    2    1    0    0    0  0.12448229238E+02  0.26628069964E+02  0.46396205201E+01  0.95241999399E+02  0.90473752270E+02 0.  0.
         13    1    3    3    0    0 -0.26978406454E+02 -0.18213026969E+02 -0.94461162528E+01  0.33893790618E+02  0.10566000000E+00 0. -1.
         22    1    1    0    0    0 -0.12448229238E+02 -0.26628069964E+02 -0.46396205201E+01  0.29758000601E+02  0.00000000000E+00 0.  1.
</event>
<event>
 5    1  0.1245581E-004  0.9118800E+02  0.7818608E-02  0.1130116E+00
         25   -1    0    0    0    0  0.00000000000E+00  0.00000000000E+00  0.99999998245E-14  0.12500000000E+03  0.12500000000E+03 0.  0.
        -13    1    3    3    0    0 -0.88360775763E+01 -0.41617578502E+02 -0.93093928652E+01  0.43551981205E+02  0.10566000000E+00 0.  1.
         23    2    1    0    0    0  0.15681890330E+02 -0.20098341268E+02  0.23865776690E+02  0.90079514564E+02  0.83035405949E+02 0.  0.
         13    1    3    3    0    0  0.24517967906E+02  0.21519237235E+02  0.33175169556E+02  0.46527533359E+02  0.10566000000E+00 0. -1.
         22    1    1    0    0    0 -0.15681890330E+02  0.20098341268E+02 -0.23865776690E+02  0.34920485436E+02  0.00000000000E+00 0.  1.
</event>
<event>
 5    1  0.1245581E-004  0.9118800E+02  0.7818608E-02  0.1130116E+00
         25   -1    0    0    0    0  0.00000000000E+00  0.00000000000E+00  0.99999998245E-14  0.12500000000E+03  0.12500000000E+03 0.  0.
        -13    1    3    3    0    0  0.15407264498E+02 -0.38796898832E+02  0.46315287512E+02  0.62351424840E+02  0.10566000000E+00 0.  1.
         23    2    1    0    0    0  0.77477490264E+01 -0.14875264063E+02  0.14973129114E+02  0.10251676866E+03  0.10002095863E+03 0.  0.
         13    1    3    3    0    0 -0.76595154715E+01  0.23921634769E+02 -0.31342158397E+02  0.40165343822E+02  0.10566000000E+00 0. -1.
         22    1    1    0    0    0 -0.77477490264E+01  0.14875264063E+02 -0.14973129114E+02  0.22483231338E+02  0.00000000000E+00 0.  1.
</event>
<event>
 5    1  0.1245581E-004  0.9118800E+02  0.7818608E-02  0.1130116E+00
         25   -1    0    0    0    0  0.00000000000E+00  0.00000000000E+00  0.99999998245E-14  0.12500000000E+03  0.12500000000E+03 0.  0.
        -13    1    3    3    0    0 -0.35967638222E+02 -0.14858833017E+02  0.15984711512E+02  0.42071107473E+02  0.10566000000E+00 0.  1.
         23    2    1    0    0    0 -0.94927796553E+01  0.56500167540E+01 -0.26571073396E+02  0.96224011810E+02  0.91820493097E+02 0.  0.
         13    1    3    3    0    0  0.26474858566E+02  0.20508849771E+02 -0.42555784907E+02  0.54152904337E+02  0.10566000000E+00 0. -1.
         22    1    1    0    0    0  0.94927796553E+01 -0.56500167540E+01  0.26571073396E+02  0.28775988190E+02  0.00000000000E+00 0.  1.
</event>
<event>
 5    1  0.1245581E-004  0.9118800E+02  0.7818608E-02  0.1130116E+00
         25   -1    0    0    0    0  0.00000000000E+00  0.00000000000E+00  0.99999998245E-14  0.12500000000E+03  0.12500000000E+03 0.  0.
        -13    1    3    3    0    0 -0.33346191899E+02  0.46284256240E+02 -0.18133383290E+02  0.59858430011E+02  0.10566000000E+00 0.  1.
         23    2    1    0    0    0 -0.16621543153E+02  0.27619477030E+02  0.29784450216E+01  0.92627444603E+02  0.86786295869E+02 0.  0.
         13    1    3    3    0    0  0.16724648746E+02 -0.18664779209E+02  0.21111828311E+02  0.32769014591E+02  0.10566000000E+00 0. -1.
         22    1    1    0    0    0  0.16621543153E+02 -0.27619477030E+02 -0.29784450216E+01  0.32372555397E+02  0.00000000000E+00 0.  1.
</event>
<event>
 5    1  0.1245581E-004  0.9118800E+02  0.7818608E-02  0.1130116E+00
         25   -1    0    0    0    0  0.00000000000E+00  0.00000000000E+00  0.99999998245E-14  0.12500000000E+03  0.12500000000E+03 0.  0.
        -13    1    3    3    0    0  0.29670363319E+02 -0.17805679409E+02 -0.44013769726E+02  0.55987460813E+02  0.10566000000E+00 0. -1.
         23    2    1    0    0    0 -0.11161717004E+01 -0.21973146973E+02 -0.20199937335E+02  0.95131915102E+02  0.90321529967E+02 0.  0.
         13    1    3    3    0    0 -0.30786535020E+02 -0.41674675633E+01  0.23813832391E+02  0.39144454289E+02  0.10566000000E+00 0.  1.
         22    1    1    0    0    0  0.11161717004E+01  0.21973146973E+02  0.20199937335E+02  0.29868084898E+02  0.00000000000E+00 0. -1.
</event>
<event>
 5    1  0.1245581E-004  0.9118800E+02  0.7818608E-02  0.1130116E+00
         25   -1    0    0    0    0  0.00000000000E+00  0.00000000000E+00  0.99999998245E-14  0.12500000000E+03  0.12500000000E+03 0.  0.
        -13    1    3    3    0    0 -0.40921273946E+02 -0.39703662163E+02 -0.81288196474E+01  0.57593578838E+02  0.10566000000E+00 0.  1.
         23    2    1    0    0    0 -0.21907168263E+02 -0.15603849322E+02  0.13264858828E+02  0.95010658315E+02  0.90153561098E+02 0.  0.
         13    1    3    3    0    0  0.19014105682E+02  0.24099812841E+02  0.21393678475E+02  0.37417079477E+02  0.10566000000E+00 0. -1.
         22    1    1    0    0    0  0.21907168263E+02  0.15603849322E+02 -0.13264858828E+02  0.29989341685E+02  0.00000000000E+00 0.  1.
</event>
<event>
 5    1  0.1245581E-004  0.9118800E+02  0.7818608E-02  0.1130116E+00
         25   -1    0    0    0    0  0.00000000000E+00  0.00000000000E+00  0.99999998245E-14  0.12500000000E+03  0.12500000000E+03 0.  0.
        -13    1    3    3    0    0  0.86910289468E+01 -0.41077247702E+02  0.17597783315E+02  0.45525458862E+02  0.10566000000E+00 0.  1.
         23    2    1    0    0    0 -0.24850292772E+02 -0.16026939373E+02 -0.77061557699E+01  0.94442109476E+02  0.89361778009E+02 0.  0.
         13    1    3    3    0    0 -0.33541321719E+02  0.25050308329E+02 -0.25303939085E+02  0.48916650614E+02  0.10566000000E+00 0. -1.
         22    1    1    0    0    0  0.24850292772E+02  0.16026939373E+02  0.77061557699E+01  0.30557890524E+02  0.00000000000E+00 0. -1.
</event>
<event>
 5    1  0.1245581E-004  0.9118800E+02  0.7818608E-02  0.1130116E+00
         25   -1    0    0    0    0  0.00000000000E+00  0.00000000000E+00  0.99999998245E-14  0.12500000000E+03  0.12500000000E+03 0.  0.
        -13    1    3    3    0    0 -0.97614911511E+01  0.21195059395E+02 -0.33049859521E+02  0.40457652313E+02  0.10566000000E+00 0.  1.
         23    2    1    0    0    0 -0.25159361341E+02 -0.50442711361E+01  0.13451991036E+02  0.96027699483E+02  0.91552852882E+02 0.  0.
         13    1    3    3    0    0 -0.15397870190E+02 -0.26239330532E+02  0.46501850558E+02  0.55570047170E+02  0.10566000000E+00 0. -1.
         22    1    1    0    0    0  0.25159361341E+02  0.50442711361E+01 -0.13451991036E+02  0.28972300517E+02  0.00000000000E+00 0. -1.
</event>
<event>
 5    1  0.1245581E-004  0.9118800E+02  0.7818608E-02  0.1130116E+00
         25   -1    0    0    0    0  0.00000000000E+00  0.00000000000E+00  0.99999998245E-14  0.12500000000E+03  0.12500000000E+03 0.  0.
        -13    1    3    3    0    0  0.31519782156E+02  0.27959967468E+02 -0.36617421794E+01  0.42292741313E+02  0.10566000000E+00 0. -1.
         23    2    1    0    0    0 -0.18961940362E+02  0.21926561765E+02  0.89250432114E+01  0.94668734127E+02  0.89678222171E+02 0.  0.
         13    1    3    3    0    0 -0.50481722518E+02 -0.60334057027E+01  0.12586785391E+02  0.52375992814E+02  0.10566000000E+00 0.  1.
         22    1    1    0    0    0  0.18961940362E+02 -0.21926561765E+02 -0.89250432114E+01  0.30331265873E+02  0.00000000000E+00 0.  1.
</event>
<event>
 5    1  0.1245581E-004  0.9118800E+02  0.7818608E-02  0.1130116E+00
         25   -1    0    0    0    0  0.00000000000E+00  0.00000000000E+00  0.99999998245E-14  0.12500000000E+03  0.12500000000E+03 0.  0.
        -13    1    3    3    0    0 -0.25987881067E+02  0.38080164247E+01 -0.27004500801E+02  0.37671277905E+02  0.10566000000E+00 0.  1.
         23    2    1    0    0    0  0.27045815490E+02 -0.83940072468E+01 -0.56924906493E+01  0.96115056812E+02  0.91672047011E+02 0.  0.
         13    1    3    3    0    0  0.53033696557E+02 -0.12202023671E+02  0.21312010152E+02  0.58443778907E+02  0.10566000000E+00 0. -1.
         22    1    1    0    0    0 -0.27045815490E+02  0.83940072468E+01  0.56924906493E+01  0.28884943188E+02  0.00000000000E+00 0. -1.
</event>
<event>
 5    1  0.1245581E-004  0.9118800E+02  0.7818608E-02  0.1130116E+00
         25   -1    0    0    0    0  0.00000000000E+00  0.00000000000E+00  0.99999998245E-14  0.12500000000E+03  0.12500000000E+03 0.  0.
        -13    1    3    3    0    0  0.53941224182E+01  0.22499076391E+02 -0.51083252977E+02  0.56078649180E+02  0.10566000000E+00 0. -1.
         23    2    1    0    0    0 -0.42105549385E+01  0.27431682035E+02 -0.15611377459E+02  0.93157558851E+02  0.87546500288E+02 0.  0.
         13    1    3    3    0    0 -0.96046773566E+01  0.49326056434E+01  0.35471875518E+02  0.37078909670E+02  0.10566000000E+00 0.  1.
         22    1    1    0    0    0  0.42105549385E+01 -0.27431682035E+02  0.15611377459E+02  0.31842441149E+02  0.00000000000E+00 0. -1.
</event>
<event>
 5    1  0.1245581E-004  0.9118800E+02  0.7818608E-02  0.1130116E+00
         25   -1    0    0    0    0  0.00000000000E+00  0.00000000000E+00  0.99999998245E-14  0.12500000000E+03  0.12500000000E+03 0.  0.
        -13    1    3    3    0    0  0.11907931823E+02  0.47281463745E+02 -0.33655719568E+02  0.59245711050E+02  0.10566000000E+00 0.  1.
         23    2    1    0    0    0 -0.29558664742E+01  0.19208791707E+02 -0.27052860177E+02  0.91689760295E+02  0.85425055304E+02 0.  0.
         13    1    3    3    0    0 -0.14863798297E+02 -0.28072672038E+02  0.66028593909E+01  0.32444049244E+02  0.10566000000E+00 0. -1.
         22    1    1    0    0    0  0.29558664742E+01 -0.19208791707E+02  0.27052860177E+02  0.33310239705E+02  0.00000000000E+00 0.  1.
</event>
<event>
 5    1  0.1245581E-004  0.9118800E+02  0.7818608E-02  0.1130116E+00
         25   -1    0    0    0    0  0.00000000000E+00  0.00000000000E+00  0.99999998245E-14  0.12500000000E+03  0.12500000000E+03 0.  0.
        -13    1    3    3    0    0 -0.16884275562E+02  0.39698942451E+02  0.44019664015E+02  0.61634623200E+02  0.10566000000E+00 0.  1.
         23    2    1    0    0    0 -0.10754554364E+02  0.13205422338E+02  0.24722017759E+02  0.94979643893E+02  0.90110548624E+02 0.  0.
         13    1    3    3    0    0  0.61297211977E+01 -0.26493520114E+02 -0.19297646256E+02  0.33345020693E+02  0.10566000000E+00 0. -1.
         22    1    1    0    0    0  0.10754554364E+02 -0.13205422338E+02 -0.24722017759E+02  0.30020356107E+02  0.00000000000E+00 0.  1.
</event>
<event>
 5    1  0.1245581E-004  0.9118800E+02  0.7818608E-02  0.1130116E+00
         25   -1    0    0    0    0  0.00000000000E+00  0.00000000000E+00  0.99999998245E-14  0.12500000000E+03  0.12500000000E+03 0.  0.
        -13    1    3    3    0    0 -0.32475329422E+02  0.20892831320E+02  0.46358958234E+02  0.60335077643E+02  0.10566000000E+00 0.  1.
         23    2    1    0    0    0 -0.51754689299E+01  0.15684528337E+02  0.23254689069E+02  0.96476843241E+02  0.92164042936E+02 0.  0.
         13    1    3    3    0    0  0.27299860492E+02 -0.52083029837E+01 -0.23104269165E+02  0.36141765598E+02  0.10566000000E+00 0. -1.
         22    1    1    0    0    0  0.51754689299E+01 -0.15684528337E+02 -0.23254689069E+02  0.28523156759E+02  0.00000000000E+00 0.  1.
</event>
<event>
 5    1  0.1245581E-004  0.9118800E+02  0.7818608E-02  0.1130116E+00
         25   -1    0    0    0    0  0.00000000000E+00  0.00000000000E+00  0.99999998245E-14  0.12500000000E+03  0.12500000000E+03 0.  0.
        -13    1    3    3    0    0 -0.70646101494E+01 -0.32959676393E+02 -0.12381659501E+02  0.35910522699E+02  0.10566000000E+00 0. -1.
         23    2    1    0    0    0 -0.15250435258E+02  0.22471771003E+02  0.97347102508E+01  0.96150028574E+02  0.91719720582E+02 0.  0.
         13    1    3    3    0    0 -0.81858251089E+01  0.55431447396E+02  0.22116369752E+02  0.60239505876E+02  0.10566000000E+00 0.  1.
         22    1    1    0    0    0  0.15250435258E+02 -0.22471771003E+02 -0.97347102508E+01  0.28849971426E+02  0.00000000000E+00 0.  1.
</event>
<event>
 5    1  0.1245581E-004  0.9118800E+02  0.7818608E-02  0.1130116E+00
         25   -1    0    0    0    0  0.00000000000E+00  0.00000000000E+00  0.99999998245E-14  0.12500000000E+03  0.12500000000E+03 0.  0.
        -13    1    3    3    0    0 -0.30113730919E+02  0.54608598628E+01 -0.77846768007E+01  0.31579584184E+02  0.10566000000E+00 0. -1.
         23    2    1    0    0    0  0.27536963849E+02  0.63031562110E+01  0.14320029740E+02  0.93328602684E+02  0.87790379148E+02 0.  0.
         13    1    3    3    0    0  0.57650694768E+02  0.84229634823E+00  0.22104706540E+02  0.61749018499E+02  0.10566000000E+00 0.  1.
         22    1    1    0    0    0 -0.27536963849E+02 -0.63031562110E+01 -0.14320029740E+02  0.31671397316E+02  0.00000000000E+00 0.  1.
</event>
<event>
 5    1  0.1245581E-004  0.9118800E+02  0.7818608E-02  0.1130116E+00
         25   -1    0    0    0    0  0.00000000000E+00  0.00000000000E+00  0.99999998245E-14  0.12500000000E+03  0.12500000000E+03 0.  0.
        -13    1    3    3    0    0 -0.47112196618E+02 -0.17489696889E+02 -0.81977206235E+01  0.50918192769E+02  0.10566000000E+00 0.  1.
         23    2    1    0    0    0 -0.16859219160E+02  0.10319872199E+02 -0.23070185737E+02  0.94619636229E+02  0.89609759833E+02 0.  0.
         13    1    3    3    0    0  0.30252977458E+02  0.27809569088E+02 -0.14872465114E+02  0.43701443460E+02  0.10566000000E+00 0. -1.
         22    1    1    0    0    0  0.16859219160E+02 -0.10319872199E+02  0.23070185737E+02  0.30380363771E+02  0.00000000000E+00 0. -1.
</event>
<event>
 5    1  0.1245581E-004  0.9118800E+02  0.7818608E-02  0.1130116E+00
         25   -1    0    0    0    0  0.00000000000E+00  0.00000000000E+00  0.99999998245E-14  0.12500000000E+03  0.12500000000E+03 0.  0.
        -13    1    3    3    0    0 -0.36026240260E+01  0.89106970721E+01  0.39947378233E+02  0.41087511654E+02  0.10566000000E+00 0.  1.
         23    2    1    0    0    0 -0.57719802932E+01 -0.27370552165E+02 -0.24365028309E+01  0.96921548683E+02  0.92765226085E+02 0.  0.
         13    1    3    3    0    0 -0.21693562672E+01 -0.36281249237E+02 -0.42383881064E+02  0.55834037029E+02  0.10566000000E+00 0. -1.
         22    1    1    0    0    0  0.57719802932E+01  0.27370552165E+02  0.24365028309E+01  0.28078451317E+02  0.00000000000E+00 0.  1.
</event>
<event>
 5    1  0.1245581E-004  0.9118800E+02  0.7818608E-02  0.1130116E+00
         25   -1    0    0    0    0  0.00000000000E+00  0.00000000000E+00  0.99999998245E-14  0.12500000000E+03  0.12500000000E+03 0.  0.
        -13    1    3    3    0    0 -0.28999875506E+02  0.33764103645E+02 -0.23336683052E+02  0.50255541130E+02  0.10566000000E+00 0.  1.
         23    2    1    0    0    0 -0.24182984769E+01  0.26760424141E+02  0.12454164922E+02  0.95384553158E+02  0.90670492938E+02 0.  0.
         13    1    3    3    0    0  0.26581577029E+02 -0.70036795046E+01  0.35790847974E+02  0.45129012029E+02  0.10566000000E+00 0. -1.
         22    1    1    0    0    0  0.24182984769E+01 -0.26760424141E+02 -0.12454164922E+02  0.29615446842E+02  0.00000000000E+00 0.  1.
</event>
<event>
 5    1  0.1245581E-004  0.9118800E+02  0.7818608E-02  0.1130116E+00
         25   -1    0    0    0    0  0.00000000000E+00  0.00000000000E+00  0.99999998245E-14  0.12500000000E+03  0.12500000000E+03 0.  0.
        -13    1    3    3    0    0 -0.10504597917E+02  0.36096166549E+02 -0.74259214609E+01  0.38320168195E+02  0.10566000000E+00 0.  1.
         23    2    1    0    0    0 -0.18938910369E+02 -0.19932618121E+02  0.66696624286E+01  0.96707315644E+02  0.92476099134E+02 0.  0.
         13    1    3    3    0    0 -0.84343124523E+01 -0.56028784669E+02  0.14095583890E+02  0.58387147450E+02  0.10566000000E+00 0. -1.
         22    1    1    0    0    0  0.18938910369E+02  0.19932618121E+02 -0.66696624286E+01  0.28292684356E+02  0.00000000000E+00 0. -1.
</event>
<event>
 5    1  0.1245581E-004  0.9118800E+02  0.7818608E-02  0.1130116E+00
         25   -1    0    0    0    0  0.00000000000E+00  0.00000000000E+00  0.99999998245E-14  0.12500000000E+03  0.12500000000E+03 0.  0.
        -13    1    3    3    0    0  0.86604910031E+01  0.45607241166E+00  0.34549254920E+02  0.35621261713E+02  0.10566000000E+00 0. -1.
         23    2    1    0    0    0  0.57912932099E+01  0.16983748412E+02 -0.23150162917E+02  0.95709782687E+02  0.91117757170E+02 0.  0.
         13    1    3    3    0    0 -0.28691977932E+01  0.16527676000E+02 -0.57699417837E+02  0.60088520973E+02  0.10566000000E+00 0.  1.
         22    1    1    0    0    0 -0.57912932099E+01 -0.16983748412E+02  0.23150162917E+02  0.29290217313E+02  0.00000000000E+00 0.  1.
</event>
<event>
 5    1  0.1245581E-004  0.9118800E+02  0.7818608E-02  0.1130116E+00
         25   -1    0    0    0    0  0.00000000000E+00  0.00000000000E+00  0.99999998245E-14  0.12500000000E+03  0.12500000000E+03 0.  0.
        -13    1    3    3    0    0  0.17687344375E+02  0.37881142678E+02  0.14124161345E+02  0.44128519343E+02  0.10566000000E+00 0. -1.
         23    2    1    0    0    0  0.48031979941E+01  0.43522507953E+01 -0.26129777384E+02  0.98078297526E+02  0.94311051217E+02 0.  0.
         13    1    3    3    0    0 -0.12884146381E+02 -0.33528891883E+02 -0.40253938729E+02  0.53949778184E+02  0.10566000000E+00 0.  1.
         22    1    1    0    0    0 -0.48031979941E+01 -0.43522507953E+01  0.26129777384E+02  0.26921702474E+02  0.00000000000E+00 0.  1.
</event>
<event>
 5    1  0.1245581E-004  0.9118800E+02  0.7818608E-02  0.1130116E+00
         25   -1    0    0    0    0  0.00000000000E+00  0.00000000000E+00  0.99999998245E-14  0.12500000000E+03  0.12500000000E+03 0.  0.
        -13    1    3    3    0    0 -0.10893278206E+02  0.10605324337E-01  0.33793279045E+02  0.35505781151E+02  0.10566000000E+00 0. -1.
         23    2    1    0    0    0 -0.14721249376E+02 -0.60702862427E+00 -0.25834380658E+02  0.95259473930E+02  0.90497892143E+02 0.  0.
         13    1    3    3    0    0 -0.38279711706E+01 -0.61763394861E+00 -0.59627659703E+02  0.59753692778E+02  0.10566000000E+00 0.  1.
         22    1    1    0    0    0  0.14721249376E+02  0.60702862427E+00  0.25834380658E+02  0.29740526070E+02  0.00000000000E+00 0.  1.
</event>
<event>
 5    1  0.1245581E-004  0.9118800E+02  0.7818608E-02  0.1130116E+00
         25   -1    0    0    0    0  0.00000000000E+00  0.00000000000E+00  0.99999998245E-14  0.12500000000E+03  0.12500000000E+03 0.  0.
        -13    1    3    3    0    0  0.32177824078E+02  0.64180531997E+01  0.19614980880E+01  0.32870388012E+02  0.10566000000E+00 0.  1.
         23    2    1    0    0    0 -0.24117157398E+02 -0.18287851939E+02 -0.31999208358E+01  0.94564456587E+02  0.89532754603E+02 0.  0.
         13    1    3    3    0    0 -0.56294981475E+02 -0.24705905139E+02 -0.51614189239E+01  0.61694068575E+02  0.10566000000E+00 0. -1.
         22    1    1    0    0    0  0.24117157398E+02  0.18287851939E+02  0.31999208358E+01  0.30435543413E+02  0.00000000000E+00 0. -1.
</event>
<event>
 5    1  0.1245581E-004  0.9118800E+02  0.7818608E-02  0.1130116E+00
         25   -1    0    0    0    0  0.00000000000E+00  0.00000000000E+00  0.99999998245E-14  0.12500000000E+03  0.12500000000E+03 0.  0.
        -13    1    3    3    0    0  0.41941119689E+02  0.36303676857E+01  0.23477148835E+02  0.48201916681E+02  0.10566000000E+00 0. -1.
         23    2    1    0    0    0  0.16976954148E+02  0.19478593724E+02 -0.13739356648E+02  0.95735644434E+02  0.91153228733E+02 0.  0.
         13    1    3    3    0    0 -0.24964165541E+02  0.15848226039E+02 -0.37216505483E+02  0.47533727753E+02  0.10566000000E+00 0.  1.
         22    1    1    0    0    0 -0.16976954148E+02 -0.19478593724E+02  0.13739356648E+02  0.29264355566E+02  0.00000000000E+00 0.  1.
</event>
<event>
 5    1  0.1245581E-004  0.9118800E+02  0.7818608E-02  0.1130116E+00
         25   -1    0    0    0    0  0.00000000000E+00  0.00000000000E+00  0.99999998245E-14  0.12500000000E+03  0.12500000000E+03 0.  0.
        -13    1    3    3    0    0  0.46828165082E+02 -0.50848757672E+01  0.67451741311E+01  0.47584047165E+02  0.10566000000E+00 0.  1.
         23    2    1    0    0    0  0.79212657183E+01  0.17414393027E+02  0.22733869614E+02  0.95287437628E+02  0.90536508697E+02 0.  0.
         13    1    3    3    0    0 -0.38906899364E+02  0.22499268794E+02  0.15988695483E+02  0.47703390463E+02  0.10566000000E+00 0. -1.
         22    1    1    0    0    0 -0.79212657183E+01 -0.17414393027E+02 -0.22733869614E+02  0.29712562372E+02  0.00000000000E+00 0.  1.
</event>
<event>
 5    1  0.1245581E-004  0.9118800E+02  0.7818608E-02  0.1130116E+00
         25   -1    0    0    0    0  0.00000000000E+00  0.00000000000E+00  0.99999998245E-14  0.12500000000E+03  0.12500000000E+03 0.  0.
        -13    1    3    3    0    0  0.17141512222E+02  0.31912642593E+02  0.57715127775E+01  0.36682008155E+02  0.10566000000E+00 0.  1.
         23    2    1    0    0    0 -0.28003596769E+02 -0.40082184893E+00 -0.11351298254E+02  0.94780568135E+02  0.89833969264E+02 0.  0.
         13    1    3    3    0    0 -0.45145108991E+02 -0.32313464442E+02 -0.17122811032E+02  0.58098559980E+02  0.10566000000E+00 0. -1.
         22    1    1    0    0    0  0.28003596769E+02  0.40082184893E+00  0.11351298254E+02  0.30219431865E+02  0.00000000000E+00 0. -1.
</event>
<event>
 5    1  0.1245581E-004  0.9118800E+02  0.7818608E-02  0.1130116E+00
         25   -1    0    0    0    0  0.00000000000E+00  0.00000000000E+00  0.99999998245E-14  0.12500000000E+03  0.12500000000E+03 0.  0.
        -13    1    3    3    0    0  0.24041607886E+02  0.32704934064E+02 -0.29354465387E+02  0.50092987773E+02  0.10566000000E+00 0. -1.
         23    2    1    0    0    0  0.25739021647E+02  0.77624169678E+01  0.96623375479E+01  0.96432306369E+02  0.92103618779E+02 0.  0.
         13    1    3    3    0    0  0.16974137608E+01 -0.24942517096E+02  0.39016802935E+02  0.46339318595E+02  0.10566000000E+00 0.  1.
         22    1    1    0    0    0 -0.25739021647E+02 -0.77624169678E+01 -0.96623375479E+01  0.28567693631E+02  0.00000000000E+00 0. -1.
</event>
<event>
 5    1  0.1245581E-004  0.9118800E+02  0.7818608E-02  0.1130116E+00
         25   -1    0    0    0    0  0.00000000000E+00  0.00000000000E+00  0.99999998245E-14  0.12500000000E+03  0.12500000000E+03 0.  0.
        -13    1    3    3    0    0  0.54375304923E+02 -0.26357273402E+02  0.21122340925E+01  0.60463644808E+02  0.10566000000E+00 0. -1.
         23    2    1    0    0    0  0.21521296088E+02 -0.16911221121E+02 -0.86368665077E+01  0.96298936462E+02  0.91922435322E+02 0.  0.
         13    1    3    3    0    0 -0.32854008834E+02  0.94460522810E+01 -0.10749100600E+02  0.35835291654E+02  0.10566000000E+00 0.  1.
         22    1    1    0    0    0 -0.21521296088E+02  0.16911221121E+02  0.86368665077E+01  0.28701063538E+02  0.00000000000E+00 0. -1.
</event>
<event>
 5    1  0.1245581E-004  0.9118800E+02  0.7818608E-02  0.1130116E+00
         25   -1    0    0    0    0  0.00000000000E+00  0.00000000000E+00  0.99999998245E-14  0.12500000000E+03  0.12500000000E+03 0.  0.
        -13    1    3    3    0    0  0.49480453684E+02  0.24212555407E+02  0.13172166439E+01  0.55102716447E+02  0.10566000000E+00 0. -1.
         23    2    1    0    0    0  0.11778090926E+02  0.25334698218E+02 -0.11280349129E+02  0.94870004379E+02  0.89958329768E+02 0.  0.
         13    1    3    3    0    0 -0.37702362758E+02  0.11221428116E+01 -0.12597565773E+02  0.39767287932E+02  0.10566000000E+00 0.  1.
         22    1    1    0    0    0 -0.11778090926E+02 -0.25334698218E+02  0.11280349129E+02  0.30129995621E+02  0.00000000000E+00 0. -1.
</event>
<event>
 5    1  0.1245581E-004  0.9118800E+02  0.7818608E-02  0.1130116E+00
         25   -1    0    0    0    0  0.00000000000E+00  0.00000000000E+00  0.99999998245E-14  0.12500000000E+03  0.12500000000E+03 0.  0.
        -13    1    3    3    0    0  0.18677842195E+02  0.22550213325E+02  0.17364845662E+02  0.34042957259E+02  0.10566000000E+00 0.  1.
         23    2    1    0    0    0 -0.23663882767E+02 -0.17815766067E+02 -0.10140488814E+01  0.95362031728E+02  0.90639439164E+02 0.  0.
         13    1    3    3    0    0 -0.42341724962E+02 -0.40365979392E+02 -0.18378894543E+02  0.61319074469E+02  0.10566000000E+00 0. -1.
         22    1    1    0    0    0  0.23663882767E+02  0.17815766067E+02  0.10140488814E+01  0.29637968272E+02  0.00000000000E+00 0. -1.
</event>
<event>
 5    1  0.1245581E-004  0.9118800E+02  0.7818608E-02  0.1130116E+00
         25   -1    0    0    0    0  0.00000000000E+00  0.00000000000E+00  0.99999998245E-14  0.12500000000E+03  0.12500000000E+03 0.  0.
        -13    1    3    3    0    0 -0.17614678914E+02 -0.27737823367E+02 -0.13340020552E+02  0.35463094489E+02  0.10566000000E+00 0. -1.
         23    2    1    0    0    0  0.38911163951E+01  0.28095934471E+02 -0.63915403127E+00  0.96628696919E+02  0.92369769026E+02 0.  0.
         13    1    3    3    0    0  0.21505795309E+02  0.55833757838E+02  0.12700866521E+02  0.61165602430E+02  0.10566000000E+00 0.  1.
         22    1    1    0    0    0 -0.38911163951E+01 -0.28095934471E+02  0.63915403127E+00  0.28371303081E+02  0.00000000000E+00 0.  1.
</event>
<event>
 5    1  0.1245581E-004  0.9118800E+02  0.7818608E-02  0.1130116E+00
         25   -1    0    0    0    0  0.00000000000E+00  0.00000000000E+00  0.99999998245E-14  0.12500000000E+03  0.12500000000E+03 0.  0.
        -13    1    3    3    0    0  0.53376768800E+02 -0.40489399606E+01  0.31601374440E+02  0.62162137937E+02  0.10566000000E+00 0. -1.
         23    2    1    0    0    0  0.25195322646E+02 -0.58054505608E+01  0.17943427378E+02  0.93528201108E+02  0.88074118088E+02 0.  0.
         13    1    3    3    0    0 -0.28181446155E+02 -0.17565106002E+01 -0.13657947061E+02  0.31366063171E+02  0.10566000000E+00 0.  1.
         22    1    1    0    0    0 -0.25195322646E+02  0.58054505608E+01 -0.17943427378E+02  0.31471798892E+02  0.00000000000E+00 0. -1.
</event>
<event>
 5    1  0.1245581E-004  0.9118800E+02  0.7818608E-02  0.1130116E+00
         25   -1    0    0    0    0  0.00000000000E+00  0.00000000000E+00  0.99999998245E-14  0.12500000000E+03  0.12500000000E+03 0.  0.
        -13    1    3    3    0    0 -0.16033002950E+02 -0.44646197842E+02 -0.26328907176E+02  0.54254609781E+02  0.10566000000E+00 0. -1.
         23    2    1    0    0    0  0.14173398633E+02 -0.18060314147E+02 -0.19093864123E+02  0.95139728350E+02  0.90332342422E+02 0.  0.
         13    1    3    3    0    0  0.30206401582E+02  0.26585883695E+02  0.72350430538E+01  0.40885118569E+02  0.10566000000E+00 0.  1.
         22    1    1    0    0    0 -0.14173398633E+02  0.18060314147E+02  0.19093864123E+02  0.29860271650E+02  0.00000000000E+00 0. -1.
</event>
<event>
 5    1  0.1245581E-004  0.9118800E+02  0.7818608E-02  0.1130116E+00
         25   -1    0    0    0    0  0.00000000000E+00  0.00000000000E+00  0.99999998245E-14  0.12500000000E+03  0.12500000000E+03 0.  0.
        -13    1    3    3    0    0 -0.15072001383E+02  0.81460500283E+01 -0.32948354203E+02  0.37136620275E+02  0.10566000000E+00 0. -1.
         23    2    1    0    0    0  0.29661146286E+02 -0.69066737816E+01 -0.26844934695E+00  0.94544166293E+02  0.89504422088E+02 0.  0.
         13    1    3    3    0    0  0.44733147668E+02 -0.15052723810E+02  0.32679904856E+02  0.57407546018E+02  0.10566000000E+00 0.  1.
         22    1    1    0    0    0 -0.29661146286E+02  0.69066737816E+01  0.26844934695E+00  0.30455833707E+02  0.00000000000E+00 0.  1.
</event>
<event>
 5    1  0.1245581E-004  0.9118800E+02  0.7818608E-02  0.1130116E+00
         25   -1    0    0    0    0  0.00000000000E+00  0.00000000000E+00  0.99999998245E-14  0.12500000000E+03  0.12500000000E+03 0.  0.
        -13    1    3    3    0    0  0.35694941071E+02 -0.42441658771E+02 -0.14648670039E+02  0.57358677768E+02  0.10566000000E+00 0. -1.
         23    2    1    0    0    0  0.17694246708E+02 -0.88589539505E+01 -0.21176826355E+02  0.96016808214E+02  0.91537981480E+02 0.  0.
         13    1    3    3    0    0 -0.18000694364E+02  0.33582704821E+02 -0.65281563157E+01  0.38658130446E+02  0.10566000000E+00 0.  1.
         22    1    1    0    0    0 -0.17694246708E+02  0.88589539505E+01  0.21176826355E+02  0.28983191786E+02  0.00000000000E+00 0. -1.
</event>
<event>
 5    1  0.1245581E-004  0.9118800E+02  0.7818608E-02  0.1130116E+00
         25   -1    0    0    0    0  0.00000000000E+00  0.00000000000E+00  0.99999998245E-14  0.12500000000E+03  0.12500000000E+03 0.  0.
        -13    1    3    3    0    0  0.25169419197E+02  0.22236647774E+02  0.40592811095E+01  0.33829825511E+02  0.10566000000E+00 0. -1.
         23    2    1    0    0    0 -0.15857836610E+02 -0.22333926626E+02  0.12313636063E+02  0.94968335152E+02  0.90094859942E+02 0.  0.
         13    1    3    3    0    0 -0.41027255807E+02 -0.44570574400E+02  0.82543549531E+01  0.61138509641E+02  0.10566000000E+00 0.  1.
         22    1    1    0    0    0  0.15857836610E+02  0.22333926626E+02 -0.12313636063E+02  0.30031664848E+02  0.00000000000E+00 0.  1.
</event>
<event>
 5    1  0.1245581E-004  0.9118800E+02  0.7818608E-02  0.1130116E+00
         25   -1    0    0    0    0  0.00000000000E+00  0.00000000000E+00  0.99999998245E-14  0.12500000000E+03  0.12500000000E+03 0.  0.
        -13    1    3    3    0    0  0.41635882918E+01  0.21824865129E+02  0.18640312654E+02  0.29002286551E+02  0.10566000000E+00 0. -1.
         23    2    1    0    0    0 -0.33623422316E+02  0.30894213946E+01 -0.19620956856E+02  0.85947970594E+02  0.76563650961E+02 0.  0.
         13    1    3    3    0    0 -0.37787010608E+02 -0.18735443734E+02 -0.38261269510E+02  0.56945684043E+02  0.10566000000E+00 0.  1.
         22    1    1    0    0    0  0.33623422316E+02 -0.30894213946E+01  0.19620956856E+02  0.39052029406E+02  0.00000000000E+00 0.  1.
</event>
<event>
 5    1  0.1245581E-004  0.9118800E+02  0.7818608E-02  0.1130116E+00
         25   -1    0    0    0    0  0.00000000000E+00  0.00000000000E+00  0.99999998245E-14  0.12500000000E+03  0.12500000000E+03 0.  0.
        -13    1    3    3    0    0 -0.27747157174E+02  0.20515838013E+02 -0.18594896798E+02  0.39199307284E+02  0.10566000000E+00 0.  1.
         23    2    1    0    0    0  0.20762553717E+01 -0.27303793378E+02 -0.69920995435E+01  0.96738764620E+02  0.92518598967E+02 0.  0.
         13    1    3    3    0    0  0.29823412545E+02 -0.47819631391E+02  0.11602797254E+02  0.57539457335E+02  0.10566000000E+00 0. -1.
         22    1    1    0    0    0 -0.20762553717E+01  0.27303793378E+02  0.69920995435E+01  0.28261235380E+02  0.00000000000E+00 0. -1.
</event>
<event>
 5    1  0.1245581E-004  0.9118800E+02  0.7818608E-02  0.1130116E+00
         25   -1    0    0    0    0  0.00000000000E+00  0.00000000000E+00  0.99999998245E-14  0.12500000000E+03  0.12500000000E+03 0.  0.
        -13    1    3    3    0    0  0.40844489547E+02  0.22824445822E+02 -0.12626734707E+02  0.48463112228E+02  0.10566000000E+00 0.  1.
         23    2    1    0    0    0  0.12165337945E+02  0.14395466723E+02  0.23191268650E+02  0.95115893001E+02  0.90299353543E+02 0.  0.
         13    1    3    3    0    0 -0.28679151602E+02 -0.84289790985E+01  0.35818003358E+02  0.46652780773E+02  0.10566000000E+00 0. -1.
         22    1    1    0    0    0 -0.12165337945E+02 -0.14395466723E+02 -0.23191268650E+02  0.29884106999E+02  0.00000000000E+00 0. -1.
</event>
<event>
 5    1  0.1245581E-004  0.9118800E+02  0.7818608E-02  0.1130116E+00
         25   -1    0    0    0    0  0.00000000000E+00  0.00000000000E+00  0.99999998245E-14  0.12500000000E+03  0.12500000000E+03 0.  0.
        -13    1    3    3    0    0 -0.51592856123E+02  0.21817997521E+02 -0.16559158960E+02  0.58412881526E+02  0.10566000000E+00 0.  1.
         23    2    1    0    0    0 -0.26633501910E+02 -0.31538961029E+01  0.16324558724E+01  0.98130772307E+02  0.94380575739E+02 0.  0.
         13    1    3    3    0    0  0.24959354212E+02 -0.24971893624E+02  0.18191614832E+02  0.39717890781E+02  0.10566000000E+00 0. -1.
         22    1    1    0    0    0  0.26633501910E+02  0.31538961029E+01 -0.16324558724E+01  0.26869227693E+02  0.00000000000E+00 0.  1.
</event>
<event>
 5    1  0.1245581E-004  0.9118800E+02  0.7818608E-02  0.1130116E+00
         25   -1    0    0    0    0  0.00000000000E+00  0.00000000000E+00  0.99999998245E-14  0.12500000000E+03  0.12500000000E+03 0.  0.
        -13    1    3    3    0    0  0.36180565234E+02 -0.26142706238E+02  0.14452481050E+02  0.46918650478E+02  0.10566000000E+00 0.  1.
         23    2    1    0    0    0 -0.82998256686E+01 -0.10774154198E+02  0.26250363436E+02  0.95435645021E+02  0.90740901776E+02 0.  0.
         13    1    3    3    0    0 -0.44480390903E+02  0.15368552040E+02  0.11797882386E+02  0.48516994543E+02  0.10566000000E+00 0. -1.
         22    1    1    0    0    0  0.82998256686E+01  0.10774154198E+02 -0.26250363436E+02  0.29564354979E+02  0.00000000000E+00 0. -1.
</event>
<event>
 5    1  0.1245581E-004  0.9118800E+02  0.7818608E-02  0.1130116E+00
         25   -1    0    0    0    0  0.00000000000E+00  0.00000000000E+00  0.99999998245E-14  0.12500000000E+03  0.12500000000E+03 0.  0.
        -13    1    3    3    0    0  0.15588672315E+02  0.54540266208E+01  0.42663547418E+02  0.45748689088E+02  0.10566000000E+00 0. -1.
         23    2    1    0    0    0 -0.58782106879E+01 -0.25246335546E+02  0.55313571944E+01  0.98494779160E+02  0.94861450494E+02 0.  0.
         13    1    3    3    0    0 -0.21466883003E+02 -0.30700362167E+02 -0.37132190224E+02  0.52746090072E+02  0.10566000000E+00 0.  1.
         22    1    1    0    0    0  0.58782106879E+01  0.25246335546E+02 -0.55313571944E+01  0.26505220840E+02  0.00000000000E+00 0.  1.
</event>
<event>
 5    1  0.1245581E-004  0.9118800E+02  0.7818608E-02  0.1130116E+00
         25   -1    0    0    0    0  0.00000000000E+00  0.00000000000E+00  0.99999998245E-14  0.12500000000E+03  0.12500000000E+03 0.  0.
        -13    1    3    3    0    0  0.26398126476E+02  0.24233053990E+02  0.42774522016E+02  0.55801190711E+02  0.10566000000E+00 0. -1.
         23    2    1    0    0    0 -0.76371993205E+01  0.11033338064E+02  0.25494200726E+02  0.96190008105E+02  0.91774190415E+02 0.  0.
         13    1    3    3    0    0 -0.34035325796E+02 -0.13199715926E+02 -0.17280321289E+02  0.40388817394E+02  0.10566000000E+00 0.  1.
         22    1    1    0    0    0  0.76371993205E+01 -0.11033338064E+02 -0.25494200726E+02  0.28809991895E+02  0.00000000000E+00 0. -1.
</event>
<event>
 5    1  0.1245581E-004  0.9118800E+02  0.7818608E-02  0.1130116E+00
         25   -1    0    0    0    0  0.00000000000E+00  0.00000000000E+00  0.99999998245E-14  0.12500000000E+03  0.12500000000E+03 0.  0.
        -13    1    3    3    0    0 -0.14340857981E+01 -0.15073257308E+02 -0.56339528691E+02  0.58338780799E+02  0.10566000000E+00 0. -1.
         23    2    1    0    0    0  0.14510790284E+02 -0.24719535471E+01 -0.29766862231E+02  0.91792475611E+02  0.85575223649E+02 0.  0.
         13    1    3    3    0    0  0.15944876082E+02  0.12601303760E+02  0.26572666460E+02  0.33453694812E+02  0.10566000000E+00 0.  1.
         22    1    1    0    0    0 -0.14510790284E+02  0.24719535471E+01  0.29766862231E+02  0.33207524389E+02  0.00000000000E+00 0. -1.
</event>
<event>
 5    1  0.1245581E-004  0.9118800E+02  0.7818608E-02  0.1130116E+00
         25   -1    0    0    0    0  0.00000000000E+00  0.00000000000E+00  0.99999998245E-14  0.12500000000E+03  0.12500000000E+03 0.  0.
        -13    1    3    3    0    0  0.11159621210E+02 -0.14409382818E+02 -0.57319994524E+02  0.60147821199E+02  0.10566000000E+00 0.  1.
         23    2    1    0    0    0  0.21581946004E+01  0.48080512272E+01 -0.28936515955E+02  0.95587466683E+02  0.90949803027E+02 0.  0.
         13    1    3    3    0    0 -0.90014266093E+01  0.19217434046E+02  0.28383478569E+02  0.35439645484E+02  0.10566000000E+00 0. -1.
         22    1    1    0    0    0 -0.21581946004E+01 -0.48080512272E+01  0.28936515955E+02  0.29412533317E+02  0.00000000000E+00 0.  1.
</event>
<event>
 5    1  0.1245581E-004  0.9118800E+02  0.7818608E-02  0.1130116E+00
         25   -1    0    0    0    0  0.00000000000E+00  0.00000000000E+00  0.99999998245E-14  0.12500000000E+03  0.12500000000E+03 0.  0.
        -13    1    3    3    0    0  0.43056545639E+02  0.29585943419E+02 -0.28789128131E+01  0.52321061470E+02  0.10566000000E+00 0.  1.
         23    2    1    0    0    0  0.10134874094E+02  0.16555546450E+02  0.22049773439E+02  0.95623235374E+02  0.90998949684E+02 0.  0.
         13    1    3    3    0    0 -0.32921671545E+02 -0.13030396969E+02  0.24928686252E+02  0.43302173904E+02  0.10566000000E+00 0. -1.
         22    1    1    0    0    0 -0.10134874094E+02 -0.16555546450E+02 -0.22049773439E+02  0.29376764626E+02  0.00000000000E+00 0.  1.
</event>
<event>
 5    1  0.1245581E-004  0.9118800E+02  0.7818608E-02  0.1130116E+00
         25   -1    0    0    0    0  0.00000000000E+00  0.00000000000E+00  0.99999998245E-14  0.12500000000E+03  0.12500000000E+03 0.  0.
        -13    1    3    3    0    0 -0.43314323154E+02  0.91530822870E+01  0.32779492905E+01  0.44392179731E+02  0.10566000000E+00 0.  1.
         23    2    1    0    0    0  0.32965732534E+01  0.27245257620E+02 -0.94301940323E+01  0.95981040379E+02  0.91489125555E+02 0.  0.
         13    1    3    3    0    0  0.46610896408E+02  0.18092175333E+02 -0.12708143323E+02  0.51588860648E+02  0.10566000000E+00 0. -1.
         22    1    1    0    0    0 -0.32965732534E+01 -0.27245257620E+02  0.94301940323E+01  0.29018959621E+02  0.00000000000E+00 0.  1.
</event>
<event>
 5    1  0.1245581E-004  0.9118800E+02  0.7818608E-02  0.1130116E+00
         25   -1    0    0    0    0  0.00000000000E+00  0.00000000000E+00  0.99999998245E-14  0.12500000000E+03  0.12500000000E+03 0.  0.
        -13    1    3    3    0    0  0.68522834711E+01 -0.24420074937E+02  0.33435590870E+02  0.41967174667E+02  0.10566000000E+00 0.  1.
         23    2    1    0    0    0 -0.28631275404E+02  0.55133842039E+01  0.86816418752E+01  0.94577668691E+02  0.89551198611E+02 0.  0.
         13    1    3    3    0    0 -0.35483558875E+02  0.29933459140E+02 -0.24753948995E+02  0.52610494024E+02  0.10566000000E+00 0. -1.
         22    1    1    0    0    0  0.28631275404E+02 -0.55133842039E+01 -0.86816418752E+01  0.30422331309E+02  0.00000000000E+00 0. -1.
</event>
<event>
 5    1  0.1245581E-004  0.9118800E+02  0.7818608E-02  0.1130116E+00
         25   -1    0    0    0    0  0.00000000000E+00  0.00000000000E+00  0.99999998245E-14  0.12500000000E+03  0.12500000000E+03 0.  0.
        -13    1    3    3    0    0  0.21663319150E+02 -0.24338757072E+02 -0.36702620908E+02  0.49079201684E+02  0.10566000000E+00 0.  1.
         23    2    1    0    0    0  0.58631156424E+00 -0.29166413825E+02  0.43760122164E+01  0.95501306138E+02  0.90831308118E+02 0.  0.
         13    1    3    3    0    0 -0.21077007586E+02 -0.48276567530E+01  0.41078633124E+02  0.46422104454E+02  0.10566000000E+00 0. -1.
         22    1    1    0    0    0 -0.58631156424E+00  0.29166413825E+02 -0.43760122164E+01  0.29498693862E+02  0.00000000000E+00 0.  1.
</event>
<event>
 5    1  0.1245581E-004  0.9118800E+02  0.7818608E-02  0.1130116E+00
         25   -1    0    0    0    0  0.00000000000E+00  0.00000000000E+00  0.99999998245E-14  0.12500000000E+03  0.12500000000E+03 0.  0.
        -13    1    3    3    0    0 -0.15987303783E+01  0.26211936665E+02  0.47532721489E+02  0.54304625390E+02  0.10566000000E+00 0. -1.
         23    2    1    0    0    0 -0.86134133605E+01  0.26808407731E+02  0.62849904739E+01  0.96148956344E+02  0.91718259283E+02 0.  0.
         13    1    3    3    0    0 -0.70146829823E+01  0.59647106592E+00 -0.41247731015E+02  0.41844330954E+02  0.10566000000E+00 0.  1.
         22    1    1    0    0    0  0.86134133605E+01 -0.26808407731E+02 -0.62849904739E+01  0.28851043656E+02  0.00000000000E+00 0. -1.
</event>
<event>
 5    1  0.1245581E-004  0.9118800E+02  0.7818608E-02  0.1130116E+00
         25   -1    0    0    0    0  0.00000000000E+00  0.00000000000E+00  0.99999998245E-14  0.12500000000E+03  0.12500000000E+03 0.  0.
        -13    1    3    3    0    0 -0.33281870036E+02  0.18251793729E+02 -0.13029260910E+02  0.40132077586E+02  0.10566000000E+00 0.  1.
         23    2    1    0    0    0  0.10266982197E+02 -0.18220510967E+02 -0.18339145184E+02  0.97184137809E+02  0.93118389442E+02 0.  0.
         13    1    3    3    0    0  0.43548852234E+02 -0.36472304696E+02 -0.53098842742E+01  0.57052060223E+02  0.10566000000E+00 0. -1.
         22    1    1    0    0    0 -0.10266982197E+02  0.18220510967E+02  0.18339145184E+02  0.27815862191E+02  0.00000000000E+00 0. -1.
</event>
<event>
 5    1  0.1245581E-004  0.9118800E+02  0.7818608E-02  0.1130116E+00
         25   -1    0    0    0    0  0.00000000000E+00  0.00000000000E+00  0.99999998245E-14  0.12500000000E+03  0.12500000000E+03 0.  0.
        -13    1    3    3    0    0 -0.33231112323E+02 -0.66083293449E+01 -0.54295202967E+01  0.34314249193E+02  0.10566000000E+00 0.  1.
         23    2    1    0    0    0  0.24661033401E+02 -0.45661921737E+01  0.15043757135E+02  0.95753952265E+02  0.91178331122E+02 0.  0.
         13    1    3    3    0    0  0.57892145724E+02  0.20421371712E+01  0.20473277432E+02  0.61439703072E+02  0.10566000000E+00 0. -1.
         22    1    1    0    0    0 -0.24661033401E+02  0.45661921737E+01 -0.15043757135E+02  0.29246047735E+02  0.00000000000E+00 0. -1.
</event>
<event>
 5    1  0.1245581E-004  0.9118800E+02  0.7818608E-02  0.1130116E+00
         25   -1    0    0    0    0  0.00000000000E+00  0.00000000000E+00  0.99999998245E-14  0.12500000000E+03  0.12500000000E+03 0.  0.
        -13    1    3    3    0    0  0.95436583162E+01  0.22424704795E+01 -0.61205695535E+02  0.61985953391E+02  0.10566000000E+00 0.  1.
         23    2    1    0    0    0  0.71207159739E+01 -0.37842461696E+01 -0.26281126001E+02  0.97509588964E+02  0.93554247584E+02 0.  0.
         13    1    3    3    0    0 -0.24229423423E+01 -0.60267166490E+01  0.34924569534E+02  0.35523635573E+02  0.10566000000E+00 0. -1.
         22    1    1    0    0    0 -0.71207159739E+01  0.37842461696E+01  0.26281126001E+02  0.27490411036E+02  0.00000000000E+00 0.  1.
</event>
<event>
 5    1  0.1245581E-004  0.9118800E+02  0.7818608E-02  0.1130116E+00
         25   -1    0    0    0    0  0.00000000000E+00  0.00000000000E+00  0.99999998245E-14  0.12500000000E+03  0.12500000000E+03 0.  0.
        -13    1    3    3    0    0  0.22502239370E+02 -0.29903582219E+02 -0.38013229521E+01  0.37616967268E+02  0.10566000000E+00 0.  1.
         23    2    1    0    0    0 -0.17414356235E+02  0.88369602369E+01 -0.21466548546E+02  0.95979931499E+02  0.91487610498E+02 0.  0.
         13    1    3    3    0    0 -0.39916595606E+02  0.38740542456E+02 -0.17665225594E+02  0.58362964231E+02  0.10566000000E+00 0. -1.
         22    1    1    0    0    0  0.17414356235E+02 -0.88369602369E+01  0.21466548546E+02  0.29020068501E+02  0.00000000000E+00 0. -1.
</event>
<event>
 5    1  0.1245581E-004  0.9118800E+02  0.7818608E-02  0.1130116E+00
         25   -1    0    0    0    0  0.00000000000E+00  0.00000000000E+00  0.99999998245E-14  0.12500000000E+03  0.12500000000E+03 0.  0.
        -13    1    3    3    0    0 -0.21194250176E+02  0.29442544139E+02 -0.13083094934E+02  0.38564727187E+02  0.10566000000E+00 0.  1.
         23    2    1    0    0    0  0.10680611319E+02 -0.20639416636E+02 -0.13872511467E+02  0.97935123285E+02  0.94121096579E+02 0.  0.
         13    1    3    3    0    0  0.31874861495E+02 -0.50081960775E+02 -0.78941653318E+00  0.59370396098E+02  0.10566000000E+00 0. -1.
         22    1    1    0    0    0 -0.10680611319E+02  0.20639416636E+02  0.13872511467E+02  0.27064876715E+02  0.00000000000E+00 0. -1.
</event>
<event>
 5    1  0.1245581E-004  0.9118800E+02  0.7818608E-02  0.1130116E+00
         25   -1    0    0    0    0  0.00000000000E+00  0.00000000000E+00  0.99999998245E-14  0.12500000000E+03  0.12500000000E+03 0.  0.
        -13    1    3    3    0    0 -0.16703941428E+02 -0.39906148828E+02  0.10291873875E+02  0.44468597970E+02  0.10566000000E+00 0. -1.
         23    2    1    0    0    0 -0.14202386877E+02  0.93700297789E-01 -0.23932033164E+02  0.97170900408E+02  0.93100618161E+02 0.  0.
         13    1    3    3    0    0  0.25015545507E+01  0.39999849126E+02 -0.34223907039E+02  0.52702302438E+02  0.10566000000E+00 0.  1.
         22    1    1    0    0    0  0.14202386877E+02 -0.93700297789E-01  0.23932033164E+02  0.27829099592E+02  0.00000000000E+00 0.  1.
</event>
<event>
 5    1  0.1245581E-004  0.9118800E+02  0.7818608E-02  0.1130116E+00
         25   -1    0    0    0    0  0.00000000000E+00  0.00000000000E+00  0.99999998245E-14  0.12500000000E+03  0.12500000000E+03 0.  0.
        -13    1    3    3    0    0  0.46831708874E+02 -0.26472757241E+02  0.16277110060E+02  0.56204726740E+02  0.10566000000E+00 0.  1.
         23    2    1    0    0    0  0.35340144018E+02 -0.16401337442E+02 -0.83190660364E+01  0.85161118128E+02  0.75268051203E+02 0.  0.
         13    1    3    3    0    0 -0.11491564856E+02  0.10071419799E+02 -0.24596176096E+02  0.28956391387E+02  0.10566000000E+00 0. -1.
         22    1    1    0    0    0 -0.35340144018E+02  0.16401337442E+02  0.83190660364E+01  0.39838881872E+02  0.00000000000E+00 0.  1.
</event>
<event>
 5    1  0.1245581E-004  0.9118800E+02  0.7818608E-02  0.1130116E+00
         25   -1    0    0    0    0  0.00000000000E+00  0.00000000000E+00  0.99999998245E-14  0.12500000000E+03  0.12500000000E+03 0.  0.
        -13    1    3    3    0    0  0.49592291374E+01  0.35483246129E+02  0.45941872536E+02  0.58260806085E+02  0.10566000000E+00 0.  1.
         23    2    1    0    0    0 -0.75760933557E+01  0.53784500896E+01  0.28037574463E+02  0.95463065533E+02  0.90778667006E+02 0.  0.
         13    1    3    3    0    0 -0.12535322493E+02 -0.30104796040E+02 -0.17904298072E+02  0.37202259449E+02  0.10566000000E+00 0. -1.
         22    1    1    0    0    0  0.75760933557E+01 -0.53784500896E+01 -0.28037574463E+02  0.29536934467E+02  0.00000000000E+00 0.  1.
</event>
<event>
 5    1  0.1245581E-004  0.9118800E+02  0.7818608E-02  0.1130116E+00
         25   -1    0    0    0    0  0.00000000000E+00  0.00000000000E+00  0.99999998245E-14  0.12500000000E+03  0.12500000000E+03 0.  0.
        -13    1    3    3    0    0  0.62356043755E+01 -0.29452035046E+02 -0.21094457117E+02  0.36759929480E+02  0.10566000000E+00 0. -1.
         23    2    1    0    0    0 -0.17843716099E+02 -0.37940631764E+01  0.24563236909E+02  0.94403501392E+02  0.89307756371E+02 0.  0.
         13    1    3    3    0    0 -0.24079320474E+02  0.25657971869E+02  0.45657694026E+02  0.57643571912E+02  0.10566000000E+00 0.  1.
         22    1    1    0    0    0  0.17843716099E+02  0.37940631764E+01 -0.24563236909E+02  0.30596498608E+02  0.00000000000E+00 0.  1.
</event>
<event>
 5    1  0.1245581E-004  0.9118800E+02  0.7818608E-02  0.1130116E+00
         25   -1    0    0    0    0  0.00000000000E+00  0.00000000000E+00  0.99999998245E-14  0.12500000000E+03  0.12500000000E+03 0.  0.
        -13    1    3    3    0    0  0.58272767158E+02 -0.17341228198E+02  0.72184161778E+01  0.61225405542E+02  0.10566000000E+00 0. -1.
         23    2    1    0    0    0  0.31303830802E+02 -0.13922187395E+02 -0.37406621896E+01  0.90536255595E+02  0.83720152286E+02 0.  0.
         13    1    3    3    0    0 -0.26968936355E+02  0.34190408029E+01 -0.10959078367E+02  0.29310850053E+02  0.10566000000E+00 0.  1.
         22    1    1    0    0    0 -0.31303830802E+02  0.13922187395E+02  0.37406621896E+01  0.34463744405E+02  0.00000000000E+00 0. -1.
</event>
<event>
 5    1  0.1245581E-004  0.9118800E+02  0.7818608E-02  0.1130116E+00
         25   -1    0    0    0    0  0.00000000000E+00  0.00000000000E+00  0.99999998245E-14  0.12500000000E+03  0.12500000000E+03 0.  0.
        -13    1    3    3    0    0  0.16655548447E+02 -0.17549530565E+02 -0.29607069444E+02  0.38235886837E+02  0.10566000000E+00 0.  1.
         23    2    1    0    0    0 -0.17252095554E+02 -0.25529792111E+02  0.11494692688E+02  0.92113330266E+02  0.86042620639E+02 0.  0.
         13    1    3    3    0    0 -0.33907644001E+02 -0.79802615458E+01  0.41101762132E+02  0.53877443428E+02  0.10566000000E+00 0. -1.
         22    1    1    0    0    0  0.17252095554E+02  0.25529792111E+02 -0.11494692688E+02  0.32886669734E+02  0.00000000000E+00 0. -1.
</event>
<event>
 5    1  0.1245581E-004  0.9118800E+02  0.7818608E-02  0.1130116E+00
         25   -1    0    0    0    0  0.00000000000E+00  0.00000000000E+00  0.99999998245E-14  0.12500000000E+03  0.12500000000E+03 0.  0.
        -13    1    3    3    0    0 -0.15989292150E+02 -0.65276899830E+01  0.57914683712E+02  0.60435006027E+02  0.10566000000E+00 0.  1.
         23    2    1    0    0    0 -0.27087022846E+01  0.71995078932E+01  0.28286453086E+02  0.95686293135E+02  0.91085527302E+02 0.  0.
         13    1    3    3    0    0  0.13280589865E+02  0.13727197876E+02 -0.29628230627E+02  0.35251287108E+02  0.10566000000E+00 0. -1.
         22    1    1    0    0    0  0.27087022846E+01 -0.71995078932E+01 -0.28286453086E+02  0.29313706865E+02  0.00000000000E+00 0.  1.
</event>
<event>
 5    1  0.1245581E-004  0.9118800E+02  0.7818608E-02  0.1130116E+00
         25   -1    0    0    0    0  0.00000000000E+00  0.00000000000E+00  0.99999998245E-14  0.12500000000E+03  0.12500000000E+03 0.  0.
        -13    1    3    3    0    0  0.21186459435E+02  0.94519336667E-01  0.36407521155E+02  0.42123553482E+02  0.10566000000E+00 0.  1.
         23    2    1    0    0    0  0.66550584460E+01  0.29621511689E+02 -0.41550883129E+01  0.94357080482E+02  0.89242759486E+02 0.  0.
         13    1    3    3    0    0 -0.14531400989E+02  0.29526992352E+02 -0.40562609467E+02  0.52233527001E+02  0.10566000000E+00 0. -1.
         22    1    1    0    0    0 -0.66550584460E+01 -0.29621511689E+02  0.41550883129E+01  0.30642919518E+02  0.00000000000E+00 0.  1.
</event>
<event>
 5    1  0.1245581E-004  0.9118800E+02  0.7818608E-02  0.1130116E+00
         25   -1    0    0    0    0  0.00000000000E+00  0.00000000000E+00  0.99999998245E-14  0.12500000000E+03  0.12500000000E+03 0.  0.
        -13    1    3    3    0    0  0.14061367079E+02 -0.29439286655E+02 -0.78349661107E+01  0.33552816586E+02  0.10566000000E+00 0.  1.
         23    2    1    0    0    0 -0.23971506155E+01  0.26754672227E+02  0.12277444880E+02  0.95465368297E+02  0.90781837800E+02 0.  0.
         13    1    3    3    0    0 -0.16458517694E+02  0.56193958882E+02  0.20112410990E+02  0.61912551711E+02  0.10566000000E+00 0. -1.
         22    1    1    0    0    0  0.23971506155E+01 -0.26754672227E+02 -0.12277444880E+02  0.29534631703E+02  0.00000000000E+00 0. -1.
</event>
<event>
 5    1  0.1245581E-004  0.9118800E+02  0.7818608E-02  0.1130116E+00
         25   -1    0    0    0    0  0.00000000000E+00  0.00000000000E+00  0.99999998245E-14  0.12500000000E+03  0.12500000000E+03 0.  0.
        -13    1    3    3    0    0  0.26287684084E+02  0.15340865513E+02  0.35544416847E+02  0.46795311969E+02  0.10566000000E+00 0.  1.
         23    2    1    0    0    0  0.27519036155E+02 -0.65546123051E+01 -0.80440182443E+01  0.95589686794E+02  0.90952854262E+02 0.  0.
         13    1    3    3    0    0  0.12313520712E+01 -0.21895477818E+02 -0.43588435091E+02  0.48794374825E+02  0.10566000000E+00 0. -1.
         22    1    1    0    0    0 -0.27519036155E+02  0.65546123051E+01  0.80440182443E+01  0.29410313206E+02  0.00000000000E+00 0.  1.
</event>
<event>
 5    1  0.1245581E-004  0.9118800E+02  0.7818608E-02  0.1130116E+00
         25   -1    0    0    0    0  0.00000000000E+00  0.00000000000E+00  0.99999998245E-14  0.12500000000E+03  0.12500000000E+03 0.  0.
        -13    1    3    3    0    0 -0.51993383305E+02 -0.25426788656E+02  0.99474013129E+01  0.58726445880E+02  0.10566000000E+00 0. -1.
         23    2    1    0    0    0 -0.29222564031E+02  0.83529983338E+00  0.11655155018E+02  0.93527812074E+02  0.88073565946E+02 0.  0.
         13    1    3    3    0    0  0.22770819273E+02  0.26262088489E+02  0.17077537047E+01  0.34801366193E+02  0.10566000000E+00 0.  1.
         22    1    1    0    0    0  0.29222564031E+02 -0.83529983338E+00 -0.11655155018E+02  0.31472187926E+02  0.00000000000E+00 0. -1.
</event>
<event>
 5    1  0.1245581E-004  0.9118800E+02  0.7818608E-02  0.1130116E+00
         25   -1    0    0    0    0  0.00000000000E+00  0.00000000000E+00  0.99999998245E-14  0.12500000000E+03  0.12500000000E+03 0.  0.
        -13    1    3    3    0    0 -0.38393751514E+01  0.30023818487E+02 -0.39992164269E+02  0.50155307247E+02  0.10566000000E+00 0.  1.
         23    2    1    0    0    0 -0.15995532159E+02 -0.11292124096E+02 -0.17486133136E+02  0.98748638746E+02  0.95195376392E+02 0.  0.
         13    1    3    3    0    0 -0.12156157007E+02 -0.41315942584E+02  0.22506031133E+02  0.48593331499E+02  0.10566000000E+00 0. -1.
         22    1    1    0    0    0  0.15995532159E+02  0.11292124096E+02  0.17486133136E+02  0.26251361254E+02  0.00000000000E+00 0. -1.
</event>
<event>
 5    1  0.1245581E-004  0.9118800E+02  0.7818608E-02  0.1130116E+00
         25   -1    0    0    0    0  0.00000000000E+00  0.00000000000E+00  0.99999998245E-14  0.12500000000E+03  0.12500000000E+03 0.  0.
        -13    1    3    3    0    0 -0.39534439496E+02  0.26550857996E+02 -0.57697463675E+01  0.47971044431E+02  0.10566000000E+00 0.  1.
         23    2    1    0    0    0 -0.19605140433E+02 -0.80240237608E+01  0.20316866126E+02  0.95648312861E+02  0.91033390661E+02 0.  0.
         13    1    3    3    0    0  0.19929299063E+02 -0.34574881756E+02  0.26086612493E+02  0.47677268431E+02  0.10566000000E+00 0. -1.
         22    1    1    0    0    0  0.19605140433E+02  0.80240237608E+01 -0.20316866126E+02  0.29351687139E+02  0.00000000000E+00 0. -1.
</event>
<event>
 5    1  0.1245581E-004  0.9118800E+02  0.7818608E-02  0.1130116E+00
         25   -1    0    0    0    0  0.00000000000E+00  0.00000000000E+00  0.99999998245E-14  0.12500000000E+03  0.12500000000E+03 0.  0.
        -13    1    3    3    0    0 -0.46750660406E+02  0.29314607345E+02 -0.20534949701E+02  0.58878398207E+02  0.10566000000E+00 0. -1.
         23    2    1    0    0    0 -0.17784216265E+02  0.67320171111E+01 -0.22353265158E+02  0.95652651469E+02  0.91039347907E+02 0.  0.
         13    1    3    3    0    0  0.28966444141E+02 -0.22582590234E+02 -0.18183154573E+01  0.36774253262E+02  0.10566000000E+00 0.  1.
         22    1    1    0    0    0  0.17784216265E+02 -0.67320171111E+01  0.22353265158E+02  0.29347348531E+02  0.00000000000E+00 0. -1.
</event>
<event>
 5    1  0.1245581E-004  0.9118800E+02  0.7818608E-02  0.1130116E+00
         25   -1    0    0    0    0  0.00000000000E+00  0.00000000000E+00  0.99999998245E-14  0.12500000000E+03  0.12500000000E+03 0.  0.
        -13    1    3    3    0    0  0.55040266064E+02  0.11789897910E+02  0.25984842733E+02  0.61997224107E+02  0.10566000000E+00 0. -1.
         23    2    1    0    0    0  0.32029503227E+02  0.97315884455E+01  0.20514306966E+02  0.85738954663E+02  0.76221641716E+02 0.  0.
         13    1    3    3    0    0 -0.23010762837E+02 -0.20583094646E+01 -0.54705357675E+01  0.23741730556E+02  0.10566000000E+00 0.  1.
         22    1    1    0    0    0 -0.32029503227E+02 -0.97315884455E+01 -0.20514306966E+02  0.39261045337E+02  0.00000000000E+00 0. -1.
</event>
<event>
 5    1  0.1245581E-004  0.9118800E+02  0.7818608E-02  0.1130116E+00
         25   -1    0    0    0    0  0.00000000000E+00  0.00000000000E+00  0.99999998245E-14  0.12500000000E+03  0.12500000000E+03 0.  0.
        -13    1    3    3    0    0 -0.26368187192E+02 -0.21173851103E+02  0.30750953670E+02  0.45708266014E+02  0.10566000000E+00 0.  1.
         23    2    1    0    0    0 -0.81986575430E+01 -0.24342148259E+02 -0.15152067706E+02  0.95178140180E+02  0.90385480278E+02 0.  0.
         13    1    3    3    0    0  0.18169529649E+02 -0.31682971557E+01 -0.45903021376E+02  0.49469874166E+02  0.10566000000E+00 0. -1.
         22    1    1    0    0    0  0.81986575430E+01  0.24342148259E+02  0.15152067706E+02  0.29821859820E+02  0.00000000000E+00 0. -1.
</event>
<event>
 5    1  0.1245581E-004  0.9118800E+02  0.7818608E-02  0.1130116E+00
         25   -1    0    0    0    0  0.00000000000E+00  0.00000000000E+00  0.99999998245E-14  0.12500000000E+03  0.12500000000E+03 0.  0.
        -13    1    3    3    0    0  0.22030138880E+02  0.24521610454E+01  0.82141362742E+01  0.23639443979E+02  0.10566000000E+00 0. -1.
         23    2    1    0    0    0 -0.30290905361E+02 -0.13232041433E+01 -0.24978630373E+02  0.85716138274E+02  0.76184214693E+02 0.  0.
         13    1    3    3    0    0 -0.52321044242E+02 -0.37753651886E+01 -0.33192766647E+02  0.62076694295E+02  0.10566000000E+00 0.  1.
         22    1    1    0    0    0  0.30290905361E+02  0.13232041433E+01  0.24978630373E+02  0.39283861726E+02  0.00000000000E+00 0.  1.
</event>
<event>
 5    1  0.1245581E-004  0.9118800E+02  0.7818608E-02  0.1130116E+00
         25   -1    0    0    0    0  0.00000000000E+00  0.00000000000E+00  0.99999998245E-14  0.12500000000E+03  0.12500000000E+03 0.  0.
        -13    1    3    3    0    0  0.40125948028E+02  0.18748300974E+02 -0.14333496663E+02  0.46551592725E+02  0.10566000000E+00 0.  1.
         23    2    1    0    0    0  0.11070619607E+02 -0.22391944065E+02  0.30547881294E+01  0.99834755952E+02  0.96611018978E+02 0.  0.
         13    1    3    3    0    0 -0.29055328421E+02 -0.41140245038E+02  0.17388284793E+02  0.53283163227E+02  0.10566000000E+00 0. -1.
         22    1    1    0    0    0 -0.11070619607E+02  0.22391944065E+02 -0.30547881294E+01  0.25165244048E+02  0.00000000000E+00 0.  1.
</event>
<event>
 5    1  0.1245581E-004  0.9118800E+02  0.7818608E-02  0.1130116E+00
         25   -1    0    0    0    0  0.00000000000E+00  0.00000000000E+00  0.99999998245E-14  0.12500000000E+03  0.12500000000E+03 0.  0.
        -13    1    3    3    0    0 -0.95002287391E+01  0.43686191827E+02 -0.12772381343E+01  0.44725610155E+02  0.10566000000E+00 0. -1.
         23    2    1    0    0    0 -0.90314350272E+01  0.35585798923E+01 -0.29603091530E+02  0.93845973974E+02  0.88523971293E+02 0.  0.
         13    1    3    3    0    0  0.46879371190E+00 -0.40127611934E+02 -0.28325853396E+02  0.49120363819E+02  0.10566000000E+00 0.  1.
         22    1    1    0    0    0  0.90314350272E+01 -0.35585798923E+01  0.29603091530E+02  0.31154026026E+02  0.00000000000E+00 0.  1.
</event>
<event>
 5    1  0.1245581E-004  0.9118800E+02  0.7818608E-02  0.1130116E+00
         25   -1    0    0    0    0  0.00000000000E+00  0.00000000000E+00  0.99999998245E-14  0.12500000000E+03  0.12500000000E+03 0.  0.
        -13    1    3    3    0    0 -0.31211224258E+02 -0.28509113915E+01 -0.17373105586E+02  0.35834399355E+02  0.10566000000E+00 0.  1.
         23    2    1    0    0    0  0.27516603662E+02  0.30693796874E+01 -0.11017555704E+02  0.95201156021E+02  0.90417304789E+02 0.  0.
         13    1    3    3    0    0  0.58727827920E+02  0.59202910789E+01  0.63555498815E+01  0.59366756666E+02  0.10566000000E+00 0. -1.
         22    1    1    0    0    0 -0.27516603662E+02 -0.30693796874E+01  0.11017555704E+02  0.29798843979E+02  0.00000000000E+00 0. -1.
</event>
<event>
 5    1  0.1245581E-004  0.9118800E+02  0.7818608E-02  0.1130116E+00
         25   -1    0    0    0    0  0.00000000000E+00  0.00000000000E+00  0.99999998245E-14  0.12500000000E+03  0.12500000000E+03 0.  0.
        -13    1    3    3    0    0 -0.26651876146E+01 -0.33642864774E+02  0.72117569346E+01  0.34510377821E+02  0.10566000000E+00 0. -1.
         23    2    1    0    0    0 -0.65829589371E+00  0.26384177833E+02  0.14290999357E+02  0.94986821961E+02  0.90120505381E+02 0.  0.
         13    1    3    3    0    0  0.20068917209E+01  0.60027042607E+02  0.70792424228E+01  0.60476444140E+02  0.10566000000E+00 0.  1.
         22    1    1    0    0    0  0.65829589371E+00 -0.26384177833E+02 -0.14290999357E+02  0.30013178039E+02  0.00000000000E+00 0.  1.
</event>
<event>
 5    1  0.1245581E-004  0.9118800E+02  0.7818608E-02  0.1130116E+00
         25   -1    0    0    0    0  0.00000000000E+00  0.00000000000E+00  0.99999998245E-14  0.12500000000E+03  0.12500000000E+03 0.  0.
        -13    1    3    3    0    0 -0.29519023723E+02  0.20775302912E+02 -0.20123847180E+02  0.41327549673E+02  0.10566000000E+00 0. -1.
         23    2    1    0    0    0 -0.38595961121E+01 -0.25957425076E+02 -0.14710212067E+02  0.94915539929E+02  0.90021580647E+02 0.  0.
         13    1    3    3    0    0  0.25659427611E+02 -0.46732727988E+02  0.54136351132E+01  0.53587990256E+02  0.10566000000E+00 0.  1.
         22    1    1    0    0    0  0.38595961121E+01  0.25957425076E+02  0.14710212067E+02  0.30084460071E+02  0.00000000000E+00 0.  1.
</event>
<event>
 5    1  0.1245581E-004  0.9118800E+02  0.7818608E-02  0.1130116E+00
         25   -1    0    0    0    0  0.00000000000E+00  0.00000000000E+00  0.99999998245E-14  0.12500000000E+03  0.12500000000E+03 0.  0.
        -13    1    3    3    0    0 -0.47384797852E+02  0.31776319849E+02  0.51949965280E+01  0.57289202505E+02  0.10566000000E+00 0. -1.
         23    2    1    0    0    0 -0.11241293948E+02  0.22850944408E+02  0.14542277621E+02  0.95674069693E+02  0.91068751080E+02 0.  0.
         13    1    3    3    0    0  0.36143503904E+02 -0.89253754416E+01  0.93472810927E+01  0.38384867189E+02  0.10566000000E+00 0.  1.
         22    1    1    0    0    0  0.11241293948E+02 -0.22850944408E+02 -0.14542277621E+02  0.29325930307E+02  0.00000000000E+00 0. -1.
</event>
<event>
 5    1  0.1245581E-004  0.9118800E+02  0.7818608E-02  0.1130116E+00
         25   -1    0    0    0    0  0.00000000000E+00  0.00000000000E+00  0.99999998245E-14  0.12500000000E+03  0.12500000000E+03 0.  0.
        -13    1    3    3    0    0 -0.11480272968E+02 -0.62392701591E+01 -0.31030575576E+02  0.33669466051E+02  0.10566000000E+00 0. -1.
         23    2    1    0    0    0  0.15482365152E+02 -0.63248454963E+01  0.24462915057E+02  0.95366547377E+02  0.90645666440E+02 0.  0.
         13    1    3    3    0    0  0.26962638120E+02 -0.85575337181E-01  0.55493490633E+02  0.61697081326E+02  0.10566000000E+00 0.  1.
         22    1    1    0    0    0 -0.15482365152E+02  0.63248454963E+01 -0.24462915057E+02  0.29633452623E+02  0.00000000000E+00 0.  1.
</event>
<event>
 5    1  0.1245581E-004  0.9118800E+02  0.7818608E-02  0.1130116E+00
         25   -1    0    0    0    0  0.00000000000E+00  0.00000000000E+00  0.99999998245E-14  0.12500000000E+03  0.12500000000E+03 0.  0.
        -13    1    3    3    0    0  0.12200335874E+02  0.32436865629E+02 -0.21675687362E+01  0.34723305798E+02  0.10566000000E+00 0. -1.
         23    2    1    0    0    0 -0.18371785088E+02 -0.20142844963E+02 -0.98156609092E+01  0.96024080867E+02  0.91547912137E+02 0.  0.
         13    1    3    3    0    0 -0.30572120962E+02 -0.52579710592E+02 -0.76480921730E+01  0.61300775069E+02  0.10566000000E+00 0.  1.
         22    1    1    0    0    0  0.18371785088E+02  0.20142844963E+02  0.98156609092E+01  0.28975919133E+02  0.00000000000E+00 0.  1.
</event>
<event>
 5    1  0.1245581E-004  0.9118800E+02  0.7818608E-02  0.1130116E+00
         25   -1    0    0    0    0  0.00000000000E+00  0.00000000000E+00  0.99999998245E-14  0.12500000000E+03  0.12500000000E+03 0.  0.
        -13    1    3    3    0    0  0.14073358806E+02  0.32445273710E+02 -0.27772097035E+02  0.44967274233E+02  0.10566000000E+00 0. -1.
         23    2    1    0    0    0  0.14413875740E+02 -0.18098677006E+02 -0.16012567870E+02  0.96862404988E+02  0.92685496422E+02 0.  0.
         13    1    3    3    0    0  0.34051693401E+00 -0.50543950717E+02  0.11759529165E+02  0.51895130755E+02  0.10566000000E+00 0.  1.
         22    1    1    0    0    0 -0.14413875740E+02  0.18098677006E+02  0.16012567870E+02  0.28137595012E+02  0.00000000000E+00 0.  1.
</event>
<event>
 5    1  0.1245581E-004  0.9118800E+02  0.7818608E-02  0.1130116E+00
         25   -1    0    0    0    0  0.00000000000E+00  0.00000000000E+00  0.99999998245E-14  0.12500000000E+03  0.12500000000E+03 0.  0.
        -13    1    3    3    0    0 -0.28777259761E+02 -0.23461937611E+02 -0.10296231237E+02  0.38530724592E+02  0.10566000000E+00 0.  1.
         23    2    1    0    0    0 -0.24748372599E+01  0.22340352159E+02 -0.22985610311E+02  0.92851058565E+02  0.87107776009E+02 0.  0.
         13    1    3    3    0    0  0.26302422501E+02  0.45802289770E+02 -0.12689379074E+02  0.54320333973E+02  0.10566000000E+00 0. -1.
         22    1    1    0    0    0  0.24748372599E+01 -0.22340352159E+02  0.22985610311E+02  0.32148941435E+02  0.00000000000E+00 0. -1.
</event>
<event>
 5    1  0.1245581E-004  0.9118800E+02  0.7818608E-02  0.1130116E+00
         25   -1    0    0    0    0  0.00000000000E+00  0.00000000000E+00  0.99999998245E-14  0.12500000000E+03  0.12500000000E+03 0.  0.
        -13    1    3    3    0    0  0.19956082588E+02  0.53496229637E+02  0.14236384259E+01  0.57115056929E+02  0.10566000000E+00 0. -1.
         23    2    1    0    0    0  0.66959387175E+00  0.37411030292E+02  0.13807872434E+02  0.85116533693E+02  0.75193971988E+02 0.  0.
         13    1    3    3    0    0 -0.19286488716E+02 -0.16085199345E+02  0.12384234009E+02  0.28001476764E+02  0.10566000000E+00 0.  1.
         22    1    1    0    0    0 -0.66959387175E+00 -0.37411030292E+02 -0.13807872434E+02  0.39883466307E+02  0.00000000000E+00 0. -1.
</event>
<event>
 5    1  0.1245581E-004  0.9118800E+02  0.7818608E-02  0.1130116E+00
         25   -1    0    0    0    0  0.00000000000E+00  0.00000000000E+00  0.99999998245E-14  0.12500000000E+03  0.12500000000E+03 0.  0.
        -13    1    3    3    0    0 -0.58486228334E+02 -0.10341926797E+01 -0.22639874047E+01  0.58539262570E+02  0.10566000000E+00 0. -1.
         23    2    1    0    0    0 -0.24808812491E+02  0.14874786914E+02 -0.38463251446E+01  0.95819001387E+02  0.91267465982E+02 0.  0.
         13    1    3    3    0    0  0.33677415843E+02  0.15908979593E+02 -0.15823377399E+01  0.37279738818E+02  0.10566000000E+00 0.  1.
         22    1    1    0    0    0  0.24808812491E+02 -0.14874786914E+02  0.38463251446E+01  0.29180998613E+02  0.00000000000E+00 0. -1.
</event>
<event>
 5    1  0.1245581E-004  0.9118800E+02  0.7818608E-02  0.1130116E+00
         25   -1    0    0    0    0  0.00000000000E+00  0.00000000000E+00  0.99999998245E-14  0.12500000000E+03  0.12500000000E+03 0.  0.
        -13    1    3    3    0    0  0.21307095647E+02 -0.13150591658E+02 -0.46781689633E+02  0.53060984111E+02  0.10566000000E+00 0.  1.
         23    2    1    0    0    0 -0.78905653633E+01 -0.22348189416E+02 -0.16487734626E+02  0.96128768904E+02  0.91690742314E+02 0.  0.
         13    1    3    3    0    0 -0.29197661010E+02 -0.91975977578E+01  0.30293955007E+02  0.43067784793E+02  0.10566000000E+00 0. -1.
         22    1    1    0    0    0  0.78905653633E+01  0.22348189416E+02  0.16487734626E+02  0.28871231096E+02  0.00000000000E+00 0.  1.
</event>
<event>
 5    1  0.1245581E-004  0.9118800E+02  0.7818608E-02  0.1130116E+00
         25   -1    0    0    0    0  0.00000000000E+00  0.00000000000E+00  0.99999998245E-14  0.12500000000E+03  0.12500000000E+03 0.  0.
        -13    1    3    3    0    0  0.42325425986E+02  0.34715960231E+00  0.23104723488E+02  0.48222418191E+02  0.10566000000E+00 0.  1.
         23    2    1    0    0    0  0.12162299330E+02 -0.28449017945E+02  0.14625507116E+02  0.90777586212E+02  0.84079703574E+02 0.  0.
         13    1    3    3    0    0 -0.30163126656E+02 -0.28796177548E+02 -0.84792163722E+01  0.42555168021E+02  0.10566000000E+00 0. -1.
         22    1    1    0    0    0 -0.12162299330E+02  0.28449017945E+02 -0.14625507116E+02  0.34222413788E+02  0.00000000000E+00 0. -1.
</event>
<event>
 5    1  0.1245581E-004  0.9118800E+02  0.7818608E-02  0.1130116E+00
         25   -1    0    0    0    0  0.00000000000E+00  0.00000000000E+00  0.99999998245E-14  0.12500000000E+03  0.12500000000E+03 0.  0.
        -13    1    3    3    0    0 -0.23076413582E+02  0.10451555131E+02  0.21204313867E+02  0.33036191655E+02  0.10566000000E+00 0. -1.
         23    2    1    0    0    0  0.22974222618E+02  0.15746014854E+02 -0.16358398175E+02  0.92699085468E+02  0.86889420341E+02 0.  0.
         13    1    3    3    0    0  0.46050636200E+02  0.52944597229E+01 -0.37562712042E+02  0.59662893814E+02  0.10566000000E+00 0.  1.
         22    1    1    0    0    0 -0.22974222618E+02 -0.15746014854E+02  0.16358398175E+02  0.32300914532E+02  0.00000000000E+00 0.  1.
</event>
<event>
 5    1  0.1245581E-004  0.9118800E+02  0.7818608E-02  0.1130116E+00
         25   -1    0    0    0    0  0.00000000000E+00  0.00000000000E+00  0.99999998245E-14  0.12500000000E+03  0.12500000000E+03 0.  0.
        -13    1    3    3    0    0 -0.36671582946E+02 -0.14080557626E+01  0.49989507741E+02  0.62014108597E+02  0.10566000000E+00 0. -1.
         23    2    1    0    0    0 -0.12445105971E+02 -0.21569741253E+00  0.26222790695E+02  0.95973082495E+02  0.91478252190E+02 0.  0.
         13    1    3    3    0    0  0.24226476975E+02  0.11923583501E+01 -0.23766717045E+02  0.33958973898E+02  0.10566000000E+00 0.  1.
         22    1    1    0    0    0  0.12445105971E+02  0.21569741253E+00 -0.26222790695E+02  0.29026917505E+02  0.00000000000E+00 0. -1.
</event>
<event>
 5    1  0.1245581E-004  0.9118800E+02  0.7818608E-02  0.1130116E+00
         25   -1    0    0    0    0  0.00000000000E+00  0.00000000000E+00  0.99999998245E-14  0.12500000000E+03  0.12500000000E+03 0.  0.
        -13    1    3    3    0    0  0.23952272272E+02 -0.31688340400E+01  0.33997284203E+02  0.41708264809E+02  0.10566000000E+00 0.  1.
         23    2    1    0    0    0 -0.25755564614E+02 -0.50910691784E+01  0.10490105194E+02  0.96727921885E+02  0.92503948409E+02 0.  0.
         13    1    3    3    0    0 -0.49707836886E+02 -0.19222351384E+01 -0.23507179009E+02  0.55019657076E+02  0.10566000000E+00 0. -1.
         22    1    1    0    0    0  0.25755564614E+02  0.50910691784E+01 -0.10490105194E+02  0.28272078115E+02  0.00000000000E+00 0. -1.
</event>
<event>
 5    1  0.1245581E-004  0.9118800E+02  0.7818608E-02  0.1130116E+00
         25   -1    0    0    0    0  0.00000000000E+00  0.00000000000E+00  0.99999998245E-14  0.12500000000E+03  0.12500000000E+03 0.  0.
        -13    1    3    3    0    0  0.14746312506E+02 -0.39462381168E+02 -0.36861931795E+02  0.55978088925E+02  0.10566000000E+00 0. -1.
         23    2    1    0    0    0  0.14987960182E+02 -0.10695787977E+01 -0.24401441006E+02  0.96343181049E+02  0.91982581298E+02 0.  0.
         13    1    3    3    0    0  0.24164767570E+00  0.38392802370E+02  0.12460490790E+02  0.40365092124E+02  0.10566000000E+00 0.  1.
         22    1    1    0    0    0 -0.14987960182E+02  0.10695787977E+01  0.24401441006E+02  0.28656818951E+02  0.00000000000E+00 0. -1.
</event>
<event>
 5    1  0.1245581E-004  0.9118800E+02  0.7818608E-02  0.1130116E+00
         25   -1    0    0    0    0  0.00000000000E+00  0.00000000000E+00  0.99999998245E-14  0.12500000000E+03  0.12500000000E+03 0.  0.
        -13    1    3    3    0    0 -0.36052022847E+02  0.15027396256E+02 -0.58479749417E+01  0.39494062396E+02  0.10566000000E+00 0. -1.
         23    2    1    0    0    0  0.11121718093E+02  0.16965602624E+02  0.22611874293E+02  0.94622028626E+02  0.89613097015E+02 0.  0.
         13    1    3    3    0    0  0.47173740940E+02  0.19382063675E+01  0.28459849235E+02  0.55127966230E+02  0.10566000000E+00 0.  1.
         22    1    1    0    0    0 -0.11121718093E+02 -0.16965602624E+02 -0.22611874293E+02  0.30377971374E+02  0.00000000000E+00 0.  1.
</event>
<event>
 5    1  0.1245581E-004  0.9118800E+02  0.7818608E-02  0.1130116E+00
         25   -1    0    0    0    0  0.00000000000E+00  0.00000000000E+00  0.99999998245E-14  0.12500000000E+03  0.12500000000E+03 0.  0.
        -13    1    3    3    0    0 -0.45039756113E+02 -0.11294584424E+02  0.35757815176E+02  0.58606994277E+02  0.10566000000E+00 0.  1.
         23    2    1    0    0    0 -0.93482263768E+01 -0.17169661708E+02  0.15392652357E+02  0.10011787055E+03  0.96976634488E+02 0.  0.
         13    1    3    3    0    0  0.35691529736E+02 -0.58750772845E+01 -0.20365162819E+02  0.41510876270E+02  0.10566000000E+00 0. -1.
         22    1    1    0    0    0  0.93482263768E+01  0.17169661708E+02 -0.15392652357E+02  0.24882129454E+02  0.00000000000E+00 0.  1.
</event>
<event>
 5    1  0.1245581E-004  0.9118800E+02  0.7818608E-02  0.1130116E+00
         25   -1    0    0    0    0  0.00000000000E+00  0.00000000000E+00  0.99999998245E-14  0.12500000000E+03  0.12500000000E+03 0.  0.
        -13    1    3    3    0    0 -0.22328904377E+02  0.48865776013E+02 -0.12343857978E+02  0.55125547887E+02  0.10566000000E+00 0.  1.
         23    2    1    0    0    0  0.31989577604E+01  0.26222439602E+02  0.10909969284E+02  0.96418938102E+02  0.92085474020E+02 0.  0.
         13    1    3    3    0    0  0.25527862137E+02 -0.22643336411E+02  0.23253827262E+02  0.41293390215E+02  0.10566000000E+00 0. -1.
         22    1    1    0    0    0 -0.31989577604E+01 -0.26222439602E+02 -0.10909969284E+02  0.28581061898E+02  0.00000000000E+00 0. -1.
</event>
<event>
 5    1  0.1245581E-004  0.9118800E+02  0.7818608E-02  0.1130116E+00
         25   -1    0    0    0    0  0.00000000000E+00  0.00000000000E+00  0.99999998245E-14  0.12500000000E+03  0.12500000000E+03 0.  0.
        -13    1    3    3    0    0  0.25708346212E+02  0.32986624793E+02  0.41627173418E+02  0.59007365735E+02  0.10566000000E+00 0.  1.
         23    2    1    0    0    0  0.12205547165E+01  0.25597902305E+02  0.20537176270E+02  0.92159202729E+02  0.86109236917E+02 0.  0.
         13    1    3    3    0    0 -0.24487791495E+02 -0.73887224883E+01 -0.21089997148E+02  0.33151836994E+02  0.10566000000E+00 0. -1.
         22    1    1    0    0    0 -0.12205547165E+01 -0.25597902305E+02 -0.20537176270E+02  0.32840797271E+02  0.00000000000E+00 0.  1.
</event>
<event>
 5    1  0.1245581E-004  0.9118800E+02  0.7818608E-02  0.1130116E+00
         25   -1    0    0    0    0  0.00000000000E+00  0.00000000000E+00  0.99999998245E-14  0.12500000000E+03  0.12500000000E+03 0.  0.
        -13    1    3    3    0    0 -0.43917172335E+02  0.31994076081E+02 -0.22664514926E+02  0.58873001716E+02  0.10566000000E+00 0.  1.
         23    2    1    0    0    0 -0.22141332659E+02 -0.13409570446E+01 -0.10110557816E+02  0.10062254818E+03  0.97624981669E+02 0.  0.
         13    1    3    3    0    0  0.21775839676E+02 -0.33335033126E+02  0.12553957110E+02  0.41749546468E+02  0.10566000000E+00 0. -1.
         22    1    1    0    0    0  0.22141332659E+02  0.13409570446E+01  0.10110557816E+02  0.24377451816E+02  0.00000000000E+00 0.  1.
</event>
<event>
 5    1  0.1245581E-004  0.9118800E+02  0.7818608E-02  0.1130116E+00
         25   -1    0    0    0    0  0.00000000000E+00  0.00000000000E+00  0.99999998245E-14  0.12500000000E+03  0.12500000000E+03 0.  0.
        -13    1    3    3    0    0  0.13135259444E+02  0.17377833361E+02  0.45369459219E+02  0.50328154415E+02  0.10566000000E+00 0.  1.
         23    2    1    0    0    0  0.11713639548E+02 -0.18750466702E+02  0.24180567675E+02  0.92235854870E+02  0.86220436774E+02 0.  0.
         13    1    3    3    0    0 -0.14216198962E+01 -0.36128300063E+02 -0.21188891543E+02  0.41907700455E+02  0.10566000000E+00 0. -1.
         22    1    1    0    0    0 -0.11713639548E+02  0.18750466702E+02 -0.24180567675E+02  0.32764145130E+02  0.00000000000E+00 0.  1.
</event>
<event>
 5    1  0.1245581E-004  0.9118800E+02  0.7818608E-02  0.1130116E+00
         25   -1    0    0    0    0  0.00000000000E+00  0.00000000000E+00  0.99999998245E-14  0.12500000000E+03  0.12500000000E+03 0.  0.
        -13    1    3    3    0    0 -0.25765998946E+02 -0.37568152649E+02  0.37578550161E+02  0.59054308830E+02  0.10566000000E+00 0.  1.
         23    2    1    0    0    0 -0.34806439554E+00 -0.14207596323E+02  0.25825098380E+02  0.95522675691E+02  0.90860711656E+02 0.  0.
         13    1    3    3    0    0  0.25417934550E+02  0.23360556327E+02 -0.11753451781E+02  0.36468366861E+02  0.10566000000E+00 0. -1.
         22    1    1    0    0    0  0.34806439554E+00  0.14207596323E+02 -0.25825098380E+02  0.29477324309E+02  0.00000000000E+00 0.  1.
</event>
<event>
 5    1  0.1245581E-004  0.9118800E+02  0.7818608E-02  0.1130116E+00
         25   -1    0    0    0    0  0.00000000000E+00  0.00000000000E+00  0.99999998245E-14  0.12500000000E+03  0.12500000000E+03 0.  0.
        -13    1    3    3    0    0  0.54385821319E+02  0.15462509244E+02 -0.11824992583E+02  0.57764594400E+02  0.10566000000E+00 0.  1.
         23    2    1    0    0    0  0.20426807710E+02  0.26284074269E+01 -0.21389679739E+02  0.95306879616E+02  0.90563347464E+02 0.  0.
         13    1    3    3    0    0 -0.33959013609E+02 -0.12834101817E+02 -0.95646871565E+01  0.37542285215E+02  0.10566000000E+00 0. -1.
         22    1    1    0    0    0 -0.20426807710E+02 -0.26284074269E+01  0.21389679739E+02  0.29693120384E+02  0.00000000000E+00 0.  1.
</event>
<event>
 5    1  0.1245581E-004  0.9118800E+02  0.7818608E-02  0.1130116E+00
         25   -1    0    0    0    0  0.00000000000E+00  0.00000000000E+00  0.99999998245E-14  0.12500000000E+03  0.12500000000E+03 0.  0.
        -13    1    3    3    0    0  0.22437393898E+02 -0.19668917693E+02 -0.22355544829E+02  0.37283837206E+02  0.10566000000E+00 0.  1.
         23    2    1    0    0    0  0.17474623104E+02  0.20631473812E+02  0.16368658047E+02  0.93393780192E+02  0.87883132898E+02 0.  0.
         13    1    3    3    0    0 -0.49627707944E+01  0.40300391506E+02  0.38724202876E+02  0.56109942986E+02  0.10566000000E+00 0. -1.
         22    1    1    0    0    0 -0.17474623104E+02 -0.20631473812E+02 -0.16368658047E+02  0.31606219808E+02  0.00000000000E+00 0. -1.
</event>
<event>
 5    1  0.1245581E-004  0.9118800E+02  0.7818608E-02  0.1130116E+00
         25   -1    0    0    0    0  0.00000000000E+00  0.00000000000E+00  0.99999998245E-14  0.12500000000E+03  0.12500000000E+03 0.  0.
        -13    1    3    3    0    0 -0.16132388378E+02  0.28961493467E+02 -0.54512836247E+01  0.33596870626E+02  0.10566000000E+00 0. -1.
         23    2    1    0    0    0  0.20701516703E+01 -0.26969990337E+02  0.12650950631E+02  0.95138445141E+02  0.90330566728E+02 0.  0.
         13    1    3    3    0    0  0.18202540049E+02 -0.55931483804E+02  0.18102234256E+02  0.61541574516E+02  0.10566000000E+00 0.  1.
         22    1    1    0    0    0 -0.20701516703E+01  0.26969990337E+02 -0.12650950631E+02  0.29861554859E+02  0.00000000000E+00 0.  1.
</event>
<event>
 5    1  0.1245581E-004  0.9118800E+02  0.7818608E-02  0.1130116E+00
         25   -1    0    0    0    0  0.00000000000E+00  0.00000000000E+00  0.99999998245E-14  0.12500000000E+03  0.12500000000E+03 0.  0.
        -13    1    3    3    0    0 -0.15083981645E+02 -0.42516196655E+02 -0.31289869503E+02  0.54901917798E+02  0.10566000000E+00 0. -1.
         23    2    1    0    0    0 -0.13972562124E+02 -0.24939694525E+02  0.56814510553E+01  0.95853821152E+02  0.91315142709E+02 0.  0.
         13    1    3    3    0    0  0.11114195203E+01  0.17576502130E+02  0.36971320559E+02  0.40951903355E+02  0.10566000000E+00 0.  1.
         22    1    1    0    0    0  0.13972562124E+02  0.24939694525E+02 -0.56814510553E+01  0.29146178848E+02  0.00000000000E+00 0. -1.
</event>
<event>
 5    1  0.1245581E-004  0.9118800E+02  0.7818608E-02  0.1130116E+00
         25   -1    0    0    0    0  0.00000000000E+00  0.00000000000E+00  0.99999998245E-14  0.12500000000E+03  0.12500000000E+03 0.  0.
        -13    1    3    3    0    0  0.47256078407E+01  0.42109077130E+02  0.30673861464E+02  0.52310636464E+02  0.10566000000E+00 0.  1.
         23    2    1    0    0    0 -0.22271668160E+02  0.19177250939E+02  0.74076031301E+01  0.94690484326E+02  0.89708534051E+02 0.  0.
         13    1    3    3    0    0 -0.26997276001E+02 -0.22931826190E+02 -0.23266258334E+02  0.42379847862E+02  0.10566000000E+00 0. -1.
         22    1    1    0    0    0  0.22271668160E+02 -0.19177250939E+02 -0.74076031301E+01  0.30309515674E+02  0.00000000000E+00 0.  1.
</event>
<event>
 5    1  0.1245581E-004  0.9118800E+02  0.7818608E-02  0.1130116E+00
         25   -1    0    0    0    0  0.00000000000E+00  0.00000000000E+00  0.99999998245E-14  0.12500000000E+03  0.12500000000E+03 0.  0.
        -13    1    3    3    0    0  0.46218814063E+01  0.39073285143E+02 -0.32770025392E+02  0.51205167003E+02  0.10566000000E+00 0. -1.
         23    2    1    0    0    0  0.16176828261E+02 -0.37451793105E+01 -0.23022875868E+02  0.96613930285E+02  0.92349783818E+02 0.  0.
         13    1    3    3    0    0  0.11554946855E+02 -0.42818464453E+02  0.97471495239E+01  0.45408763282E+02  0.10566000000E+00 0.  1.
         22    1    1    0    0    0 -0.16176828261E+02  0.37451793105E+01  0.23022875868E+02  0.28386069715E+02  0.00000000000E+00 0.  1.
</event>
<event>
 5    1  0.1245581E-004  0.9118800E+02  0.7818608E-02  0.1130116E+00
         25   -1    0    0    0    0  0.00000000000E+00  0.00000000000E+00  0.99999998245E-14  0.12500000000E+03  0.12500000000E+03 0.  0.
        -13    1    3    3    0    0  0.35502151486E+02 -0.29202436737E+02  0.10943303774E+02  0.47254122921E+02  0.10566000000E+00 0. -1.
         23    2    1    0    0    0 -0.11264090767E+02 -0.27940027306E+02  0.27496370447E+01  0.94749621977E+02  0.89790898727E+02 0.  0.
         13    1    3    3    0    0 -0.46766242253E+02  0.12624094310E+01 -0.81936667292E+01  0.47495499056E+02  0.10566000000E+00 0.  1.
         22    1    1    0    0    0  0.11264090767E+02  0.27940027306E+02 -0.27496370447E+01  0.30250378023E+02  0.00000000000E+00 0. -1.
</event>
<event>
 5    1  0.1245581E-004  0.9118800E+02  0.7818608E-02  0.1130116E+00
         25   -1    0    0    0    0  0.00000000000E+00  0.00000000000E+00  0.99999998245E-14  0.12500000000E+03  0.12500000000E+03 0.  0.
        -13    1    3    3    0    0 -0.13246239950E+02  0.15489689305E+02  0.27904748528E+02  0.34555455460E+02  0.10566000000E+00 0. -1.
         23    2    1    0    0    0 -0.37835888526E+00 -0.13632412224E+01 -0.29352788559E+02  0.95613135957E+02  0.90985075640E+02 0.  0.
         13    1    3    3    0    0  0.12867881064E+02 -0.16852930528E+02 -0.57257537087E+02  0.61057680498E+02  0.10566000000E+00 0.  1.
         22    1    1    0    0    0  0.37835888526E+00  0.13632412224E+01  0.29352788559E+02  0.29386864043E+02  0.00000000000E+00 0.  1.
</event>
<event>
 5    1  0.1245581E-004  0.9118800E+02  0.7818608E-02  0.1130116E+00
         25   -1    0    0    0    0  0.00000000000E+00  0.00000000000E+00  0.99999998245E-14  0.12500000000E+03  0.12500000000E+03 0.  0.
        -13    1    3    3    0    0  0.41065352298E+02  0.26312250085E+01  0.10105052334E+02  0.42372275737E+02  0.10566000000E+00 0.  1.
         23    2    1    0    0    0 -0.85990332568E+01  0.15976902509E+02  0.23304169203E+02  0.95465459391E+02  0.90781963230E+02 0.  0.
         13    1    3    3    0    0 -0.49664385554E+02  0.13345677501E+02  0.13199116869E+02  0.53093183655E+02  0.10566000000E+00 0. -1.
         22    1    1    0    0    0  0.85990332568E+01 -0.15976902509E+02 -0.23304169203E+02  0.29534540609E+02  0.00000000000E+00 0. -1.
</event>
<event>
 5    1  0.1245581E-004  0.9118800E+02  0.7818608E-02  0.1130116E+00
         25   -1    0    0    0    0  0.00000000000E+00  0.00000000000E+00  0.99999998245E-14  0.12500000000E+03  0.12500000000E+03 0.  0.
        -13    1    3    3    0    0 -0.12561524459E+02 -0.39046330251E+02  0.35740402124E+01  0.41172718277E+02  0.10566000000E+00 0.  1.
         23    2    1    0    0    0 -0.58944692847E+01  0.44683372572E+01 -0.28445628969E+02  0.95608426149E+02  0.90978604833E+02 0.  0.
         13    1    3    3    0    0  0.66670551742E+01  0.43514667508E+02 -0.32019669181E+02  0.54435707872E+02  0.10566000000E+00 0. -1.
         22    1    1    0    0    0  0.58944692847E+01 -0.44683372572E+01  0.28445628969E+02  0.29391573851E+02  0.00000000000E+00 0. -1.
</event>
<event>
 5    1  0.1245581E-004  0.9118800E+02  0.7818608E-02  0.1130116E+00
         25   -1    0    0    0    0  0.00000000000E+00  0.00000000000E+00  0.99999998245E-14  0.12500000000E+03  0.12500000000E+03 0.  0.
        -13    1    3    3    0    0 -0.51886285883E+02  0.12358890752E+02  0.27726192984E+02  0.60113906750E+02  0.10566000000E+00 0.  1.
         23    2    1    0    0    0 -0.26873122807E+02 -0.60263730819E+01  0.14728477826E+02  0.93768446068E+02  0.88414430480E+02 0.  0.
         13    1    3    3    0    0  0.25013163076E+02 -0.18385263834E+02 -0.12997715158E+02  0.33654539318E+02  0.10566000000E+00 0. -1.
         22    1    1    0    0    0  0.26873122807E+02  0.60263730819E+01 -0.14728477826E+02  0.31231553932E+02  0.00000000000E+00 0.  1.
</event>
<event>
 5    1  0.1245581E-004  0.9118800E+02  0.7818608E-02  0.1130116E+00
         25   -1    0    0    0    0  0.00000000000E+00  0.00000000000E+00  0.99999998245E-14  0.12500000000E+03  0.12500000000E+03 0.  0.
        -13    1    3    3    0    0 -0.21271876670E+02  0.52725728599E+02 -0.22511931880E+01  0.56899685660E+02  0.10566000000E+00 0.  1.
         23    2    1    0    0    0  0.94524312923E+01  0.19111046136E+02  0.52209771587E+01  0.10304916530E+03  0.10068411654E+03 0.  0.
         13    1    3    3    0    0  0.30724307962E+02 -0.33614682463E+02  0.74721703468E+01  0.46149479635E+02  0.10566000000E+00 0. -1.
         22    1    1    0    0    0 -0.94524312923E+01 -0.19111046136E+02 -0.52209771587E+01  0.21950834705E+02  0.00000000000E+00 0.  1.
</event>
<event>
 5    1  0.1245581E-004  0.9118800E+02  0.7818608E-02  0.1130116E+00
         25   -1    0    0    0    0  0.00000000000E+00  0.00000000000E+00  0.99999998245E-14  0.12500000000E+03  0.12500000000E+03 0.  0.
        -13    1    3    3    0    0 -0.23892603487E+00  0.51487472525E+02  0.32800610622E+02  0.61048408119E+02  0.10566000000E+00 0. -1.
         23    2    1    0    0    0 -0.56037925100E+01  0.32083429543E+02  0.11242893016E+02  0.90544933825E+02  0.83733108483E+02 0.  0.
         13    1    3    3    0    0 -0.53648664751E+01 -0.19404042981E+02 -0.21557717606E+02  0.29496525706E+02  0.10566000000E+00 0.  1.
         22    1    1    0    0    0  0.56037925100E+01 -0.32083429543E+02 -0.11242893016E+02  0.34455066175E+02  0.00000000000E+00 0. -1.
</event>
<event>
 5    1  0.1245581E-004  0.9118800E+02  0.7818608E-02  0.1130116E+00
         25   -1    0    0    0    0  0.00000000000E+00  0.00000000000E+00  0.99999998245E-14  0.12500000000E+03  0.12500000000E+03 0.  0.
        -13    1    3    3    0    0 -0.29838336293E+01 -0.57429624731E+02 -0.18631911227E+02  0.60450180644E+02  0.10566000000E+00 0. -1.
         23    2    1    0    0    0 -0.90550881077E+01 -0.22695739818E+02  0.48515484037E+00  0.10055973401E+03  0.97544520615E+02 0.  0.
         13    1    3    3    0    0 -0.60712544784E+01  0.34733884912E+02  0.19117066067E+02  0.40109553364E+02  0.10566000000E+00 0.  1.
         22    1    1    0    0    0  0.90550881077E+01  0.22695739818E+02 -0.48515484037E+00  0.24440265992E+02  0.00000000000E+00 0. -1.
</event>
<event>
 5    1  0.1245581E-004  0.9118800E+02  0.7818608E-02  0.1130116E+00
         25   -1    0    0    0    0  0.00000000000E+00  0.00000000000E+00  0.99999998245E-14  0.12500000000E+03  0.12500000000E+03 0.  0.
        -13    1    3    3    0    0 -0.13887287626E+02 -0.31988752456E+02  0.37246711003E+02  0.51024167665E+02  0.10566000000E+00 0. -1.
         23    2    1    0    0    0  0.69943830584E+01 -0.27303072341E+02 -0.30494078538E+01  0.96650784104E+02  0.92399653820E+02 0.  0.
         13    1    3    3    0    0  0.20881670685E+02  0.46856801147E+01 -0.40296118857E+02  0.45626616439E+02  0.10566000000E+00 0.  1.
         22    1    1    0    0    0 -0.69943830584E+01  0.27303072341E+02  0.30494078538E+01  0.28349215896E+02  0.00000000000E+00 0. -1.
</event>
<event>
 5    1  0.1245581E-004  0.9118800E+02  0.7818608E-02  0.1130116E+00
         25   -1    0    0    0    0  0.00000000000E+00  0.00000000000E+00  0.99999998245E-14  0.12500000000E+03  0.12500000000E+03 0.  0.
        -13    1    3    3    0    0  0.40324260917E+02  0.37649473416E+02 -0.10253873092E+02  0.56113117401E+02  0.10566000000E+00 0. -1.
         23    2    1    0    0    0  0.14748153403E+02  0.97946995604E+01 -0.22960262044E+02  0.96006590380E+02  0.91524027419E+02 0.  0.
         13    1    3    3    0    0 -0.25576107514E+02 -0.27854773856E+02 -0.12706388952E+02  0.39893472980E+02  0.10566000000E+00 0.  1.
         22    1    1    0    0    0 -0.14748153403E+02 -0.97946995604E+01  0.22960262044E+02  0.28993409620E+02  0.00000000000E+00 0. -1.
</event>
<event>
 5    1  0.1245581E-004  0.9118800E+02  0.7818608E-02  0.1130116E+00
         25   -1    0    0    0    0  0.00000000000E+00  0.00000000000E+00  0.99999998245E-14  0.12500000000E+03  0.12500000000E+03 0.  0.
        -13    1    3    3    0    0  0.74114418129E+01  0.14506133296E+02 -0.29489260875E+02  0.33689539088E+02  0.10566000000E+00 0.  1.
         23    2    1    0    0    0 -0.56289971117E+01  0.82709084630E-01  0.29068529082E+02  0.95391355447E+02  0.90679870212E+02 0.  0.
         13    1    3    3    0    0 -0.13040438925E+02 -0.14423424211E+02  0.58557789957E+02  0.61701816359E+02  0.10566000000E+00 0. -1.
         22    1    1    0    0    0  0.56289971117E+01 -0.82709084630E-01 -0.29068529082E+02  0.29608644553E+02  0.00000000000E+00 0. -1.
</event>
<event>
 5    1  0.1245581E-004  0.9118800E+02  0.7818608E-02  0.1130116E+00
         25   -1    0    0    0    0  0.00000000000E+00  0.00000000000E+00  0.99999998245E-14  0.12500000000E+03  0.12500000000E+03 0.  0.
        -13    1    3    3    0    0 -0.38023517077E+02 -0.44978736909E+02  0.47295877586E+01  0.59086841084E+02  0.10566000000E+00 0.  1.
         23    2    1    0    0    0 -0.14576719173E+02 -0.18848274433E+02 -0.12387278189E+02  0.98145152171E+02  0.94399618870E+02 0.  0.
         13    1    3    3    0    0  0.23446797903E+02  0.26130462476E+02 -0.17116865947E+02  0.39058311088E+02  0.10566000000E+00 0. -1.
         22    1    1    0    0    0  0.14576719173E+02  0.18848274433E+02  0.12387278189E+02  0.26854847829E+02  0.00000000000E+00 0.  1.
</event>
<event>
 5    1  0.1245581E-004  0.9118800E+02  0.7818608E-02  0.1130116E+00
         25   -1    0    0    0    0  0.00000000000E+00  0.00000000000E+00  0.99999998245E-14  0.12500000000E+03  0.12500000000E+03 0.  0.
        -13    1    3    3    0    0 -0.27517025882E+02  0.81078982978E+01 -0.51316745986E+02  0.58790682177E+02  0.10566000000E+00 0. -1.
         23    2    1    0    0    0 -0.12508493690E+02  0.19148893413E+02 -0.24101267773E+02  0.91773299267E+02  0.85547208118E+02 0.  0.
         13    1    3    3    0    0  0.15008532192E+02  0.11040995115E+02  0.27215478214E+02  0.32982617090E+02  0.10566000000E+00 0.  1.
         22    1    1    0    0    0  0.12508493690E+02 -0.19148893413E+02  0.24101267773E+02  0.33226700733E+02  0.00000000000E+00 0. -1.
</event>
<event>
 5    1  0.1245581E-004  0.9118800E+02  0.7818608E-02  0.1130116E+00
         25   -1    0    0    0    0  0.00000000000E+00  0.00000000000E+00  0.99999998245E-14  0.12500000000E+03  0.12500000000E+03 0.  0.
        -13    1    3    3    0    0 -0.16577436683E+02  0.46538241102E+02 -0.38172095904E+02  0.62431877768E+02  0.10566000000E+00 0.  1.
         23    2    1    0    0    0 -0.10880242704E+02  0.24667216834E+02 -0.21490937291E+02  0.90522302089E+02  0.83699316139E+02 0.  0.
         13    1    3    3    0    0  0.56971939796E+01 -0.21871024268E+02  0.16681158614E+02  0.28090424321E+02  0.10566000000E+00 0. -1.
         22    1    1    0    0    0  0.10880242704E+02 -0.24667216834E+02  0.21490937291E+02  0.34477697911E+02  0.00000000000E+00 0.  1.
</event>
<event>
 5    1  0.1245581E-004  0.9118800E+02  0.7818608E-02  0.1130116E+00
         25   -1    0    0    0    0  0.00000000000E+00  0.00000000000E+00  0.99999998245E-14  0.12500000000E+03  0.12500000000E+03 0.  0.
        -13    1    3    3    0    0  0.16864139192E+02 -0.56889165864E+02 -0.10123227924E+02  0.60193581809E+02  0.10566000000E+00 0.  1.
         23    2    1    0    0    0 -0.28081854261E+01 -0.25984526223E+02 -0.10509244286E+02  0.96830411365E+02  0.92642338276E+02 0.  0.
         13    1    3    3    0    0 -0.19672324618E+02  0.30904639642E+02 -0.38601636186E+00  0.36636829556E+02  0.10566000000E+00 0. -1.
         22    1    1    0    0    0  0.28081854261E+01  0.25984526223E+02  0.10509244286E+02  0.28169588635E+02  0.00000000000E+00 0.  1.
</event>
<event>
 5    1  0.1245581E-004  0.9118800E+02  0.7818608E-02  0.1130116E+00
         25   -1    0    0    0    0  0.00000000000E+00  0.00000000000E+00  0.99999998245E-14  0.12500000000E+03  0.12500000000E+03 0.  0.
        -13    1    3    3    0    0 -0.41292767592E+01  0.13857810994E+02  0.36291020228E+02  0.39065831174E+02  0.10566000000E+00 0.  1.
         23    2    1    0    0    0 -0.53677194404E+01  0.23897122559E+02 -0.18198592613E+02  0.94486500501E+02  0.89423850987E+02 0.  0.
         13    1    3    3    0    0 -0.12384426812E+01  0.10039311565E+02 -0.54489612842E+02  0.55420669327E+02  0.10566000000E+00 0. -1.
         22    1    1    0    0    0  0.53677194404E+01 -0.23897122559E+02  0.18198592613E+02  0.30513499499E+02  0.00000000000E+00 0. -1.
</event>
<event>
 5    1  0.1245581E-004  0.9118800E+02  0.7818608E-02  0.1130116E+00
         25   -1    0    0    0    0  0.00000000000E+00  0.00000000000E+00  0.99999998245E-14  0.12500000000E+03  0.12500000000E+03 0.  0.
        -13    1    3    3    0    0 -0.30906617859E+02 -0.57086200655E+01 -0.49629826650E+02  0.58744686806E+02  0.10566000000E+00 0.  1.
         23    2    1    0    0    0 -0.28221384364E+02  0.80888695061E+01 -0.28795730767E+02  0.83877372947E+02  0.73105015128E+02 0.  0.
         13    1    3    3    0    0  0.26852334952E+01  0.13797489572E+02  0.20834095883E+02  0.25132686142E+02  0.10566000000E+00 0. -1.
         22    1    1    0    0    0  0.28221384364E+02 -0.80888695061E+01  0.28795730767E+02  0.41122627053E+02  0.00000000000E+00 0.  1.
</event>
<event>
 5    1  0.1245581E-004  0.9118800E+02  0.7818608E-02  0.1130116E+00
         25   -1    0    0    0    0  0.00000000000E+00  0.00000000000E+00  0.99999998245E-14  0.12500000000E+03  0.12500000000E+03 0.  0.
        -13    1    3    3    0    0 -0.32039724748E+01 -0.42032813289E+02 -0.22076770118E+02  0.47585898915E+02  0.10566000000E+00 0.  1.
         23    2    1    0    0    0 -0.14794267664E+02  0.35256110016E+01 -0.26126035432E+02  0.94769716904E+02  0.89818868987E+02 0.  0.
         13    1    3    3    0    0 -0.11590295190E+02  0.45558424291E+02 -0.40492653134E+01  0.47183817989E+02  0.10566000000E+00 0. -1.
         22    1    1    0    0    0  0.14794267664E+02 -0.35256110016E+01  0.26126035432E+02  0.30230283096E+02  0.00000000000E+00 0. -1.
</event>
<event>
 5    1  0.1245581E-004  0.9118800E+02  0.7818608E-02  0.1130116E+00
         25   -1    0    0    0    0  0.00000000000E+00  0.00000000000E+00  0.99999998245E-14  0.12500000000E+03  0.12500000000E+03 0.  0.
        -13    1    3    3    0    0 -0.28829863129E+02 -0.10101548970E+01  0.50273687780E+02  0.57962369413E+02  0.10566000000E+00 0.  1.
         23    2    1    0    0    0 -0.20570147928E+02  0.13210054566E+02  0.16561865401E+02  0.95471506761E+02  0.90790289625E+02 0.  0.
         13    1    3    3    0    0  0.82597152015E+01  0.14220209463E+02 -0.33711822379E+02  0.37509137347E+02  0.10566000000E+00 0. -1.
         22    1    1    0    0    0  0.20570147928E+02 -0.13210054566E+02 -0.16561865401E+02  0.29528493239E+02  0.00000000000E+00 0.  1.
</event>
<event>
 5    1  0.1245581E-004  0.9118800E+02  0.7818608E-02  0.1130116E+00
         25   -1    0    0    0    0  0.00000000000E+00  0.00000000000E+00  0.99999998245E-14  0.12500000000E+03  0.12500000000E+03 0.  0.
        -13    1    3    3    0    0  0.24995240932E+02 -0.32566611213E+01 -0.37852611302E+02  0.45477458782E+02  0.10566000000E+00 0. -1.
         23    2    1    0    0    0  0.19202336673E+02  0.18235650221E+02  0.87393795546E+01  0.97113705379E+02  0.93023794508E+02 0.  0.
         13    1    3    3    0    0 -0.57929042585E+01  0.21492311342E+02  0.46591990856E+02  0.51636246597E+02  0.10566000000E+00 0.  1.
         22    1    1    0    0    0 -0.19202336673E+02 -0.18235650221E+02 -0.87393795546E+01  0.27886294621E+02  0.00000000000E+00 0. -1.
</event>
<event>
 5    1  0.1245581E-004  0.9118800E+02  0.7818608E-02  0.1130116E+00
         25   -1    0    0    0    0  0.00000000000E+00  0.00000000000E+00  0.99999998245E-14  0.12500000000E+03  0.12500000000E+03 0.  0.
        -13    1    3    3    0    0  0.33924294745E+02  0.36078701584E+02  0.27988339942E+02  0.56884873373E+02  0.10566000000E+00 0.  1.
         23    2    1    0    0    0  0.20295159824E+02 -0.31773389889E+01  0.95248164710E+01  0.10235687468E+03  0.99820933029E+02 0.  0.
         13    1    3    3    0    0 -0.13629134921E+02 -0.39256040573E+02 -0.18463523470E+02  0.45472001310E+02  0.10566000000E+00 0. -1.
         22    1    1    0    0    0 -0.20295159824E+02  0.31773389889E+01 -0.95248164710E+01  0.22643125317E+02  0.00000000000E+00 0. -1.
</event>
<event>
 5    1  0.1245581E-004  0.9118800E+02  0.7818608E-02  0.1130116E+00
         25   -1    0    0    0    0  0.00000000000E+00  0.00000000000E+00  0.99999998245E-14  0.12500000000E+03  0.12500000000E+03 0.  0.
        -13    1    3    3    0    0 -0.29295711517E+02 -0.94325845136E+01  0.27346231594E+02  0.41170862395E+02  0.10566000000E+00 0.  1.
         23    2    1    0    0    0  0.18175818267E+02  0.16950905334E+02  0.68555516650E+01  0.99218375731E+02  0.95810197436E+02 0.  0.
         13    1    3    3    0    0  0.47471529784E+02  0.26383489847E+02 -0.20490679929E+02  0.58047513337E+02  0.10566000000E+00 0. -1.
         22    1    1    0    0    0 -0.18175818267E+02 -0.16950905334E+02 -0.68555516650E+01  0.25781624269E+02  0.00000000000E+00 0. -1.
</event>
<event>
 5    1  0.1245581E-004  0.9118800E+02  0.7818608E-02  0.1130116E+00
         25   -1    0    0    0    0  0.00000000000E+00  0.00000000000E+00  0.99999998245E-14  0.12500000000E+03  0.12500000000E+03 0.  0.
        -13    1    3    3    0    0 -0.61183171774E+02 -0.39990141799E+01 -0.74015788594E+01  0.61758943938E+02  0.10566000000E+00 0. -1.
         23    2    1    0    0    0 -0.27118185847E+02 -0.84978086911E+01 -0.24271463904E+01  0.96478082186E+02  0.92165723274E+02 0.  0.
         13    1    3    3    0    0  0.34064985927E+02 -0.44987945111E+01  0.49744324690E+01  0.34719138248E+02  0.10566000000E+00 0.  1.
         22    1    1    0    0    0  0.27118185847E+02  0.84978086911E+01  0.24271463904E+01  0.28521917814E+02  0.00000000000E+00 0. -1.
</event>
<event>
 5    1  0.1245581E-004  0.9118800E+02  0.7818608E-02  0.1130116E+00
         25   -1    0    0    0    0  0.00000000000E+00  0.00000000000E+00  0.99999998245E-14  0.12500000000E+03  0.12500000000E+03 0.  0.
        -13    1    3    3    0    0  0.13713666240E+02  0.36113354440E+02  0.55219112282E+01  0.39022322821E+02  0.10566000000E+00 0.  1.
         23    2    1    0    0    0 -0.27260454766E+02 -0.21185895079E+01  0.11411146097E+02  0.95371718396E+02  0.90652796973E+02 0.  0.
         13    1    3    3    0    0 -0.40974121006E+02 -0.38231943948E+02  0.58892348685E+01  0.56349395575E+02  0.10566000000E+00 0. -1.
         22    1    1    0    0    0  0.27260454766E+02  0.21185895079E+01 -0.11411146097E+02  0.29628281604E+02  0.00000000000E+00 0. -1.
</event>
<event>
 5    1  0.1245581E-004  0.9118800E+02  0.7818608E-02  0.1130116E+00
         25   -1    0    0    0    0  0.00000000000E+00  0.00000000000E+00  0.99999998245E-14  0.12500000000E+03  0.12500000000E+03 0.  0.
        -13    1    3    3    0    0 -0.86630629579E+01 -0.49393824044E+02  0.19284586327E+02  0.53728064802E+02  0.10566000000E+00 0. -1.
         23    2    1    0    0    0 -0.56833434051E+01 -0.11638849121E+02  0.29353209461E+02  0.92916139466E+02  0.87201117346E+02 0.  0.
         13    1    3    3    0    0  0.29797195528E+01  0.37754974923E+02  0.10068623133E+02  0.39188074664E+02  0.10566000000E+00 0.  1.
         22    1    1    0    0    0  0.56833434051E+01  0.11638849121E+02 -0.29353209461E+02  0.32083860534E+02  0.00000000000E+00 0. -1.
</event>
<event>
 5    1  0.1245581E-004  0.9118800E+02  0.7818608E-02  0.1130116E+00
         25   -1    0    0    0    0  0.00000000000E+00  0.00000000000E+00  0.99999998245E-14  0.12500000000E+03  0.12500000000E+03 0.  0.
        -13    1    3    3    0    0  0.21489127618E+02 -0.96603204841E+01 -0.27804096545E+02  0.36444249839E+02  0.10566000000E+00 0.  1.
         23    2    1    0    0    0  0.10632844247E+02  0.11012472700E+02  0.25849032819E+02  0.94958288507E+02  0.90080919882E+02 0.  0.
         13    1    3    3    0    0 -0.10856283371E+02  0.20672793184E+02  0.53653129364E+02  0.58514038668E+02  0.10566000000E+00 0. -1.
         22    1    1    0    0    0 -0.10632844247E+02 -0.11012472700E+02 -0.25849032819E+02  0.30041711493E+02  0.00000000000E+00 0. -1.
</event>
<event>
 5    1  0.1245581E-004  0.9118800E+02  0.7818608E-02  0.1130116E+00
         25   -1    0    0    0    0  0.00000000000E+00  0.00000000000E+00  0.99999998245E-14  0.12500000000E+03  0.12500000000E+03 0.  0.
        -13    1    3    3    0    0 -0.25727519560E+02  0.45486381690E+00  0.38933262951E+02  0.46668215006E+02  0.10566000000E+00 0.  1.
         23    2    1    0    0    0 -0.21785510791E+02 -0.96522702506E+01 -0.11702619327E+02  0.98453322231E+02  0.94806806495E+02 0.  0.
         13    1    3    3    0    0  0.39420087685E+01 -0.10107134068E+02 -0.50635882278E+02  0.51785107225E+02  0.10566000000E+00 0. -1.
         22    1    1    0    0    0  0.21785510791E+02  0.96522702506E+01  0.11702619327E+02  0.26546677769E+02  0.00000000000E+00 0. -1.
</event>
<event>
 5    1  0.1245581E-004  0.9118800E+02  0.7818608E-02  0.1130116E+00
         25   -1    0    0    0    0  0.00000000000E+00  0.00000000000E+00  0.99999998245E-14  0.12500000000E+03  0.12500000000E+03 0.  0.
        -13    1    3    3    0    0  0.36993226787E+02 -0.17244173379E+02 -0.98697709254E+01  0.41991473965E+02  0.10566000000E+00 0.  1.
         23    2    1    0    0    0  0.68032196567E+01 -0.43829923872E+01  0.30171635202E+02  0.93761850395E+02  0.88405105050E+02 0.  0.
         13    1    3    3    0    0 -0.30190007130E+02  0.12861180992E+02  0.40041406127E+02  0.51770376430E+02  0.10566000000E+00 0. -1.
         22    1    1    0    0    0 -0.68032196567E+01  0.43829923872E+01 -0.30171635202E+02  0.31238149605E+02  0.00000000000E+00 0.  1.
</event>
<event>
 5    1  0.1245581E-004  0.9118800E+02  0.7818608E-02  0.1130116E+00
         25   -1    0    0    0    0  0.00000000000E+00  0.00000000000E+00  0.99999998245E-14  0.12500000000E+03  0.12500000000E+03 0.  0.
        -13    1    3    3    0    0  0.12547424361E+02 -0.12322191928E+02 -0.40929756413E+02  0.44548068376E+02  0.10566000000E+00 0.  1.
         23    2    1    0    0    0 -0.16619422971E+02 -0.25015411426E+02 -0.18878643255E+01  0.94907807318E+02  0.90010842844E+02 0.  0.
         13    1    3    3    0    0 -0.29166847332E+02 -0.12693219498E+02  0.39041892087E+02  0.50359738942E+02  0.10566000000E+00 0. -1.
         22    1    1    0    0    0  0.16619422971E+02  0.25015411426E+02  0.18878643255E+01  0.30092192682E+02  0.00000000000E+00 0. -1.
</event>
<event>
 5    1  0.1245581E-004  0.9118800E+02  0.7818608E-02  0.1130116E+00
         25   -1    0    0    0    0  0.00000000000E+00  0.00000000000E+00  0.99999998245E-14  0.12500000000E+03  0.12500000000E+03 0.  0.
        -13    1    3    3    0    0  0.25182135782E+02  0.29250359886E+02 -0.18659889576E+02  0.42871041030E+02  0.10566000000E+00 0.  1.
         23    2    1    0    0    0  0.26744793645E+02 -0.86361394657E+01  0.14617561880E+02  0.93321300417E+02  0.87779981227E+02 0.  0.
         13    1    3    3    0    0  0.15626578624E+01 -0.37886499351E+02  0.33277451457E+02  0.50450259386E+02  0.10566000000E+00 0. -1.
         22    1    1    0    0    0 -0.26744793645E+02  0.86361394657E+01 -0.14617561880E+02  0.31678699583E+02  0.00000000000E+00 0.  1.
</event>
<event>
 5    1  0.1245581E-004  0.9118800E+02  0.7818608E-02  0.1130116E+00
         25   -1    0    0    0    0  0.00000000000E+00  0.00000000000E+00  0.99999998245E-14  0.12500000000E+03  0.12500000000E+03 0.  0.
        -13    1    3    3    0    0 -0.19692441396E+01 -0.31297760129E+02  0.13803575361E+02  0.34263356058E+02  0.10566000000E+00 0.  1.
         23    2    1    0    0    0  0.12173420630E+02  0.23364424855E+02 -0.11644900195E+02  0.96195621527E+02  0.91781835795E+02 0.  0.
         13    1    3    3    0    0  0.14142664770E+02  0.54662184984E+02 -0.25448475555E+02  0.61932265469E+02  0.10566000000E+00 0. -1.
         22    1    1    0    0    0 -0.12173420630E+02 -0.23364424855E+02  0.11644900195E+02  0.28804378473E+02  0.00000000000E+00 0. -1.
</event>
<event>
 5    1  0.1245581E-004  0.9118800E+02  0.7818608E-02  0.1130116E+00
         25   -1    0    0    0    0  0.00000000000E+00  0.00000000000E+00  0.99999998245E-14  0.12500000000E+03  0.12500000000E+03 0.  0.
        -13    1    3    3    0    0  0.25490497507E+02 -0.23971763681E+02 -0.40216699562E+01  0.35222094066E+02  0.10566000000E+00 0.  1.
         23    2    1    0    0    0 -0.29092443091E+01  0.28923162992E+02  0.34695969738E+01  0.95724563828E+02  0.91138032440E+02 0.  0.
         13    1    3    3    0    0 -0.28399741816E+02  0.52894926673E+02  0.74912669300E+01  0.60502469761E+02  0.10566000000E+00 0. -1.
         22    1    1    0    0    0  0.29092443091E+01 -0.28923162992E+02 -0.34695969738E+01  0.29275436172E+02  0.00000000000E+00 0. -1.
</event>
<event>
 5    1  0.1245581E-004  0.9118800E+02  0.7818608E-02  0.1130116E+00
         25   -1    0    0    0    0  0.00000000000E+00  0.00000000000E+00  0.99999998245E-14  0.12500000000E+03  0.12500000000E+03 0.  0.
        -13    1    3    3    0    0  0.14091256808E+02 -0.60385819722E+01 -0.83236951923E+01  0.17444857590E+02  0.10566000000E+00 0. -1.
         23    2    1    0    0    0 -0.40461260038E+02  0.15732805197E+02 -0.19789170704E+02  0.77289980084E+02  0.60807031016E+02 0.  0.
         13    1    3    3    0    0 -0.54552516846E+02  0.21771387169E+02 -0.11465475511E+02  0.59845122493E+02  0.10566000000E+00 0.  1.
         22    1    1    0    0    0  0.40461260038E+02 -0.15732805197E+02  0.19789170704E+02  0.47710019916E+02  0.00000000000E+00 0.  1.
</event>
<event>
 5    1  0.1245581E-004  0.9118800E+02  0.7818608E-02  0.1130116E+00
         25   -1    0    0    0    0  0.00000000000E+00  0.00000000000E+00  0.99999998245E-14  0.12500000000E+03  0.12500000000E+03 0.  0.
        -13    1    3    3    0    0 -0.36074076194E+02 -0.36335852766E+02 -0.63964059184E+01  0.51599983936E+02  0.10566000000E+00 0.  1.
         23    2    1    0    0    0  0.58599279865E+01 -0.29806199785E+02  0.62740005665E+00  0.94616749146E+02  0.89605732442E+02 0.  0.
         13    1    3    3    0    0  0.41934004181E+02  0.65296529812E+01  0.70238059750E+01  0.43016765210E+02  0.10566000000E+00 0. -1.
         22    1    1    0    0    0 -0.58599279865E+01  0.29806199785E+02 -0.62740005665E+00  0.30383250854E+02  0.00000000000E+00 0.  1.
</event>
<event>
 5    1  0.1245581E-004  0.9118800E+02  0.7818608E-02  0.1130116E+00
         25   -1    0    0    0    0  0.00000000000E+00  0.00000000000E+00  0.99999998245E-14  0.12500000000E+03  0.12500000000E+03 0.  0.
        -13    1    3    3    0    0  0.36472386990E+01  0.38380392333E+02 -0.11884314743E+02  0.40343586438E+02  0.10566000000E+00 0. -1.
         23    2    1    0    0    0 -0.30311915536E+00 -0.19805026996E+02  0.10219905336E+02  0.10271149533E+03  0.10026402062E+03 0.  0.
         13    1    3    3    0    0 -0.39503578544E+01 -0.58185419329E+02  0.22104220078E+02  0.62367908888E+02  0.10566000000E+00 0.  1.
         22    1    1    0    0    0  0.30311915536E+00  0.19805026996E+02 -0.10219905336E+02  0.22288504674E+02  0.00000000000E+00 0.  1.
</event>
<event>
 5    1  0.1245581E-004  0.9118800E+02  0.7818608E-02  0.1130116E+00
         25   -1    0    0    0    0  0.00000000000E+00  0.00000000000E+00  0.99999998245E-14  0.12500000000E+03  0.12500000000E+03 0.  0.
        -13    1    3    3    0    0 -0.28153894371E+02  0.32801079833E+02 -0.27223696823E+02  0.51085158698E+02  0.10566000000E+00 0.  1.
         23    2    1    0    0    0  0.40721652885E+01  0.35587039085E+02 -0.96206072643E+01  0.87911242065E+02  0.79704520050E+02 0.  0.
         13    1    3    3    0    0  0.32226059660E+02  0.27859592525E+01  0.17603089559E+02  0.36826083367E+02  0.10566000000E+00 0. -1.
         22    1    1    0    0    0 -0.40721652885E+01 -0.35587039085E+02  0.96206072643E+01  0.37088757935E+02  0.00000000000E+00 0.  1.
</event>
<event>
 5    1  0.1245581E-004  0.9118800E+02  0.7818608E-02  0.1130116E+00
         25   -1    0    0    0    0  0.00000000000E+00  0.00000000000E+00  0.99999998245E-14  0.12500000000E+03  0.12500000000E+03 0.  0.
        -13    1    3    3    0    0 -0.53203722292E+02  0.12645042481E+02  0.24235569313E+02  0.59815609576E+02  0.10566000000E+00 0.  1.
         23    2    1    0    0    0 -0.18018436875E+02 -0.79143069169E+01  0.63346695006E+01  0.10432565940E+03  0.10225661275E+03 0.  0.
         13    1    3    3    0    0  0.35185285417E+02 -0.20559349398E+02 -0.17900899812E+02  0.44510049828E+02  0.10566000000E+00 0. -1.
         22    1    1    0    0    0  0.18018436875E+02  0.79143069169E+01 -0.63346695006E+01  0.20674340596E+02  0.00000000000E+00 0.  1.
</event>
<event>
 5    1  0.1245581E-004  0.9118800E+02  0.7818608E-02  0.1130116E+00
         25   -1    0    0    0    0  0.00000000000E+00  0.00000000000E+00  0.99999998245E-14  0.12500000000E+03  0.12500000000E+03 0.  0.
        -13    1    3    3    0    0 -0.31014317029E+02 -0.15503114564E+02  0.32878830465E+02  0.47783502161E+02  0.10566000000E+00 0. -1.
         23    2    1    0    0    0 -0.42607247300E+00  0.78268054209E+01  0.37645029247E+02  0.86547579428E+02  0.77536409880E+02 0.  0.
         13    1    3    3    0    0  0.30588244556E+02  0.23329919985E+02  0.47661987817E+01  0.38764077267E+02  0.10566000000E+00 0.  1.
         22    1    1    0    0    0  0.42607247300E+00 -0.78268054209E+01 -0.37645029247E+02  0.38452420572E+02  0.00000000000E+00 0. -1.
</event>
<event>
 5    1  0.1245581E-004  0.9118800E+02  0.7818608E-02  0.1130116E+00
         25   -1    0    0    0    0  0.00000000000E+00  0.00000000000E+00  0.99999998245E-14  0.12500000000E+03  0.12500000000E+03 0.  0.
        -13    1    3    3    0    0 -0.43879989997E+02  0.33387299204E+02 -0.12630961331E+02  0.56566046516E+02  0.10566000000E+00 0.  1.
         23    2    1    0    0    0 -0.75439623347E+01  0.21185236263E+02 -0.19169663247E+02  0.95450015360E+02  0.90760695458E+02 0.  0.
         13    1    3    3    0    0  0.36336027663E+02 -0.12202062941E+02 -0.65387019156E+01  0.38883968844E+02  0.10566000000E+00 0. -1.
         22    1    1    0    0    0  0.75439623347E+01 -0.21185236263E+02  0.19169663247E+02  0.29549984640E+02  0.00000000000E+00 0.  1.
</event>
<event>
 5    1  0.1245581E-004  0.9118800E+02  0.7818608E-02  0.1130116E+00
         25   -1    0    0    0    0  0.00000000000E+00  0.00000000000E+00  0.99999998245E-14  0.12500000000E+03  0.12500000000E+03 0.  0.
        -13    1    3    3    0    0  0.32164664501E+02  0.16734026811E+02 -0.45689261776E+00  0.36260353151E+02  0.10566000000E+00 0.  1.
         23    2    1    0    0    0 -0.15067385721E+02 -0.21515521633E+02 -0.80907023593E+01  0.97515399797E+02  0.93562011251E+02 0.  0.
         13    1    3    3    0    0 -0.47232050222E+02 -0.38249548445E+02 -0.76338097416E+01  0.61255046646E+02  0.10566000000E+00 0. -1.
         22    1    1    0    0    0  0.15067385721E+02  0.21515521633E+02  0.80907023593E+01  0.27484600203E+02  0.00000000000E+00 0. -1.
</event>
<event>
 5    1  0.1245581E-004  0.9118800E+02  0.7818608E-02  0.1130116E+00
         25   -1    0    0    0    0  0.00000000000E+00  0.00000000000E+00  0.99999998245E-14  0.12500000000E+03  0.12500000000E+03 0.  0.
        -13    1    3    3    0    0  0.78116239860E+01  0.57222142929E+02  0.87000477627E+01  0.58404598327E+02  0.10566000000E+00 0.  1.
         23    2    1    0    0    0 -0.11152846393E+02  0.33913007890E+02  0.77468358406E+01  0.88469306708E+02  0.80574975502E+02 0.  0.
         13    1    3    3    0    0 -0.18964470379E+02 -0.23309135039E+02 -0.95321192214E+00  0.30064708381E+02  0.10566000000E+00 0. -1.
         22    1    1    0    0    0  0.11152846393E+02 -0.33913007890E+02 -0.77468358406E+01  0.36530693292E+02  0.00000000000E+00 0.  1.
</event>
<event>
 5    1  0.1245581E-004  0.9118800E+02  0.7818608E-02  0.1130116E+00
         25   -1    0    0    0    0  0.00000000000E+00  0.00000000000E+00  0.99999998245E-14  0.12500000000E+03  0.12500000000E+03 0.  0.
        -13    1    3    3    0    0 -0.35110156718E+02  0.31268874318E+02  0.15284219314E+02  0.49437679253E+02  0.10566000000E+00 0. -1.
         23    2    1    0    0    0  0.22403992143E+00  0.26012656859E+02 -0.13844846283E+02  0.95531571481E+02  0.90872949057E+02 0.  0.
         13    1    3    3    0    0  0.35334196640E+02 -0.52562174587E+01 -0.29129065597E+02  0.46093892228E+02  0.10566000000E+00 0.  1.
         22    1    1    0    0    0 -0.22403992143E+00 -0.26012656859E+02  0.13844846283E+02  0.29468428519E+02  0.00000000000E+00 0. -1.
</event>
<event>
 5    1  0.1245581E-004  0.9118800E+02  0.7818608E-02  0.1130116E+00
         25   -1    0    0    0    0  0.00000000000E+00  0.00000000000E+00  0.99999998245E-14  0.12500000000E+03  0.12500000000E+03 0.  0.
        -13    1    3    3    0    0 -0.78596512511E+01  0.82423833230E+01 -0.51489664006E+02  0.52734312019E+02  0.10566000000E+00 0.  1.
         23    2    1    0    0    0 -0.21299177752E+02  0.15869454421E+02 -0.10679527954E+02  0.96372270893E+02  0.92022104536E+02 0.  0.
         13    1    3    3    0    0 -0.13439526501E+02  0.76270710977E+01  0.40810136052E+02  0.43637958874E+02  0.10566000000E+00 0. -1.
         22    1    1    0    0    0  0.21299177752E+02 -0.15869454421E+02  0.10679527954E+02  0.28627729107E+02  0.00000000000E+00 0. -1.
</event>
<event>
 5    1  0.1245581E-004  0.9118800E+02  0.7818608E-02  0.1130116E+00
         25   -1    0    0    0    0  0.00000000000E+00  0.00000000000E+00  0.99999998245E-14  0.12500000000E+03  0.12500000000E+03 0.  0.
        -13    1    3    3    0    0  0.40966710917E+02  0.18052982221E+02 -0.12247312782E+02  0.46413246006E+02  0.10566000000E+00 0.  1.
         23    2    1    0    0    0 -0.69971283708E+01  0.26225101712E+02  0.36803868452E+01  0.97609107124E+02  0.93687121746E+02 0.  0.
         13    1    3    3    0    0 -0.47963839287E+02  0.81721194903E+01  0.15927699627E+02  0.51195861118E+02  0.10566000000E+00 0. -1.
         22    1    1    0    0    0  0.69971283708E+01 -0.26225101712E+02 -0.36803868452E+01  0.27390892876E+02  0.00000000000E+00 0. -1.
</event>
<event>
 5    1  0.1245581E-004  0.9118800E+02  0.7818608E-02  0.1130116E+00
         25   -1    0    0    0    0  0.00000000000E+00  0.00000000000E+00  0.99999998245E-14  0.12500000000E+03  0.12500000000E+03 0.  0.
        -13    1    3    3    0    0  0.25997202096E+02 -0.40434093487E+02  0.34722084874E+02  0.59299281403E+02  0.10566000000E+00 0.  1.
         23    2    1    0    0    0  0.30148868118E+01 -0.14435991438E+02  0.26047759787E+02  0.95067188885E+02  0.90231908000E+02 0.  0.
         13    1    3    3    0    0 -0.22982315284E+02  0.25998102049E+02 -0.86743250863E+01  0.35767907482E+02  0.10566000000E+00 0. -1.
         22    1    1    0    0    0 -0.30148868118E+01  0.14435991438E+02 -0.26047759787E+02  0.29932811115E+02  0.00000000000E+00 0.  1.
</event>
<event>
 5    1  0.1245581E-004  0.9118800E+02  0.7818608E-02  0.1130116E+00
         25   -1    0    0    0    0  0.00000000000E+00  0.00000000000E+00  0.99999998245E-14  0.12500000000E+03  0.12500000000E+03 0.  0.
        -13    1    3    3    0    0  0.51366742203E+02  0.22445719481E+02  0.16052749845E+02  0.58309986016E+02  0.10566000000E+00 0.  1.
         23    2    1    0    0    0  0.21794982854E+02  0.45394485437E+01  0.22354990889E+02  0.93450459776E+02  0.87963713792E+02 0.  0.
         13    1    3    3    0    0 -0.29571759349E+02 -0.17906270938E+02  0.63022410440E+01  0.35140473760E+02  0.10566000000E+00 0. -1.
         22    1    1    0    0    0 -0.21794982854E+02 -0.45394485437E+01 -0.22354990889E+02  0.31549540224E+02  0.00000000000E+00 0.  1.
</event>
<event>
 5    1  0.1245581E-004  0.9118800E+02  0.7818608E-02  0.1130116E+00
         25   -1    0    0    0    0  0.00000000000E+00  0.00000000000E+00  0.99999998245E-14  0.12500000000E+03  0.12500000000E+03 0.  0.
        -13    1    3    3    0    0 -0.56046960291E+02  0.16587608977E+02 -0.32058917292E+01  0.58538017008E+02  0.10566000000E+00 0.  1.
         23    2    1    0    0    0 -0.22271662933E+02  0.15820738926E+02  0.11468434369E+02  0.95371504648E+02  0.90652502238E+02 0.  0.
         13    1    3    3    0    0  0.33775297357E+02 -0.76687005182E+00  0.14674326098E+02  0.36833487640E+02  0.10566000000E+00 0. -1.
         22    1    1    0    0    0  0.22271662933E+02 -0.15820738926E+02 -0.11468434369E+02  0.29628495352E+02  0.00000000000E+00 0.  1.
</event>
<event>
 5    1  0.1245581E-004  0.9118800E+02  0.7818608E-02  0.1130116E+00
         25   -1    0    0    0    0  0.00000000000E+00  0.00000000000E+00  0.99999998245E-14  0.12500000000E+03  0.12500000000E+03 0.  0.
        -13    1    3    3    0    0 -0.24016875588E+02 -0.26758895911E+01  0.20953088907E+02  0.31984586865E+02  0.10566000000E+00 0.  1.
         23    2    1    0    0    0  0.11766062210E+02  0.20530562519E+02 -0.22125585671E+02  0.92604232397E+02  0.86752856433E+02 0.  0.
         13    1    3    3    0    0  0.35782937798E+02  0.23206452111E+02 -0.43078674578E+02  0.60619645532E+02  0.10566000000E+00 0. -1.
         22    1    1    0    0    0 -0.11766062210E+02 -0.20530562519E+02  0.22125585671E+02  0.32395767603E+02  0.00000000000E+00 0. -1.
</event>
<event>
 5    1  0.1245581E-004  0.9118800E+02  0.7818608E-02  0.1130116E+00
         25   -1    0    0    0    0  0.00000000000E+00  0.00000000000E+00  0.99999998245E-14  0.12500000000E+03  0.12500000000E+03 0.  0.
        -13    1    3    3    0    0  0.44015503891E+02  0.25808727545E+02 -0.35275124198E+02  0.62030642037E+02  0.10566000000E+00 0. -1.
         23    2    1    0    0    0  0.16425498407E+02  0.15136845892E+02 -0.18202369281E+02  0.96185986934E+02  0.91768713261E+02 0.  0.
         13    1    3    3    0    0 -0.27590005484E+02 -0.10671881653E+02  0.17072754917E+02  0.34155344898E+02  0.10566000000E+00 0.  1.
         22    1    1    0    0    0 -0.16425498407E+02 -0.15136845892E+02  0.18202369281E+02  0.28814013066E+02  0.00000000000E+00 0. -1.
</event>
<event>
 5    1  0.1245581E-004  0.9118800E+02  0.7818608E-02  0.1130116E+00
         25   -1    0    0    0    0  0.00000000000E+00  0.00000000000E+00  0.99999998245E-14  0.12500000000E+03  0.12500000000E+03 0.  0.
        -13    1    3    3    0    0 -0.48388947782E+02 -0.13860383069E+02 -0.18541226827E+02  0.53641296988E+02  0.10566000000E+00 0. -1.
         23    2    1    0    0    0 -0.23236730152E+02  0.15016020768E+02  0.22967876432E+01  0.97238484527E+02  0.93191314680E+02 0.  0.
         13    1    3    3    0    0  0.25152217630E+02  0.28876403837E+02  0.20838014470E+02  0.43597187539E+02  0.10566000000E+00 0.  1.
         22    1    1    0    0    0  0.23236730152E+02 -0.15016020768E+02 -0.22967876432E+01  0.27761515473E+02  0.00000000000E+00 0. -1.
</event>
<event>
 5    1  0.1245581E-004  0.9118800E+02  0.7818608E-02  0.1130116E+00
         25   -1    0    0    0    0  0.00000000000E+00  0.00000000000E+00  0.99999998245E-14  0.12500000000E+03  0.12500000000E+03 0.  0.
        -13    1    3    3    0    0  0.13466717250E+02  0.27538643782E+02 -0.11847561854E+02  0.32864954902E+02  0.10566000000E+00 0.  1.
         23    2    1    0    0    0 -0.43280823370E+00 -0.24288050264E+02  0.18459016972E+02  0.94490460243E+02  0.89429385891E+02 0.  0.
         13    1    3    3    0    0 -0.13899525484E+02 -0.51826694045E+02  0.30306578826E+02  0.61625505341E+02  0.10566000000E+00 0. -1.
         22    1    1    0    0    0  0.43280823370E+00  0.24288050264E+02 -0.18459016972E+02  0.30509539757E+02  0.00000000000E+00 0. -1.
</event>
<event>
 5    1  0.1245581E-004  0.9118800E+02  0.7818608E-02  0.1130116E+00
         25   -1    0    0    0    0  0.00000000000E+00  0.00000000000E+00  0.99999998245E-14  0.12500000000E+03  0.12500000000E+03 0.  0.
        -13    1    3    3    0    0 -0.38451477131E+02 -0.27837976530E+02 -0.38185802246E+01  0.47624171907E+02  0.10566000000E+00 0.  1.
         23    2    1    0    0    0  0.39476151337E+01 -0.15877737186E+02 -0.23897740537E+02  0.96038159482E+02  0.91567133135E+02 0.  0.
         13    1    3    3    0    0  0.42399092265E+02  0.11960239344E+02 -0.20079160313E+02  0.48413987575E+02  0.10566000000E+00 0. -1.
         22    1    1    0    0    0 -0.39476151337E+01  0.15877737186E+02  0.23897740537E+02  0.28961840518E+02  0.00000000000E+00 0. -1.
</event>
<event>
 5    1  0.1245581E-004  0.9118800E+02  0.7818608E-02  0.1130116E+00
         25   -1    0    0    0    0  0.00000000000E+00  0.00000000000E+00  0.99999998245E-14  0.12500000000E+03  0.12500000000E+03 0.  0.
        -13    1    3    3    0    0  0.31755620466E+02  0.20806275513E+02 -0.16906166104E+02  0.41558995997E+02  0.10566000000E+00 0. -1.
         23    2    1    0    0    0  0.20277294327E+02 -0.46425382199E+01 -0.41380076819E+02  0.78685503523E+02  0.63611130164E+02 0.  0.
         13    1    3    3    0    0 -0.11478326139E+02 -0.25448813733E+02 -0.24473910715E+02  0.37126507526E+02  0.10566000000E+00 0.  1.
         22    1    1    0    0    0 -0.20277294327E+02  0.46425382199E+01  0.41380076819E+02  0.46314496477E+02  0.00000000000E+00 0. -1.
</event>
<event>
 5    1  0.1245581E-004  0.9118800E+02  0.7818608E-02  0.1130116E+00
         25   -1    0    0    0    0  0.00000000000E+00  0.00000000000E+00  0.99999998245E-14  0.12500000000E+03  0.12500000000E+03 0.  0.
        -13    1    3    3    0    0 -0.86336585208E+01  0.27515273487E+02 -0.29676225648E+02  0.41380186893E+02  0.10566000000E+00 0. -1.
         23    2    1    0    0    0 -0.23179886505E+02 -0.17574146319E+02 -0.29870160401E+01  0.95758248650E+02  0.91184221017E+02 0.  0.
         13    1    3    3    0    0 -0.14546227984E+02 -0.45089419805E+02  0.26689209608E+02  0.54378061757E+02  0.10566000000E+00 0.  1.
         22    1    1    0    0    0  0.23179886505E+02  0.17574146319E+02  0.29870160401E+01  0.29241751350E+02  0.00000000000E+00 0.  1.
</event>
<event>
 5    1  0.1245581E-004  0.9118800E+02  0.7818608E-02  0.1130116E+00
         25   -1    0    0    0    0  0.00000000000E+00  0.00000000000E+00  0.99999998245E-14  0.12500000000E+03  0.12500000000E+03 0.  0.
        -13    1    3    3    0    0 -0.20245952161E+02  0.33120966664E+02 -0.45007967029E+02  0.59435892117E+02  0.10566000000E+00 0.  1.
         23    2    1    0    0    0 -0.14096906548E+02  0.23611538025E+02 -0.10824071362E+02  0.95446861030E+02  0.90756351059E+02 0.  0.
         13    1    3    3    0    0  0.61490456129E+01 -0.95094286384E+01  0.34183895668E+02  0.36010968913E+02  0.10566000000E+00 0. -1.
         22    1    1    0    0    0  0.14096906548E+02 -0.23611538025E+02  0.10824071362E+02  0.29553138970E+02  0.00000000000E+00 0.  1.
</event>
<event>
 5    1  0.1245581E-004  0.9118800E+02  0.7818608E-02  0.1130116E+00
         25   -1    0    0    0    0  0.00000000000E+00  0.00000000000E+00  0.99999998245E-14  0.12500000000E+03  0.12500000000E+03 0.  0.
        -13    1    3    3    0    0  0.26885590831E+01  0.19431580598E+02 -0.30459896363E+02  0.36230251516E+02  0.10566000000E+00 0.  1.
         23    2    1    0    0    0 -0.93173319859E+01  0.52935473872E+01  0.26649728869E+02  0.96276449244E+02  0.91891851167E+02 0.  0.
         13    1    3    3    0    0 -0.12005891069E+02 -0.14138033211E+02  0.57109625231E+02  0.60046197727E+02  0.10566000000E+00 0. -1.
         22    1    1    0    0    0  0.93173319859E+01 -0.52935473872E+01 -0.26649728869E+02  0.28723550756E+02  0.00000000000E+00 0. -1.
</event>
<event>
 5    1  0.1245581E-004  0.9118800E+02  0.7818608E-02  0.1130116E+00
         25   -1    0    0    0    0  0.00000000000E+00  0.00000000000E+00  0.99999998245E-14  0.12500000000E+03  0.12500000000E+03 0.  0.
        -13    1    3    3    0    0  0.47445137588E+02 -0.23328728754E+02  0.23735438234E+02  0.57953885618E+02  0.10566000000E+00 0.  1.
         23    2    1    0    0    0  0.17432289863E+02 -0.19911135966E+01  0.24594013482E+02  0.94788830503E+02  0.89845465249E+02 0.  0.
         13    1    3    3    0    0 -0.30012847726E+02  0.21337615157E+02  0.85857524793E+00  0.36834944885E+02  0.10566000000E+00 0. -1.
         22    1    1    0    0    0 -0.17432289863E+02  0.19911135966E+01 -0.24594013482E+02  0.30211169497E+02  0.00000000000E+00 0.  1.
</event>
<event>
 5    1  0.1245581E-004  0.9118800E+02  0.7818608E-02  0.1130116E+00
         25   -1    0    0    0    0  0.00000000000E+00  0.00000000000E+00  0.99999998245E-14  0.12500000000E+03  0.12500000000E+03 0.  0.
        -13    1    3    3    0    0  0.10890933504E+02  0.32358264467E+02  0.40874896051E+02  0.53258220052E+02  0.10566000000E+00 0. -1.
         23    2    1    0    0    0  0.28185343429E+02  0.85169003843E+01  0.18803086334E+02  0.90064241356E+02  0.83012410752E+02 0.  0.
         13    1    3    3    0    0  0.17294409925E+02 -0.23841364083E+02 -0.22071809717E+02  0.36806021303E+02  0.10566000000E+00 0.  1.
         22    1    1    0    0    0 -0.28185343429E+02 -0.85169003843E+01 -0.18803086334E+02  0.34935758644E+02  0.00000000000E+00 0. -1.
</event>
<event>
 5    1  0.1245581E-004  0.9118800E+02  0.7818608E-02  0.1130116E+00
         25   -1    0    0    0    0  0.00000000000E+00  0.00000000000E+00  0.99999998245E-14  0.12500000000E+03  0.12500000000E+03 0.  0.
        -13    1    3    3    0    0  0.35682624693E+02  0.10211730952E+02 -0.34764308624E+02  0.50853686908E+02  0.10566000000E+00 0. -1.
         23    2    1    0    0    0  0.22217923049E+02 -0.19404421292E+02 -0.47424581325E+01  0.95122607553E+02  0.90308647915E+02 0.  0.
         13    1    3    3    0    0 -0.13464701644E+02 -0.29616152245E+02  0.30021850491E+02  0.44268920645E+02  0.10566000000E+00 0.  1.
         22    1    1    0    0    0 -0.22217923049E+02  0.19404421292E+02  0.47424581325E+01  0.29877392447E+02  0.00000000000E+00 0. -1.
</event>
<event>
 5    1  0.1245581E-004  0.9118800E+02  0.7818608E-02  0.1130116E+00
         25   -1    0    0    0    0  0.00000000000E+00  0.00000000000E+00  0.99999998245E-14  0.12500000000E+03  0.12500000000E+03 0.  0.
        -13    1    3    3    0    0 -0.41371546699E+02 -0.25827284988E+02 -0.16213943410E+01  0.48798500077E+02  0.10566000000E+00 0. -1.
         23    2    1    0    0    0 -0.16491711443E+02 -0.18121418905E+01 -0.28111012698E+02  0.92358164276E+02  0.86397575597E+02 0.  0.
         13    1    3    3    0    0  0.24879835256E+02  0.24015143098E+02 -0.26489618357E+02  0.43559664199E+02  0.10566000000E+00 0.  1.
         22    1    1    0    0    0  0.16491711443E+02  0.18121418905E+01  0.28111012698E+02  0.32641835724E+02  0.00000000000E+00 0.  1.
</event>
<event>
 5    1  0.1245581E-004  0.9118800E+02  0.7818608E-02  0.1130116E+00
         25   -1    0    0    0    0  0.00000000000E+00  0.00000000000E+00  0.99999998245E-14  0.12500000000E+03  0.12500000000E+03 0.  0.
        -13    1    3    3    0    0 -0.14423819847E+02 -0.31334198960E+02 -0.12936026733E+02  0.36840610135E+02  0.10566000000E+00 0. -1.
         23    2    1    0    0    0  0.15818882415E+02  0.69567032141E+01  0.22125942916E+02  0.96925276308E+02  0.92770248879E+02 0.  0.
         13    1    3    3    0    0  0.30242702262E+02  0.38290902175E+02  0.35061969649E+02  0.60084666173E+02  0.10566000000E+00 0.  1.
         22    1    1    0    0    0 -0.15818882415E+02 -0.69567032141E+01 -0.22125942916E+02  0.28074723692E+02  0.00000000000E+00 0.  1.
</event>
<event>
 5    1  0.1245581E-004  0.9118800E+02  0.7818608E-02  0.1130116E+00
         25   -1    0    0    0    0  0.00000000000E+00  0.00000000000E+00  0.99999998245E-14  0.12500000000E+03  0.12500000000E+03 0.  0.
        -13    1    3    3    0    0  0.13747496623E+02 -0.28198452820E+01  0.36453984197E+02  0.39062121277E+02  0.10566000000E+00 0.  1.
         23    2    1    0    0    0  0.18407160550E+02  0.12783619511E+02 -0.18224699079E+02  0.96114291703E+02  0.91671003735E+02 0.  0.
         13    1    3    3    0    0  0.46596639270E+01  0.15603464793E+02 -0.54678683276E+02  0.57052170426E+02  0.10566000000E+00 0. -1.
         22    1    1    0    0    0 -0.18407160550E+02 -0.12783619511E+02  0.18224699079E+02  0.28885708297E+02  0.00000000000E+00 0. -1.
</event>
<event>
 5    1  0.1245581E-004  0.9118800E+02  0.7818608E-02  0.1130116E+00
         25   -1    0    0    0    0  0.00000000000E+00  0.00000000000E+00  0.99999998245E-14  0.12500000000E+03  0.12500000000E+03 0.  0.
        -13    1    3    3    0    0 -0.34354089460E+01  0.14669745971E+01  0.22232638253E+02  0.22544520772E+02  0.10566000000E+00 0.  1.
         23    2    1    0    0    0  0.23768391914E+02 -0.19847358683E+02 -0.27822642894E+02  0.83371241209E+02  0.72234412175E+02 0.  0.
         13    1    3    3    0    0  0.27203800860E+02 -0.21314333280E+02 -0.50055281147E+02  0.60826720437E+02  0.10566000000E+00 0. -1.
         22    1    1    0    0    0 -0.23768391914E+02  0.19847358683E+02  0.27822642894E+02  0.41628758791E+02  0.00000000000E+00 0. -1.
</event>
<event>
 5    1  0.1245581E-004  0.9118800E+02  0.7818608E-02  0.1130116E+00
         25   -1    0    0    0    0  0.00000000000E+00  0.00000000000E+00  0.99999998245E-14  0.12500000000E+03  0.12500000000E+03 0.  0.
        -13    1    3    3    0    0  0.28333158485E+02  0.50205071413E+02 -0.22089063245E+00  0.57648738251E+02  0.10566000000E+00 0.  1.
         23    2    1    0    0    0  0.99878271364E+01  0.21629769001E+02 -0.17201037686E+02  0.95614981786E+02  0.90987611501E+02 0.  0.
         13    1    3    3    0    0 -0.18345331348E+02 -0.28575302411E+02 -0.16980147053E+02  0.37966243535E+02  0.10566000000E+00 0. -1.
         22    1    1    0    0    0 -0.99878271364E+01 -0.21629769001E+02  0.17201037686E+02  0.29385018214E+02  0.00000000000E+00 0.  1.
</event>
<event>
 5    1  0.1245581E-004  0.9118800E+02  0.7818608E-02  0.1130116E+00
         25   -1    0    0    0    0  0.00000000000E+00  0.00000000000E+00  0.99999998245E-14  0.12500000000E+03  0.12500000000E+03 0.  0.
        -13    1    3    3    0    0 -0.49240488638E+02 -0.12465553899E+02  0.33393416276E+02  0.60787722197E+02  0.10566000000E+00 0.  1.
         23    2    1    0    0    0 -0.28813441337E+02 -0.34246204224E+00  0.90581416029E+01  0.94794344714E+02  0.89853136721E+02 0.  0.
         13    1    3    3    0    0  0.20427047300E+02  0.12123091856E+02 -0.24335274673E+02  0.34006622517E+02  0.10566000000E+00 0. -1.
         22    1    1    0    0    0  0.28813441337E+02  0.34246204224E+00 -0.90581416029E+01  0.30205655286E+02  0.00000000000E+00 0.  1.
</event>
<event>
 5    1  0.1245581E-004  0.9118800E+02  0.7818608E-02  0.1130116E+00
         25   -1    0    0    0    0  0.00000000000E+00  0.00000000000E+00  0.99999998245E-14  0.12500000000E+03  0.12500000000E+03 0.  0.
        -13    1    3    3    0    0  0.56654742050E+02 -0.21026834473E+02  0.53118979662E+01  0.60663951311E+02  0.10566000000E+00 0.  1.
         23    2    1    0    0    0  0.21514519376E+02 -0.19203489196E+02  0.40926452013E+01  0.95872722646E+02  0.91341013031E+02 0.  0.
         13    1    3    3    0    0 -0.35140222674E+02  0.18233452764E+01 -0.12192527649E+01  0.35208771335E+02  0.10566000000E+00 0. -1.
         22    1    1    0    0    0 -0.21514519376E+02  0.19203489196E+02 -0.40926452013E+01  0.29127277354E+02  0.00000000000E+00 0.  1.
</event>
<event>
 5    1  0.1245581E-004  0.9118800E+02  0.7818608E-02  0.1130116E+00
         25   -1    0    0    0    0  0.00000000000E+00  0.00000000000E+00  0.99999998245E-14  0.12500000000E+03  0.12500000000E+03 0.  0.
        -13    1    3    3    0    0 -0.42244954548E+02  0.94454090593E+01  0.24685108875E+02  0.49831894418E+02  0.10566000000E+00 0. -1.
         23    2    1    0    0    0 -0.16888763408E+02  0.24953527753E+02 -0.78124861496E+01  0.93872137616E+02  0.88560907877E+02 0.  0.
         13    1    3    3    0    0  0.25356191140E+02  0.15508118694E+02 -0.32497595024E+02  0.44040243198E+02  0.10566000000E+00 0.  1.
         22    1    1    0    0    0  0.16888763408E+02 -0.24953527753E+02  0.78124861496E+01  0.31127862384E+02  0.00000000000E+00 0.  1.
</event>
<event>
 5    1  0.1245581E-004  0.9118800E+02  0.7818608E-02  0.1130116E+00
         25   -1    0    0    0    0  0.00000000000E+00  0.00000000000E+00  0.99999998245E-14  0.12500000000E+03  0.12500000000E+03 0.  0.
        -13    1    3    3    0    0  0.31942424274E+02 -0.29673696603E+02  0.11596342958E+02  0.45114665826E+02  0.10566000000E+00 0.  1.
         23    2    1    0    0    0  0.17803498862E+02 -0.25194498585E+01 -0.25867733785E+02  0.93496796187E+02  0.88029535082E+02 0.  0.
         13    1    3    3    0    0 -0.14138925412E+02  0.27154246744E+02 -0.37464076743E+02  0.48382130361E+02  0.10566000000E+00 0. -1.
         22    1    1    0    0    0 -0.17803498862E+02  0.25194498585E+01  0.25867733785E+02  0.31503203813E+02  0.00000000000E+00 0. -1.
</event>
<event>
 5    1  0.1245581E-004  0.9118800E+02  0.7818608E-02  0.1130116E+00
         25   -1    0    0    0    0  0.00000000000E+00  0.00000000000E+00  0.99999998245E-14  0.12500000000E+03  0.12500000000E+03 0.  0.
        -13    1    3    3    0    0 -0.35047868685E+02 -0.98056429934E+01 -0.21731732121E+02  0.42388478138E+02  0.10566000000E+00 0. -1.
         23    2    1    0    0    0  0.17055507641E+02  0.57510740881E+01 -0.21754563323E+02  0.96764805306E+02  0.92553775322E+02 0.  0.
         13    1    3    3    0    0  0.52103376326E+02  0.15556717081E+02 -0.22831202097E-01  0.54376327167E+02  0.10566000000E+00 0.  1.
         22    1    1    0    0    0 -0.17055507641E+02 -0.57510740881E+01  0.21754563323E+02  0.28235194694E+02  0.00000000000E+00 0.  1.
</event>
<event>
 5    1  0.1245581E-004  0.9118800E+02  0.7818608E-02  0.1130116E+00
         25   -1    0    0    0    0  0.00000000000E+00  0.00000000000E+00  0.99999998245E-14  0.12500000000E+03  0.12500000000E+03 0.  0.
        -13    1    3    3    0    0  0.32319129008E+00  0.37503276438E+02  0.20045855973E+02  0.42525847457E+02  0.10566000000E+00 0. -1.
         23    2    1    0    0    0 -0.23908242442E+02  0.47497908151E+01 -0.15094527837E+02  0.96329294741E+02  0.91963708522E+02 0.  0.
         13    1    3    3    0    0 -0.24231433732E+02 -0.32753485623E+02 -0.35140383811E+02  0.53803447283E+02  0.10566000000E+00 0.  1.
         22    1    1    0    0    0  0.23908242442E+02 -0.47497908151E+01  0.15094527837E+02  0.28670705259E+02  0.00000000000E+00 0. -1.
</event>
<event>
 5    1  0.1245581E-004  0.9118800E+02  0.7818608E-02  0.1130116E+00
         25   -1    0    0    0    0  0.00000000000E+00  0.00000000000E+00  0.99999998245E-14  0.12500000000E+03  0.12500000000E+03 0.  0.
        -13    1    3    3    0    0  0.20991964097E+02 -0.57876725746E+02 -0.78063514795E+01  0.62059070466E+02  0.10566000000E+00 0.  1.
         23    2    1    0    0    0  0.11750011886E+02 -0.25055649832E+02 -0.81241942906E+01  0.96158174456E+02  0.91730821505E+02 0.  0.
         13    1    3    3    0    0 -0.92419522105E+01  0.32821075914E+02 -0.31784281114E+00  0.34099103990E+02  0.10566000000E+00 0. -1.
         22    1    1    0    0    0 -0.11750011886E+02  0.25055649832E+02  0.81241942906E+01  0.28841825544E+02  0.00000000000E+00 0.  1.
</event>
<event>
 5    1  0.1245581E-004  0.9118800E+02  0.7818608E-02  0.1130116E+00
         25   -1    0    0    0    0  0.00000000000E+00  0.00000000000E+00  0.99999998245E-14  0.12500000000E+03  0.12500000000E+03 0.  0.
        -13    1    3    3    0    0 -0.11187691575E+02 -0.39650734771E+01 -0.58694847606E+02  0.59883073986E+02  0.10566000000E+00 0. -1.
         23    2    1    0    0    0 -0.17329675560E+02  0.19430412079E+01 -0.25833474368E+02  0.93831723467E+02  0.88503846621E+02 0.  0.
         13    1    3    3    0    0 -0.61419839856E+01  0.59081146850E+01  0.32861373239E+02  0.33948649481E+02  0.10566000000E+00 0.  1.
         22    1    1    0    0    0  0.17329675560E+02 -0.19430412079E+01  0.25833474368E+02  0.31168276533E+02  0.00000000000E+00 0. -1.
</event>
<event>
 5    1  0.1245581E-004  0.9118800E+02  0.7818608E-02  0.1130116E+00
         25   -1    0    0    0    0  0.00000000000E+00  0.00000000000E+00  0.99999998245E-14  0.12500000000E+03  0.12500000000E+03 0.  0.
        -13    1    3    3    0    0  0.23696790824E+02 -0.17174404360E+02 -0.18664118505E+02  0.34711072356E+02  0.10566000000E+00 0.  1.
         23    2    1    0    0    0 -0.17409053377E+02  0.22735591419E+02  0.35198408074E+01  0.96149150169E+02  0.91718523441E+02 0.  0.
         13    1    3    3    0    0 -0.41105844201E+02  0.39909995780E+02  0.22183959312E+02  0.61438077813E+02  0.10566000000E+00 0. -1.
         22    1    1    0    0    0  0.17409053377E+02 -0.22735591419E+02 -0.35198408074E+01  0.28850849831E+02  0.00000000000E+00 0. -1.
</event>
<event>
 5    1  0.1245581E-004  0.9118800E+02  0.7818608E-02  0.1130116E+00
         25   -1    0    0    0    0  0.00000000000E+00  0.00000000000E+00  0.99999998245E-14  0.12500000000E+03  0.12500000000E+03 0.  0.
        -13    1    3    3    0    0  0.47583199442E+02  0.72095988155E+00 -0.15104011073E+02  0.49928178084E+02  0.10566000000E+00 0. -1.
         23    2    1    0    0    0  0.11289522261E+02  0.24994981844E+02 -0.15305984296E+02  0.93591791113E+02  0.88164322593E+02 0.  0.
         13    1    3    3    0    0 -0.36293677181E+02  0.24274021962E+02 -0.20197322225E+00  0.43663613029E+02  0.10566000000E+00 0.  1.
         22    1    1    0    0    0 -0.11289522261E+02 -0.24994981844E+02  0.15305984296E+02  0.31408208887E+02  0.00000000000E+00 0. -1.
</event>
<event>
 5    1  0.1245581E-004  0.9118800E+02  0.7818608E-02  0.1130116E+00
         25   -1    0    0    0    0  0.00000000000E+00  0.00000000000E+00  0.99999998245E-14  0.12500000000E+03  0.12500000000E+03 0.  0.
        -13    1    3    3    0    0 -0.45763566962E+01 -0.52561138778E+02 -0.62213377056E+01  0.53125629945E+02  0.10566000000E+00 0. -1.
         23    2    1    0    0    0 -0.20749302546E+02 -0.10892305435E+02 -0.12788748364E+02  0.98303034656E+02  0.94608449221E+02 0.  0.
         13    1    3    3    0    0 -0.16172945850E+02  0.41668833342E+02 -0.65674106585E+01  0.45177404711E+02  0.10566000000E+00 0.  1.
         22    1    1    0    0    0  0.20749302546E+02  0.10892305435E+02  0.12788748364E+02  0.26696965344E+02  0.00000000000E+00 0. -1.
</event>
<event>
 5    1  0.1245581E-004  0.9118800E+02  0.7818608E-02  0.1130116E+00
         25   -1    0    0    0    0  0.00000000000E+00  0.00000000000E+00  0.99999998245E-14  0.12500000000E+03  0.12500000000E+03 0.  0.
        -13    1    3    3    0    0 -0.23324383399E+02  0.52780779510E+02  0.19396443094E+02  0.60877505824E+02  0.10566000000E+00 0. -1.
         23    2    1    0    0    0 -0.10087133658E+02  0.29166554284E+02  0.72518759064E-01  0.94138318043E+02  0.88935816805E+02 0.  0.
         13    1    3    3    0    0  0.13237249741E+02 -0.23614225226E+02 -0.19323924335E+02  0.33260812219E+02  0.10566000000E+00 0.  1.
         22    1    1    0    0    0  0.10087133658E+02 -0.29166554284E+02 -0.72518759064E-01  0.30861681957E+02  0.00000000000E+00 0. -1.
</event>
<event>
 5    1  0.1245581E-004  0.9118800E+02  0.7818608E-02  0.1130116E+00
         25   -1    0    0    0    0  0.00000000000E+00  0.00000000000E+00  0.99999998245E-14  0.12500000000E+03  0.12500000000E+03 0.  0.
        -13    1    3    3    0    0 -0.18506601803E+02  0.11925253600E+02 -0.54350760813E+02  0.58640620296E+02  0.10566000000E+00 0.  1.
         23    2    1    0    0    0  0.47108820927E+01 -0.13292518918E+01 -0.29353202315E+02  0.95241475056E+02  0.90473027826E+02 0.  0.
         13    1    3    3    0    0  0.23217483895E+02 -0.13254505492E+02  0.24997558498E+02  0.36600854760E+02  0.10566000000E+00 0. -1.
         22    1    1    0    0    0 -0.47108820927E+01  0.13292518918E+01  0.29353202315E+02  0.29758524944E+02  0.00000000000E+00 0.  1.
</event>
<event>
 5    1  0.1245581E-004  0.9118800E+02  0.7818608E-02  0.1130116E+00
         25   -1    0    0    0    0  0.00000000000E+00  0.00000000000E+00  0.99999998245E-14  0.12500000000E+03  0.12500000000E+03 0.  0.
        -13    1    3    3    0    0 -0.31621061926E+02 -0.18132500396E+02 -0.48363919769E+02  0.60562026282E+02  0.10566000000E+00 0.  1.
         23    2    1    0    0    0 -0.11061338682E+02  0.12630307321E+00 -0.28340085031E+02  0.94577482263E+02  0.89550938386E+02 0.  0.
         13    1    3    3    0    0  0.20559723243E+02  0.18258803469E+02  0.20023834738E+02  0.34015455981E+02  0.10566000000E+00 0. -1.
         22    1    1    0    0    0  0.11061338682E+02 -0.12630307321E+00  0.28340085031E+02  0.30422517737E+02  0.00000000000E+00 0.  1.
</event>
<event>
 5    1  0.1245581E-004  0.9118800E+02  0.7818608E-02  0.1130116E+00
         25   -1    0    0    0    0  0.00000000000E+00  0.00000000000E+00  0.99999998245E-14  0.12500000000E+03  0.12500000000E+03 0.  0.
        -13    1    3    3    0    0  0.11047532547E+02  0.19227941250E+02  0.36930733810E+02  0.43077278975E+02  0.10566000000E+00 0. -1.
         23    2    1    0    0    0  0.20082858292E+02 -0.15947656869E+02 -0.53383369778E+01  0.98805596047E+02  0.95270137041E+02 0.  0.
         13    1    3    3    0    0  0.90353257447E+01 -0.35175598119E+02 -0.42269070788E+02  0.55728317072E+02  0.10566000000E+00 0.  1.
         22    1    1    0    0    0 -0.20082858292E+02  0.15947656869E+02  0.53383369778E+01  0.26194403953E+02  0.00000000000E+00 0.  1.
</event>
<event>
 5    1  0.1245581E-004  0.9118800E+02  0.7818608E-02  0.1130116E+00
         25   -1    0    0    0    0  0.00000000000E+00  0.00000000000E+00  0.99999998245E-14  0.12500000000E+03  0.12500000000E+03 0.  0.
        -13    1    3    3    0    0 -0.42644288591E+02 -0.16208795713E+02 -0.41176643228E+02  0.61455573543E+02  0.10566000000E+00 0. -1.
         23    2    1    0    0    0 -0.25131698753E+02 -0.10319134471E+02 -0.13682681756E+02  0.94581213067E+02  0.89556145890E+02 0.  0.
         13    1    3    3    0    0  0.17512589838E+02  0.58896612420E+01  0.27493961472E+02  0.33125639524E+02  0.10566000000E+00 0.  1.
         22    1    1    0    0    0  0.25131698753E+02  0.10319134471E+02  0.13682681756E+02  0.30418786933E+02  0.00000000000E+00 0. -1.
</event>
<event>
 5    1  0.1245581E-004  0.9118800E+02  0.7818608E-02  0.1130116E+00
         25   -1    0    0    0    0  0.00000000000E+00  0.00000000000E+00  0.99999998245E-14  0.12500000000E+03  0.12500000000E+03 0.  0.
        -13    1    3    3    0    0  0.34503786505E+02  0.63220049891E+00 -0.22634994987E+02  0.41270632692E+02  0.10566000000E+00 0.  1.
         23    2    1    0    0    0  0.18053835921E+01  0.28173567647E+02  0.99944802723E+01  0.95051728601E+02  0.90210488028E+02 0.  0.
         13    1    3    3    0    0 -0.32698402913E+02  0.27541367148E+02  0.32629475259E+02  0.53781095909E+02  0.10566000000E+00 0. -1.
         22    1    1    0    0    0 -0.18053835921E+01 -0.28173567647E+02 -0.99944802723E+01  0.29948271399E+02  0.00000000000E+00 0. -1.
</event>
<event>
 5    1  0.1245581E-004  0.9118800E+02  0.7818608E-02  0.1130116E+00
         25   -1    0    0    0    0  0.00000000000E+00  0.00000000000E+00  0.99999998245E-14  0.12500000000E+03  0.12500000000E+03 0.  0.
        -13    1    3    3    0    0  0.46795428044E+02  0.30088536610E+02 -0.99507648677E+01  0.56516909033E+02  0.10566000000E+00 0. -1.
         23    2    1    0    0    0  0.89793084243E+01  0.23503749368E+02 -0.15718495581E+02  0.95333093901E+02  0.90599522489E+02 0.  0.
         13    1    3    3    0    0 -0.37816119619E+02 -0.65847872419E+01 -0.57677307138E+01  0.38816184868E+02  0.10566000000E+00 0.  1.
         22    1    1    0    0    0 -0.89793084243E+01 -0.23503749368E+02  0.15718495581E+02  0.29666906099E+02  0.00000000000E+00 0. -1.
</event>
<event>
 5    1  0.1245581E-004  0.9118800E+02  0.7818608E-02  0.1130116E+00
         25   -1    0    0    0    0  0.00000000000E+00  0.00000000000E+00  0.99999998245E-14  0.12500000000E+03  0.12500000000E+03 0.  0.
        -13    1    3    3    0    0 -0.14406460289E+02  0.55386994561E+01  0.30624328037E+02  0.34294079977E+02  0.10566000000E+00 0.  1.
         23    2    1    0    0    0  0.38051537327E+00  0.22914086320E+01 -0.29049141033E+02  0.95858141098E+02  0.91321056031E+02 0.  0.
         13    1    3    3    0    0  0.14786975662E+02 -0.32472908241E+01 -0.59673469070E+02  0.61564061122E+02  0.10566000000E+00 0. -1.
         22    1    1    0    0    0 -0.38051537327E+00 -0.22914086320E+01  0.29049141033E+02  0.29141858902E+02  0.00000000000E+00 0. -1.
</event>
<event>
 5    1  0.1245581E-004  0.9118800E+02  0.7818608E-02  0.1130116E+00
         25   -1    0    0    0    0  0.00000000000E+00  0.00000000000E+00  0.99999998245E-14  0.12500000000E+03  0.12500000000E+03 0.  0.
        -13    1    3    3    0    0  0.69078499834E+01  0.43692931472E+00 -0.59627595733E+02  0.60028082058E+02  0.10566000000E+00 0.  1.
         23    2    1    0    0    0  0.81941871730E+01  0.11623663332E+02 -0.28105698719E+02  0.93501038856E+02  0.88035559372E+02 0.  0.
         13    1    3    3    0    0  0.12863371896E+01  0.11186734017E+02  0.31521897014E+02  0.33472956797E+02  0.10566000000E+00 0. -1.
         22    1    1    0    0    0 -0.81941871730E+01 -0.11623663332E+02  0.28105698719E+02  0.31498961144E+02  0.00000000000E+00 0.  1.
</event>
<event>
 5    1  0.1245581E-004  0.9118800E+02  0.7818608E-02  0.1130116E+00
         25   -1    0    0    0    0  0.00000000000E+00  0.00000000000E+00  0.99999998245E-14  0.12500000000E+03  0.12500000000E+03 0.  0.
        -13    1    3    3    0    0 -0.49940318523E+02 -0.35113123391E+01  0.14696580277E+02  0.52176291210E+02  0.10566000000E+00 0. -1.
         23    2    1    0    0    0 -0.13729005190E+02 -0.24677241633E+02  0.12329231111E+02  0.94186662338E+02  0.89003739160E+02 0.  0.
         13    1    3    3    0    0  0.36211313333E+02 -0.21165929294E+02 -0.23673491656E+01  0.42010371128E+02  0.10566000000E+00 0.  1.
         22    1    1    0    0    0  0.13729005190E+02  0.24677241633E+02 -0.12329231111E+02  0.30813337662E+02  0.00000000000E+00 0. -1.
</event>
<event>
 5    1  0.1245581E-004  0.9118800E+02  0.7818608E-02  0.1130116E+00
         25   -1    0    0    0    0  0.00000000000E+00  0.00000000000E+00  0.99999998245E-14  0.12500000000E+03  0.12500000000E+03 0.  0.
        -13    1    3    3    0    0 -0.26566666254E+02  0.30525403198E+02 -0.18130710301E+02  0.44343227400E+02  0.10566000000E+00 0.  1.
         23    2    1    0    0    0 -0.21405345848E+02 -0.18395603125E+02  0.15726765088E-01  0.96776121944E+02  0.92569057929E+02 0.  0.
         13    1    3    3    0    0  0.51613204052E+01 -0.48921006323E+02  0.18146437066E+02  0.52432894543E+02  0.10566000000E+00 0. -1.
         22    1    1    0    0    0  0.21405345848E+02  0.18395603125E+02 -0.15726765088E-01  0.28223878056E+02  0.00000000000E+00 0. -1.
</event>
<event>
 5    1  0.1245581E-004  0.9118800E+02  0.7818608E-02  0.1130116E+00
         25   -1    0    0    0    0  0.00000000000E+00  0.00000000000E+00  0.99999998245E-14  0.12500000000E+03  0.12500000000E+03 0.  0.
        -13    1    3    3    0    0 -0.23282538152E+02 -0.20291300264E+02 -0.49179578734E+02  0.58072847163E+02  0.10566000000E+00 0.  1.
         23    2    1    0    0    0 -0.82630948648E+01  0.24159041694E+01 -0.35364618490E+02  0.88602588407E+02  0.80781477467E+02 0.  0.
         13    1    3    3    0    0  0.15019443288E+02  0.22707204433E+02  0.13814960244E+02  0.30529741244E+02  0.10566000000E+00 0. -1.
         22    1    1    0    0    0  0.82630948648E+01 -0.24159041694E+01  0.35364618490E+02  0.36397411593E+02  0.00000000000E+00 0.  1.
</event>
<event>
 5    1  0.1245581E-004  0.9118800E+02  0.7818608E-02  0.1130116E+00
         25   -1    0    0    0    0  0.00000000000E+00  0.00000000000E+00  0.99999998245E-14  0.12500000000E+03  0.12500000000E+03 0.  0.
        -13    1    3    3    0    0  0.23044859295E+02 -0.45286474750E+02 -0.30513967579E+02  0.59270934838E+02  0.10566000000E+00 0. -1.
         23    2    1    0    0    0  0.10261012555E+02 -0.11115821038E+02 -0.24440001444E+02  0.96256939505E+02  0.91865308340E+02 0.  0.
         13    1    3    3    0    0 -0.12783846739E+02  0.34170653712E+02  0.60739661346E+01  0.36986004667E+02  0.10566000000E+00 0.  1.
         22    1    1    0    0    0 -0.10261012555E+02  0.11115821038E+02  0.24440001444E+02  0.28743060495E+02  0.00000000000E+00 0. -1.
</event>
<event>
 5    1  0.1245581E-004  0.9118800E+02  0.7818608E-02  0.1130116E+00
         25   -1    0    0    0    0  0.00000000000E+00  0.00000000000E+00  0.99999998245E-14  0.12500000000E+03  0.12500000000E+03 0.  0.
        -13    1    3    3    0    0 -0.14923040477E+02  0.35575021003E+02  0.14178485775E+02  0.41101336710E+02  0.10566000000E+00 0. -1.
         23    2    1    0    0    0  0.17412813972E+02  0.59057269329E+01 -0.20812686140E+02  0.97228582942E+02  0.93178032473E+02 0.  0.
         13    1    3    3    0    0  0.32335854449E+02 -0.29669294070E+02 -0.34991171915E+02  0.56127246232E+02  0.10566000000E+00 0.  1.
         22    1    1    0    0    0 -0.17412813972E+02 -0.59057269329E+01  0.20812686140E+02  0.27771417058E+02  0.00000000000E+00 0.  1.
</event>
<event>
 5    1  0.1245581E-004  0.9118800E+02  0.7818608E-02  0.1130116E+00
         25   -1    0    0    0    0  0.00000000000E+00  0.00000000000E+00  0.99999998245E-14  0.12500000000E+03  0.12500000000E+03 0.  0.
        -13    1    3    3    0    0 -0.36355789270E+02  0.47423253614E+01 -0.35623403512E+02  0.51120163391E+02  0.10566000000E+00 0.  1.
         23    2    1    0    0    0  0.74853941446E+01  0.10384697993E+02 -0.25499501978E+02  0.96467602992E+02  0.92151509743E+02 0.  0.
         13    1    3    3    0    0  0.43841183414E+02  0.56423726320E+01  0.10123901534E+02  0.45347439601E+02  0.10566000000E+00 0. -1.
         22    1    1    0    0    0 -0.74853941446E+01 -0.10384697993E+02  0.25499501978E+02  0.28532397008E+02  0.00000000000E+00 0.  1.
</event>
<event>
 5    1  0.1245581E-004  0.9118800E+02  0.7818608E-02  0.1130116E+00
         25   -1    0    0    0    0  0.00000000000E+00  0.00000000000E+00  0.99999998245E-14  0.12500000000E+03  0.12500000000E+03 0.  0.
        -13    1    3    3    0    0  0.66459168765E+01 -0.46493030863E+02 -0.54971591210E+01  0.47286362224E+02  0.10566000000E+00 0.  1.
         23    2    1    0    0    0 -0.17105079947E+02 -0.12503649931E+02  0.19917084212E+02  0.95920535337E+02  0.91406421188E+02 0.  0.
         13    1    3    3    0    0 -0.23750996823E+02  0.33989380932E+02  0.25414243333E+02  0.48634173114E+02  0.10566000000E+00 0. -1.
         22    1    1    0    0    0  0.17105079947E+02  0.12503649931E+02 -0.19917084212E+02  0.29079464663E+02  0.00000000000E+00 0.  1.
</event>
<event>
 5    1  0.1245581E-004  0.9118800E+02  0.7818608E-02  0.1130116E+00
         25   -1    0    0    0    0  0.00000000000E+00  0.00000000000E+00  0.99999998245E-14  0.12500000000E+03  0.12500000000E+03 0.  0.
        -13    1    3    3    0    0 -0.26681534475E+02  0.30126684535E+02 -0.63381538212E+01  0.40739474235E+02  0.10566000000E+00 0. -1.
         23    2    1    0    0    0  0.75171984756E+01 -0.45551656622E+01  0.24893871533E+02  0.98599949867E+02  0.94999934035E+02 0.  0.
         13    1    3    3    0    0  0.34198732951E+02 -0.34681850198E+02  0.31232025355E+02  0.57860475632E+02  0.10566000000E+00 0.  1.
         22    1    1    0    0    0 -0.75171984756E+01  0.45551656622E+01 -0.24893871533E+02  0.26400050133E+02  0.00000000000E+00 0.  1.
</event>
<event>
 5    1  0.1245581E-004  0.9118800E+02  0.7818608E-02  0.1130116E+00
         25   -1    0    0    0    0  0.00000000000E+00  0.00000000000E+00  0.99999998245E-14  0.12500000000E+03  0.12500000000E+03 0.  0.
        -13    1    3    3    0    0 -0.27597239731E+02  0.90438431869E+01 -0.55212058463E+02  0.62384143050E+02  0.10566000000E+00 0.  1.
         23    2    1    0    0    0 -0.14201641529E+02  0.20289660542E+01 -0.24751330350E+02  0.96391755044E+02  0.92048567403E+02 0.  0.
         13    1    3    3    0    0  0.13395598202E+02 -0.70148771328E+01  0.30460728112E+02  0.34007611994E+02  0.10566000000E+00 0. -1.
         22    1    1    0    0    0  0.14201641529E+02 -0.20289660542E+01  0.24751330350E+02  0.28608244956E+02  0.00000000000E+00 0.  1.
</event>
<event>
 5    1  0.1245581E-004  0.9118800E+02  0.7818608E-02  0.1130116E+00
         25   -1    0    0    0    0  0.00000000000E+00  0.00000000000E+00  0.99999998245E-14  0.12500000000E+03  0.12500000000E+03 0.  0.
        -13    1    3    3    0    0  0.34050286324E+01  0.32469639305E+02 -0.31134815146E+02  0.45113851252E+02  0.10566000000E+00 0.  1.
         23    2    1    0    0    0 -0.28383339432E+02  0.67461127157E+01 -0.11836204924E+01  0.95801970074E+02  0.91244136899E+02 0.  0.
         13    1    3    3    0    0 -0.31788368065E+02 -0.25723526590E+02  0.29951194654E+02  0.50688118821E+02  0.10566000000E+00 0. -1.
         22    1    1    0    0    0  0.28383339432E+02 -0.67461127157E+01  0.11836204924E+01  0.29198029926E+02  0.00000000000E+00 0. -1.
</event>
<event>
 5    1  0.1245581E-004  0.9118800E+02  0.7818608E-02  0.1130116E+00
         25   -1    0    0    0    0  0.00000000000E+00  0.00000000000E+00  0.99999998245E-14  0.12500000000E+03  0.12500000000E+03 0.  0.
        -13    1    3    3    0    0 -0.97821256722E+01 -0.39596222695E+02  0.39103897990E+02  0.56503777187E+02  0.10566000000E+00 0. -1.
         23    2    1    0    0    0  0.94059772044E+01 -0.75759175180E+01  0.26455666328E+02  0.95917888415E+02  0.91402801399E+02 0.  0.
         13    1    3    3    0    0  0.19188102877E+02  0.32020305177E+02 -0.12648231662E+02  0.39414111227E+02  0.10566000000E+00 0.  1.
         22    1    1    0    0    0 -0.94059772044E+01  0.75759175180E+01 -0.26455666328E+02  0.29082111585E+02  0.00000000000E+00 0. -1.
</event>
<event>
 5    1  0.1245581E-004  0.9118800E+02  0.7818608E-02  0.1130116E+00
         25   -1    0    0    0    0  0.00000000000E+00  0.00000000000E+00  0.99999998245E-14  0.12500000000E+03  0.12500000000E+03 0.  0.
        -13    1    3    3    0    0 -0.14564021938E+02  0.34904160607E+00  0.30946878007E+02  0.34204575534E+02  0.10566000000E+00 0.  1.
         23    2    1    0    0    0  0.38016959121E+01 -0.16710071744E+01 -0.28367501645E+02  0.96330149872E+02  0.91964870836E+02 0.  0.
         13    1    3    3    0    0  0.18365717850E+02 -0.20200487805E+01 -0.59314379652E+02  0.62125574338E+02  0.10566000000E+00 0. -1.
         22    1    1    0    0    0 -0.38016959121E+01  0.16710071744E+01  0.28367501645E+02  0.28669850128E+02  0.00000000000E+00 0. -1.
</event>
<event>
 5    1  0.1245581E-004  0.9118800E+02  0.7818608E-02  0.1130116E+00
         25   -1    0    0    0    0  0.00000000000E+00  0.00000000000E+00  0.99999998245E-14  0.12500000000E+03  0.12500000000E+03 0.  0.
        -13    1    3    3    0    0  0.18112403766E+01 -0.15956744193E+01 -0.36129527129E+02  0.36210228709E+02  0.10566000000E+00 0. -1.
         23    2    1    0    0    0  0.11468291118E+02  0.10841432544E+02  0.22835615367E+02  0.97241691515E+02  0.93195616199E+02 0.  0.
         13    1    3    3    0    0  0.96570507412E+01  0.12437106963E+02  0.58965142496E+02  0.61031462806E+02  0.10566000000E+00 0.  1.
         22    1    1    0    0    0 -0.11468291118E+02 -0.10841432544E+02 -0.22835615367E+02  0.27758308485E+02  0.00000000000E+00 0.  1.
</event>
<event>
 5    1  0.1245581E-004  0.9118800E+02  0.7818608E-02  0.1130116E+00
         25   -1    0    0    0    0  0.00000000000E+00  0.00000000000E+00  0.99999998245E-14  0.12500000000E+03  0.12500000000E+03 0.  0.
        -13    1    3    3    0    0 -0.15805299923E+01  0.39654381863E+02 -0.17051533212E+02  0.43194143410E+02  0.10566000000E+00 0.  1.
         23    2    1    0    0    0 -0.15537481958E+02  0.10511551499E+02  0.23426765253E+02  0.94988012550E+02  0.90122156751E+02 0.  0.
         13    1    3    3    0    0 -0.13956951966E+02 -0.29142830364E+02  0.40478298465E+02  0.51793869140E+02  0.10566000000E+00 0. -1.
         22    1    1    0    0    0  0.15537481958E+02 -0.10511551499E+02 -0.23426765253E+02  0.30011987450E+02  0.00000000000E+00 0.  1.
</event>
<event>
 5    1  0.1245581E-004  0.9118800E+02  0.7818608E-02  0.1130116E+00
         25   -1    0    0    0    0  0.00000000000E+00  0.00000000000E+00  0.99999998245E-14  0.12500000000E+03  0.12500000000E+03 0.  0.
        -13    1    3    3    0    0 -0.57345599139E+02 -0.14170958956E+02  0.29468782217E-01  0.59070685207E+02  0.10566000000E+00 0. -1.
         23    2    1    0    0    0 -0.26650103882E+02 -0.12795818157E+01 -0.13609161431E+02  0.95048795660E+02  0.90206423913E+02 0.  0.
         13    1    3    3    0    0  0.30695495258E+02  0.12891377140E+02 -0.13638630213E+02  0.35978110453E+02  0.10566000000E+00 0.  1.
         22    1    1    0    0    0  0.26650103882E+02  0.12795818157E+01  0.13609161431E+02  0.29951204340E+02  0.00000000000E+00 0. -1.
</event>
<event>
 5    1  0.1245581E-004  0.9118800E+02  0.7818608E-02  0.1130116E+00
         25   -1    0    0    0    0  0.00000000000E+00  0.00000000000E+00  0.99999998245E-14  0.12500000000E+03  0.12500000000E+03 0.  0.
        -13    1    3    3    0    0 -0.98983500215E+01 -0.74421222413E+01  0.46366497588E+02  0.47991934523E+02  0.10566000000E+00 0. -1.
         23    2    1    0    0    0  0.14059113556E+02  0.20223604566E+02  0.15238766966E+02  0.96036697802E+02  0.91565137746E+02 0.  0.
         13    1    3    3    0    0  0.23957463577E+02  0.27665726807E+02 -0.31127730622E+02  0.48044763279E+02  0.10566000000E+00 0.  1.
         22    1    1    0    0    0 -0.14059113556E+02 -0.20223604566E+02 -0.15238766966E+02  0.28963302198E+02  0.00000000000E+00 0. -1.
</event>
<event>
 5    1  0.1245581E-004  0.9118800E+02  0.7818608E-02  0.1130116E+00
         25   -1    0    0    0    0  0.00000000000E+00  0.00000000000E+00  0.99999998245E-14  0.12500000000E+03  0.12500000000E+03 0.  0.
        -13    1    3    3    0    0  0.42635744526E+02  0.30794878317E+02  0.14655580073E+02  0.54597879383E+02  0.10566000000E+00 0.  1.
         23    2    1    0    0    0  0.86145556804E+01  0.26665212544E+02 -0.82137990231E+01  0.95798790710E+02  0.91239781223E+02 0.  0.
         13    1    3    3    0    0 -0.34021188846E+02 -0.41296657726E+01 -0.22869379096E+02  0.41200911327E+02  0.10566000000E+00 0. -1.
         22    1    1    0    0    0 -0.86145556804E+01 -0.26665212544E+02  0.82137990231E+01  0.29201209290E+02  0.00000000000E+00 0.  1.
</event>
<event>
 5    1  0.1245581E-004  0.9118800E+02  0.7818608E-02  0.1130116E+00
         25   -1    0    0    0    0  0.00000000000E+00  0.00000000000E+00  0.99999998245E-14  0.12500000000E+03  0.12500000000E+03 0.  0.
        -13    1    3    3    0    0  0.30707396881E+02 -0.19803424185E+02 -0.15406150652E+02  0.39654513925E+02  0.10566000000E+00 0. -1.
         23    2    1    0    0    0  0.11009061029E+02  0.26605392337E+02  0.78201735290E+01  0.95163756266E+02  0.90365585631E+02 0.  0.
         13    1    3    3    0    0 -0.19698335852E+02  0.46408816522E+02  0.23226324181E+02  0.55509242341E+02  0.10566000000E+00 0.  1.
         22    1    1    0    0    0 -0.11009061029E+02 -0.26605392337E+02 -0.78201735290E+01  0.29836243734E+02  0.00000000000E+00 0.  1.
</event>
<event>
 5    1  0.1245581E-004  0.9118800E+02  0.7818608E-02  0.1130116E+00
         25   -1    0    0    0    0  0.00000000000E+00  0.00000000000E+00  0.99999998245E-14  0.12500000000E+03  0.12500000000E+03 0.  0.
        -13    1    3    3    0    0 -0.43156499012E+02 -0.41978143955E+01 -0.27929242291E+02  0.51576727229E+02  0.10566000000E+00 0.  1.
         23    2    1    0    0    0 -0.38564324268E+01 -0.21664192242E+02 -0.19910117582E+02  0.95324722769E+02  0.90587972117E+02 0.  0.
         13    1    3    3    0    0  0.39300066585E+02 -0.17466377847E+02  0.80191247090E+01  0.43747995540E+02  0.10566000000E+00 0. -1.
         22    1    1    0    0    0  0.38564324268E+01  0.21664192242E+02  0.19910117582E+02  0.29675277231E+02  0.00000000000E+00 0. -1.
</event>
<event>
 5    1  0.1245581E-004  0.9118800E+02  0.7818608E-02  0.1130116E+00
         25   -1    0    0    0    0  0.00000000000E+00  0.00000000000E+00  0.99999998245E-14  0.12500000000E+03  0.12500000000E+03 0.  0.
        -13    1    3    3    0    0  0.55472906206E+02  0.19414703602E+02 -0.47462152578E+01  0.58963647803E+02  0.10566000000E+00 0.  1.
         23    2    1    0    0    0  0.22738442410E+02  0.15268206387E+02  0.10950388077E+02  0.95503120698E+02  0.90833805241E+02 0.  0.
         13    1    3    3    0    0 -0.32734463796E+02 -0.41464972150E+01  0.15696603335E+02  0.36539472896E+02  0.10566000000E+00 0. -1.
         22    1    1    0    0    0 -0.22738442410E+02 -0.15268206387E+02 -0.10950388077E+02  0.29496879302E+02  0.00000000000E+00 0.  1.
</event>
<event>
 5    1  0.1245581E-004  0.9118800E+02  0.7818608E-02  0.1130116E+00
         25   -1    0    0    0    0  0.00000000000E+00  0.00000000000E+00  0.99999998245E-14  0.12500000000E+03  0.12500000000E+03 0.  0.
        -13    1    3    3    0    0 -0.51188007072E+01  0.19976516732E+02 -0.30308528390E+02  0.36658987965E+02  0.10566000000E+00 0. -1.
         23    2    1    0    0    0  0.67026607192E+00 -0.98231661543E+01  0.24101636484E+02  0.98964779027E+02  0.95478766000E+02 0.  0.
         13    1    3    3    0    0  0.57890667791E+01 -0.29799682886E+02  0.54410164874E+02  0.62305791062E+02  0.10566000000E+00 0.  1.
         22    1    1    0    0    0 -0.67026607192E+00  0.98231661543E+01 -0.24101636484E+02  0.26035220973E+02  0.00000000000E+00 0.  1.
</event>
<event>
 5    1  0.1245581E-004  0.9118800E+02  0.7818608E-02  0.1130116E+00
         25   -1    0    0    0    0  0.00000000000E+00  0.00000000000E+00  0.99999998245E-14  0.12500000000E+03  0.12500000000E+03 0.  0.
        -13    1    3    3    0    0 -0.29262776290E+02  0.19599627703E+02  0.97996661676E+00  0.35233889665E+02  0.10566000000E+00 0. -1.
         23    2    1    0    0    0  0.42183194802E+01 -0.29597092467E+02  0.40969766966E+01  0.94824391973E+02  0.89894927517E+02 0.  0.
         13    1    3    3    0    0  0.33481095770E+02 -0.49196720170E+02  0.31170100799E+01  0.59590502308E+02  0.10566000000E+00 0.  1.
         22    1    1    0    0    0 -0.42183194802E+01  0.29597092467E+02 -0.40969766966E+01  0.30175608027E+02  0.00000000000E+00 0.  1.
</event>
<event>
 5    1  0.1245581E-004  0.9118800E+02  0.7818608E-02  0.1130116E+00
         25   -1    0    0    0    0  0.00000000000E+00  0.00000000000E+00  0.99999998245E-14  0.12500000000E+03  0.12500000000E+03 0.  0.
        -13    1    3    3    0    0 -0.38358806477E+02  0.99640195539E+01 -0.12566758472E+02  0.41576607636E+02  0.10566000000E+00 0.  1.
         23    2    1    0    0    0 -0.12404463847E+01 -0.28661094261E+02 -0.15289775123E+01  0.96271359174E+02  0.91884926911E+02 0.  0.
         13    1    3    3    0    0  0.37118360093E+02 -0.38625113815E+02  0.11037780959E+02  0.54694751537E+02  0.10566000000E+00 0. -1.
         22    1    1    0    0    0  0.12404463847E+01  0.28661094261E+02  0.15289775123E+01  0.28728640826E+02  0.00000000000E+00 0. -1.
</event>
<event>
 5    1  0.1245581E-004  0.9118800E+02  0.7818608E-02  0.1130116E+00
         25   -1    0    0    0    0  0.00000000000E+00  0.00000000000E+00  0.99999998245E-14  0.12500000000E+03  0.12500000000E+03 0.  0.
        -13    1    3    3    0    0 -0.20604398103E+02 -0.22993067517E+02 -0.40388519332E+02  0.50837643857E+02  0.10566000000E+00 0.  1.
         23    2    1    0    0    0 -0.66500664155E+01 -0.27132196522E+02  0.32843998873E+01  0.96872313389E+02  0.92698858393E+02 0.  0.
         13    1    3    3    0    0  0.13954331687E+02 -0.41391290058E+01  0.43672919220E+02  0.46034669533E+02  0.10566000000E+00 0. -1.
         22    1    1    0    0    0  0.66500664155E+01  0.27132196522E+02 -0.32843998873E+01  0.28127686611E+02  0.00000000000E+00 0.  1.
</event>
<event>
 5    1  0.1245581E-004  0.9118800E+02  0.7818608E-02  0.1130116E+00
         25   -1    0    0    0    0  0.00000000000E+00  0.00000000000E+00  0.99999998245E-14  0.12500000000E+03  0.12500000000E+03 0.  0.
        -13    1    3    3    0    0 -0.71441211972E+01 -0.58129384645E+01  0.43096256613E+02  0.44069572489E+02  0.10566000000E+00 0.  1.
         23    2    1    0    0    0 -0.15529432868E+02  0.23974522520E+02  0.86864514072E+00  0.96422114151E+02  0.92089785197E+02 0.  0.
         13    1    3    3    0    0 -0.83853116705E+01  0.29787460984E+02 -0.42227611472E+02  0.52352541661E+02  0.10566000000E+00 0. -1.
         22    1    1    0    0    0  0.15529432868E+02 -0.23974522520E+02 -0.86864514072E+00  0.28577885849E+02  0.00000000000E+00 0. -1.
</event>
<event>
 5    1  0.1245581E-004  0.9118800E+02  0.7818608E-02  0.1130116E+00
         25   -1    0    0    0    0  0.00000000000E+00  0.00000000000E+00  0.99999998245E-14  0.12500000000E+03  0.12500000000E+03 0.  0.
        -13    1    3    3    0    0 -0.32248376205E+02 -0.45053021671E+02  0.60686159312E+01  0.55736628826E+02  0.10566000000E+00 0.  1.
         23    2    1    0    0    0 -0.40016587558E+02 -0.24750212710E+02  0.66345682795E+01  0.77482447398E+02  0.61201403984E+02 0.  0.
         13    1    3    3    0    0 -0.77682113533E+01  0.20302808960E+02  0.56595234836E+00  0.21745818573E+02  0.10566000000E+00 0. -1.
         22    1    1    0    0    0  0.40016587558E+02  0.24750212710E+02 -0.66345682795E+01  0.47517552602E+02  0.00000000000E+00 0.  1.
</event>
<event>
 5    1  0.1245581E-004  0.9118800E+02  0.7818608E-02  0.1130116E+00
         25   -1    0    0    0    0  0.00000000000E+00  0.00000000000E+00  0.99999998245E-14  0.12500000000E+03  0.12500000000E+03 0.  0.
        -13    1    3    3    0    0  0.20418939241E+02 -0.36574798251E+02  0.20476289400E+02  0.46625513814E+02  0.10566000000E+00 0. -1.
         23    2    1    0    0    0  0.23960363127E+02  0.12089602166E+02  0.81628805311E+01  0.96948438542E+02  0.92801452766E+02 0.  0.
         13    1    3    3    0    0  0.35414238862E+01  0.48664400417E+02 -0.12313408869E+02  0.50322924727E+02  0.10566000000E+00 0.  1.
         22    1    1    0    0    0 -0.23960363127E+02 -0.12089602166E+02 -0.81628805311E+01  0.28051561458E+02  0.00000000000E+00 0.  1.
</event>
<event>
 5    1  0.1245581E-004  0.9118800E+02  0.7818608E-02  0.1130116E+00
         25   -1    0    0    0    0  0.00000000000E+00  0.00000000000E+00  0.99999998245E-14  0.12500000000E+03  0.12500000000E+03 0.  0.
        -13    1    3    3    0    0 -0.19172666265E+02  0.47040473853E+02 -0.46384361419E+00  0.50799838848E+02  0.10566000000E+00 0.  1.
         23    2    1    0    0    0  0.16858887102E+02  0.20303662175E+02 -0.10190911223E+02  0.96710152995E+02  0.92479934303E+02 0.  0.
         13    1    3    3    0    0  0.36031553367E+02 -0.26736811679E+02 -0.97270676083E+01  0.45910314147E+02  0.10566000000E+00 0. -1.
         22    1    1    0    0    0 -0.16858887102E+02 -0.20303662175E+02  0.10190911223E+02  0.28289847005E+02  0.00000000000E+00 0.  1.
</event>
<event>
 5    1  0.1245581E-004  0.9118800E+02  0.7818608E-02  0.1130116E+00
         25   -1    0    0    0    0  0.00000000000E+00  0.00000000000E+00  0.99999998245E-14  0.12500000000E+03  0.12500000000E+03 0.  0.
        -13    1    3    3    0    0 -0.24423188521E+02  0.22444554169E+02 -0.23787982071E+02  0.40818248424E+02  0.10566000000E+00 0.  1.
         23    2    1    0    0    0  0.26563281441E+02  0.80017003007E+01 -0.73837274224E+01  0.96291907774E+02  0.91912876918E+02 0.  0.
         13    1    3    3    0    0  0.50986469962E+02 -0.14442853868E+02  0.16404254649E+02  0.55473659350E+02  0.10566000000E+00 0. -1.
         22    1    1    0    0    0 -0.26563281441E+02 -0.80017003007E+01  0.73837274224E+01  0.28708092226E+02  0.00000000000E+00 0. -1.
</event>
<event>
 5    1  0.1245581E-004  0.9118800E+02  0.7818608E-02  0.1130116E+00
         25   -1    0    0    0    0  0.00000000000E+00  0.00000000000E+00  0.99999998245E-14  0.12500000000E+03  0.12500000000E+03 0.  0.
        -13    1    3    3    0    0  0.31603941051E+02 -0.72495066388E+00 -0.17074682448E+02  0.35928965865E+02  0.10566000000E+00 0. -1.
         23    2    1    0    0    0 -0.22475652697E+02 -0.18918945412E+02  0.45183624307E+00  0.95618277524E+02  0.90992139117E+02 0.  0.
         13    1    3    3    0    0 -0.54079593748E+02 -0.18193994748E+02  0.17526518691E+02  0.59689311659E+02  0.10566000000E+00 0.  1.
         22    1    1    0    0    0  0.22475652697E+02  0.18918945412E+02 -0.45183624307E+00  0.29381722476E+02  0.00000000000E+00 0.  1.
</event>
<event>
 5    1  0.1245581E-004  0.9118800E+02  0.7818608E-02  0.1130116E+00
         25   -1    0    0    0    0  0.00000000000E+00  0.00000000000E+00  0.99999998245E-14  0.12500000000E+03  0.12500000000E+03 0.  0.
        -13    1    3    3    0    0  0.21518813733E+02 -0.15411176634E+02 -0.22549332866E+02  0.34771357271E+02  0.10566000000E+00 0. -1.
         23    2    1    0    0    0  0.60868984018E+00  0.31080589161E+02  0.62060980083E+01  0.93300012959E+02  0.87749662334E+02 0.  0.
         13    1    3    3    0    0 -0.20910123893E+02  0.46491765794E+02  0.28755430874E+02  0.58528655688E+02  0.10566000000E+00 0.  1.
         22    1    1    0    0    0 -0.60868984018E+00 -0.31080589161E+02 -0.62060980083E+01  0.31699987041E+02  0.00000000000E+00 0.  1.
</event>
<event>
 5    1  0.1245581E-004  0.9118800E+02  0.7818608E-02  0.1130116E+00
         25   -1    0    0    0    0  0.00000000000E+00  0.00000000000E+00  0.99999998245E-14  0.12500000000E+03  0.12500000000E+03 0.  0.
        -13    1    3    3    0    0  0.26536143395E+02  0.42329981035E+02  0.32239304917E+01  0.50063950030E+02  0.10566000000E+00 0. -1.
         23    2    1    0    0    0  0.32754738161E+02  0.19734704106E+02  0.22694382880E+02  0.80532411439E+02  0.67142407313E+02 0.  0.
         13    1    3    3    0    0  0.62185947659E+01 -0.22595276930E+02  0.19470452389E+02  0.30468461409E+02  0.10566000000E+00 0.  1.
         22    1    1    0    0    0 -0.32754738161E+02 -0.19734704106E+02 -0.22694382880E+02  0.44467588561E+02  0.00000000000E+00 0. -1.
</event>
<event>
 5    1  0.1245581E-004  0.9118800E+02  0.7818608E-02  0.1130116E+00
         25   -1    0    0    0    0  0.00000000000E+00  0.00000000000E+00  0.99999998245E-14  0.12500000000E+03  0.12500000000E+03 0.  0.
        -13    1    3    3    0    0  0.33169437130E+02 -0.27464428917E+02  0.31262035251E+02  0.53214964317E+02  0.10566000000E+00 0. -1.
         23    2    1    0    0    0  0.22720820044E+02 -0.19784344650E+02 -0.73859004771E+01  0.93980530589E+02  0.88713768081E+02 0.  0.
         13    1    3    3    0    0 -0.10448617085E+02  0.76800842676E+01 -0.38647935728E+02  0.40765566271E+02  0.10566000000E+00 0.  1.
         22    1    1    0    0    0 -0.22720820044E+02  0.19784344650E+02  0.73859004771E+01  0.31019469411E+02  0.00000000000E+00 0. -1.
</event>
<event>
 5    1  0.1245581E-004  0.9118800E+02  0.7818608E-02  0.1130116E+00
         25   -1    0    0    0    0  0.00000000000E+00  0.00000000000E+00  0.99999998245E-14  0.12500000000E+03  0.12500000000E+03 0.  0.
        -13    1    3    3    0    0 -0.39473474192E+02  0.26028838577E+00 -0.28204746880E+02  0.48515377206E+02  0.10566000000E+00 0.  1.
         23    2    1    0    0    0 -0.25147177127E+02 -0.52952743641E+01  0.15599988374E+02  0.94937064592E+02  0.90051463886E+02 0.  0.
         13    1    3    3    0    0  0.14326297065E+02 -0.55555627498E+01  0.43804735254E+02  0.46421687386E+02  0.10566000000E+00 0. -1.
         22    1    1    0    0    0  0.25147177127E+02  0.52952743641E+01 -0.15599988374E+02  0.30062935408E+02  0.00000000000E+00 0. -1.
</event>
<event>
 5    1  0.1245581E-004  0.9118800E+02  0.7818608E-02  0.1130116E+00
         25   -1    0    0    0    0  0.00000000000E+00  0.00000000000E+00  0.99999998245E-14  0.12500000000E+03  0.12500000000E+03 0.  0.
        -13    1    3    3    0    0 -0.19922190806E+02 -0.42963271318E+02 -0.37654774498E+02  0.60503136905E+02  0.10566000000E+00 0. -1.
         23    2    1    0    0    0 -0.17446516678E+02 -0.20691102699E+02 -0.98864576536E+01  0.96186032553E+02  0.91768775399E+02 0.  0.
         13    1    3    3    0    0  0.24756741281E+01  0.22272168619E+02  0.27768316845E+02  0.35682895647E+02  0.10566000000E+00 0.  1.
         22    1    1    0    0    0  0.17446516678E+02  0.20691102699E+02  0.98864576536E+01  0.28813967447E+02  0.00000000000E+00 0. -1.
</event>
<event>
 5    1  0.1245581E-004  0.9118800E+02  0.7818608E-02  0.1130116E+00
         25   -1    0    0    0    0  0.00000000000E+00  0.00000000000E+00  0.99999998245E-14  0.12500000000E+03  0.12500000000E+03 0.  0.
        -13    1    3    3    0    0  0.40294291957E+02  0.21436358377E+02  0.16793415466E+02  0.48633089474E+02  0.10566000000E+00 0. -1.
         23    2    1    0    0    0  0.32369079500E+02 -0.14805710953E+02  0.16582674693E+02  0.85732309917E+02  0.76210743857E+02 0.  0.
         13    1    3    3    0    0 -0.79252124570E+01 -0.36242069329E+02 -0.21074077341E+00  0.37099220443E+02  0.10566000000E+00 0.  1.
         22    1    1    0    0    0 -0.32369079500E+02  0.14805710953E+02 -0.16582674693E+02  0.39267690083E+02  0.00000000000E+00 0.  1.
</event>
<event>
 5    1  0.1245581E-004  0.9118800E+02  0.7818608E-02  0.1130116E+00
         25   -1    0    0    0    0  0.00000000000E+00  0.00000000000E+00  0.99999998245E-14  0.12500000000E+03  0.12500000000E+03 0.  0.
        -13    1    3    3    0    0  0.81774915551E+00  0.99054942189E+01  0.50709275470E+02  0.51674261603E+02  0.10566000000E+00 0.  1.
         23    2    1    0    0    0 -0.41169849311E+01  0.24287394146E+02  0.49765635311E+01  0.99868480669E+02  0.96654643795E+02 0.  0.
         13    1    3    3    0    0 -0.49347340866E+01  0.14381899927E+02 -0.45732711939E+02  0.48194219066E+02  0.10566000000E+00 0. -1.
         22    1    1    0    0    0  0.41169849311E+01 -0.24287394146E+02 -0.49765635311E+01  0.25131519331E+02  0.00000000000E+00 0. -1.
</event>
<event>
 5    1  0.1245581E-004  0.9118800E+02  0.7818608E-02  0.1130116E+00
         25   -1    0    0    0    0  0.00000000000E+00  0.00000000000E+00  0.99999998245E-14  0.12500000000E+03  0.12500000000E+03 0.  0.
        -13    1    3    3    0    0 -0.56539399480E+02 -0.41812517185E+01 -0.18005666416E+02  0.59484466431E+02  0.10566000000E+00 0. -1.
         23    2    1    0    0    0 -0.29705667233E+02  0.75876213721E+01  0.85066164763E+00  0.94328803592E+02  0.89203143992E+02 0.  0.
         13    1    3    3    0    0  0.26833732247E+02  0.11768873091E+02  0.18856328063E+02  0.34844337161E+02  0.10566000000E+00 0.  1.
         22    1    1    0    0    0  0.29705667233E+02 -0.75876213721E+01 -0.85066164763E+00  0.30671196408E+02  0.00000000000E+00 0. -1.
</event>
<event>
 5    1  0.1245581E-004  0.9118800E+02  0.7818608E-02  0.1130116E+00
         25   -1    0    0    0    0  0.00000000000E+00  0.00000000000E+00  0.99999998245E-14  0.12500000000E+03  0.12500000000E+03 0.  0.
        -13    1    3    3    0    0  0.35667088689E+02 -0.10419207855E+02  0.34226547142E+02  0.50518994460E+02  0.10566000000E+00 0. -1.
         23    2    1    0    0    0  0.27591824597E+02  0.13077225127E+02 -0.19478644555E+01  0.94403974481E+02  0.89308418529E+02 0.  0.
         13    1    3    3    0    0 -0.80752640917E+01  0.23496432981E+02 -0.36174411598E+02  0.43884980021E+02  0.10566000000E+00 0.  1.
         22    1    1    0    0    0 -0.27591824597E+02 -0.13077225127E+02  0.19478644555E+01  0.30596025519E+02  0.00000000000E+00 0. -1.
</event>
<event>
 5    1  0.1245581E-004  0.9118800E+02  0.7818608E-02  0.1130116E+00
         25   -1    0    0    0    0  0.00000000000E+00  0.00000000000E+00  0.99999998245E-14  0.12500000000E+03  0.12500000000E+03 0.  0.
        -13    1    3    3    0    0  0.23307713463E+02 -0.73245376671E+01  0.48975565842E+02  0.54731303406E+02  0.10566000000E+00 0.  1.
         23    2    1    0    0    0  0.25202069654E+02 -0.77401394394E+01  0.57298025554E+01  0.98020661411E+02  0.94234629265E+02 0.  0.
         13    1    3    3    0    0  0.18943561912E+01 -0.41560177239E+00 -0.43245763287E+02  0.43289358005E+02  0.10566000000E+00 0. -1.
         22    1    1    0    0    0 -0.25202069654E+02  0.77401394394E+01 -0.57298025554E+01  0.26979338589E+02  0.00000000000E+00 0.  1.
</event>
<event>
 5    1  0.1245581E-004  0.9118800E+02  0.7818608E-02  0.1130116E+00
         25   -1    0    0    0    0  0.00000000000E+00  0.00000000000E+00  0.99999998245E-14  0.12500000000E+03  0.12500000000E+03 0.  0.
        -13    1    3    3    0    0  0.18615716673E+02  0.17124369071E+02 -0.33862983281E+02  0.42267028806E+02  0.10566000000E+00 0.  1.
         23    2    1    0    0    0 -0.25534957523E+02  0.14479542888E+02 -0.46350656446E+01  0.95281738754E+02  0.90528640156E+02 0.  0.
         13    1    3    3    0    0 -0.44150674196E+02 -0.26448261826E+01  0.29227917637E+02  0.53014709948E+02  0.10566000000E+00 0. -1.
         22    1    1    0    0    0  0.25534957523E+02 -0.14479542888E+02  0.46350656446E+01  0.29718261246E+02  0.00000000000E+00 0. -1.
</event>
<event>
 5    1  0.1245581E-004  0.9118800E+02  0.7818608E-02  0.1130116E+00
         25   -1    0    0    0    0  0.00000000000E+00  0.00000000000E+00  0.99999998245E-14  0.12500000000E+03  0.12500000000E+03 0.  0.
        -13    1    3    3    0    0  0.25373219025E+02 -0.39334411752E+02 -0.12828623542E+02  0.48534327415E+02  0.10566000000E+00 0. -1.
         23    2    1    0    0    0  0.61873042282E+01  0.12004158885E+01 -0.28324884172E+02  0.95982370957E+02  0.91490943483E+02 0.  0.
         13    1    3    3    0    0 -0.19185914797E+02  0.40534827641E+02 -0.15496260630E+02  0.47448043542E+02  0.10566000000E+00 0.  1.
         22    1    1    0    0    0 -0.61873042282E+01 -0.12004158885E+01  0.28324884172E+02  0.29017629043E+02  0.00000000000E+00 0. -1.
</event>
<event>
 5    1  0.1245581E-004  0.9118800E+02  0.7818608E-02  0.1130116E+00
         25   -1    0    0    0    0  0.00000000000E+00  0.00000000000E+00  0.99999998245E-14  0.12500000000E+03  0.12500000000E+03 0.  0.
        -13    1    3    3    0    0  0.22061979727E+02  0.23134142991E+02 -0.24010349175E+02  0.39980339580E+02  0.10566000000E+00 0.  1.
         23    2    1    0    0    0  0.67216489069E+01 -0.27533203308E+02 -0.50518902448E+01  0.96211470279E+02  0.91803418073E+02 0.  0.
         13    1    3    3    0    0 -0.15340330820E+02 -0.50667346299E+02  0.18958458931E+02  0.56231130699E+02  0.10566000000E+00 0. -1.
         22    1    1    0    0    0 -0.67216489069E+01  0.27533203308E+02  0.50518902448E+01  0.28788529721E+02  0.00000000000E+00 0. -1.
</event>
<event>
 5    1  0.1245581E-004  0.9118800E+02  0.7818608E-02  0.1130116E+00
         25   -1    0    0    0    0  0.00000000000E+00  0.00000000000E+00  0.99999998245E-14  0.12500000000E+03  0.12500000000E+03 0.  0.
        -13    1    3    3    0    0 -0.30789509958E+01 -0.43569428582E+02 -0.83926027982E+01  0.44477207556E+02  0.10566000000E+00 0.  1.
         23    2    1    0    0    0 -0.26762141171E+02  0.38849976249E+01 -0.23888824887E+01  0.97852032007E+02  0.94010680254E+02 0.  0.
         13    1    3    3    0    0 -0.23683190175E+02  0.47454426207E+02  0.60037203095E+01  0.53374824451E+02  0.10566000000E+00 0. -1.
         22    1    1    0    0    0  0.26762141171E+02 -0.38849976249E+01  0.23888824887E+01  0.27147967993E+02  0.00000000000E+00 0. -1.
</event>
<event>
 5    1  0.1245581E-004  0.9118800E+02  0.7818608E-02  0.1130116E+00
         25   -1    0    0    0    0  0.00000000000E+00  0.00000000000E+00  0.99999998245E-14  0.12500000000E+03  0.12500000000E+03 0.  0.
        -13    1    3    3    0    0  0.37484653791E+02  0.35430180995E+02 -0.14584238211E+02  0.53601382104E+02  0.10566000000E+00 0.  1.
         23    2    1    0    0    0 -0.31287764866E+01  0.24563037820E+02 -0.15739403365E+02  0.95659569063E+02  0.91048845494E+02 0.  0.
         13    1    3    3    0    0 -0.40613430278E+02 -0.10867143175E+02 -0.11551651537E+01  0.42058186959E+02  0.10566000000E+00 0. -1.
         22    1    1    0    0    0  0.31287764866E+01 -0.24563037820E+02  0.15739403365E+02  0.29340430937E+02  0.00000000000E+00 0.  1.
</event>
<event>
 5    1  0.1245581E-004  0.9118800E+02  0.7818608E-02  0.1130116E+00
         25   -1    0    0    0    0  0.00000000000E+00  0.00000000000E+00  0.99999998245E-14  0.12500000000E+03  0.12500000000E+03 0.  0.
        -13    1    3    3    0    0  0.61046793423E+01 -0.51813219011E+02  0.22218187358E+02  0.56705694491E+02  0.10566000000E+00 0.  1.
         23    2    1    0    0    0  0.28127132242E+01 -0.27559523826E+02 -0.85369281649E+01  0.96011763563E+02  0.91531092482E+02 0.  0.
         13    1    3    3    0    0 -0.32919661181E+01  0.24253695185E+02 -0.30755115523E+02  0.39306069073E+02  0.10566000000E+00 0. -1.
         22    1    1    0    0    0 -0.28127132242E+01  0.27559523826E+02  0.85369281649E+01  0.28988236437E+02  0.00000000000E+00 0.  1.
</event>
<event>
 5    1  0.1245581E-004  0.9118800E+02  0.7818608E-02  0.1130116E+00
         25   -1    0    0    0    0  0.00000000000E+00  0.00000000000E+00  0.99999998245E-14  0.12500000000E+03  0.12500000000E+03 0.  0.
        -13    1    3    3    0    0 -0.18377113699E+01 -0.35910032236E+02  0.12514120813E+02  0.38072588328E+02  0.10566000000E+00 0.  1.
         23    2    1    0    0    0 -0.22316316060E+02  0.15027927615E+02 -0.83891127546E+01  0.96817846362E+02  0.92625383078E+02 0.  0.
         13    1    3    3    0    0 -0.20478604690E+02  0.50937959851E+02 -0.20903233568E+02  0.58745258033E+02  0.10566000000E+00 0. -1.
         22    1    1    0    0    0  0.22316316060E+02 -0.15027927615E+02  0.83891127546E+01  0.28182153638E+02  0.00000000000E+00 0. -1.
</event>
<event>
 5    1  0.1245581E-004  0.9118800E+02  0.7818608E-02  0.1130116E+00
         25   -1    0    0    0    0  0.00000000000E+00  0.00000000000E+00  0.99999998245E-14  0.12500000000E+03  0.12500000000E+03 0.  0.
        -13    1    3    3    0    0  0.42212285027E+02 -0.21663957045E+02 -0.21975279911E+02  0.52288891108E+02  0.10566000000E+00 0.  1.
         23    2    1    0    0    0  0.21267777779E+02  0.14731937093E+02 -0.15672438277E+02  0.94751468404E+02  0.89793469145E+02 0.  0.
         13    1    3    3    0    0 -0.20944507248E+02  0.36395894138E+02  0.63028416340E+01  0.42462577296E+02  0.10566000000E+00 0. -1.
         22    1    1    0    0    0 -0.21267777779E+02 -0.14731937093E+02  0.15672438277E+02  0.30248531596E+02  0.00000000000E+00 0.  1.
</event>
<event>
 5    1  0.1245581E-004  0.9118800E+02  0.7818608E-02  0.1130116E+00
         25   -1    0    0    0    0  0.00000000000E+00  0.00000000000E+00  0.99999998245E-14  0.12500000000E+03  0.12500000000E+03 0.  0.
        -13    1    3    3    0    0  0.24878920489E+02 -0.43493369297E+02 -0.21880978720E+02  0.54675609291E+02  0.10566000000E+00 0. -1.
         23    2    1    0    0    0 -0.90828983512E+01 -0.23177437109E+02 -0.17667756148E+02  0.94473908853E+02  0.89406248178E+02 0.  0.
         13    1    3    3    0    0 -0.33961818840E+02  0.20315932188E+02  0.42132225722E+01  0.39798299563E+02  0.10566000000E+00 0.  1.
         22    1    1    0    0    0  0.90828983512E+01  0.23177437109E+02  0.17667756148E+02  0.30526091147E+02  0.00000000000E+00 0. -1.
</event>
<event>
 5    1  0.1245581E-004  0.9118800E+02  0.7818608E-02  0.1130116E+00
         25   -1    0    0    0    0  0.00000000000E+00  0.00000000000E+00  0.99999998245E-14  0.12500000000E+03  0.12500000000E+03 0.  0.
        -13    1    3    3    0    0  0.32646080049E+02 -0.22177542334E+02  0.55039427760E+01  0.39848644602E+02  0.10566000000E+00 0. -1.
         23    2    1    0    0    0 -0.24538432211E+02 -0.77454938378E+01 -0.14064171789E+01  0.99229758646E+02  0.95825047150E+02 0.  0.
         13    1    3    3    0    0 -0.57184512261E+02  0.14432048496E+02 -0.69103599549E+01  0.59381114043E+02  0.10566000000E+00 0.  1.
         22    1    1    0    0    0  0.24538432211E+02  0.77454938378E+01  0.14064171789E+01  0.25770241354E+02  0.00000000000E+00 0.  1.
</event>
<event>
 5    1  0.1245581E-004  0.9118800E+02  0.7818608E-02  0.1130116E+00
         25   -1    0    0    0    0  0.00000000000E+00  0.00000000000E+00  0.99999998245E-14  0.12500000000E+03  0.12500000000E+03 0.  0.
        -13    1    3    3    0    0 -0.32648459313E+02  0.13680053245E+02 -0.33597298841E+01  0.35557906311E+02  0.10566000000E+00 0.  1.
         23    2    1    0    0    0  0.25143152658E+02 -0.72323663490E+01  0.70776418079E+01  0.97896895710E+02  0.94070313743E+02 0.  0.
         13    1    3    3    0    0  0.57791611971E+02 -0.20912419594E+02  0.10437371692E+02  0.62338989399E+02  0.10566000000E+00 0. -1.
         22    1    1    0    0    0 -0.25143152658E+02  0.72323663490E+01 -0.70776418079E+01  0.27103104290E+02  0.00000000000E+00 0. -1.
</event>
<event>
 5    1  0.1245581E-004  0.9118800E+02  0.7818608E-02  0.1130116E+00
         25   -1    0    0    0    0  0.00000000000E+00  0.00000000000E+00  0.99999998245E-14  0.12500000000E+03  0.12500000000E+03 0.  0.
        -13    1    3    3    0    0 -0.14317368543E+02 -0.16925786793E+02 -0.54823432052E+02  0.59136191681E+02  0.10566000000E+00 0.  1.
         23    2    1    0    0    0 -0.54389623862E+01  0.78287860754E+00 -0.41792543840E+02  0.82847752950E+02  0.71322775026E+02 0.  0.
         13    1    3    3    0    0  0.88784061567E+01  0.17708665401E+02  0.13030888212E+02  0.23711561269E+02  0.10566000000E+00 0. -1.
         22    1    1    0    0    0  0.54389623862E+01 -0.78287860754E+00  0.41792543840E+02  0.42152247050E+02  0.00000000000E+00 0.  1.
</event>
<event>
 5    1  0.1245581E-004  0.9118800E+02  0.7818608E-02  0.1130116E+00
         25   -1    0    0    0    0  0.00000000000E+00  0.00000000000E+00  0.99999998245E-14  0.12500000000E+03  0.12500000000E+03 0.  0.
        -13    1    3    3    0    0  0.46527679084E+02 -0.79104066281E+01 -0.26676337067E+02  0.54212891246E+02  0.10566000000E+00 0.  1.
         23    2    1    0    0    0  0.24974657518E+02  0.17569170172E+02 -0.48695346035E+01  0.94078783563E+02  0.88852101218E+02 0.  0.
         13    1    3    3    0    0 -0.21553021566E+02  0.25479576800E+02  0.21806802463E+02  0.39865892317E+02  0.10566000000E+00 0. -1.
         22    1    1    0    0    0 -0.24974657518E+02 -0.17569170172E+02  0.48695346035E+01  0.30921216437E+02  0.00000000000E+00 0.  1.
</event>
<event>
 5    1  0.1245581E-004  0.9118800E+02  0.7818608E-02  0.1130116E+00
         25   -1    0    0    0    0  0.00000000000E+00  0.00000000000E+00  0.99999998245E-14  0.12500000000E+03  0.12500000000E+03 0.  0.
        -13    1    3    3    0    0 -0.48078872585E+01 -0.21304019471E+02 -0.36035784453E+02  0.42137464930E+02  0.10566000000E+00 0. -1.
         23    2    1    0    0    0 -0.11306945500E+02 -0.14789333877E+02  0.19271517983E+02  0.98205171797E+02  0.94479060903E+02 0.  0.
         13    1    3    3    0    0 -0.64990582420E+01  0.65146855942E+01  0.55307302437E+02  0.56067706867E+02  0.10566000000E+00 0.  1.
         22    1    1    0    0    0  0.11306945500E+02  0.14789333877E+02 -0.19271517983E+02  0.26794828203E+02  0.00000000000E+00 0.  1.
</event>
<event>
 5    1  0.1245581E-004  0.9118800E+02  0.7818608E-02  0.1130116E+00
         25   -1    0    0    0    0  0.00000000000E+00  0.00000000000E+00  0.99999998245E-14  0.12500000000E+03  0.12500000000E+03 0.  0.
        -13    1    3    3    0    0  0.68027090251E+01 -0.15115154175E+02 -0.40361515286E+02  0.43632646219E+02  0.10566000000E+00 0.  1.
         23    2    1    0    0    0  0.28298804940E+02  0.91029160964E+01 -0.13588144827E+00  0.95272842277E+02  0.90516355259E+02 0.  0.
         13    1    3    3    0    0  0.21496095915E+02  0.24218070272E+02  0.40225633838E+02  0.51640196059E+02  0.10566000000E+00 0. -1.
         22    1    1    0    0    0 -0.28298804940E+02 -0.91029160964E+01  0.13588144827E+00  0.29727157723E+02  0.00000000000E+00 0. -1.
</event>
<event>
 5    1  0.1245581E-004  0.9118800E+02  0.7818608E-02  0.1130116E+00
         25   -1    0    0    0    0  0.00000000000E+00  0.00000000000E+00  0.99999998245E-14  0.12500000000E+03  0.12500000000E+03 0.  0.
        -13    1    3    3    0    0  0.48707032062E+02 -0.21077748229E+02  0.66321633778E+01  0.53484981049E+02  0.10566000000E+00 0. -1.
         23    2    1    0    0    0  0.22931523361E+02 -0.96805337025E+01 -0.20611186935E+02  0.92682999469E+02  0.86866275777E+02 0.  0.
         13    1    3    3    0    0 -0.25775508701E+02  0.11397214526E+02 -0.27243350313E+02  0.39198018420E+02  0.10566000000E+00 0.  1.
         22    1    1    0    0    0 -0.22931523361E+02  0.96805337025E+01  0.20611186935E+02  0.32317000531E+02  0.00000000000E+00 0. -1.
</event>
<event>
 5    1  0.1245581E-004  0.9118800E+02  0.7818608E-02  0.1130116E+00
         25   -1    0    0    0    0  0.00000000000E+00  0.00000000000E+00  0.99999998245E-14  0.12500000000E+03  0.12500000000E+03 0.  0.
        -13    1    3    3    0    0  0.27111680550E+02 -0.31902310348E+02  0.71643619115E+01  0.42475167727E+02  0.10566000000E+00 0.  1.
         23    2    1    0    0    0  0.13306961465E+02  0.21252194922E+02  0.11192959212E+02  0.97540696506E+02  0.93595801864E+02 0.  0.
         13    1    3    3    0    0 -0.13804719085E+02  0.53154505270E+02  0.40285973005E+01  0.55065528779E+02  0.10566000000E+00 0. -1.
         22    1    1    0    0    0 -0.13306961465E+02 -0.21252194922E+02 -0.11192959212E+02  0.27459303494E+02  0.00000000000E+00 0. -1.
</event>
<event>
 5    1  0.1245581E-004  0.9118800E+02  0.7818608E-02  0.1130116E+00
         25   -1    0    0    0    0  0.00000000000E+00  0.00000000000E+00  0.99999998245E-14  0.12500000000E+03  0.12500000000E+03 0.  0.
        -13    1    3    3    0    0 -0.11782460729E+02 -0.27584363007E+02 -0.15547581208E+01  0.30035843590E+02  0.10566000000E+00 0.  1.
         23    2    1    0    0    0 -0.14977884750E+02  0.29545420529E+02  0.13543068517E+02  0.89213359885E+02  0.81721110928E+02 0.  0.
         13    1    3    3    0    0 -0.31954240211E+01  0.57129783537E+02  0.15097826638E+02  0.59177516295E+02  0.10566000000E+00 0. -1.
         22    1    1    0    0    0  0.14977884750E+02 -0.29545420529E+02 -0.13543068517E+02  0.35786640115E+02  0.00000000000E+00 0. -1.
</event>
<event>
 5    1  0.1245581E-004  0.9118800E+02  0.7818608E-02  0.1130116E+00
         25   -1    0    0    0    0  0.00000000000E+00  0.00000000000E+00  0.99999998245E-14  0.12500000000E+03  0.12500000000E+03 0.  0.
        -13    1    3    3    0    0  0.16949862225E+02 -0.33045119113E+02  0.81831336103E+01  0.38029627482E+02  0.10566000000E+00 0.  1.
         23    2    1    0    0    0 -0.12229171380E+02  0.14826417246E+02  0.22016962432E+02  0.95774635746E+02  0.91206682522E+02 0.  0.
         13    1    3    3    0    0 -0.29179033606E+02  0.47871536359E+02  0.13833828822E+02  0.57745008265E+02  0.10566000000E+00 0. -1.
         22    1    1    0    0    0  0.12229171380E+02 -0.14826417246E+02 -0.22016962432E+02  0.29225364254E+02  0.00000000000E+00 0. -1.
</event>
<event>
 5    1  0.1245581E-004  0.9118800E+02  0.7818608E-02  0.1130116E+00
         25   -1    0    0    0    0  0.00000000000E+00  0.00000000000E+00  0.99999998245E-14  0.12500000000E+03  0.12500000000E+03 0.  0.
        -13    1    3    3    0    0  0.34606182470E+02 -0.31005280918E+02 -0.36037680498E+02  0.58801708220E+02  0.10566000000E+00 0. -1.
         23    2    1    0    0    0  0.21442628392E+02 -0.25248447884E+00 -0.19033656597E+02  0.96327188066E+02  0.91960845018E+02 0.  0.
         13    1    3    3    0    0 -0.13163554077E+02  0.30752796439E+02  0.17004023901E+02  0.37525479845E+02  0.10566000000E+00 0.  1.
         22    1    1    0    0    0 -0.21442628392E+02  0.25248447884E+00  0.19033656597E+02  0.28672811934E+02  0.00000000000E+00 0. -1.
</event>
<event>
 5    1  0.1245581E-004  0.9118800E+02  0.7818608E-02  0.1130116E+00
         25   -1    0    0    0    0  0.00000000000E+00  0.00000000000E+00  0.99999998245E-14  0.12500000000E+03  0.12500000000E+03 0.  0.
        -13    1    3    3    0    0 -0.20720896053E+02  0.22677969711E+02 -0.11731394872E+02  0.32882862301E+02  0.10566000000E+00 0. -1.
         23    2    1    0    0    0  0.19790492209E+02 -0.20499025488E+02  0.81928062354E+01  0.95352138326E+02  0.90625794239E+02 0.  0.
         13    1    3    3    0    0  0.40511388262E+02 -0.43176995199E+02  0.19924201108E+02  0.62469276025E+02  0.10566000000E+00 0.  1.
         22    1    1    0    0    0 -0.19790492209E+02  0.20499025488E+02 -0.81928062354E+01  0.29647861674E+02  0.00000000000E+00 0.  1.
</event>
<event>
 5    1  0.1245581E-004  0.9118800E+02  0.7818608E-02  0.1130116E+00
         25   -1    0    0    0    0  0.00000000000E+00  0.00000000000E+00  0.99999998245E-14  0.12500000000E+03  0.12500000000E+03 0.  0.
        -13    1    3    3    0    0  0.18764951836E+02 -0.11408378221E+02  0.34166445684E+02  0.40615658135E+02  0.10566000000E+00 0.  1.
         23    2    1    0    0    0 -0.27913419295E+02 -0.44844753768E+01  0.44538999158E+01  0.96379959458E+02  0.92032547854E+02 0.  0.
         13    1    3    3    0    0 -0.46678371131E+02  0.69239028440E+01 -0.29712545768E+02  0.55764301323E+02  0.10566000000E+00 0. -1.
         22    1    1    0    0    0  0.27913419295E+02  0.44844753768E+01 -0.44538999158E+01  0.28620040542E+02  0.00000000000E+00 0. -1.
</event>
<event>
 5    1  0.1245581E-004  0.9118800E+02  0.7818608E-02  0.1130116E+00
         25   -1    0    0    0    0  0.00000000000E+00  0.00000000000E+00  0.99999998245E-14  0.12500000000E+03  0.12500000000E+03 0.  0.
        -13    1    3    3    0    0  0.57315346422E+02  0.85624399647E+01  0.75168380103E+01  0.58436960319E+02  0.10566000000E+00 0.  1.
         23    2    1    0    0    0  0.28417306778E+02  0.20977550732E+01 -0.12189972458E+02  0.94007431062E+02  0.88751663452E+02 0.  0.
         13    1    3    3    0    0 -0.28898039644E+02 -0.64646848915E+01 -0.19706810468E+02  0.35570470743E+02  0.10566000000E+00 0. -1.
         22    1    1    0    0    0 -0.28417306778E+02 -0.20977550732E+01  0.12189972458E+02  0.30992568938E+02  0.00000000000E+00 0.  1.
</event>
<event>
 5    1  0.1245581E-004  0.9118800E+02  0.7818608E-02  0.1130116E+00
         25   -1    0    0    0    0  0.00000000000E+00  0.00000000000E+00  0.99999998245E-14  0.12500000000E+03  0.12500000000E+03 0.  0.
        -13    1    3    3    0    0  0.50690946715E+00  0.25549035266E+02  0.42314144538E+02  0.49431853619E+02  0.10566000000E+00 0. -1.
         23    2    1    0    0    0 -0.24404170368E+02  0.97091810250E+01  0.30453126408E+01  0.98559393793E+02  0.94946555747E+02 0.  0.
         13    1    3    3    0    0 -0.24911079835E+02 -0.15839854241E+02 -0.39268831897E+02  0.49127540174E+02  0.10566000000E+00 0.  1.
         22    1    1    0    0    0  0.24404170368E+02 -0.97091810250E+01 -0.30453126408E+01  0.26440606207E+02  0.00000000000E+00 0. -1.
</event>
<event>
 5    1  0.1245581E-004  0.9118800E+02  0.7818608E-02  0.1130116E+00
         25   -1    0    0    0    0  0.00000000000E+00  0.00000000000E+00  0.99999998245E-14  0.12500000000E+03  0.12500000000E+03 0.  0.
        -13    1    3    3    0    0 -0.18845914400E+02 -0.27974687803E+02 -0.30596069637E-01  0.33730753733E+02  0.10566000000E+00 0.  1.
         23    2    1    0    0    0  0.21730945591E+02  0.18912305428E+02  0.42247607663E+01  0.95883717675E+02  0.91356058468E+02 0.  0.
         13    1    3    3    0    0  0.40576859990E+02  0.46886993231E+02  0.42553568359E+01  0.62152963942E+02  0.10566000000E+00 0. -1.
         22    1    1    0    0    0 -0.21730945591E+02 -0.18912305428E+02 -0.42247607663E+01  0.29116282325E+02  0.00000000000E+00 0. -1.
</event>
<event>
 5    1  0.1245581E-004  0.9118800E+02  0.7818608E-02  0.1130116E+00
         25   -1    0    0    0    0  0.00000000000E+00  0.00000000000E+00  0.99999998245E-14  0.12500000000E+03  0.12500000000E+03 0.  0.
        -13    1    3    3    0    0 -0.30433656074E+02 -0.34935055451E+01 -0.25428730759E+02  0.39812604977E+02  0.10566000000E+00 0. -1.
         23    2    1    0    0    0  0.10158661072E+02 -0.28985268868E+02  0.44466581439E+00  0.94282872306E+02  0.89138757431E+02 0.  0.
         13    1    3    3    0    0  0.40592317146E+02 -0.25491763323E+02  0.25873396573E+02  0.54470267329E+02  0.10566000000E+00 0.  1.
         22    1    1    0    0    0 -0.10158661072E+02  0.28985268868E+02 -0.44466581439E+00  0.30717127694E+02  0.00000000000E+00 0.  1.
</event>
<event>
 5    1  0.1245581E-004  0.9118800E+02  0.7818608E-02  0.1130116E+00
         25   -1    0    0    0    0  0.00000000000E+00  0.00000000000E+00  0.99999998245E-14  0.12500000000E+03  0.12500000000E+03 0.  0.
        -13    1    3    3    0    0  0.13294924833E+02 -0.52365025541E+02 -0.16525335736E+01  0.54051761835E+02  0.10566000000E+00 0. -1.
         23    2    1    0    0    0  0.27732764512E+02 -0.20807205292E+02  0.65604560673E+01  0.89714229450E+02  0.82483679370E+02 0.  0.
         13    1    3    3    0    0  0.14437839679E+02  0.31557820249E+02  0.82129896408E+01  0.35662467615E+02  0.10566000000E+00 0.  1.
         22    1    1    0    0    0 -0.27732764512E+02  0.20807205292E+02 -0.65604560673E+01  0.35285770550E+02  0.00000000000E+00 0. -1.
</event>
<event>
 5    1  0.1245581E-004  0.9118800E+02  0.7818608E-02  0.1130116E+00
         25   -1    0    0    0    0  0.00000000000E+00  0.00000000000E+00  0.99999998245E-14  0.12500000000E+03  0.12500000000E+03 0.  0.
        -13    1    3    3    0    0 -0.83845024791E+01 -0.87762264113E+01  0.30306447643E+02  0.32646806346E+02  0.10566000000E+00 0. -1.
         23    2    1    0    0    0  0.17239840548E+02 -0.99441612323E+01 -0.24663968701E+02  0.93307575088E+02  0.87760433978E+02 0.  0.
         13    1    3    3    0    0  0.25624343027E+02 -0.11679348210E+01 -0.54970416343E+02  0.60660768742E+02  0.10566000000E+00 0.  1.
         22    1    1    0    0    0 -0.17239840548E+02  0.99441612323E+01  0.24663968701E+02  0.31692424912E+02  0.00000000000E+00 0.  1.
</event>
<event>
 5    1  0.1245581E-004  0.9118800E+02  0.7818608E-02  0.1130116E+00
         25   -1    0    0    0    0  0.00000000000E+00  0.00000000000E+00  0.99999998245E-14  0.12500000000E+03  0.12500000000E+03 0.  0.
        -13    1    3    3    0    0  0.40342968299E+00  0.16548240971E+02  0.69049942028E+01  0.17935917699E+02  0.10566000000E+00 0.  1.
         23    2    1    0    0    0 -0.11738824239E+02 -0.33852788036E+02 -0.27220592670E+02  0.80002534320E+02  0.66148572018E+02 0.  0.
         13    1    3    3    0    0 -0.12142253922E+02 -0.50401029007E+02 -0.34125586873E+02  0.62066616621E+02  0.10566000000E+00 0. -1.
         22    1    1    0    0    0  0.11738824239E+02  0.33852788036E+02  0.27220592670E+02  0.44997465680E+02  0.00000000000E+00 0. -1.
</event>
<event>
 5    1  0.1245581E-004  0.9118800E+02  0.7818608E-02  0.1130116E+00
         25   -1    0    0    0    0  0.00000000000E+00  0.00000000000E+00  0.99999998245E-14  0.12500000000E+03  0.12500000000E+03 0.  0.
        -13    1    3    3    0    0  0.32980026913E+01  0.39337006126E+02  0.99847960323E+01  0.40718351987E+02  0.10566000000E+00 0. -1.
         23    2    1    0    0    0  0.16923798740E+02 -0.13424431260E+02  0.19337133459E+02  0.96007672587E+02  0.91525505444E+02 0.  0.
         13    1    3    3    0    0  0.13625796048E+02 -0.52761437386E+02  0.93523374265E+01  0.55289320600E+02  0.10566000000E+00 0.  1.
         22    1    1    0    0    0 -0.16923798740E+02  0.13424431260E+02 -0.19337133459E+02  0.28992327413E+02  0.00000000000E+00 0.  1.
</event>
<event>
 5    1  0.1245581E-004  0.9118800E+02  0.7818608E-02  0.1130116E+00
         25   -1    0    0    0    0  0.00000000000E+00  0.00000000000E+00  0.99999998245E-14  0.12500000000E+03  0.12500000000E+03 0.  0.
        -13    1    3    3    0    0 -0.15109323383E+02 -0.13359555689E+02  0.17319252755E+02  0.26584526727E+02  0.10566000000E+00 0.  1.
         23    2    1    0    0    0  0.95390108111E+01  0.17051588022E+02 -0.30744384140E+02  0.88572448099E+02  0.80734825353E+02 0.  0.
         13    1    3    3    0    0  0.24648334194E+02  0.30411143711E+02 -0.48063636895E+02  0.61987921372E+02  0.10566000000E+00 0. -1.
         22    1    1    0    0    0 -0.95390108111E+01 -0.17051588022E+02  0.30744384140E+02  0.36427551901E+02  0.00000000000E+00 0. -1.
</event>
<event>
 5    1  0.1245581E-004  0.9118800E+02  0.7818608E-02  0.1130116E+00
         25   -1    0    0    0    0  0.00000000000E+00  0.00000000000E+00  0.99999998245E-14  0.12500000000E+03  0.12500000000E+03 0.  0.
        -13    1    3    3    0    0  0.17610183772E+02  0.53649320856E+02 -0.55539116578E+01  0.56738217275E+02  0.10566000000E+00 0. -1.
         23    2    1    0    0    0 -0.10778516961E+02  0.24316484274E+02 -0.66840664220E+01  0.97574745593E+02  0.93641264400E+02 0.  0.
         13    1    3    3    0    0 -0.28388700733E+02 -0.29332836582E+02 -0.11301547642E+01  0.40836528318E+02  0.10566000000E+00 0.  1.
         22    1    1    0    0    0  0.10778516961E+02 -0.24316484274E+02  0.66840664220E+01  0.27425254407E+02  0.00000000000E+00 0. -1.
</event>
<event>
 5    1  0.1245581E-004  0.9118800E+02  0.7818608E-02  0.1130116E+00
         25   -1    0    0    0    0  0.00000000000E+00  0.00000000000E+00  0.99999998245E-14  0.12500000000E+03  0.12500000000E+03 0.  0.
        -13    1    3    3    0    0  0.30317139462E+02  0.25848297285E+02  0.13433674678E+02  0.42044478795E+02  0.10566000000E+00 0. -1.
         23    2    1    0    0    0  0.70522283200E+01 -0.15965157735E+01 -0.27513174874E+02  0.96552547065E+02  0.92266661185E+02 0.  0.
         13    1    3    3    0    0 -0.23264911142E+02 -0.27444813059E+02 -0.40946849551E+02  0.54508068270E+02  0.10566000000E+00 0.  1.
         22    1    1    0    0    0 -0.70522283200E+01  0.15965157735E+01  0.27513174874E+02  0.28447452935E+02  0.00000000000E+00 0.  1.
</event>
<event>
 5    1  0.1245581E-004  0.9118800E+02  0.7818608E-02  0.1130116E+00
         25   -1    0    0    0    0  0.00000000000E+00  0.00000000000E+00  0.99999998245E-14  0.12500000000E+03  0.12500000000E+03 0.  0.
        -13    1    3    3    0    0 -0.12275254441E+02 -0.14510261384E+02  0.29964356461E+02  0.35483846736E+02  0.10566000000E+00 0.  1.
         23    2    1    0    0    0  0.26545305986E+02  0.48998836003E+00 -0.13119089498E+02  0.95385748908E+02  0.90672141406E+02 0.  0.
         13    1    3    3    0    0  0.38820560427E+02  0.15000249744E+02 -0.43083445959E+02  0.59901902173E+02  0.10566000000E+00 0. -1.
         22    1    1    0    0    0 -0.26545305986E+02 -0.48998836003E+00  0.13119089498E+02  0.29614251092E+02  0.00000000000E+00 0. -1.
</event>
<event>
 5    1  0.1245581E-004  0.9118800E+02  0.7818608E-02  0.1130116E+00
         25   -1    0    0    0    0  0.00000000000E+00  0.00000000000E+00  0.99999998245E-14  0.12500000000E+03  0.12500000000E+03 0.  0.
        -13    1    3    3    0    0 -0.48624431255E+02 -0.15777354175E+02  0.17894170158E+02  0.54161542715E+02  0.10566000000E+00 0.  1.
         23    2    1    0    0    0 -0.25492482202E+02 -0.19677019478E+02 -0.10625039557E+02  0.91089187418E+02  0.84541687081E+02 0.  0.
         13    1    3    3    0    0  0.23131949053E+02 -0.38996653031E+01 -0.28519209715E+02  0.36927644703E+02  0.10566000000E+00 0. -1.
         22    1    1    0    0    0  0.25492482202E+02  0.19677019478E+02  0.10625039557E+02  0.33910812582E+02  0.00000000000E+00 0.  1.
</event>
<event>
 5    1  0.1245581E-004  0.9118800E+02  0.7818608E-02  0.1130116E+00
         25   -1    0    0    0    0  0.00000000000E+00  0.00000000000E+00  0.99999998245E-14  0.12500000000E+03  0.12500000000E+03 0.  0.
        -13    1    3    3    0    0  0.13260289271E+02 -0.16081349204E+02  0.30229967359E+02  0.36719302204E+02  0.10566000000E+00 0. -1.
         23    2    1    0    0    0  0.15779362176E+00  0.98111120297E+01 -0.24467670298E+02  0.98638101209E+02  0.95050119948E+02 0.  0.
         13    1    3    3    0    0 -0.13102495649E+02  0.25892461234E+02 -0.54697637657E+02  0.61918799005E+02  0.10566000000E+00 0.  1.
         22    1    1    0    0    0 -0.15779362176E+00 -0.98111120297E+01  0.24467670298E+02  0.26361898791E+02  0.00000000000E+00 0.  1.
</event>
<event>
 5    1  0.1245581E-004  0.9118800E+02  0.7818608E-02  0.1130116E+00
         25   -1    0    0    0    0  0.00000000000E+00  0.00000000000E+00  0.99999998245E-14  0.12500000000E+03  0.12500000000E+03 0.  0.
        -13    1    3    3    0    0 -0.13117992527E+02  0.25744409199E+02  0.23775619102E+02  0.37418545678E+02  0.10566000000E+00 0. -1.
         23    2    1    0    0    0  0.17059285297E+02 -0.21635009717E+02  0.12648410625E+02  0.94683747731E+02  0.89699146778E+02 0.  0.
         13    1    3    3    0    0  0.30177277825E+02 -0.47379418915E+02 -0.11127208477E+02  0.57265202053E+02  0.10566000000E+00 0.  1.
         22    1    1    0    0    0 -0.17059285297E+02  0.21635009717E+02 -0.12648410625E+02  0.30316252269E+02  0.00000000000E+00 0.  1.
</event>
<event>
 5    1  0.1245581E-004  0.9118800E+02  0.7818608E-02  0.1130116E+00
         25   -1    0    0    0    0  0.00000000000E+00  0.00000000000E+00  0.99999998245E-14  0.12500000000E+03  0.12500000000E+03 0.  0.
        -13    1    3    3    0    0 -0.52173451798E+01  0.65259672523E+00  0.33529712550E+02  0.33939642911E+02  0.10566000000E+00 0.  1.
         23    2    1    0    0    0  0.59929571206E+00  0.14834640509E+02 -0.25808463797E+02  0.95225807854E+02  0.90451379003E+02 0.  0.
         13    1    3    3    0    0  0.58166408918E+01  0.14182043784E+02 -0.59338176347E+02  0.61286164943E+02  0.10566000000E+00 0. -1.
         22    1    1    0    0    0 -0.59929571206E+00 -0.14834640509E+02  0.25808463797E+02  0.29774192146E+02  0.00000000000E+00 0. -1.
</event>
<event>
 5    1  0.1245581E-004  0.9118800E+02  0.7818608E-02  0.1130116E+00
         25   -1    0    0    0    0  0.00000000000E+00  0.00000000000E+00  0.99999998245E-14  0.12500000000E+03  0.12500000000E+03 0.  0.
        -13    1    3    3    0    0  0.41623855192E+02  0.27318445057E+02 -0.16888925364E+02  0.52574611034E+02  0.10566000000E+00 0.  1.
         23    2    1    0    0    0  0.52828696961E+01  0.28064736634E+02  0.63866156266E+01  0.95736934307E+02  0.91154997542E+02 0.  0.
         13    1    3    3    0    0 -0.36340985496E+02  0.74629157709E+00  0.23275540991E+02  0.43162323273E+02  0.10566000000E+00 0. -1.
         22    1    1    0    0    0 -0.52828696961E+01 -0.28064736634E+02 -0.63866156266E+01  0.29263065693E+02  0.00000000000E+00 0. -1.
</event>
<event>
 5    1  0.1245581E-004  0.9118800E+02  0.7818608E-02  0.1130116E+00
         25   -1    0    0    0    0  0.00000000000E+00  0.00000000000E+00  0.99999998245E-14  0.12500000000E+03  0.12500000000E+03 0.  0.
        -13    1    3    3    0    0  0.55658862355E+02  0.10156469250E+02 -0.16255022857E+02  0.58866796740E+02  0.10566000000E+00 0.  1.
         23    2    1    0    0    0  0.27430553996E+02  0.14681868667E+01  0.72225936080E+01  0.96596536767E+02  0.92326237830E+02 0.  0.
         13    1    3    3    0    0 -0.28228308360E+02 -0.86882823836E+01  0.23477616465E+02  0.37729740027E+02  0.10566000000E+00 0. -1.
         22    1    1    0    0    0 -0.27430553996E+02 -0.14681868667E+01 -0.72225936080E+01  0.28403463233E+02  0.00000000000E+00 0.  1.
</event>
<event>
 5    1  0.1245581E-004  0.9118800E+02  0.7818608E-02  0.1130116E+00
         25   -1    0    0    0    0  0.00000000000E+00  0.00000000000E+00  0.99999998245E-14  0.12500000000E+03  0.12500000000E+03 0.  0.
        -13    1    3    3    0    0  0.42832948641E+02 -0.25502166516E+02 -0.14760121836E+02  0.51989367634E+02  0.10566000000E+00 0. -1.
         23    2    1    0    0    0  0.33481175136E+02  0.17246358038E+01  0.10057519889E+02  0.89998326276E+02  0.82913096487E+02 0.  0.
         13    1    3    3    0    0 -0.93517735049E+01  0.27226802320E+02  0.24817641725E+02  0.38008958643E+02  0.10566000000E+00 0.  1.
         22    1    1    0    0    0 -0.33481175136E+02 -0.17246358038E+01 -0.10057519889E+02  0.35001673724E+02  0.00000000000E+00 0. -1.
</event>
<event>
 5    1  0.1245581E-004  0.9118800E+02  0.7818608E-02  0.1130116E+00
         25   -1    0    0    0    0  0.00000000000E+00  0.00000000000E+00  0.99999998245E-14  0.12500000000E+03  0.12500000000E+03 0.  0.
        -13    1    3    3    0    0  0.17330673674E+02  0.36566949260E+02 -0.10359749800E+02  0.41771157611E+02  0.10566000000E+00 0. -1.
         23    2    1    0    0    0  0.16405736957E+02 -0.71526745733E+01  0.22340301125E+02  0.96374870952E+02  0.92025636309E+02 0.  0.
         13    1    3    3    0    0 -0.92493671707E+00 -0.43719623833E+02  0.32700050926E+02  0.54603713341E+02  0.10566000000E+00 0.  1.
         22    1    1    0    0    0 -0.16405736957E+02  0.71526745733E+01 -0.22340301125E+02  0.28625129048E+02  0.00000000000E+00 0.  1.
</event>
<event>
 5    1  0.1245581E-004  0.9118800E+02  0.7818608E-02  0.1130116E+00
         25   -1    0    0    0    0  0.00000000000E+00  0.00000000000E+00  0.99999998245E-14  0.12500000000E+03  0.12500000000E+03 0.  0.
        -13    1    3    3    0    0  0.10424642338E+02  0.28965900759E+02 -0.15113813234E+02  0.34294825982E+02  0.10566000000E+00 0. -1.
         23    2    1    0    0    0 -0.18091360691E+02 -0.19640145962E+02  0.10641576391E+02  0.96254986290E+02  0.91862650585E+02 0.  0.
         13    1    3    3    0    0 -0.28516003029E+02 -0.48606046721E+02  0.25755389626E+02  0.61960160308E+02  0.10566000000E+00 0.  1.
         22    1    1    0    0    0  0.18091360691E+02  0.19640145962E+02 -0.10641576391E+02  0.28745013710E+02  0.00000000000E+00 0.  1.
</event>
<event>
 5    1  0.1245581E-004  0.9118800E+02  0.7818608E-02  0.1130116E+00
         25   -1    0    0    0    0  0.00000000000E+00  0.00000000000E+00  0.99999998245E-14  0.12500000000E+03  0.12500000000E+03 0.  0.
        -13    1    3    3    0    0 -0.18216458577E+02  0.18437125067E+02  0.21156206542E+02  0.33456885437E+02  0.10566000000E+00 0.  1.
         23    2    1    0    0    0  0.10530143064E+02 -0.74716021650E+01 -0.26902198441E+02  0.95159808432E+02  0.90360124547E+02 0.  0.
         13    1    3    3    0    0  0.28746601641E+02 -0.25908727232E+02 -0.48058404983E+02  0.61702922996E+02  0.10566000000E+00 0. -1.
         22    1    1    0    0    0 -0.10530143064E+02  0.74716021650E+01  0.26902198441E+02  0.29840191568E+02  0.00000000000E+00 0. -1.
</event>
<event>
 5    1  0.1245581E-004  0.9118800E+02  0.7818608E-02  0.1130116E+00
         25   -1    0    0    0    0  0.00000000000E+00  0.00000000000E+00  0.99999998245E-14  0.12500000000E+03  0.12500000000E+03 0.  0.
        -13    1    3    3    0    0  0.21277326692E+02 -0.55144605815E+02 -0.13389097240E+02  0.60604713270E+02  0.10566000000E+00 0. -1.
         23    2    1    0    0    0  0.36266014111E+00 -0.29953328674E+02 -0.33140053911E+01  0.94861717820E+02  0.89946814590E+02 0.  0.
         13    1    3    3    0    0 -0.20914666551E+02  0.25191277141E+02  0.10075091849E+02  0.34257004550E+02  0.10566000000E+00 0.  1.
         22    1    1    0    0    0 -0.36266014111E+00  0.29953328674E+02  0.33140053911E+01  0.30138282180E+02  0.00000000000E+00 0. -1.
</event>
<event>
 5    1  0.1245581E-004  0.9118800E+02  0.7818608E-02  0.1130116E+00
         25   -1    0    0    0    0  0.00000000000E+00  0.00000000000E+00  0.99999998245E-14  0.12500000000E+03  0.12500000000E+03 0.  0.
        -13    1    3    3    0    0 -0.10405570214E+02 -0.28798810972E+02  0.22569892668E+02  0.38040223764E+02  0.10566000000E+00 0. -1.
         23    2    1    0    0    0 -0.18137299784E+02  0.21107050856E+02 -0.66521369099E+01  0.96386713493E+02  0.92041720829E+02 0.  0.
         13    1    3    3    0    0 -0.77317295698E+01  0.49905861828E+02 -0.29222029578E+02  0.58346489729E+02  0.10566000000E+00 0.  1.
         22    1    1    0    0    0  0.18137299784E+02 -0.21107050856E+02  0.66521369099E+01  0.28613286507E+02  0.00000000000E+00 0.  1.
</event>
<event>
 5    1  0.1245581E-004  0.9118800E+02  0.7818608E-02  0.1130116E+00
         25   -1    0    0    0    0  0.00000000000E+00  0.00000000000E+00  0.99999998245E-14  0.12500000000E+03  0.12500000000E+03 0.  0.
        -13    1    3    3    0    0 -0.17465242946E+02  0.21154367322E+02 -0.52234476262E+02  0.58999946122E+02  0.10566000000E+00 0. -1.
         23    2    1    0    0    0 -0.13028209092E+02 -0.47939461414E+01 -0.20661978685E+02  0.10010756109E+03  0.96963344993E+02 0.  0.
         13    1    3    3    0    0  0.44370338539E+01 -0.25948313464E+02  0.31572497577E+02  0.41107614968E+02  0.10566000000E+00 0.  1.
         22    1    1    0    0    0  0.13028209092E+02  0.47939461414E+01  0.20661978685E+02  0.24892438911E+02  0.00000000000E+00 0. -1.
</event>
<event>
 5    1  0.1245581E-004  0.9118800E+02  0.7818608E-02  0.1130116E+00
         25   -1    0    0    0    0  0.00000000000E+00  0.00000000000E+00  0.99999998245E-14  0.12500000000E+03  0.12500000000E+03 0.  0.
        -13    1    3    3    0    0  0.44479380894E+02  0.25935248783E+02  0.15551670252E+02  0.53785853770E+02  0.10566000000E+00 0.  1.
         23    2    1    0    0    0  0.20402005049E+01  0.22777824423E+02  0.17216241136E+02  0.96374999347E+02  0.92025810709E+02 0.  0.
         13    1    3    3    0    0 -0.42439180389E+02 -0.31574243605E+01  0.16645708839E+01  0.42589145576E+02  0.10566000000E+00 0. -1.
         22    1    1    0    0    0 -0.20402005049E+01 -0.22777824423E+02 -0.17216241136E+02  0.28625000653E+02  0.00000000000E+00 0.  1.
</event>
<event>
 5    1  0.1245581E-004  0.9118800E+02  0.7818608E-02  0.1130116E+00
         25   -1    0    0    0    0  0.00000000000E+00  0.00000000000E+00  0.99999998245E-14  0.12500000000E+03  0.12500000000E+03 0.  0.
        -13    1    3    3    0    0  0.20060621053E+02 -0.50776501822E+02  0.72492717302E+01  0.55074901352E+02  0.10566000000E+00 0. -1.
         23    2    1    0    0    0  0.14937492350E+02 -0.13140843004E+02  0.21559069726E+02  0.95663948459E+02  0.91054857722E+02 0.  0.
         13    1    3    3    0    0 -0.51231287031E+01  0.37635658817E+02  0.14309797996E+02  0.40589047107E+02  0.10566000000E+00 0.  1.
         22    1    1    0    0    0 -0.14937492350E+02  0.13140843004E+02 -0.21559069726E+02  0.29336051541E+02  0.00000000000E+00 0.  1.
</event>
<event>
 5    1  0.1245581E-004  0.9118800E+02  0.7818608E-02  0.1130116E+00
         25   -1    0    0    0    0  0.00000000000E+00  0.00000000000E+00  0.99999998245E-14  0.12500000000E+03  0.12500000000E+03 0.  0.
        -13    1    3    3    0    0  0.40800035963E+01  0.22343391465E+02 -0.37113226564E+02  0.43511795200E+02  0.10566000000E+00 0.  1.
         23    2    1    0    0    0 -0.18041664417E+02  0.20227994850E+02  0.10402526781E+02  0.95967501072E+02  0.91470625164E+02 0.  0.
         13    1    3    3    0    0 -0.22121668014E+02 -0.21153966149E+01  0.47515753345E+02  0.52455705872E+02  0.10566000000E+00 0. -1.
         22    1    1    0    0    0  0.18041664417E+02 -0.20227994850E+02 -0.10402526781E+02  0.29032498928E+02  0.00000000000E+00 0. -1.
</event>
<event>
 5    1  0.1245581E-004  0.9118800E+02  0.7818608E-02  0.1130116E+00
         25   -1    0    0    0    0  0.00000000000E+00  0.00000000000E+00  0.99999998245E-14  0.12500000000E+03  0.12500000000E+03 0.  0.
        -13    1    3    3    0    0 -0.29940123856E+02  0.74950367867E+01 -0.30265441441E+02  0.43227244911E+02  0.10566000000E+00 0.  1.
         23    2    1    0    0    0  0.45433060547E+01 -0.26558091315E+02 -0.61331970726E+01  0.97366868608E+02  0.93363360865E+02 0.  0.
         13    1    3    3    0    0  0.34483429910E+02 -0.34053128101E+02  0.24132244368E+02  0.54139623698E+02  0.10566000000E+00 0. -1.
         22    1    1    0    0    0 -0.45433060547E+01  0.26558091315E+02  0.61331970726E+01  0.27633131392E+02  0.00000000000E+00 0. -1.
</event>
<event>
 5    1  0.1245581E-004  0.9118800E+02  0.7818608E-02  0.1130116E+00
         25   -1    0    0    0    0  0.00000000000E+00  0.00000000000E+00  0.99999998245E-14  0.12500000000E+03  0.12500000000E+03 0.  0.
        -13    1    3    3    0    0 -0.25359874382E+02  0.22444556346E+02  0.10974384253E+02  0.35599573200E+02  0.10566000000E+00 0.  1.
         23    2    1    0    0    0  0.27637467500E+01 -0.19998846783E+02 -0.21117194944E+02  0.95784796919E+02  0.91220607484E+02 0.  0.
         13    1    3    3    0    0  0.28123621132E+02 -0.42443403129E+02 -0.32091579197E+02  0.60185223719E+02  0.10566000000E+00 0. -1.
         22    1    1    0    0    0 -0.27637467500E+01  0.19998846783E+02  0.21117194944E+02  0.29215203081E+02  0.00000000000E+00 0. -1.
</event>
<event>
 5    1  0.1245581E-004  0.9118800E+02  0.7818608E-02  0.1130116E+00
         25   -1    0    0    0    0  0.00000000000E+00  0.00000000000E+00  0.99999998245E-14  0.12500000000E+03  0.12500000000E+03 0.  0.
        -13    1    3    3    0    0 -0.35394153141E+02  0.15744685409E+01  0.15351370826E+02  0.38612184321E+02  0.10566000000E+00 0.  1.
         23    2    1    0    0    0  0.65899893753E+01 -0.30408981443E+02 -0.10092851989E+01  0.93868781441E+02  0.88556170650E+02 0.  0.
         13    1    3    3    0    0  0.41984142516E+02 -0.31983449984E+02 -0.16360656025E+02  0.55256597120E+02  0.10566000000E+00 0. -1.
         22    1    1    0    0    0 -0.65899893753E+01  0.30408981443E+02  0.10092851989E+01  0.31131218559E+02  0.00000000000E+00 0.  1.
</event>
<event>
 5    1  0.1245581E-004  0.9118800E+02  0.7818608E-02  0.1130116E+00
         25   -1    0    0    0    0  0.00000000000E+00  0.00000000000E+00  0.99999998245E-14  0.12500000000E+03  0.12500000000E+03 0.  0.
        -13    1    3    3    0    0  0.96688341128E+01  0.23393865726E+02 -0.34704094936E+02  0.42955147260E+02  0.10566000000E+00 0.  1.
         23    2    1    0    0    0  0.28914214815E+02 -0.35567291095E+00  0.75565134285E+01  0.95112557541E+02  0.90294736199E+02 0.  0.
         13    1    3    3    0    0  0.19245380702E+02 -0.23749538637E+02  0.42260608365E+02  0.52157410281E+02  0.10566000000E+00 0. -1.
         22    1    1    0    0    0 -0.28914214815E+02  0.35567291095E+00 -0.75565134285E+01  0.29887442459E+02  0.00000000000E+00 0. -1.
</event>
<event>
 5    1  0.1245581E-004  0.9118800E+02  0.7818608E-02  0.1130116E+00
         25   -1    0    0    0    0  0.00000000000E+00  0.00000000000E+00  0.99999998245E-14  0.12500000000E+03  0.12500000000E+03 0.  0.
        -13    1    3    3    0    0  0.17410467185E+02  0.19611101831E+02  0.21368844829E+02  0.33828366440E+02  0.10566000000E+00 0.  1.
         23    2    1    0    0    0 -0.61368261082E+01 -0.21596328625E+02 -0.18574837814E+02  0.95860908652E+02  0.91324844172E+02 0.  0.
         13    1    3    3    0    0 -0.23547293293E+02 -0.41207430456E+02 -0.39943682643E+02  0.62032542212E+02  0.10566000000E+00 0. -1.
         22    1    1    0    0    0  0.61368261082E+01  0.21596328625E+02  0.18574837814E+02  0.29139091348E+02  0.00000000000E+00 0. -1.
</event>
<event>
 5    1  0.1245581E-004  0.9118800E+02  0.7818608E-02  0.1130116E+00
         25   -1    0    0    0    0  0.00000000000E+00  0.00000000000E+00  0.99999998245E-14  0.12500000000E+03  0.12500000000E+03 0.  0.
        -13    1    3    3    0    0 -0.57366651423E+02  0.76573248273E+01  0.18580333304E+02  0.60784926329E+02  0.10566000000E+00 0. -1.
         23    2    1    0    0    0 -0.26914313843E+02  0.13560900531E+02  0.59315465007E+01  0.94284180676E+02  0.89140592151E+02 0.  0.
         13    1    3    3    0    0  0.30452337580E+02  0.59035757037E+01 -0.12648786804E+02  0.33499254347E+02  0.10566000000E+00 0.  1.
         22    1    1    0    0    0  0.26914313843E+02 -0.13560900531E+02 -0.59315465007E+01  0.30715819324E+02  0.00000000000E+00 0. -1.
</event>
<event>
 5    1  0.1245581E-004  0.9118800E+02  0.7818608E-02  0.1130116E+00
         25   -1    0    0    0    0  0.00000000000E+00  0.00000000000E+00  0.99999998245E-14  0.12500000000E+03  0.12500000000E+03 0.  0.
        -13    1    3    3    0    0  0.20225709095E+01 -0.18751069133E+02  0.40846843334E+02  0.44990767510E+02  0.10566000000E+00 0. -1.
         23    2    1    0    0    0  0.20165062878E+02  0.17907500969E+02  0.99374402165E+01  0.96258721847E+02  0.91867733518E+02 0.  0.
         13    1    3    3    0    0  0.18142491969E+02  0.36658570102E+02 -0.30909403118E+02  0.51267954337E+02  0.10566000000E+00 0.  1.
         22    1    1    0    0    0 -0.20165062878E+02 -0.17907500969E+02 -0.99374402165E+01  0.28741278153E+02  0.00000000000E+00 0.  1.
</event>
<event>
 5    1  0.1245581E-004  0.9118800E+02  0.7818608E-02  0.1130116E+00
         25   -1    0    0    0    0  0.00000000000E+00  0.00000000000E+00  0.99999998245E-14  0.12500000000E+03  0.12500000000E+03 0.  0.
        -13    1    3    3    0    0  0.53666358481E+01  0.39709058288E+02 -0.34479248319E+02  0.52862461342E+02  0.10566000000E+00 0.  1.
         23    2    1    0    0    0 -0.13919815524E+02  0.23721015022E+00 -0.22741890156E+02  0.98335208593E+02  0.94650949009E+02 0.  0.
         13    1    3    3    0    0 -0.19286451372E+02 -0.39471848137E+02  0.11737358163E+02  0.45472747251E+02  0.10566000000E+00 0. -1.
         22    1    1    0    0    0  0.13919815524E+02 -0.23721015022E+00  0.22741890156E+02  0.26664791407E+02  0.00000000000E+00 0.  1.
</event>
<event>
 5    1  0.1245581E-004  0.9118800E+02  0.7818608E-02  0.1130116E+00
         25   -1    0    0    0    0  0.00000000000E+00  0.00000000000E+00  0.99999998245E-14  0.12500000000E+03  0.12500000000E+03 0.  0.
        -13    1    3    3    0    0  0.23211088464E+02 -0.24462193722E+02 -0.81181956432E+01  0.34685296797E+02  0.10566000000E+00 0.  1.
         23    2    1    0    0    0 -0.10999868217E+02  0.20754649965E+02  0.16288332777E+02  0.96415696954E+02  0.92081074269E+02 0.  0.
         13    1    3    3    0    0 -0.34210956682E+02  0.45216843686E+02  0.24406528420E+02  0.61730400157E+02  0.10566000000E+00 0. -1.
         22    1    1    0    0    0  0.10999868217E+02 -0.20754649965E+02 -0.16288332777E+02  0.28584303046E+02  0.00000000000E+00 0. -1.
</event>
<event>
 5    1  0.1245581E-004  0.9118800E+02  0.7818608E-02  0.1130116E+00
         25   -1    0    0    0    0  0.00000000000E+00  0.00000000000E+00  0.99999998245E-14  0.12500000000E+03  0.12500000000E+03 0.  0.
        -13    1    3    3    0    0  0.25528282232E+02 -0.38549080009E+01 -0.78067803284E+01  0.26972402424E+02  0.10566000000E+00 0. -1.
         23    2    1    0    0    0 -0.35140696749E+02 -0.35449696541E+01 -0.11769555317E+02  0.87771545691E+02  0.79485133345E+02 0.  0.
         13    1    3    3    0    0 -0.60668978981E+02  0.30993834684E+00 -0.39627749890E+01  0.60799143267E+02  0.10566000000E+00 0.  1.
         22    1    1    0    0    0  0.35140696749E+02  0.35449696541E+01  0.11769555317E+02  0.37228454309E+02  0.00000000000E+00 0.  1.
</event>
<event>
 5    1  0.1245581E-004  0.9118800E+02  0.7818608E-02  0.1130116E+00
         25   -1    0    0    0    0  0.00000000000E+00  0.00000000000E+00  0.99999998245E-14  0.12500000000E+03  0.12500000000E+03 0.  0.
        -13    1    3    3    0    0  0.46315127836E+02 -0.99243120504E+01 -0.23309559075E+02  0.52791379452E+02  0.10566000000E+00 0.  1.
         23    2    1    0    0    0  0.13730330462E+02 -0.27250317565E+02 -0.46886169381E+01  0.94127926685E+02  0.88921210468E+02 0.  0.
         13    1    3    3    0    0 -0.32584797374E+02 -0.17326005515E+02  0.18620942137E+02  0.41336547233E+02  0.10566000000E+00 0. -1.
         22    1    1    0    0    0 -0.13730330462E+02  0.27250317565E+02  0.46886169381E+01  0.30872073315E+02  0.00000000000E+00 0. -1.
</event>
<event>
 5    1  0.1245581E-004  0.9118800E+02  0.7818608E-02  0.1130116E+00
         25   -1    0    0    0    0  0.00000000000E+00  0.00000000000E+00  0.99999998245E-14  0.12500000000E+03  0.12500000000E+03 0.  0.
        -13    1    3    3    0    0  0.28746727154E+02 -0.49633840954E+02 -0.13184836029E+02  0.58853577249E+02  0.10566000000E+00 0. -1.
         23    2    1    0    0    0  0.78387365866E+00 -0.26727642393E+02 -0.13595116808E+02  0.95003191390E+02  0.90143207439E+02 0.  0.
         13    1    3    3    0    0 -0.27962853496E+02  0.22906198561E+02 -0.41028077950E+00  0.36149614140E+02  0.10566000000E+00 0.  1.
         22    1    1    0    0    0 -0.78387365866E+00  0.26727642393E+02  0.13595116808E+02  0.29996808610E+02  0.00000000000E+00 0. -1.
</event>
<event>
 5    1  0.1245581E-004  0.9118800E+02  0.7818608E-02  0.1130116E+00
         25   -1    0    0    0    0  0.00000000000E+00  0.00000000000E+00  0.99999998245E-14  0.12500000000E+03  0.12500000000E+03 0.  0.
        -13    1    3    3    0    0  0.37540240216E+02  0.24508411316E+02  0.18261963906E+02  0.48409114332E+02  0.10566000000E+00 0. -1.
         23    2    1    0    0    0  0.32908082671E+01 -0.48733273080E+01  0.29505392768E+02  0.94914339953E+02  0.90019914398E+02 0.  0.
         13    1    3    3    0    0 -0.34249431949E+02 -0.29381738624E+02  0.11243428862E+02  0.46505225620E+02  0.10566000000E+00 0.  1.
         22    1    1    0    0    0 -0.32908082671E+01  0.48733273080E+01 -0.29505392768E+02  0.30085660047E+02  0.00000000000E+00 0.  1.
</event>
<event>
 5    1  0.1245581E-004  0.9118800E+02  0.7818608E-02  0.1130116E+00
         25   -1    0    0    0    0  0.00000000000E+00  0.00000000000E+00  0.99999998245E-14  0.12500000000E+03  0.12500000000E+03 0.  0.
        -13    1    3    3    0    0  0.31894878898E+02  0.36572453857E+02  0.27034149170E+02  0.55548933981E+02  0.10566000000E+00 0.  1.
         23    2    1    0    0    0  0.59689347646E+01  0.51886040631E+01  0.27629417406E+02  0.96260923805E+02  0.91870729567E+02 0.  0.
         13    1    3    3    0    0 -0.25925944133E+02 -0.31383849794E+02  0.59526823631E+00  0.40711989824E+02  0.10566000000E+00 0. -1.
         22    1    1    0    0    0 -0.59689347646E+01 -0.51886040631E+01 -0.27629417406E+02  0.28739076195E+02  0.00000000000E+00 0.  1.
</event>
<event>
 5    1  0.1245581E-004  0.9118800E+02  0.7818608E-02  0.1130116E+00
         25   -1    0    0    0    0  0.00000000000E+00  0.00000000000E+00  0.99999998245E-14  0.12500000000E+03  0.12500000000E+03 0.  0.
        -13    1    3    3    0    0  0.34945163976E+02  0.76210076933E+01 -0.40641876314E+02  0.54138872522E+02  0.10566000000E+00 0. -1.
         23    2    1    0    0    0  0.29586882475E+02 -0.16119445037E+02 -0.24436887073E+02  0.83378111856E+02  0.72246300694E+02 0.  0.
         13    1    3    3    0    0 -0.53582815019E+01 -0.23740452730E+02  0.16204989241E+02  0.29239239334E+02  0.10566000000E+00 0.  1.
         22    1    1    0    0    0 -0.29586882475E+02  0.16119445037E+02  0.24436887073E+02  0.41621888144E+02  0.00000000000E+00 0. -1.
</event>
<event>
 5    1  0.1245581E-004  0.9118800E+02  0.7818608E-02  0.1130116E+00
         25   -1    0    0    0    0  0.00000000000E+00  0.00000000000E+00  0.99999998245E-14  0.12500000000E+03  0.12500000000E+03 0.  0.
        -13    1    3    3    0    0  0.35171650982E+01 -0.33647270719E+02 -0.41534120011E+02  0.53568680834E+02  0.10566000000E+00 0.  1.
         23    2    1    0    0    0  0.21328263073E+00  0.60683403832E+01 -0.29036704998E+02  0.95335197934E+02  0.90602425373E+02 0.  0.
         13    1    3    3    0    0 -0.33038824675E+01  0.39715611102E+02  0.12497415013E+02  0.41766517099E+02  0.10566000000E+00 0. -1.
         22    1    1    0    0    0 -0.21328263073E+00 -0.60683403832E+01  0.29036704998E+02  0.29664802066E+02  0.00000000000E+00 0. -1.
</event>
<event>
 5    1  0.1245581E-004  0.9118800E+02  0.7818608E-02  0.1130116E+00
         25   -1    0    0    0    0  0.00000000000E+00  0.00000000000E+00  0.99999998245E-14  0.12500000000E+03  0.12500000000E+03 0.  0.
        -13    1    3    3    0    0  0.18358807394E+02  0.38485663771E+02  0.68476950338E+01  0.43186736577E+02  0.10566000000E+00 0.  1.
         23    2    1    0    0    0 -0.16664670135E+02 -0.65284111853E+01  0.16051213454E+02  0.10095893437E+03  0.98054747933E+02 0.  0.
         13    1    3    3    0    0 -0.35023477529E+02 -0.45014074957E+02  0.92035184205E+01  0.57772197792E+02  0.10566000000E+00 0. -1.
         22    1    1    0    0    0  0.16664670135E+02  0.65284111853E+01 -0.16051213454E+02  0.24041065631E+02  0.00000000000E+00 0. -1.
</event>
<event>
 5    1  0.1245581E-004  0.9118800E+02  0.7818608E-02  0.1130116E+00
         25   -1    0    0    0    0  0.00000000000E+00  0.00000000000E+00  0.99999998245E-14  0.12500000000E+03  0.12500000000E+03 0.  0.
        -13    1    3    3    0    0 -0.18700043294E+02  0.36669325295E+02 -0.20725846790E+02  0.46085821312E+02  0.10566000000E+00 0. -1.
         23    2    1    0    0    0  0.16109693312E+02  0.25898535818E+02  0.90967885506E+01  0.93172214370E+02  0.87567423124E+02 0.  0.
         13    1    3    3    0    0  0.34809736606E+02 -0.10770789477E+02  0.29822635341E+02  0.47086393058E+02  0.10566000000E+00 0.  1.
         22    1    1    0    0    0 -0.16109693312E+02 -0.25898535818E+02 -0.90967885506E+01  0.31827785630E+02  0.00000000000E+00 0. -1.
</event>
<event>
 5    1  0.1245581E-004  0.9118800E+02  0.7818608E-02  0.1130116E+00
         25   -1    0    0    0    0  0.00000000000E+00  0.00000000000E+00  0.99999998245E-14  0.12500000000E+03  0.12500000000E+03 0.  0.
        -13    1    3    3    0    0  0.43889240980E+02  0.79246675421E+01 -0.37339609100E+01  0.44755105380E+02  0.10566000000E+00 0. -1.
         23    2    1    0    0    0  0.37504065862E+01 -0.17674412530E+02  0.20081334437E+02  0.97986847636E+02  0.94189765415E+02 0.  0.
         13    1    3    3    0    0 -0.40138834394E+02 -0.25599080072E+02  0.23815295347E+02  0.53231742256E+02  0.10566000000E+00 0.  1.
         22    1    1    0    0    0 -0.37504065862E+01  0.17674412530E+02 -0.20081334437E+02  0.27013152364E+02  0.00000000000E+00 0.  1.
</event>
<event>
 5    1  0.1245581E-004  0.9118800E+02  0.7818608E-02  0.1130116E+00
         25   -1    0    0    0    0  0.00000000000E+00  0.00000000000E+00  0.99999998245E-14  0.12500000000E+03  0.12500000000E+03 0.  0.
        -13    1    3    3    0    0  0.52949898132E+02 -0.13981398972E+02  0.87902869755E+01  0.55465769071E+02  0.10566000000E+00 0.  1.
         23    2    1    0    0    0  0.21150751602E+02 -0.12373682110E+02 -0.15927700652E+02  0.95774087690E+02  0.91205931400E+02 0.  0.
         13    1    3    3    0    0 -0.31799146530E+02  0.16077168618E+01 -0.24717987627E+02  0.40308318619E+02  0.10566000000E+00 0. -1.
         22    1    1    0    0    0 -0.21150751602E+02  0.12373682110E+02  0.15927700652E+02  0.29225912310E+02  0.00000000000E+00 0.  1.
</event>
<event>
 5    1  0.1245581E-004  0.9118800E+02  0.7818608E-02  0.1130116E+00
         25   -1    0    0    0    0  0.00000000000E+00  0.00000000000E+00  0.99999998245E-14  0.12500000000E+03  0.12500000000E+03 0.  0.
        -13    1    3    3    0    0  0.16602441873E+02  0.27281879607E+02  0.98278273713E+01  0.33414658249E+02  0.10566000000E+00 0.  1.
         23    2    1    0    0    0  0.72724146196E+01 -0.29957159336E+02 -0.61398604446E+01  0.93567257578E+02  0.88129531909E+02 0.  0.
         13    1    3    3    0    0 -0.93300272534E+01 -0.57239038944E+02 -0.15967687816E+02  0.60152599328E+02  0.10566000000E+00 0. -1.
         22    1    1    0    0    0 -0.72724146196E+01  0.29957159336E+02  0.61398604446E+01  0.31432742422E+02  0.00000000000E+00 0. -1.
</event>
<event>
 5    1  0.1245581E-004  0.9118800E+02  0.7818608E-02  0.1130116E+00
         25   -1    0    0    0    0  0.00000000000E+00  0.00000000000E+00  0.99999998245E-14  0.12500000000E+03  0.12500000000E+03 0.  0.
        -13    1    3    3    0    0 -0.32264748235E+02 -0.21471658967E+01 -0.14429878000E+02  0.35409841050E+02  0.10566000000E+00 0.  1.
         23    2    1    0    0    0  0.14228506927E+02 -0.85546803088E+01 -0.34699941576E+02  0.86532885344E+02  0.77512717254E+02 0.  0.
         13    1    3    3    0    0  0.46493255162E+02 -0.64075144121E+01 -0.20270063576E+02  0.51123044294E+02  0.10566000000E+00 0. -1.
         22    1    1    0    0    0 -0.14228506927E+02  0.85546803088E+01  0.34699941576E+02  0.38467114656E+02  0.00000000000E+00 0.  1.
</event>
<event>
 5    1  0.1245581E-004  0.9118800E+02  0.7818608E-02  0.1130116E+00
         25   -1    0    0    0    0  0.00000000000E+00  0.00000000000E+00  0.99999998245E-14  0.12500000000E+03  0.12500000000E+03 0.  0.
        -13    1    3    3    0    0 -0.37081190204E+02 -0.43078133658E+01  0.14094355031E+02  0.39902806051E+02  0.10566000000E+00 0.  1.
         23    2    1    0    0    0  0.71578941890E-01  0.28332767869E+02 -0.10051430246E+02  0.94937030941E+02  0.90051417175E+02 0.  0.
         13    1    3    3    0    0  0.37152769146E+02  0.32640581235E+02 -0.24145785277E+02  0.55034224890E+02  0.10566000000E+00 0. -1.
         22    1    1    0    0    0 -0.71578941890E-01 -0.28332767869E+02  0.10051430246E+02  0.30062969059E+02  0.00000000000E+00 0.  1.
</event>
<event>
 5    1  0.1245581E-004  0.9118800E+02  0.7818608E-02  0.1130116E+00
         25   -1    0    0    0    0  0.00000000000E+00  0.00000000000E+00  0.99999998245E-14  0.12500000000E+03  0.12500000000E+03 0.  0.
        -13    1    3    3    0    0  0.34096713014E+02 -0.37607403830E+02 -0.25419602537E+02  0.56772088374E+02  0.10566000000E+00 0.  1.
         23    2    1    0    0    0  0.39756852666E+01 -0.12604841944E+02 -0.25901587781E+02  0.95921135453E+02  0.91407241853E+02 0.  0.
         13    1    3    3    0    0 -0.30121027747E+02  0.25002561886E+02 -0.48198524378E+00  0.39149047079E+02  0.10566000000E+00 0. -1.
         22    1    1    0    0    0 -0.39756852666E+01  0.12604841944E+02  0.25901587781E+02  0.29078864547E+02  0.00000000000E+00 0.  1.
</event>
<event>
 5    1  0.1245581E-004  0.9118800E+02  0.7818608E-02  0.1130116E+00
         25   -1    0    0    0    0  0.00000000000E+00  0.00000000000E+00  0.99999998245E-14  0.12500000000E+03  0.12500000000E+03 0.  0.
        -13    1    3    3    0    0  0.13705936649E+02  0.29613290166E+02 -0.18336754353E+02  0.37430567430E+02  0.10566000000E+00 0.  1.
         23    2    1    0    0    0 -0.14896549836E+02 -0.20457971812E+02 -0.15830002432E+02  0.95149961731E+02  0.90346502050E+02 0.  0.
         13    1    3    3    0    0 -0.28602486485E+02 -0.50071261978E+02  0.25067519208E+01  0.57719394301E+02  0.10566000000E+00 0. -1.
         22    1    1    0    0    0  0.14896549836E+02  0.20457971812E+02  0.15830002432E+02  0.29850038269E+02  0.00000000000E+00 0. -1.
</event>
<event>
 5    1  0.1245581E-004  0.9118800E+02  0.7818608E-02  0.1130116E+00
         25   -1    0    0    0    0  0.00000000000E+00  0.00000000000E+00  0.99999998245E-14  0.12500000000E+03  0.12500000000E+03 0.  0.
        -13    1    3    3    0    0  0.24065010336E+02 -0.25565789591E+02 -0.18879463252E+02  0.39864515757E+02  0.10566000000E+00 0.  1.
         23    2    1    0    0    0 -0.20178839053E+02  0.12607948464E+02 -0.10848414544E+02  0.98849779961E+02  0.95328091296E+02 0.  0.
         13    1    3    3    0    0 -0.44243849388E+02  0.38173738054E+02  0.80310487080E+01  0.58985264203E+02  0.10566000000E+00 0. -1.
         22    1    1    0    0    0  0.20178839053E+02 -0.12607948464E+02  0.10848414544E+02  0.26150220039E+02  0.00000000000E+00 0. -1.
</event>
<event>
 5    1  0.1245581E-004  0.9118800E+02  0.7818608E-02  0.1130116E+00
         25   -1    0    0    0    0  0.00000000000E+00  0.00000000000E+00  0.99999998245E-14  0.12500000000E+03  0.12500000000E+03 0.  0.
        -13    1    3    3    0    0 -0.13188035223E+02  0.32946671302E+02 -0.95740696979E+01  0.36757059153E+02  0.10566000000E+00 0. -1.
         23    2    1    0    0    0  0.74947955475E+01 -0.21539354937E+02 -0.18394346899E+02  0.95700379367E+02  0.91104856302E+02 0.  0.
         13    1    3    3    0    0  0.20682830771E+02 -0.54486026239E+02 -0.88202772013E+01  0.58943320214E+02  0.10566000000E+00 0.  1.
         22    1    1    0    0    0 -0.74947955475E+01  0.21539354937E+02  0.18394346899E+02  0.29299620633E+02  0.00000000000E+00 0.  1.
</event>
<event>
 5    1  0.1245581E-004  0.9118800E+02  0.7818608E-02  0.1130116E+00
         25   -1    0    0    0    0  0.00000000000E+00  0.00000000000E+00  0.99999998245E-14  0.12500000000E+03  0.12500000000E+03 0.  0.
        -13    1    3    3    0    0 -0.29260531445E+02  0.16386150162E+02  0.33157311484E+02  0.47160397437E+02  0.10566000000E+00 0.  1.
         23    2    1    0    0    0 -0.21917084038E+02  0.17958679194E+02 -0.12928973009E+02  0.93854678134E+02  0.88536261122E+02 0.  0.
         13    1    3    3    0    0  0.73434474072E+01  0.15725290319E+01 -0.46086284493E+02  0.46694280696E+02  0.10566000000E+00 0. -1.
         22    1    1    0    0    0  0.21917084038E+02 -0.17958679194E+02  0.12928973009E+02  0.31145321866E+02  0.00000000000E+00 0.  1.
</event>
<event>
 5    1  0.1245581E-004  0.9118800E+02  0.7818608E-02  0.1130116E+00
         25   -1    0    0    0    0  0.00000000000E+00  0.00000000000E+00  0.99999998245E-14  0.12500000000E+03  0.12500000000E+03 0.  0.
        -13    1    3    3    0    0 -0.23609774549E+02 -0.30439804671E+02 -0.12061445681E+02  0.40366976585E+02  0.10566000000E+00 0.  1.
         23    2    1    0    0    0  0.19835700416E+02  0.71543935012E+00 -0.22667343596E+02  0.94870689849E+02  0.89959282246E+02 0.  0.
         13    1    3    3    0    0  0.43445474965E+02  0.31155244021E+02 -0.10605897915E+02  0.54503713264E+02  0.10566000000E+00 0. -1.
         22    1    1    0    0    0 -0.19835700416E+02 -0.71543935012E+00  0.22667343596E+02  0.30129310151E+02  0.00000000000E+00 0. -1.
</event>
<event>
 5    1  0.1245581E-004  0.9118800E+02  0.7818608E-02  0.1130116E+00
         25   -1    0    0    0    0  0.00000000000E+00  0.00000000000E+00  0.99999998245E-14  0.12500000000E+03  0.12500000000E+03 0.  0.
        -13    1    3    3    0    0  0.18446191419E+02  0.80851368352E+01 -0.20671675939E+02  0.28861059677E+02  0.10566000000E+00 0.  1.
         23    2    1    0    0    0  0.72287241967E+01  0.24627511614E+02  0.31287398831E+02  0.84531863060E+02  0.74215670615E+02 0.  0.
         13    1    3    3    0    0 -0.11217467222E+02  0.16542374779E+02  0.51959074770E+02  0.55670803382E+02  0.10566000000E+00 0. -1.
         22    1    1    0    0    0 -0.72287241967E+01 -0.24627511614E+02 -0.31287398831E+02  0.40468136940E+02  0.00000000000E+00 0. -1.
</event>
<event>
 5    1  0.1245581E-004  0.9118800E+02  0.7818608E-02  0.1130116E+00
         25   -1    0    0    0    0  0.00000000000E+00  0.00000000000E+00  0.99999998245E-14  0.12500000000E+03  0.12500000000E+03 0.  0.
        -13    1    3    3    0    0 -0.37393750760E+02  0.44614955502E+02  0.16896354151E+02  0.60615879091E+02  0.10566000000E+00 0.  1.
         23    2    1    0    0    0 -0.17337785890E+02  0.15388676884E+02  0.17316266428E+02  0.96064497951E+02  0.91603081214E+02 0.  0.
         13    1    3    3    0    0  0.20055964870E+02 -0.29226278618E+02  0.41991227636E+00  0.35448618860E+02  0.10566000000E+00 0. -1.
         22    1    1    0    0    0  0.17337785890E+02 -0.15388676884E+02 -0.17316266428E+02  0.28935502049E+02  0.00000000000E+00 0.  1.
</event>
<event>
 5    1  0.1245581E-004  0.9118800E+02  0.7818608E-02  0.1130116E+00
         25   -1    0    0    0    0  0.00000000000E+00  0.00000000000E+00  0.99999998245E-14  0.12500000000E+03  0.12500000000E+03 0.  0.
        -13    1    3    3    0    0 -0.27114787562E+02  0.42252116911E+02  0.19842127790E+02  0.53983092605E+02  0.10566000000E+00 0.  1.
         23    2    1    0    0    0  0.17797480359E+01  0.14991562042E+02  0.26730900111E+02  0.94300562606E+02  0.89163561232E+02 0.  0.
         13    1    3    3    0    0  0.28894535598E+02 -0.27260554868E+02  0.68887723213E+01  0.40317470001E+02  0.10566000000E+00 0. -1.
         22    1    1    0    0    0 -0.17797480359E+01 -0.14991562042E+02 -0.26730900111E+02  0.30699437394E+02  0.00000000000E+00 0.  1.
</event>
<event>
 5    1  0.1245581E-004  0.9118800E+02  0.7818608E-02  0.1130116E+00
         25   -1    0    0    0    0  0.00000000000E+00  0.00000000000E+00  0.99999998245E-14  0.12500000000E+03  0.12500000000E+03 0.  0.
        -13    1    3    3    0    0 -0.26119181864E+02 -0.23236457595E+02  0.99797249309E+01  0.36355889434E+02  0.10566000000E+00 0.  1.
         23    2    1    0    0    0  0.21852080967E+02  0.12819712033E+02  0.13160168367E+02  0.96450945888E+02  0.92128912249E+02 0.  0.
         13    1    3    3    0    0  0.47971262831E+02  0.36056169628E+02  0.31804434358E+01  0.60095056455E+02  0.10566000000E+00 0. -1.
         22    1    1    0    0    0 -0.21852080967E+02 -0.12819712033E+02 -0.13160168367E+02  0.28549054112E+02  0.00000000000E+00 0. -1.
</event>
<event>
 5    1  0.1245581E-004  0.9118800E+02  0.7818608E-02  0.1130116E+00
         25   -1    0    0    0    0  0.00000000000E+00  0.00000000000E+00  0.99999998245E-14  0.12500000000E+03  0.12500000000E+03 0.  0.
        -13    1    3    3    0    0  0.46488995115E+01  0.26758471822E+02  0.28950488635E+02  0.39695970037E+02  0.10566000000E+00 0.  1.
         23    2    1    0    0    0  0.10537333328E+02 -0.25244978588E+02  0.52646982676E+01  0.97142121664E+02  0.93061970836E+02 0.  0.
         13    1    3    3    0    0  0.58884338165E+01 -0.52003450410E+02 -0.23685790367E+02  0.57446151627E+02  0.10566000000E+00 0. -1.
         22    1    1    0    0    0 -0.10537333328E+02  0.25244978588E+02 -0.52646982676E+01  0.27857878336E+02  0.00000000000E+00 0. -1.
</event>
<event>
 5    1  0.1245581E-004  0.9118800E+02  0.7818608E-02  0.1130116E+00
         25   -1    0    0    0    0  0.00000000000E+00  0.00000000000E+00  0.99999998245E-14  0.12500000000E+03  0.12500000000E+03 0.  0.
        -13    1    3    3    0    0 -0.25975176495E+02  0.31877255425E+02 -0.40572768074E+02  0.57767031087E+02  0.10566000000E+00 0.  1.
         23    2    1    0    0    0  0.61081444348E+01  0.15893632524E+02 -0.18473952131E+02  0.99876228575E+02  0.96664663367E+02 0.  0.
         13    1    3    3    0    0  0.32083320930E+02 -0.15983622901E+02  0.22098815943E+02  0.42109197488E+02  0.10566000000E+00 0. -1.
         22    1    1    0    0    0 -0.61081444348E+01 -0.15893632524E+02  0.18473952131E+02  0.25123771425E+02  0.00000000000E+00 0.  1.
</event>
<event>
 5    1  0.1245581E-004  0.9118800E+02  0.7818608E-02  0.1130116E+00
         25   -1    0    0    0    0  0.00000000000E+00  0.00000000000E+00  0.99999998245E-14  0.12500000000E+03  0.12500000000E+03 0.  0.
        -13    1    3    3    0    0  0.32810939639E+02  0.44406585290E+01 -0.40803821089E+01  0.33360723768E+02  0.10566000000E+00 0. -1.
         23    2    1    0    0    0 -0.11750617077E+01 -0.11397131220E+02  0.35389963740E+02  0.87801547027E+02  0.79532300085E+02 0.  0.
         13    1    3    3    0    0 -0.33986001346E+02 -0.15837789749E+02  0.39470345849E+02  0.54440823259E+02  0.10566000000E+00 0.  1.
         22    1    1    0    0    0  0.11750617077E+01  0.11397131220E+02 -0.35389963740E+02  0.37198452973E+02  0.00000000000E+00 0.  1.
</event>
<event>
 5    1  0.1245581E-004  0.9118800E+02  0.7818608E-02  0.1130116E+00
         25   -1    0    0    0    0  0.00000000000E+00  0.00000000000E+00  0.99999998245E-14  0.12500000000E+03  0.12500000000E+03 0.  0.
        -13    1    3    3    0    0  0.19667499937E+02  0.12131894963E+02 -0.54759715885E+02  0.59435940953E+02  0.10566000000E+00 0. -1.
         23    2    1    0    0    0  0.16141449211E+02 -0.62069861629E+01 -0.24059565651E+02  0.95370019251E+02  0.90650454013E+02 0.  0.
         13    1    3    3    0    0 -0.35260507252E+01 -0.18338881126E+02  0.30700150234E+02  0.35934078298E+02  0.10566000000E+00 0.  1.
         22    1    1    0    0    0 -0.16141449211E+02  0.62069861629E+01  0.24059565651E+02  0.29629980749E+02  0.00000000000E+00 0. -1.
</event>
<event>
 5    1  0.1245581E-004  0.9118800E+02  0.7818608E-02  0.1130116E+00
         25   -1    0    0    0    0  0.00000000000E+00  0.00000000000E+00  0.99999998245E-14  0.12500000000E+03  0.12500000000E+03 0.  0.
        -13    1    3    3    0    0  0.39630663285E+02 -0.19101841796E+02  0.35030721830E+02  0.56237287172E+02  0.10566000000E+00 0. -1.
         23    2    1    0    0    0  0.28494250253E+02  0.63132525040E+01  0.85627349798E+01  0.94584545294E+02  0.89560796800E+02 0.  0.
         13    1    3    3    0    0 -0.11136413032E+02  0.25415094300E+02 -0.26467986851E+02  0.38347258122E+02  0.10566000000E+00 0.  1.
         22    1    1    0    0    0 -0.28494250253E+02 -0.63132525040E+01 -0.85627349798E+01  0.30415454706E+02  0.00000000000E+00 0. -1.
</event>
<event>
 5    1  0.1245581E-004  0.9118800E+02  0.7818608E-02  0.1130116E+00
         25   -1    0    0    0    0  0.00000000000E+00  0.00000000000E+00  0.99999998245E-14  0.12500000000E+03  0.12500000000E+03 0.  0.
        -13    1    3    3    0    0  0.19451655992E+02 -0.10708017724E+01 -0.38685545186E+02  0.43313925101E+02  0.10566000000E+00 0.  1.
         23    2    1    0    0    0  0.19326714449E+02  0.30516770410E+02 -0.67116229390E+01  0.88259816956E+02  0.80249325474E+02 0.  0.
         13    1    3    3    0    0 -0.12494154343E+00  0.31587572182E+02  0.31973922247E+02  0.44945891855E+02  0.10566000000E+00 0. -1.
         22    1    1    0    0    0 -0.19326714449E+02 -0.30516770410E+02  0.67116229390E+01  0.36740183044E+02  0.00000000000E+00 0. -1.
</event>
<event>
 5    1  0.1245581E-004  0.9118800E+02  0.7818608E-02  0.1130116E+00
         25   -1    0    0    0    0  0.00000000000E+00  0.00000000000E+00  0.99999998245E-14  0.12500000000E+03  0.12500000000E+03 0.  0.
        -13    1    3    3    0    0  0.13139307343E+02  0.55033414161E+01  0.33585823083E+02  0.36482144132E+02  0.10566000000E+00 0.  1.
         23    2    1    0    0    0 -0.44377763674E+01  0.13797696432E+02 -0.23835537207E+02  0.97103707775E+02  0.93010359336E+02 0.  0.
         13    1    3    3    0    0 -0.17577083711E+02  0.82943550163E+01 -0.57421360291E+02  0.60621563644E+02  0.10566000000E+00 0. -1.
         22    1    1    0    0    0  0.44377763674E+01 -0.13797696432E+02  0.23835537207E+02  0.27896292225E+02  0.00000000000E+00 0. -1.
</event>
<event>
 5    1  0.1245581E-004  0.9118800E+02  0.7818608E-02  0.1130116E+00
         25   -1    0    0    0    0  0.00000000000E+00  0.00000000000E+00  0.99999998245E-14  0.12500000000E+03  0.12500000000E+03 0.  0.
        -13    1    3    3    0    0  0.11138458348E+01 -0.28583360535E+02  0.27899412397E+02  0.39957946997E+02  0.10566000000E+00 0.  1.
         23    2    1    0    0    0 -0.30001829811E+02  0.50860688002E+00 -0.60023879419E+01  0.94399393242E+02  0.89302006195E+02 0.  0.
         13    1    3    3    0    0 -0.31115675646E+02  0.29091967415E+02 -0.33901800339E+02  0.54441446245E+02  0.10566000000E+00 0. -1.
         22    1    1    0    0    0  0.30001829811E+02 -0.50860688002E+00  0.60023879419E+01  0.30600606758E+02  0.00000000000E+00 0. -1.
</event>
<event>
 5    1  0.1245581E-004  0.9118800E+02  0.7818608E-02  0.1130116E+00
         25   -1    0    0    0    0  0.00000000000E+00  0.00000000000E+00  0.99999998245E-14  0.12500000000E+03  0.12500000000E+03 0.  0.
        -13    1    3    3    0    0 -0.33225310283E+02 -0.12750273911E+02 -0.56761591377E+01  0.36037767339E+02  0.10566000000E+00 0.  1.
         23    2    1    0    0    0  0.26467159588E+02 -0.11811248013E+02 -0.38174619342E+01  0.95766643506E+02  0.91195728390E+02 0.  0.
         13    1    3    3    0    0  0.59692469871E+02  0.93902589816E+00  0.18586972034E+01  0.59728876167E+02  0.10566000000E+00 0. -1.
         22    1    1    0    0    0 -0.26467159588E+02  0.11811248013E+02  0.38174619342E+01  0.29233356494E+02  0.00000000000E+00 0. -1.
</event>
<event>
 5    1  0.1245581E-004  0.9118800E+02  0.7818608E-02  0.1130116E+00
         25   -1    0    0    0    0  0.00000000000E+00  0.00000000000E+00  0.99999998245E-14  0.12500000000E+03  0.12500000000E+03 0.  0.
        -13    1    3    3    0    0 -0.32988974759E+02 -0.35257777992E+02  0.14755255204E+02  0.50488732255E+02  0.10566000000E+00 0.  1.
         23    2    1    0    0    0 -0.27447295258E+02 -0.90735513333E+01 -0.16561138002E+02  0.91684018209E+02  0.85416652664E+02 0.  0.
         13    1    3    3    0    0  0.55416795010E+01  0.26184226658E+02 -0.31316393205E+02  0.41195285954E+02  0.10566000000E+00 0. -1.
         22    1    1    0    0    0  0.27447295258E+02  0.90735513333E+01  0.16561138002E+02  0.33315981791E+02  0.00000000000E+00 0. -1.
</event>
<event>
 5    1  0.1245581E-004  0.9118800E+02  0.7818608E-02  0.1130116E+00
         25   -1    0    0    0    0  0.00000000000E+00  0.00000000000E+00  0.99999998245E-14  0.12500000000E+03  0.12500000000E+03 0.  0.
        -13    1    3    3    0    0  0.22170711652E+02  0.23023816610E+02 -0.78941531119E+01  0.32923629870E+02  0.10566000000E+00 0. -1.
         23    2    1    0    0    0 -0.12665187176E+02 -0.24720428714E+02  0.11225391616E+02  0.95041428957E+02  0.90196215216E+02 0.  0.
         13    1    3    3    0    0 -0.34835898828E+02 -0.47744245324E+02  0.19119544728E+02  0.62117799087E+02  0.10566000000E+00 0.  1.
         22    1    1    0    0    0  0.12665187176E+02  0.24720428714E+02 -0.11225391616E+02  0.29958571043E+02  0.00000000000E+00 0.  1.
</event>
<event>
 5    1  0.1245581E-004  0.9118800E+02  0.7818608E-02  0.1130116E+00
         25   -1    0    0    0    0  0.00000000000E+00  0.00000000000E+00  0.99999998245E-14  0.12500000000E+03  0.12500000000E+03 0.  0.
        -13    1    3    3    0    0  0.41971568547E+02  0.44352658682E+02  0.12956460164E+02  0.62423168155E+02  0.10566000000E+00 0. -1.
         23    2    1    0    0    0  0.18768599252E+02  0.21772365917E+02  0.43222909677E+01  0.95931487229E+02  0.91421396879E+02 0.  0.
         13    1    3    3    0    0 -0.23202969295E+02 -0.22580292765E+02 -0.86341691960E+01  0.33508319074E+02  0.10566000000E+00 0.  1.
         22    1    1    0    0    0 -0.18768599252E+02 -0.21772365917E+02 -0.43222909677E+01  0.29068512771E+02  0.00000000000E+00 0. -1.
</event>
<event>
 5    1  0.1245581E-004  0.9118800E+02  0.7818608E-02  0.1130116E+00
         25   -1    0    0    0    0  0.00000000000E+00  0.00000000000E+00  0.99999998245E-14  0.12500000000E+03  0.12500000000E+03 0.  0.
        -13    1    3    3    0    0  0.31003432129E+02 -0.56605725216E+01 -0.20537924586E+02  0.37617448018E+02  0.10566000000E+00 0. -1.
         23    2    1    0    0    0 -0.20483157263E+02 -0.56865932215E+01  0.13937384458E+02  0.99580563353E+02  0.96281570606E+02 0.  0.
         13    1    3    3    0    0 -0.51486589392E+02 -0.26020699850E-01  0.34475309044E+02  0.61963115335E+02  0.10566000000E+00 0.  1.
         22    1    1    0    0    0  0.20483157263E+02  0.56865932215E+01 -0.13937384458E+02  0.25419436647E+02  0.00000000000E+00 0.  1.
</event>
<event>
 5    1  0.1245581E-004  0.9118800E+02  0.7818608E-02  0.1130116E+00
         25   -1    0    0    0    0  0.00000000000E+00  0.00000000000E+00  0.99999998245E-14  0.12500000000E+03  0.12500000000E+03 0.  0.
        -13    1    3    3    0    0 -0.33170092303E+02  0.16579967236E+02  0.54244237758E+01  0.37477805088E+02  0.10566000000E+00 0.  1.
         23    2    1    0    0    0  0.98175408438E+01 -0.25337146500E+02  0.39850896251E+01  0.97536641860E+02  0.93590386606E+02 0.  0.
         13    1    3    3    0    0  0.42987633146E+02 -0.41917113736E+02 -0.14393341507E+01  0.60058836772E+02  0.10566000000E+00 0. -1.
         22    1    1    0    0    0 -0.98175408438E+01  0.25337146500E+02 -0.39850896251E+01  0.27463358140E+02  0.00000000000E+00 0. -1.
</event>
<event>
 5    1  0.1245581E-004  0.9118800E+02  0.7818608E-02  0.1130116E+00
         25   -1    0    0    0    0  0.00000000000E+00  0.00000000000E+00  0.99999998245E-14  0.12500000000E+03  0.12500000000E+03 0.  0.
        -13    1    3    3    0    0  0.38757581732E+02  0.12751698380E+02 -0.46912825452E+02  0.62173791176E+02  0.10566000000E+00 0.  1.
         23    2    1    0    0    0  0.16553814690E+02  0.37259617142E+01 -0.25831326523E+02  0.94094191461E+02  0.88873774902E+02 0.  0.
         13    1    3    3    0    0 -0.22203767042E+02 -0.90257366661E+01  0.21081498929E+02  0.31920400285E+02  0.10566000000E+00 0. -1.
         22    1    1    0    0    0 -0.16553814690E+02 -0.37259617142E+01  0.25831326523E+02  0.30905808539E+02  0.00000000000E+00 0.  1.
</event>
<event>
 5    1  0.1245581E-004  0.9118800E+02  0.7818608E-02  0.1130116E+00
         25   -1    0    0    0    0  0.00000000000E+00  0.00000000000E+00  0.99999998245E-14  0.12500000000E+03  0.12500000000E+03 0.  0.
        -13    1    3    3    0    0 -0.13209693884E+02  0.25579889963E+02 -0.17574269993E+02  0.33729703717E+02  0.10566000000E+00 0.  1.
         23    2    1    0    0    0 -0.12657317922E+02 -0.21960446273E+02  0.18675177589E+02  0.93516176289E+02  0.88057050100E+02 0.  0.
         13    1    3    3    0    0  0.55237596217E+00 -0.47540336236E+02  0.36249447581E+02  0.59786472572E+02  0.10566000000E+00 0. -1.
         22    1    1    0    0    0  0.12657317922E+02  0.21960446273E+02 -0.18675177589E+02  0.31483823711E+02  0.00000000000E+00 0. -1.
</event>
<event>
 5    1  0.1245581E-004  0.9118800E+02  0.7818608E-02  0.1130116E+00
         25   -1    0    0    0    0  0.00000000000E+00  0.00000000000E+00  0.99999998245E-14  0.12500000000E+03  0.12500000000E+03 0.  0.
        -13    1    3    3    0    0  0.22214835465E+02 -0.14044403830E+02 -0.49919292709E+02  0.56415344919E+02  0.10566000000E+00 0.  1.
         23    2    1    0    0    0 -0.93656451401E+01 -0.24589985130E+01 -0.24736017667E+02  0.98436254922E+02  0.94784301076E+02 0.  0.
         13    1    3    3    0    0 -0.31580480605E+02  0.11585405317E+02  0.25183275043E+02  0.42020910003E+02  0.10566000000E+00 0. -1.
         22    1    1    0    0    0  0.93656451401E+01  0.24589985130E+01  0.24736017667E+02  0.26563745078E+02  0.00000000000E+00 0.  1.
</event>
<event>
 5    1  0.1245581E-004  0.9118800E+02  0.7818608E-02  0.1130116E+00
         25   -1    0    0    0    0  0.00000000000E+00  0.00000000000E+00  0.99999998245E-14  0.12500000000E+03  0.12500000000E+03 0.  0.
        -13    1    3    3    0    0  0.85490758749E+01 -0.32942419758E+02 -0.13697876380E+01  0.34061374018E+02  0.10566000000E+00 0.  1.
         23    2    1    0    0    0 -0.85998163104E+01  0.26069028614E+02 -0.92839372513E+01  0.96021687690E+02  0.91544644422E+02 0.  0.
         13    1    3    3    0    0 -0.17148892185E+02  0.59011448372E+02 -0.79141496133E+01  0.61960313671E+02  0.10566000000E+00 0. -1.
         22    1    1    0    0    0  0.85998163104E+01 -0.26069028614E+02  0.92839372513E+01  0.28978312310E+02  0.00000000000E+00 0. -1.
</event>
<event>
 5    1  0.1245581E-004  0.9118800E+02  0.7818608E-02  0.1130116E+00
         25   -1    0    0    0    0  0.00000000000E+00  0.00000000000E+00  0.99999998245E-14  0.12500000000E+03  0.12500000000E+03 0.  0.
        -13    1    3    3    0    0 -0.53632107046E+02 -0.60145860358E+01 -0.19419905096E+02  0.57356098450E+02  0.10566000000E+00 0. -1.
         23    2    1    0    0    0 -0.23096056669E+02 -0.19295770609E+02 -0.22532743480E+01  0.94820009239E+02  0.89888833064E+02 0.  0.
         13    1    3    3    0    0  0.30536050377E+02 -0.13281184573E+02  0.17166630748E+02  0.37463910789E+02  0.10566000000E+00 0.  1.
         22    1    1    0    0    0  0.23096056669E+02  0.19295770609E+02  0.22532743480E+01  0.30179990761E+02  0.00000000000E+00 0. -1.
</event>
<event>
 5    1  0.1245581E-004  0.9118800E+02  0.7818608E-02  0.1130116E+00
         25   -1    0    0    0    0  0.00000000000E+00  0.00000000000E+00  0.99999998245E-14  0.12500000000E+03  0.12500000000E+03 0.  0.
        -13    1    3    3    0    0  0.15876707803E+02  0.23702902628E+02  0.20036174961E+02  0.34861969462E+02  0.10566000000E+00 0. -1.
         23    2    1    0    0    0  0.13601223688E+02 -0.28853871550E+02 -0.42784983981E+01  0.92815458093E+02  0.87056674203E+02 0.  0.
         13    1    3    3    0    0 -0.22754841151E+01 -0.52556774178E+02 -0.24314673359E+02  0.57953488631E+02  0.10566000000E+00 0.  1.
         22    1    1    0    0    0 -0.13601223688E+02  0.28853871550E+02  0.42784983981E+01  0.32184541907E+02  0.00000000000E+00 0.  1.
</event>
<event>
 5    1  0.1245581E-004  0.9118800E+02  0.7818608E-02  0.1130116E+00
         25   -1    0    0    0    0  0.00000000000E+00  0.00000000000E+00  0.99999998245E-14  0.12500000000E+03  0.12500000000E+03 0.  0.
        -13    1    3    3    0    0 -0.70617080181E+01  0.21954441979E+01  0.41950421146E+02  0.42597378953E+02  0.10566000000E+00 0. -1.
         23    2    1    0    0    0  0.28344606053E+02  0.48226345760E+01  0.18029709146E+01  0.96191577608E+02  0.91776328114E+02 0.  0.
         13    1    3    3    0    0  0.35406314071E+02  0.26271903781E+01 -0.40147450231E+02  0.53594198655E+02  0.10566000000E+00 0.  1.
         22    1    1    0    0    0 -0.28344606053E+02 -0.48226345760E+01 -0.18029709146E+01  0.28808422392E+02  0.00000000000E+00 0.  1.
</event>
<event>
 5    1  0.1245581E-004  0.9118800E+02  0.7818608E-02  0.1130116E+00
         25   -1    0    0    0    0  0.00000000000E+00  0.00000000000E+00  0.99999998245E-14  0.12500000000E+03  0.12500000000E+03 0.  0.
        -13    1    3    3    0    0  0.92461464142E+01  0.89923891045E+01 -0.46822405132E+02  0.48566480949E+02  0.10566000000E+00 0.  1.
         23    2    1    0    0    0 -0.16648042280E+02  0.21921000030E+02 -0.93190453806E+01  0.95939164484E+02  0.91431893347E+02 0.  0.
         13    1    3    3    0    0 -0.25894188695E+02  0.12928610925E+02  0.37503359752E+02  0.47372683535E+02  0.10566000000E+00 0. -1.
         22    1    1    0    0    0  0.16648042280E+02 -0.21921000030E+02  0.93190453806E+01  0.29060835516E+02  0.00000000000E+00 0. -1.
</event>
<event>
 5    1  0.1245581E-004  0.9118800E+02  0.7818608E-02  0.1130116E+00
         25   -1    0    0    0    0  0.00000000000E+00  0.00000000000E+00  0.99999998245E-14  0.12500000000E+03  0.12500000000E+03 0.  0.
        -13    1    3    3    0    0  0.12235508197E+02 -0.45547236154E+02 -0.10381416191E+02  0.48291234694E+02  0.10566000000E+00 0. -1.
         23    2    1    0    0    0  0.25226229214E+02  0.25620141298E+01 -0.88390811627E+01  0.98147515710E+02  0.94402748516E+02 0.  0.
         13    1    3    3    0    0  0.12990721017E+02  0.48109250283E+02  0.15423350279E+01  0.49856281016E+02  0.10566000000E+00 0.  1.
         22    1    1    0    0    0 -0.25226229214E+02 -0.25620141298E+01  0.88390811627E+01  0.26852484290E+02  0.00000000000E+00 0.  1.
</event>
<event>
 5    1  0.1245581E-004  0.9118800E+02  0.7818608E-02  0.1130116E+00
         25   -1    0    0    0    0  0.00000000000E+00  0.00000000000E+00  0.99999998245E-14  0.12500000000E+03  0.12500000000E+03 0.  0.
        -13    1    3    3    0    0 -0.19582659557E+02 -0.17354561418E+02 -0.83692047412E+01  0.27472096923E+02  0.10566000000E+00 0. -1.
         23    2    1    0    0    0 -0.64204780997E+00  0.25646860191E+02  0.28098552787E+02  0.86951316294E+02  0.78184583349E+02 0.  0.
         13    1    3    3    0    0  0.18940611747E+02  0.43001421609E+02  0.36467757528E+02  0.59479219370E+02  0.10566000000E+00 0.  1.
         22    1    1    0    0    0  0.64204780997E+00 -0.25646860191E+02 -0.28098552787E+02  0.38048683706E+02  0.00000000000E+00 0.  1.
</event>
<event>
 5    1  0.1245581E-004  0.9118800E+02  0.7818608E-02  0.1130116E+00
         25   -1    0    0    0    0  0.00000000000E+00  0.00000000000E+00  0.99999998245E-14  0.12500000000E+03  0.12500000000E+03 0.  0.
        -13    1    3    3    0    0 -0.16397794738E+02  0.11111141927E+01  0.44344889061E+02  0.47292733024E+02  0.10566000000E+00 0.  1.
         23    2    1    0    0    0  0.14398310058E+02 -0.20788006530E+02  0.12109572772E+02  0.96962626715E+02  0.92820561724E+02 0.  0.
         13    1    3    3    0    0  0.30796104796E+02 -0.21899120723E+02 -0.32235316289E+02  0.49669893691E+02  0.10566000000E+00 0. -1.
         22    1    1    0    0    0 -0.14398310058E+02  0.20788006530E+02 -0.12109572772E+02  0.28037373285E+02  0.00000000000E+00 0. -1.
</event>
<event>
 5    1  0.1245581E-004  0.9118800E+02  0.7818608E-02  0.1130116E+00
         25   -1    0    0    0    0  0.00000000000E+00  0.00000000000E+00  0.99999998245E-14  0.12500000000E+03  0.12500000000E+03 0.  0.
        -13    1    3    3    0    0 -0.47945416421E+02 -0.56021415960E+01 -0.93559185670E+01  0.49170024635E+02  0.10566000000E+00 0.  1.
         23    2    1    0    0    0 -0.10841376063E+02 -0.18030815192E+02  0.18323185722E+02  0.97100450426E+02  0.93005981563E+02 0.  0.
         13    1    3    3    0    0  0.37104040358E+02 -0.12428673596E+02  0.27679104289E+02  0.47930425791E+02  0.10566000000E+00 0. -1.
         22    1    1    0    0    0  0.10841376063E+02  0.18030815192E+02 -0.18323185722E+02  0.27899549574E+02  0.00000000000E+00 0.  1.
</event>
<event>
 5    1  0.1245581E-004  0.9118800E+02  0.7818608E-02  0.1130116E+00
         25   -1    0    0    0    0  0.00000000000E+00  0.00000000000E+00  0.99999998245E-14  0.12500000000E+03  0.12500000000E+03 0.  0.
        -13    1    3    3    0    0 -0.46963157710E+02 -0.28582631005E+02  0.84225829536E+01  0.55618846131E+02  0.10566000000E+00 0. -1.
         23    2    1    0    0    0 -0.44479727346E+02 -0.46492659042E+01  0.71058716182E+01  0.79716943239E+02  0.65606675039E+02 0.  0.
         13    1    3    3    0    0  0.24834303642E+01  0.23933365101E+02 -0.13167113354E+01  0.24098097108E+02  0.10566000000E+00 0.  1.
         22    1    1    0    0    0  0.44479727346E+02  0.46492659042E+01 -0.71058716182E+01  0.45283056761E+02  0.00000000000E+00 0. -1.
</event>
<event>
 5    1  0.1245581E-004  0.9118800E+02  0.7818608E-02  0.1130116E+00
         25   -1    0    0    0    0  0.00000000000E+00  0.00000000000E+00  0.99999998245E-14  0.12500000000E+03  0.12500000000E+03 0.  0.
        -13    1    3    3    0    0  0.15991444753E+02  0.29604093246E+02 -0.11591406390E+02  0.35587926441E+02  0.10566000000E+00 0.  1.
         23    2    1    0    0    0 -0.82481173999E+01 -0.26385796346E+02 -0.34332926661E+01  0.97142699557E+02  0.93062747054E+02 0.  0.
         13    1    3    3    0    0 -0.24239562153E+02 -0.55989889592E+02  0.81581137236E+01  0.61554773116E+02  0.10566000000E+00 0. -1.
         22    1    1    0    0    0  0.82481173999E+01  0.26385796346E+02  0.34332926661E+01  0.27857300443E+02  0.00000000000E+00 0. -1.
</event>
<event>
 5    1  0.1245581E-004  0.9118800E+02  0.7818608E-02  0.1130116E+00
         25   -1    0    0    0    0  0.00000000000E+00  0.00000000000E+00  0.99999998245E-14  0.12500000000E+03  0.12500000000E+03 0.  0.
        -13    1    3    3    0    0  0.82673249995E+01 -0.14500799967E+02  0.31106429082E+02  0.35302166458E+02  0.10566000000E+00 0. -1.
         23    2    1    0    0    0 -0.14594952112E+02 -0.16828237732E+02 -0.22322918264E+02  0.93464069823E+02  0.87983052094E+02 0.  0.
         13    1    3    3    0    0 -0.22862277111E+02 -0.23274377652E+01 -0.53429347346E+02  0.58161903365E+02  0.10566000000E+00 0.  1.
         22    1    1    0    0    0  0.14594952112E+02  0.16828237732E+02  0.22322918264E+02  0.31535930177E+02  0.00000000000E+00 0.  1.
</event>
<event>
 5    1  0.1245581E-004  0.9118800E+02  0.7818608E-02  0.1130116E+00
         25   -1    0    0    0    0  0.00000000000E+00  0.00000000000E+00  0.99999998245E-14  0.12500000000E+03  0.12500000000E+03 0.  0.
        -13    1    3    3    0    0 -0.22879553252E+02  0.20396560292E+02 -0.19498656816E+02  0.36327708576E+02  0.10566000000E+00 0.  1.
         23    2    1    0    0    0 -0.38555343724E+00 -0.15994845702E+02  0.23230144631E+02  0.96793203654E+02  0.92592121228E+02 0.  0.
         13    1    3    3    0    0  0.22493999815E+02 -0.36391405994E+02  0.42728801447E+02  0.60465495078E+02  0.10566000000E+00 0. -1.
         22    1    1    0    0    0  0.38555343724E+00  0.15994845702E+02 -0.23230144631E+02  0.28206796346E+02  0.00000000000E+00 0. -1.
</event>
<event>
 5    1  0.1245581E-004  0.9118800E+02  0.7818608E-02  0.1130116E+00
         25   -1    0    0    0    0  0.00000000000E+00  0.00000000000E+00  0.99999998245E-14  0.12500000000E+03  0.12500000000E+03 0.  0.
        -13    1    3    3    0    0  0.11747270236E+02  0.52853359505E+02  0.23715268566E+02  0.59109230211E+02  0.10566000000E+00 0.  1.
         23    2    1    0    0    0  0.37940583418E+01  0.28860915680E+02 -0.28175493374E+01  0.95754728299E+02  0.91179395012E+02 0.  0.
         13    1    3    3    0    0 -0.79532118940E+01 -0.23992443825E+02 -0.26532817904E+02  0.36645498087E+02  0.10566000000E+00 0. -1.
         22    1    1    0    0    0 -0.37940583418E+01 -0.28860915680E+02  0.28175493374E+01  0.29245271701E+02  0.00000000000E+00 0.  1.
</event>
<event>
 5    1  0.1245581E-004  0.9118800E+02  0.7818608E-02  0.1130116E+00
         25   -1    0    0    0    0  0.00000000000E+00  0.00000000000E+00  0.99999998245E-14  0.12500000000E+03  0.12500000000E+03 0.  0.
        -13    1    3    3    0    0  0.20049775819E+02  0.22681109603E+02  0.15413924175E+02  0.33970965040E+02  0.10566000000E+00 0.  1.
         23    2    1    0    0    0 -0.26937341993E+02 -0.34497165243E+01 -0.13121582265E+02  0.94838818675E+02  0.89914985786E+02 0.  0.
         13    1    3    3    0    0 -0.46987117812E+02 -0.26130826127E+02 -0.28535506441E+02  0.60867853636E+02  0.10566000000E+00 0. -1.
         22    1    1    0    0    0  0.26937341993E+02  0.34497165243E+01  0.13121582265E+02  0.30161181325E+02  0.00000000000E+00 0. -1.
</event>
<event>
 5    1  0.1245581E-004  0.9118800E+02  0.7818608E-02  0.1130116E+00
         25   -1    0    0    0    0  0.00000000000E+00  0.00000000000E+00  0.99999998245E-14  0.12500000000E+03  0.12500000000E+03 0.  0.
        -13    1    3    3    0    0  0.21658565873E+02 -0.12483227761E+02  0.35830308024E+02  0.43689204480E+02  0.10566000000E+00 0.  1.
         23    2    1    0    0    0 -0.23410652079E+02 -0.14127128020E+02  0.87646976478E+01  0.96286687727E+02  0.91905777466E+02 0.  0.
         13    1    3    3    0    0 -0.45069217951E+02 -0.16439002588E+01 -0.27065610376E+02  0.52597483247E+02  0.10566000000E+00 0. -1.
         22    1    1    0    0    0  0.23410652079E+02  0.14127128020E+02 -0.87646976478E+01  0.28713312273E+02  0.00000000000E+00 0. -1.
</event>
<event>
 5    1  0.1245581E-004  0.9118800E+02  0.7818608E-02  0.1130116E+00
         25   -1    0    0    0    0  0.00000000000E+00  0.00000000000E+00  0.99999998245E-14  0.12500000000E+03  0.12500000000E+03 0.  0.
        -13    1    3    3    0    0  0.23384890519E+02  0.63720156279E+01  0.30299782101E+02  0.38801335637E+02  0.10566000000E+00 0.  1.
         23    2    1    0    0    0 -0.27199205163E+02  0.10218329243E+02  0.49019818621E+01  0.95534080022E+02  0.90876399606E+02 0.  0.
         13    1    3    3    0    0 -0.50584095682E+02  0.38463136153E+01 -0.25397800239E+02  0.56732744385E+02  0.10566000000E+00 0. -1.
         22    1    1    0    0    0  0.27199205163E+02 -0.10218329243E+02 -0.49019818621E+01  0.29465919978E+02  0.00000000000E+00 0. -1.
</event>
<event>
 5    1  0.1245581E-004  0.9118800E+02  0.7818608E-02  0.1130116E+00
         25   -1    0    0    0    0  0.00000000000E+00  0.00000000000E+00  0.99999998245E-14  0.12500000000E+03  0.12500000000E+03 0.  0.
        -13    1    3    3    0    0  0.13222005040E+02 -0.40744761549E+02  0.24903637248E+02  0.49549564308E+02  0.10566000000E+00 0. -1.
         23    2    1    0    0    0  0.37459095994E+01  0.29683701066E+01  0.30049146503E+02  0.94573132508E+02  0.89544866558E+02 0.  0.
         13    1    3    3    0    0 -0.94760954401E+01  0.43713131655E+02  0.51455092556E+01  0.45023568200E+02  0.10566000000E+00 0.  1.
         22    1    1    0    0    0 -0.37459095994E+01 -0.29683701066E+01 -0.30049146503E+02  0.30426867492E+02  0.00000000000E+00 0. -1.
</event>
<event>
 5    1  0.1245581E-004  0.9118800E+02  0.7818608E-02  0.1130116E+00
         25   -1    0    0    0    0  0.00000000000E+00  0.00000000000E+00  0.99999998245E-14  0.12500000000E+03  0.12500000000E+03 0.  0.
        -13    1    3    3    0    0 -0.19490214952E+02  0.66080244673E+01 -0.35477124636E+02  0.41014290226E+02  0.10566000000E+00 0.  1.
         23    2    1    0    0    0  0.12331037415E+02  0.24586332278E+02  0.65649402642E+01  0.96722081773E+02  0.92496056366E+02 0.  0.
         13    1    3    3    0    0  0.31821252367E+02  0.17978307810E+02  0.42042064901E+02  0.55707791547E+02  0.10566000000E+00 0. -1.
         22    1    1    0    0    0 -0.12331037415E+02 -0.24586332278E+02 -0.65649402642E+01  0.28277918227E+02  0.00000000000E+00 0. -1.
</event>
<event>
 5    1  0.1245581E-004  0.9118800E+02  0.7818608E-02  0.1130116E+00
         25   -1    0    0    0    0  0.00000000000E+00  0.00000000000E+00  0.99999998245E-14  0.12500000000E+03  0.12500000000E+03 0.  0.
        -13    1    3    3    0    0  0.46193018175E+02 -0.89710834544E+01 -0.94301068672E+01  0.47991804988E+02  0.10566000000E+00 0. -1.
         23    2    1    0    0    0  0.17148267956E+02  0.13067877665E+02  0.20565315245E+02  0.95204619289E+02  0.90422092556E+02 0.  0.
         13    1    3    3    0    0 -0.29044750218E+02  0.22038961120E+02  0.29995422112E+02  0.47212814301E+02  0.10566000000E+00 0.  1.
         22    1    1    0    0    0 -0.17148267956E+02 -0.13067877665E+02 -0.20565315245E+02  0.29795380711E+02  0.00000000000E+00 0. -1.
</event>
<event>
 5    1  0.1245581E-004  0.9118800E+02  0.7818608E-02  0.1130116E+00
         25   -1    0    0    0    0  0.00000000000E+00  0.00000000000E+00  0.99999998245E-14  0.12500000000E+03  0.12500000000E+03 0.  0.
        -13    1    3    3    0    0  0.42373772792E+02  0.30157119771E+02 -0.14135668388E+02  0.53896352180E+02  0.10566000000E+00 0.  1.
         23    2    1    0    0    0  0.30367879960E+01  0.29712749093E+02 -0.19987313809E+01  0.95065664078E+02  0.90229795630E+02 0.  0.
         13    1    3    3    0    0 -0.39336984796E+02 -0.44437067805E+00  0.12136937007E+02  0.41169311898E+02  0.10566000000E+00 0. -1.
         22    1    1    0    0    0 -0.30367879960E+01 -0.29712749093E+02  0.19987313809E+01  0.29934335922E+02  0.00000000000E+00 0. -1.
</event>
<event>
 5    1  0.1245581E-004  0.9118800E+02  0.7818608E-02  0.1130116E+00
         25   -1    0    0    0    0  0.00000000000E+00  0.00000000000E+00  0.99999998245E-14  0.12500000000E+03  0.12500000000E+03 0.  0.
        -13    1    3    3    0    0 -0.21763758107E+02 -0.22702489442E+02  0.23252412875E+02  0.39112019411E+02  0.10566000000E+00 0.  1.
         23    2    1    0    0    0  0.28450582958E+02 -0.41825911760E+01  0.41188367025E+01  0.95950136741E+02  0.91446892704E+02 0.  0.
         13    1    3    3    0    0  0.50214341065E+02  0.18519898266E+02 -0.19133576173E+02  0.56838117330E+02  0.10566000000E+00 0. -1.
         22    1    1    0    0    0 -0.28450582958E+02  0.41825911760E+01 -0.41188367025E+01  0.29049863259E+02  0.00000000000E+00 0. -1.
</event>
<event>
 5    1  0.1245581E-004  0.9118800E+02  0.7818608E-02  0.1130116E+00
         25   -1    0    0    0    0  0.00000000000E+00  0.00000000000E+00  0.99999998245E-14  0.12500000000E+03  0.12500000000E+03 0.  0.
        -13    1    3    3    0    0 -0.23087954793E+02 -0.26658949707E+02 -0.86113270659E+01  0.36303159282E+02  0.10566000000E+00 0. -1.
         23    2    1    0    0    0  0.28830843621E+02  0.84624265927E+00 -0.80266538785E+01  0.95060714053E+02  0.90222937844E+02 0.  0.
         13    1    3    3    0    0  0.51918798414E+02  0.27505192366E+02  0.58467318740E+00  0.58757554771E+02  0.10566000000E+00 0.  1.
         22    1    1    0    0    0 -0.28830843621E+02 -0.84624265927E+00  0.80266538785E+01  0.29939285947E+02  0.00000000000E+00 0.  1.
</event>
<event>
 5    1  0.1245581E-004  0.9118800E+02  0.7818608E-02  0.1130116E+00
         25   -1    0    0    0    0  0.00000000000E+00  0.00000000000E+00  0.99999998245E-14  0.12500000000E+03  0.12500000000E+03 0.  0.
        -13    1    3    3    0    0 -0.35298807230E+02 -0.65911099237E+01  0.14270496825E+02  0.38640739713E+02  0.10566000000E+00 0. -1.
         23    2    1    0    0    0  0.38106007168E+01  0.11221813261E+02 -0.25301868995E+02  0.97060165617E+02  0.92951823028E+02 0.  0.
         13    1    3    3    0    0  0.39109407947E+02  0.17812923185E+02 -0.39572365820E+02  0.58419425904E+02  0.10566000000E+00 0.  1.
         22    1    1    0    0    0 -0.38106007168E+01 -0.11221813261E+02  0.25301868995E+02  0.27939834383E+02  0.00000000000E+00 0.  1.
</event>
<event>
 5    1  0.1245581E-004  0.9118800E+02  0.7818608E-02  0.1130116E+00
         25   -1    0    0    0    0  0.00000000000E+00  0.00000000000E+00  0.99999998245E-14  0.12500000000E+03  0.12500000000E+03 0.  0.
        -13    1    3    3    0    0 -0.29262893709E+02 -0.10301452543E+02  0.53330834050E+02  0.61697859746E+02  0.10566000000E+00 0. -1.
         23    2    1    0    0    0 -0.12455653244E+02 -0.11752317150E+02  0.24351549020E+02  0.95229911055E+02  0.90457049276E+02 0.  0.
         13    1    3    3    0    0  0.16807240465E+02 -0.14508646064E+01 -0.28979285029E+02  0.33532051309E+02  0.10566000000E+00 0.  1.
         22    1    1    0    0    0  0.12455653244E+02  0.11752317150E+02 -0.24351549020E+02  0.29770088945E+02  0.00000000000E+00 0. -1.
</event>
<event>
 5    1  0.1245581E-004  0.9118800E+02  0.7818608E-02  0.1130116E+00
         25   -1    0    0    0    0  0.00000000000E+00  0.00000000000E+00  0.99999998245E-14  0.12500000000E+03  0.12500000000E+03 0.  0.
        -13    1    3    3    0    0  0.20477420750E+02 -0.20329825487E+02  0.22672547945E+02  0.36697168273E+02  0.10566000000E+00 0.  1.
         23    2    1    0    0    0 -0.73053053680E+01  0.56082478368E+01 -0.25400798576E+02  0.97981108486E+02  0.94182148636E+02 0.  0.
         13    1    3    3    0    0 -0.27782726118E+02  0.25938073324E+02 -0.48073346521E+02  0.61283940213E+02  0.10566000000E+00 0. -1.
         22    1    1    0    0    0  0.73053053680E+01 -0.56082478368E+01  0.25400798576E+02  0.27018891514E+02  0.00000000000E+00 0. -1.
</event>
<event>
 5    1  0.1245581E-004  0.9118800E+02  0.7818608E-02  0.1130116E+00
         25   -1    0    0    0    0  0.00000000000E+00  0.00000000000E+00  0.99999998245E-14  0.12500000000E+03  0.12500000000E+03 0.  0.
        -13    1    3    3    0    0 -0.46954547479E+02  0.31131593104E+02  0.27010592539E+02  0.62477907228E+02  0.10566000000E+00 0. -1.
         23    2    1    0    0    0 -0.22235610762E+02  0.16083308510E+02  0.12749384671E+02  0.94740422870E+02  0.89778091523E+02 0.  0.
         13    1    3    3    0    0  0.24718936717E+02 -0.15048284595E+02 -0.14261207868E+02  0.32262515642E+02  0.10566000000E+00 0.  1.
         22    1    1    0    0    0  0.22235610762E+02 -0.16083308510E+02 -0.12749384671E+02  0.30259577130E+02  0.00000000000E+00 0. -1.
</event>
<event>
 5    1  0.1245581E-004  0.9118800E+02  0.7818608E-02  0.1130116E+00
         25   -1    0    0    0    0  0.00000000000E+00  0.00000000000E+00  0.99999998245E-14  0.12500000000E+03  0.12500000000E+03 0.  0.
        -13    1    3    3    0    0  0.36236568024E+02 -0.14661614463E+02 -0.39732399199E+01  0.39291851577E+02  0.10566000000E+00 0. -1.
         23    2    1    0    0    0 -0.92833993597E+01 -0.56041389167E+01 -0.30416230986E+02  0.92708592721E+02  0.86903096494E+02 0.  0.
         13    1    3    3    0    0 -0.45519967384E+02  0.90574755459E+01 -0.26442991066E+02  0.53416741144E+02  0.10566000000E+00 0.  1.
         22    1    1    0    0    0  0.92833993597E+01  0.56041389167E+01  0.30416230986E+02  0.32291407279E+02  0.00000000000E+00 0.  1.
</event>
<event>
 5    1  0.1245581E-004  0.9118800E+02  0.7818608E-02  0.1130116E+00
         25   -1    0    0    0    0  0.00000000000E+00  0.00000000000E+00  0.99999998245E-14  0.12500000000E+03  0.12500000000E+03 0.  0.
        -13    1    3    3    0    0 -0.49319579591E+02  0.66131796553E+01 -0.16358907470E+02  0.52381104359E+02  0.10566000000E+00 0.  1.
         23    2    1    0    0    0 -0.18990880835E+02  0.16014427158E+02  0.14146203362E+02  0.96412756313E+02  0.92077082264E+02 0.  0.
         13    1    3    3    0    0  0.30328698756E+02  0.94012475028E+01  0.30505110832E+02  0.44031651954E+02  0.10566000000E+00 0. -1.
         22    1    1    0    0    0  0.18990880835E+02 -0.16014427158E+02 -0.14146203362E+02  0.28587243687E+02  0.00000000000E+00 0. -1.
</event>
<event>
 5    1  0.1245581E-004  0.9118800E+02  0.7818608E-02  0.1130116E+00
         25   -1    0    0    0    0  0.00000000000E+00  0.00000000000E+00  0.99999998245E-14  0.12500000000E+03  0.12500000000E+03 0.  0.
        -13    1    3    3    0    0  0.39512590175E+02  0.29908937670E+02  0.95525819209E+00  0.49565240009E+02  0.10566000000E+00 0.  1.
         23    2    1    0    0    0  0.30173038554E+01  0.13263490282E+02  0.25148455537E+02  0.96408583231E+02  0.92071416887E+02 0.  0.
         13    1    3    3    0    0 -0.36495286320E+02 -0.16645447389E+02  0.24193197345E+02  0.46843343221E+02  0.10566000000E+00 0. -1.
         22    1    1    0    0    0 -0.30173038554E+01 -0.13263490282E+02 -0.25148455537E+02  0.28591416769E+02  0.00000000000E+00 0. -1.
</event>
<event>
 5    1  0.1245581E-004  0.9118800E+02  0.7818608E-02  0.1130116E+00
         25   -1    0    0    0    0  0.00000000000E+00  0.00000000000E+00  0.99999998245E-14  0.12500000000E+03  0.12500000000E+03 0.  0.
        -13    1    3    3    0    0  0.45142489934E+01 -0.54400632754E+02 -0.21411860911E+02  0.58636901690E+02  0.10566000000E+00 0.  1.
         23    2    1    0    0    0  0.17204134541E+02 -0.22261166218E+02 -0.75288732881E+01  0.95875685421E+02  0.91345067493E+02 0.  0.
         13    1    3    3    0    0  0.12689885548E+02  0.32139466536E+02  0.13882987623E+02  0.37238783732E+02  0.10566000000E+00 0. -1.
         22    1    1    0    0    0 -0.17204134541E+02  0.22261166218E+02  0.75288732881E+01  0.29124314579E+02  0.00000000000E+00 0.  1.
</event>
<event>
 5    1  0.1245581E-004  0.9118800E+02  0.7818608E-02  0.1130116E+00
         25   -1    0    0    0    0  0.00000000000E+00  0.00000000000E+00  0.99999998245E-14  0.12500000000E+03  0.12500000000E+03 0.  0.
        -13    1    3    3    0    0  0.11733283275E+02  0.55394874586E+02 -0.20057074462E+01  0.56659474876E+02  0.10566000000E+00 0. -1.
         23    2    1    0    0    0  0.20341315408E+02  0.19393072297E+02  0.93535675827E+01  0.95379912354E+02  0.90664094814E+02 0.  0.
         13    1    3    3    0    0  0.86080321337E+01 -0.36001802289E+02  0.11359275029E+02  0.38720437478E+02  0.10566000000E+00 0.  1.
         22    1    1    0    0    0 -0.20341315408E+02 -0.19393072297E+02 -0.93535675827E+01  0.29620087646E+02  0.00000000000E+00 0. -1.
</event>
<event>
 5    1  0.1245581E-004  0.9118800E+02  0.7818608E-02  0.1130116E+00
         25   -1    0    0    0    0  0.00000000000E+00  0.00000000000E+00  0.99999998245E-14  0.12500000000E+03  0.12500000000E+03 0.  0.
        -13    1    3    3    0    0  0.14034534524E+02 -0.43476260040E+02  0.18055550414E+02  0.49124000357E+02  0.10566000000E+00 0. -1.
         23    2    1    0    0    0  0.17777227604E+02  0.28753606042E+01  0.22887812523E+02  0.95876993940E+02  0.91346858101E+02 0.  0.
         13    1    3    3    0    0  0.37426930795E+01  0.46351620644E+02  0.48322621094E+01  0.46752993582E+02  0.10566000000E+00 0.  1.
         22    1    1    0    0    0 -0.17777227604E+02 -0.28753606042E+01 -0.22887812523E+02  0.29123006060E+02  0.00000000000E+00 0. -1.
</event>
<event>
 5    1  0.1245581E-004  0.9118800E+02  0.7818608E-02  0.1130116E+00
         25   -1    0    0    0    0  0.00000000000E+00  0.00000000000E+00  0.99999998245E-14  0.12500000000E+03  0.12500000000E+03 0.  0.
        -13    1    3    3    0    0 -0.52020274798E+02 -0.24276960691E+02  0.69846458037E+00  0.57410615980E+02  0.10566000000E+00 0. -1.
         23    2    1    0    0    0 -0.17557966577E+02 -0.16438876702E+02 -0.15601378525E+02  0.96330820217E+02  0.91965781975E+02 0.  0.
         13    1    3    3    0    0  0.34462308221E+02  0.78380839890E+01 -0.16299843106E+02  0.38920204237E+02  0.10566000000E+00 0.  1.
         22    1    1    0    0    0  0.17557966577E+02  0.16438876702E+02  0.15601378525E+02  0.28669179783E+02  0.00000000000E+00 0. -1.
</event>
<event>
 5    1  0.1245581E-004  0.9118800E+02  0.7818608E-02  0.1130116E+00
         25   -1    0    0    0    0  0.00000000000E+00  0.00000000000E+00  0.99999998245E-14  0.12500000000E+03  0.12500000000E+03 0.  0.
        -13    1    3    3    0    0 -0.30325349077E+02  0.81736171090E+01  0.20225893069E+02  0.37356829734E+02  0.10566000000E+00 0. -1.
         23    2    1    0    0    0  0.38468590657E+00 -0.21195911045E+02 -0.19989172354E+02  0.95862710495E+02  0.91327310394E+02 0.  0.
         13    1    3    3    0    0  0.30710034984E+02 -0.29369528154E+02 -0.40215065423E+02  0.58505880762E+02  0.10566000000E+00 0.  1.
         22    1    1    0    0    0 -0.38468590657E+00  0.21195911045E+02  0.19989172354E+02  0.29137289505E+02  0.00000000000E+00 0.  1.
</event>
<event>
 5    1  0.1245581E-004  0.9118800E+02  0.7818608E-02  0.1130116E+00
         25   -1    0    0    0    0  0.00000000000E+00  0.00000000000E+00  0.99999998245E-14  0.12500000000E+03  0.12500000000E+03 0.  0.
        -13    1    3    3    0    0 -0.28856711503E+02  0.52089515726E+02  0.18513187305E+02  0.62360057052E+02  0.10566000000E+00 0. -1.
         23    2    1    0    0    0 -0.11445247270E+02  0.26014185837E+02  0.10280170483E+02  0.94777269234E+02  0.89829378871E+02 0.  0.
         13    1    3    3    0    0  0.17411464233E+02 -0.26075329889E+02 -0.82330168222E+01  0.32417212181E+02  0.10566000000E+00 0.  1.
         22    1    1    0    0    0  0.11445247270E+02 -0.26014185837E+02 -0.10280170483E+02  0.30222730766E+02  0.00000000000E+00 0. -1.
</event>
<event>
 5    1  0.1245581E-004  0.9118800E+02  0.7818608E-02  0.1130116E+00
         25   -1    0    0    0    0  0.00000000000E+00  0.00000000000E+00  0.99999998245E-14  0.12500000000E+03  0.12500000000E+03 0.  0.
        -13    1    3    3    0    0 -0.37511970792E+02  0.28060384333E+02  0.33024477975E+02  0.57316319065E+02  0.10566000000E+00 0. -1.
         23    2    1    0    0    0 -0.54439700530E+01  0.26030101654E+02  0.11288079246E+02  0.96110144772E+02  0.91665348922E+02 0.  0.
         13    1    3    3    0    0  0.32068000740E+02 -0.20302826793E+01 -0.21736398729E+02  0.38793825706E+02  0.10566000000E+00 0.  1.
         22    1    1    0    0    0  0.54439700530E+01 -0.26030101654E+02 -0.11288079246E+02  0.28889855228E+02  0.00000000000E+00 0. -1.
</event>
<event>
 5    1  0.1245581E-004  0.9118800E+02  0.7818608E-02  0.1130116E+00
         25   -1    0    0    0    0  0.00000000000E+00  0.00000000000E+00  0.99999998245E-14  0.12500000000E+03  0.12500000000E+03 0.  0.
        -13    1    3    3    0    0  0.30826176530E+01  0.16244116564E+02 -0.32996525565E+02  0.36907393811E+02  0.10566000000E+00 0.  1.
         23    2    1    0    0    0 -0.79387368787E+01 -0.29537360553E+02  0.13016101174E-01  0.94414392582E+02  0.89322998973E+02 0.  0.
         13    1    3    3    0    0 -0.11021354532E+02 -0.45781477117E+02  0.33009541666E+02  0.57506998772E+02  0.10566000000E+00 0. -1.
         22    1    1    0    0    0  0.79387368787E+01  0.29537360553E+02 -0.13016101174E-01  0.30585607418E+02  0.00000000000E+00 0. -1.
</event>
<event>
 5    1  0.1245581E-004  0.9118800E+02  0.7818608E-02  0.1130116E+00
         25   -1    0    0    0    0  0.00000000000E+00  0.00000000000E+00  0.99999998245E-14  0.12500000000E+03  0.12500000000E+03 0.  0.
        -13    1    3    3    0    0 -0.25923162576E+02 -0.12395338729E+01 -0.24937067054E+02  0.35991877965E+02  0.10566000000E+00 0.  1.
         23    2    1    0    0    0 -0.16527473366E+02 -0.80227744283E+01  0.28731219523E+02  0.90897137060E+02  0.84257250519E+02 0.  0.
         13    1    3    3    0    0  0.93956892094E+01 -0.67832405554E+01  0.53668286577E+02  0.54905259095E+02  0.10566000000E+00 0. -1.
         22    1    1    0    0    0  0.16527473366E+02  0.80227744283E+01 -0.28731219523E+02  0.34102862940E+02  0.00000000000E+00 0. -1.
</event>
<event>
 5    1  0.1245581E-004  0.9118800E+02  0.7818608E-02  0.1130116E+00
         25   -1    0    0    0    0  0.00000000000E+00  0.00000000000E+00  0.99999998245E-14  0.12500000000E+03  0.12500000000E+03 0.  0.
        -13    1    3    3    0    0 -0.35463895658E+02  0.99692657186E+00  0.35950654954E+02  0.50508835994E+02  0.10566000000E+00 0. -1.
         23    2    1    0    0    0 -0.25496500867E+02  0.11156512161E+02 -0.74548335878E+01  0.96188303349E+02  0.91771868442E+02 0.  0.
         13    1    3    3    0    0  0.99673947913E+01  0.10159585589E+02 -0.43405488542E+02  0.45679467355E+02  0.10566000000E+00 0.  1.
         22    1    1    0    0    0  0.25496500867E+02 -0.11156512161E+02  0.74548335878E+01  0.28811696651E+02  0.00000000000E+00 0.  1.
</event>
<event>
 5    1  0.1245581E-004  0.9118800E+02  0.7818608E-02  0.1130116E+00
         25   -1    0    0    0    0  0.00000000000E+00  0.00000000000E+00  0.99999998245E-14  0.12500000000E+03  0.12500000000E+03 0.  0.
        -13    1    3    3    0    0  0.30871063396E+02 -0.40167098210E+01  0.15823407588E+02  0.34922026068E+02  0.10566000000E+00 0. -1.
         23    2    1    0    0    0 -0.18122481621E+02  0.25591115396E+02  0.73646385901E+01  0.92788706501E+02  0.87018254552E+02 0.  0.
         13    1    3    3    0    0 -0.48993545017E+02  0.29607825217E+02 -0.84587689978E+01  0.57866680433E+02  0.10566000000E+00 0.  1.
         22    1    1    0    0    0  0.18122481621E+02 -0.25591115396E+02 -0.73646385901E+01  0.32211293499E+02  0.00000000000E+00 0.  1.
</event>
<event>
 5    1  0.1245581E-004  0.9118800E+02  0.7818608E-02  0.1130116E+00
         25   -1    0    0    0    0  0.00000000000E+00  0.00000000000E+00  0.99999998245E-14  0.12500000000E+03  0.12500000000E+03 0.  0.
        -13    1    3    3    0    0 -0.21377612749E+02 -0.31099727833E+02  0.13714236011E+02  0.40153291665E+02  0.10566000000E+00 0. -1.
         23    2    1    0    0    0 -0.15437345236E+01 -0.18491571210E+01 -0.29174079638E+02  0.95726643153E+02  0.91140884285E+02 0.  0.
         13    1    3    3    0    0  0.19833878225E+02  0.29250570712E+02 -0.42888315649E+02  0.55573351489E+02  0.10566000000E+00 0.  1.
         22    1    1    0    0    0  0.15437345236E+01  0.18491571210E+01  0.29174079638E+02  0.29273356847E+02  0.00000000000E+00 0.  1.
</event>
<event>
 5    1  0.1245581E-004  0.9118800E+02  0.7818608E-02  0.1130116E+00
         25   -1    0    0    0    0  0.00000000000E+00  0.00000000000E+00  0.99999998245E-14  0.12500000000E+03  0.12500000000E+03 0.  0.
        -13    1    3    3    0    0 -0.34904259211E+02  0.60746389412E+00  0.23646883181E+02  0.42164707655E+02  0.10566000000E+00 0.  1.
         23    2    1    0    0    0  0.68157146850E+01 -0.26783038978E+02  0.65682449735E-01  0.97363258916E+02  0.93358527886E+02 0.  0.
         13    1    3    3    0    0  0.41719973896E+02 -0.27390502872E+02 -0.23581200731E+02  0.55198551261E+02  0.10566000000E+00 0. -1.
         22    1    1    0    0    0 -0.68157146850E+01  0.26783038978E+02 -0.65682449735E-01  0.27636741084E+02  0.00000000000E+00 0. -1.
</event>
<event>
 5    1  0.1245581E-004  0.9118800E+02  0.7818608E-02  0.1130116E+00
         25   -1    0    0    0    0  0.00000000000E+00  0.00000000000E+00  0.99999998245E-14  0.12500000000E+03  0.12500000000E+03 0.  0.
        -13    1    3    3    0    0  0.42274283669E+02 -0.44254307447E+02  0.97406086115E+01  0.61971359574E+02  0.10566000000E+00 0.  1.
         23    2    1    0    0    0  0.15662620016E+02 -0.23260755048E+02  0.76563348857E+01  0.95931118785E+02  0.91420893106E+02 0.  0.
         13    1    3    3    0    0 -0.26611663652E+02  0.20993552399E+02 -0.20842737258E+01  0.33959759211E+02  0.10566000000E+00 0. -1.
         22    1    1    0    0    0 -0.15662620016E+02  0.23260755048E+02 -0.76563348857E+01  0.29068881215E+02  0.00000000000E+00 0.  1.
</event>
<event>
 5    1  0.1245581E-004  0.9118800E+02  0.7818608E-02  0.1130116E+00
         25   -1    0    0    0    0  0.00000000000E+00  0.00000000000E+00  0.99999998245E-14  0.12500000000E+03  0.12500000000E+03 0.  0.
        -13    1    3    3    0    0 -0.18663369927E+02  0.58222057849E+01 -0.46023588045E+02  0.50004012617E+02  0.10566000000E+00 0.  1.
         23    2    1    0    0    0  0.19471055937E+02 -0.56349749609E+00 -0.22399449484E+02  0.95315409959E+02  0.90575120700E+02 0.  0.
         13    1    3    3    0    0  0.38134425863E+02 -0.63857032810E+01  0.23624138561E+02  0.45311397342E+02  0.10566000000E+00 0. -1.
         22    1    1    0    0    0 -0.19471055937E+02  0.56349749609E+00  0.22399449484E+02  0.29684590041E+02  0.00000000000E+00 0.  1.
</event>
<event>
 5    1  0.1245581E-004  0.9118800E+02  0.7818608E-02  0.1130116E+00
         25   -1    0    0    0    0  0.00000000000E+00  0.00000000000E+00  0.99999998245E-14  0.12500000000E+03  0.12500000000E+03 0.  0.
        -13    1    3    3    0    0 -0.50056520482E+02 -0.14485845862E+02  0.26809987759E+02  0.58602743799E+02  0.10566000000E+00 0.  1.
         23    2    1    0    0    0 -0.27635062600E+02 -0.47097038358E+01 -0.25894711103E+01  0.96847143027E+02  0.92664911141E+02 0.  0.
         13    1    3    3    0    0  0.22421457882E+02  0.97761420260E+01 -0.29399458869E+02  0.38244399228E+02  0.10566000000E+00 0. -1.
         22    1    1    0    0    0  0.27635062600E+02  0.47097038358E+01  0.25894711103E+01  0.28152856973E+02  0.00000000000E+00 0.  1.
</event>
<event>
 5    1  0.1245581E-004  0.9118800E+02  0.7818608E-02  0.1130116E+00
         25   -1    0    0    0    0  0.00000000000E+00  0.00000000000E+00  0.99999998245E-14  0.12500000000E+03  0.12500000000E+03 0.  0.
        -13    1    3    3    0    0  0.12939826694E+02 -0.13505723236E+02 -0.21996042079E+02  0.28873529507E+02  0.10566000000E+00 0.  1.
         23    2    1    0    0    0  0.25120680269E+02  0.19801700654E+02  0.22587128638E+02  0.85842187164E+02  0.76390750691E+02 0.  0.
         13    1    3    3    0    0  0.12180853575E+02  0.33307423890E+02  0.44583170717E+02  0.56968657657E+02  0.10566000000E+00 0. -1.
         22    1    1    0    0    0 -0.25120680269E+02 -0.19801700654E+02 -0.22587128638E+02  0.39157812836E+02  0.00000000000E+00 0. -1.
</event>
<event>
 5    1  0.1245581E-004  0.9118800E+02  0.7818608E-02  0.1130116E+00
         25   -1    0    0    0    0  0.00000000000E+00  0.00000000000E+00  0.99999998245E-14  0.12500000000E+03  0.12500000000E+03 0.  0.
        -13    1    3    3    0    0  0.15955992667E+02 -0.26024602075E+02  0.30839769111E+02  0.43393272958E+02  0.10566000000E+00 0.  1.
         23    2    1    0    0    0 -0.14626992564E+02  0.14890494325E+02  0.20955523092E+02  0.95422818242E+02  0.90723230545E+02 0.  0.
         13    1    3    3    0    0 -0.30582985231E+02  0.40915096400E+02 -0.98842460190E+01  0.52029545284E+02  0.10566000000E+00 0. -1.
         22    1    1    0    0    0  0.14626992564E+02 -0.14890494325E+02 -0.20955523092E+02  0.29577181758E+02  0.00000000000E+00 0. -1.
</event>
<event>
 5    1  0.1245581E-004  0.9118800E+02  0.7818608E-02  0.1130116E+00
         25   -1    0    0    0    0  0.00000000000E+00  0.00000000000E+00  0.99999998245E-14  0.12500000000E+03  0.12500000000E+03 0.  0.
        -13    1    3    3    0    0  0.12117562980E+02  0.28479565796E+02  0.18924837746E+02  0.36277839630E+02  0.10566000000E+00 0. -1.
         23    2    1    0    0    0 -0.24974222585E+02 -0.13586369110E+02 -0.28212908272E+01  0.96429719966E+02  0.92100108531E+02 0.  0.
         13    1    3    3    0    0 -0.37091785565E+02 -0.42065934906E+02 -0.21746128573E+02  0.60151880335E+02  0.10566000000E+00 0.  1.
         22    1    1    0    0    0  0.24974222585E+02  0.13586369110E+02  0.28212908272E+01  0.28570280034E+02  0.00000000000E+00 0.  1.
</event>
<event>
 5    1  0.1245581E-004  0.9118800E+02  0.7818608E-02  0.1130116E+00
         25   -1    0    0    0    0  0.00000000000E+00  0.00000000000E+00  0.99999998245E-14  0.12500000000E+03  0.12500000000E+03 0.  0.
        -13    1    3    3    0    0  0.71655394002E+00 -0.33497909590E+02 -0.84077512201E+01  0.34544534170E+02  0.10566000000E+00 0.  1.
         23    2    1    0    0    0  0.13887398645E+01  0.25052591187E+02  0.12814269861E+02  0.96826139142E+02  0.92636573693E+02 0.  0.
         13    1    3    3    0    0  0.67218592446E+00  0.58550500776E+02  0.21222021081E+02  0.62281604972E+02  0.10566000000E+00 0. -1.
         22    1    1    0    0    0 -0.13887398645E+01 -0.25052591187E+02 -0.12814269861E+02  0.28173860858E+02  0.00000000000E+00 0. -1.
</event>
<event>
 5    1  0.1245581E-004  0.9118800E+02  0.7818608E-02  0.1130116E+00
         25   -1    0    0    0    0  0.00000000000E+00  0.00000000000E+00  0.99999998245E-14  0.12500000000E+03  0.12500000000E+03 0.  0.
        -13    1    3    3    0    0  0.21835829861E+01  0.36073013771E+02 -0.28820092953E+01  0.36253930805E+02  0.10566000000E+00 0. -1.
         23    2    1    0    0    0  0.10767292918E+02 -0.83971547228E+01  0.29876998582E+02  0.92150618750E+02  0.86096775128E+02 0.  0.
         13    1    3    3    0    0  0.85837099316E+01 -0.44470168494E+02  0.32759007878E+02  0.55896687945E+02  0.10566000000E+00 0.  1.
         22    1    1    0    0    0 -0.10767292918E+02  0.83971547228E+01 -0.29876998582E+02  0.32849381250E+02  0.00000000000E+00 0.  1.
</event>
<event>
 5    1  0.1245581E-004  0.9118800E+02  0.7818608E-02  0.1130116E+00
         25   -1    0    0    0    0  0.00000000000E+00  0.00000000000E+00  0.99999998245E-14  0.12500000000E+03  0.12500000000E+03 0.  0.
        -13    1    3    3    0    0 -0.26990640832E+02 -0.45564793712E+00 -0.48554234859E+02  0.55553822500E+02  0.10566000000E+00 0.  1.
         23    2    1    0    0    0 -0.21358377473E+02 -0.14764783559E+02 -0.98008267086E+01  0.97246886193E+02  0.93202583378E+02 0.  0.
         13    1    3    3    0    0  0.56322633596E+01 -0.14309135622E+02  0.38753408151E+02  0.41693063693E+02  0.10566000000E+00 0. -1.
         22    1    1    0    0    0  0.21358377473E+02  0.14764783559E+02  0.98008267086E+01  0.27753113807E+02  0.00000000000E+00 0.  1.
</event>
<event>
 5    1  0.1245581E-004  0.9118800E+02  0.7818608E-02  0.1130116E+00
         25   -1    0    0    0    0  0.00000000000E+00  0.00000000000E+00  0.99999998245E-14  0.12500000000E+03  0.12500000000E+03 0.  0.
        -13    1    3    3    0    0 -0.11730791021E+01 -0.10165208433E+02 -0.38574770668E+02  0.39909042499E+02  0.10566000000E+00 0. -1.
         23    2    1    0    0    0 -0.27944796194E+02 -0.14058073571E+02  0.70335044317E+01  0.92937385455E+02  0.87231567473E+02 0.  0.
         13    1    3    3    0    0 -0.26771717092E+02 -0.38928651381E+01  0.45608275100E+02  0.53028342956E+02  0.10566000000E+00 0.  1.
         22    1    1    0    0    0  0.27944796194E+02  0.14058073571E+02 -0.70335044317E+01  0.32062614545E+02  0.00000000000E+00 0. -1.
</event>
<event>
 5    1  0.1245581E-004  0.9118800E+02  0.7818608E-02  0.1130116E+00
         25   -1    0    0    0    0  0.00000000000E+00  0.00000000000E+00  0.99999998245E-14  0.12500000000E+03  0.12500000000E+03 0.  0.
        -13    1    3    3    0    0  0.32108743615E+02  0.20257499264E+02  0.25552145663E+02  0.45763096540E+02  0.10566000000E+00 0.  1.
         23    2    1    0    0    0 -0.59022568467E-01  0.25298890998E+02 -0.13269899267E+02  0.96432052997E+02  0.92103274911E+02 0.  0.
         13    1    3    3    0    0 -0.32167766184E+02  0.50413917345E+01 -0.38822044929E+02  0.50668956457E+02  0.10566000000E+00 0. -1.
         22    1    1    0    0    0  0.59022568467E-01 -0.25298890998E+02  0.13269899267E+02  0.28567947003E+02  0.00000000000E+00 0. -1.
</event>
<event>
 5    1  0.1245581E-004  0.9118800E+02  0.7818608E-02  0.1130116E+00
         25   -1    0    0    0    0  0.00000000000E+00  0.00000000000E+00  0.99999998245E-14  0.12500000000E+03  0.12500000000E+03 0.  0.
        -13    1    3    3    0    0  0.38974506416E+02 -0.35917554003E+01  0.11660121230E+02  0.40839716556E+02  0.10566000000E+00 0. -1.
         23    2    1    0    0    0 -0.41032709035E+01 -0.23128092469E+02 -0.16871583587E+02  0.96079491254E+02  0.91623538534E+02 0.  0.
         13    1    3    3    0    0 -0.43077777320E+02 -0.19536337069E+02 -0.28531704817E+02  0.55239774698E+02  0.10566000000E+00 0.  1.
         22    1    1    0    0    0  0.41032709035E+01  0.23128092469E+02  0.16871583587E+02  0.28920508746E+02  0.00000000000E+00 0.  1.
</event>
<event>
 5    1  0.1245581E-004  0.9118800E+02  0.7818608E-02  0.1130116E+00
         25   -1    0    0    0    0  0.00000000000E+00  0.00000000000E+00  0.99999998245E-14  0.12500000000E+03  0.12500000000E+03 0.  0.
        -13    1    3    3    0    0 -0.29209139583E+02 -0.27279007552E+02 -0.14075287578E+02  0.42372667755E+02  0.10566000000E+00 0. -1.
         23    2    1    0    0    0 -0.20171493483E+02  0.61418311024E+00  0.26036317424E+02  0.92058290949E+02  0.85962624071E+02 0.  0.
         13    1    3    3    0    0  0.90376460992E+01  0.27893190663E+02  0.40111605001E+02  0.49685623194E+02  0.10566000000E+00 0.  1.
         22    1    1    0    0    0  0.20171493483E+02 -0.61418311024E+00 -0.26036317424E+02  0.32941709051E+02  0.00000000000E+00 0. -1.
</event>
<event>
 5    1  0.1245581E-004  0.9118800E+02  0.7818608E-02  0.1130116E+00
         25   -1    0    0    0    0  0.00000000000E+00  0.00000000000E+00  0.99999998245E-14  0.12500000000E+03  0.12500000000E+03 0.  0.
        -13    1    3    3    0    0  0.30402973735E+02  0.88526511483E+01 -0.20264911280E+02  0.37595053365E+02  0.10566000000E+00 0.  1.
         23    2    1    0    0    0  0.27197607981E+02 -0.99216609620E+01  0.25028580503E+02  0.86730180584E+02  0.77830232853E+02 0.  0.
         13    1    3    3    0    0 -0.32053657544E+01 -0.18774312110E+02  0.45293491784E+02  0.49135127219E+02  0.10566000000E+00 0. -1.
         22    1    1    0    0    0 -0.27197607981E+02  0.99216609620E+01 -0.25028580503E+02  0.38269819416E+02  0.00000000000E+00 0. -1.
</event>
<event>
 5    1  0.1245581E-004  0.9118800E+02  0.7818608E-02  0.1130116E+00
         25   -1    0    0    0    0  0.00000000000E+00  0.00000000000E+00  0.99999998245E-14  0.12500000000E+03  0.12500000000E+03 0.  0.
        -13    1    3    3    0    0  0.16786037729E+02 -0.57761790896E+02 -0.32435759819E+00  0.60152405788E+02  0.10566000000E+00 0.  1.
         23    2    1    0    0    0  0.18856139060E+02 -0.21974199451E+02 -0.13289211320E+01  0.96014047314E+02  0.91534211246E+02 0.  0.
         13    1    3    3    0    0  0.20701013305E+01  0.35787591445E+02 -0.10045635338E+01  0.35861641525E+02  0.10566000000E+00 0. -1.
         22    1    1    0    0    0 -0.18856139060E+02  0.21974199451E+02  0.13289211320E+01  0.28985952686E+02  0.00000000000E+00 0.  1.
</event>
<event>
 5    1  0.1245581E-004  0.9118800E+02  0.7818608E-02  0.1130116E+00
         25   -1    0    0    0    0  0.00000000000E+00  0.00000000000E+00  0.99999998245E-14  0.12500000000E+03  0.12500000000E+03 0.  0.
        -13    1    3    3    0    0  0.47659265726E+02 -0.29402231266E+02 -0.22746422303E+02  0.60442598427E+02  0.10566000000E+00 0.  1.
         23    2    1    0    0    0  0.27980407138E+02 -0.50191224301E+01 -0.60915929095E+01  0.95927637217E+02  0.91416132626E+02 0.  0.
         13    1    3    3    0    0 -0.19678858588E+02  0.24383108835E+02  0.16654829394E+02  0.35485038791E+02  0.10566000000E+00 0. -1.
         22    1    1    0    0    0 -0.27980407138E+02  0.50191224301E+01  0.60915929095E+01  0.29072362783E+02  0.00000000000E+00 0.  1.
</event>
<event>
 5    1  0.1245581E-004  0.9118800E+02  0.7818608E-02  0.1130116E+00
         25   -1    0    0    0    0  0.00000000000E+00  0.00000000000E+00  0.99999998245E-14  0.12500000000E+03  0.12500000000E+03 0.  0.
        -13    1    3    3    0    0  0.37271616770E+01 -0.12566360267E+02 -0.36357066613E+02  0.38647802024E+02  0.10566000000E+00 0.  1.
         23    2    1    0    0    0  0.25166558047E+01  0.28236895553E+02  0.43758902322E+01  0.96315435471E+02  0.91944868632E+02 0.  0.
         13    1    3    3    0    0 -0.12105058723E+01  0.40803255820E+02  0.40732956846E+02  0.57667633447E+02  0.10566000000E+00 0. -1.
         22    1    1    0    0    0 -0.25166558047E+01 -0.28236895553E+02 -0.43758902322E+01  0.28684564529E+02  0.00000000000E+00 0. -1.
</event>
<event>
 5    1  0.1245581E-004  0.9118800E+02  0.7818608E-02  0.1130116E+00
         25   -1    0    0    0    0  0.00000000000E+00  0.00000000000E+00  0.99999998245E-14  0.12500000000E+03  0.12500000000E+03 0.  0.
        -13    1    3    3    0    0  0.18309132318E+02 -0.12390341119E+02 -0.32799994058E+02  0.39554970023E+02  0.10566000000E+00 0. -1.
         23    2    1    0    0    0 -0.28718416614E+02  0.85115428464E+00 -0.47858279879E+01  0.95873104080E+02  0.91341535021E+02 0.  0.
         13    1    3    3    0    0 -0.47027548932E+02  0.13241495404E+02  0.28014166070E+02  0.56318134057E+02  0.10566000000E+00 0.  1.
         22    1    1    0    0    0  0.28718416614E+02 -0.85115428464E+00  0.47858279879E+01  0.29126895920E+02  0.00000000000E+00 0.  1.
</event>
<event>
 5    1  0.1245581E-004  0.9118800E+02  0.7818608E-02  0.1130116E+00
         25   -1    0    0    0    0  0.00000000000E+00  0.00000000000E+00  0.99999998245E-14  0.12500000000E+03  0.12500000000E+03 0.  0.
        -13    1    3    3    0    0 -0.42550328287E+02  0.41226382491E+02  0.19814023735E+02  0.62472007741E+02  0.10566000000E+00 0. -1.
         23    2    1    0    0    0 -0.19687310333E+02  0.17422060869E+02  0.81925212540E+01  0.97463918261E+02  0.93493205984E+02 0.  0.
         13    1    3    3    0    0  0.22863017954E+02 -0.23804321622E+02 -0.11621502481E+02  0.34991910520E+02  0.10566000000E+00 0.  1.
         22    1    1    0    0    0  0.19687310333E+02 -0.17422060869E+02 -0.81925212540E+01  0.27536081739E+02  0.00000000000E+00 0. -1.
</event>
<event>
 5    1  0.1245581E-004  0.9118800E+02  0.7818608E-02  0.1130116E+00
         25   -1    0    0    0    0  0.00000000000E+00  0.00000000000E+00  0.99999998245E-14  0.12500000000E+03  0.12500000000E+03 0.  0.
        -13    1    3    3    0    0  0.34803321384E+02  0.13390712219E+02  0.55520618838E+00  0.37294795495E+02  0.10566000000E+00 0.  1.
         23    2    1    0    0    0 -0.67019400091E+01 -0.18434782524E+02  0.23483325074E+02  0.94402226174E+02  0.89305971488E+02 0.  0.
         13    1    3    3    0    0 -0.41505261393E+02 -0.31825494743E+02  0.22928118886E+02  0.57107430678E+02  0.10566000000E+00 0. -1.
         22    1    1    0    0    0  0.67019400091E+01  0.18434782524E+02 -0.23483325074E+02  0.30597773826E+02  0.00000000000E+00 0. -1.
</event>
<event>
 5    1  0.1245581E-004  0.9118800E+02  0.7818608E-02  0.1130116E+00
         25   -1    0    0    0    0  0.00000000000E+00  0.00000000000E+00  0.99999998245E-14  0.12500000000E+03  0.12500000000E+03 0.  0.
        -13    1    3    3    0    0  0.49879681441E+02 -0.27345808433E+02  0.14031991712E+02  0.58589110037E+02  0.10566000000E+00 0. -1.
         23    2    1    0    0    0  0.15211920789E+02 -0.14430479068E+02  0.19953443978E+02  0.96055549983E+02  0.91590870154E+02 0.  0.
         13    1    3    3    0    0 -0.34667760652E+02  0.12915329365E+02  0.59214522655E+01  0.37466439945E+02  0.10566000000E+00 0.  1.
         22    1    1    0    0    0 -0.15211920789E+02  0.14430479068E+02 -0.19953443978E+02  0.28944450017E+02  0.00000000000E+00 0. -1.
</event>
<event>
 5    1  0.1245581E-004  0.9118800E+02  0.7818608E-02  0.1130116E+00
         25   -1    0    0    0    0  0.00000000000E+00  0.00000000000E+00  0.99999998245E-14  0.12500000000E+03  0.12500000000E+03 0.  0.
        -13    1    3    3    0    0  0.40195896728E+02 -0.25496493143E+02 -0.32687162732E+02  0.57742904741E+02  0.10566000000E+00 0. -1.
         23    2    1    0    0    0  0.26612900519E+02  0.25892277664E+01 -0.94620963251E+01  0.96636610899E+02  0.92380478050E+02 0.  0.
         13    1    3    3    0    0 -0.13582996210E+02  0.28085720910E+02  0.23225066407E+02  0.38893706158E+02  0.10566000000E+00 0.  1.
         22    1    1    0    0    0 -0.26612900519E+02 -0.25892277664E+01  0.94620963251E+01  0.28363389101E+02  0.00000000000E+00 0. -1.
</event>
<event>
 5    1  0.1245581E-004  0.9118800E+02  0.7818608E-02  0.1130116E+00
         25   -1    0    0    0    0  0.00000000000E+00  0.00000000000E+00  0.99999998245E-14  0.12500000000E+03  0.12500000000E+03 0.  0.
        -13    1    3    3    0    0 -0.55696947460E+02  0.84669839929E+01 -0.18970475898E+02  0.59445183944E+02  0.10566000000E+00 0. -1.
         23    2    1    0    0    0 -0.25196313648E+02  0.16168373804E+02 -0.24898806845E+01  0.94958860895E+02  0.90081714147E+02 0.  0.
         13    1    3    3    0    0  0.30500633812E+02  0.77013898107E+01  0.16480595214E+02  0.35513676951E+02  0.10566000000E+00 0.  1.
         22    1    1    0    0    0  0.25196313648E+02 -0.16168373804E+02  0.24898806845E+01  0.30041139105E+02  0.00000000000E+00 0. -1.
</event>
<event>
 5    1  0.1245581E-004  0.9118800E+02  0.7818608E-02  0.1130116E+00
         25   -1    0    0    0    0  0.00000000000E+00  0.00000000000E+00  0.99999998245E-14  0.12500000000E+03  0.12500000000E+03 0.  0.
        -13    1    3    3    0    0  0.18208744320E+01  0.50827098626E+02  0.18029755353E+02  0.53961030203E+02  0.10566000000E+00 0. -1.
         23    2    1    0    0    0 -0.22066417677E+02  0.21647088460E+02  0.63076126441E+01  0.93451478559E+02  0.87965161511E+02 0.  0.
         13    1    3    3    0    0 -0.23887292109E+02 -0.29180010167E+02 -0.11722142708E+02  0.39490448356E+02  0.10566000000E+00 0.  1.
         22    1    1    0    0    0  0.22066417677E+02 -0.21647088460E+02 -0.63076126441E+01  0.31548521441E+02  0.00000000000E+00 0. -1.
</event>
<event>
 5    1  0.1245581E-004  0.9118800E+02  0.7818608E-02  0.1130116E+00
         25   -1    0    0    0    0  0.00000000000E+00  0.00000000000E+00  0.99999998245E-14  0.12500000000E+03  0.12500000000E+03 0.  0.
        -13    1    3    3    0    0  0.50126907938E+02 -0.14842567919E+02 -0.24282425352E+02  0.57642484913E+02  0.10566000000E+00 0.  1.
         23    2    1    0    0    0  0.29699371162E+02 -0.16236704098E+02 -0.30908365051E+02  0.79163221781E+02  0.64543051100E+02 0.  0.
         13    1    3    3    0    0 -0.20427536776E+02 -0.13941361795E+01 -0.66259396984E+01  0.21520736868E+02  0.10566000000E+00 0. -1.
         22    1    1    0    0    0 -0.29699371162E+02  0.16236704098E+02  0.30908365051E+02  0.45836778219E+02  0.00000000000E+00 0.  1.
</event>
<event>
 5    1  0.1245581E-004  0.9118800E+02  0.7818608E-02  0.1130116E+00
         25   -1    0    0    0    0  0.00000000000E+00  0.00000000000E+00  0.99999998245E-14  0.12500000000E+03  0.12500000000E+03 0.  0.
        -13    1    3    3    0    0 -0.22492526523E+02 -0.33070377684E+02 -0.12504492070E+02  0.41903903345E+02  0.10566000000E+00 0.  1.
         23    2    1    0    0    0 -0.36543062232E+02 -0.18392884384E+02  0.19394707221E+02  0.79724750013E+02  0.65621547552E+02 0.  0.
         13    1    3    3    0    0 -0.14050535708E+02  0.14677493300E+02  0.31899199290E+02  0.37820846668E+02  0.10566000000E+00 0. -1.
         22    1    1    0    0    0  0.36543062232E+02  0.18392884384E+02 -0.19394707221E+02  0.45275249987E+02  0.00000000000E+00 0. -1.
</event>
<event>
 5    1  0.1245581E-004  0.9118800E+02  0.7818608E-02  0.1130116E+00
         25   -1    0    0    0    0  0.00000000000E+00  0.00000000000E+00  0.99999998245E-14  0.12500000000E+03  0.12500000000E+03 0.  0.
        -13    1    3    3    0    0 -0.18185094787E+00 -0.25028783574E+02 -0.38846373878E+02  0.46211740981E+02  0.10566000000E+00 0. -1.
         23    2    1    0    0    0 -0.96677123109E+01 -0.34165381775E+02  0.23039619487E+01  0.89418456838E+02  0.82034225842E+02 0.  0.
         13    1    3    3    0    0 -0.94858613631E+01 -0.91365982003E+01  0.41150335827E+02  0.43206715857E+02  0.10566000000E+00 0.  1.
         22    1    1    0    0    0  0.96677123109E+01  0.34165381775E+02 -0.23039619487E+01  0.35581543162E+02  0.00000000000E+00 0.  1.
</event>
<event>
 5    1  0.1245581E-004  0.9118800E+02  0.7818608E-02  0.1130116E+00
         25   -1    0    0    0    0  0.00000000000E+00  0.00000000000E+00  0.99999998245E-14  0.12500000000E+03  0.12500000000E+03 0.  0.
        -13    1    3    3    0    0 -0.35567424245E+02 -0.44367488591E+01 -0.13829388681E+02  0.38418609595E+02  0.10566000000E+00 0. -1.
         23    2    1    0    0    0  0.70177754325E+01  0.29382314861E+02  0.96566877276E+00  0.94775802495E+02  0.89827337842E+02 0.  0.
         13    1    3    3    0    0  0.42585199678E+02  0.33819063720E+02  0.14795057453E+02  0.56357192900E+02  0.10566000000E+00 0.  1.
         22    1    1    0    0    0 -0.70177754325E+01 -0.29382314861E+02 -0.96566877276E+00  0.30224197505E+02  0.00000000000E+00 0.  1.
</event>
<event>
 5    1  0.1245581E-004  0.9118800E+02  0.7818608E-02  0.1130116E+00
         25   -1    0    0    0    0  0.00000000000E+00  0.00000000000E+00  0.99999998245E-14  0.12500000000E+03  0.12500000000E+03 0.  0.
        -13    1    3    3    0    0  0.24742783634E+02  0.16674614280E+02 -0.51648857170E+01  0.30280939745E+02  0.10566000000E+00 0.  1.
         23    2    1    0    0    0 -0.23630627192E+02 -0.21109600098E+02  0.62199857750E+01  0.92708979873E+02  0.86903653365E+02 0.  0.
         13    1    3    3    0    0 -0.48373410827E+02 -0.37784214379E+02  0.11384871492E+02  0.62428040127E+02  0.10566000000E+00 0. -1.
         22    1    1    0    0    0  0.23630627192E+02  0.21109600098E+02 -0.62199857750E+01  0.32291020127E+02  0.00000000000E+00 0. -1.
</event>
<event>
 5    1  0.1245581E-004  0.9118800E+02  0.7818608E-02  0.1130116E+00
         25   -1    0    0    0    0  0.00000000000E+00  0.00000000000E+00  0.99999998245E-14  0.12500000000E+03  0.12500000000E+03 0.  0.
        -13    1    3    3    0    0  0.16911711590E+02 -0.41740614751E+01  0.45953702709E+02  0.49144508695E+02  0.10566000000E+00 0.  1.
         23    2    1    0    0    0 -0.20631787881E+02  0.55688059579E+01  0.19278234956E+02  0.96219231873E+02  0.91813985689E+02 0.  0.
         13    1    3    3    0    0 -0.37543499472E+02  0.97428674330E+01 -0.26675467753E+02  0.47074723178E+02  0.10566000000E+00 0. -1.
         22    1    1    0    0    0  0.20631787881E+02 -0.55688059579E+01 -0.19278234956E+02  0.28780768127E+02  0.00000000000E+00 0. -1.
</event>
<event>
 5    1  0.1245581E-004  0.9118800E+02  0.7818608E-02  0.1130116E+00
         25   -1    0    0    0    0  0.00000000000E+00  0.00000000000E+00  0.99999998245E-14  0.12500000000E+03  0.12500000000E+03 0.  0.
        -13    1    3    3    0    0 -0.20875945534E+02  0.11865702020E+02  0.23832205807E+02  0.33831718609E+02  0.10566000000E+00 0. -1.
         23    2    1    0    0    0  0.14488993698E+02 -0.18893267728E+01 -0.25223051100E+02  0.95850337896E+02  0.91310374405E+02 0.  0.
         13    1    3    3    0    0  0.35364939232E+02 -0.13755028793E+02 -0.49055256907E+02  0.62018619286E+02  0.10566000000E+00 0.  1.
         22    1    1    0    0    0 -0.14488993698E+02  0.18893267728E+01  0.25223051100E+02  0.29149662104E+02  0.00000000000E+00 0.  1.
</event>
<event>
 5    1  0.1245581E-004  0.9118800E+02  0.7818608E-02  0.1130116E+00
         25   -1    0    0    0    0  0.00000000000E+00  0.00000000000E+00  0.99999998245E-14  0.12500000000E+03  0.12500000000E+03 0.  0.
        -13    1    3    3    0    0 -0.37846869537E+02  0.13387793799E+02 -0.15579743417E+02  0.43062258714E+02  0.10566000000E+00 0. -1.
         23    2    1    0    0    0  0.14915701280E+02  0.14624298317E+02 -0.20072272950E+02  0.96030284997E+02  0.91556382898E+02 0.  0.
         13    1    3    3    0    0  0.52762570817E+02  0.12365045177E+01 -0.44925295336E+01  0.52968026283E+02  0.10566000000E+00 0.  1.
         22    1    1    0    0    0 -0.14915701280E+02 -0.14624298317E+02  0.20072272950E+02  0.28969715003E+02  0.00000000000E+00 0.  1.
</event>
<event>
 5    1  0.1245581E-004  0.9118800E+02  0.7818608E-02  0.1130116E+00
         25   -1    0    0    0    0  0.00000000000E+00  0.00000000000E+00  0.99999998245E-14  0.12500000000E+03  0.12500000000E+03 0.  0.
        -13    1    3    3    0    0  0.21035365377E+01 -0.22102813473E+02 -0.30697248970E+02  0.37885241028E+02  0.10566000000E+00 0. -1.
         23    2    1    0    0    0  0.11577086860E+02 -0.89587771379E+01  0.25075772091E+02  0.95964108866E+02  0.91465989397E+02 0.  0.
         13    1    3    3    0    0  0.94735503227E+01  0.13144036335E+02  0.55773021062E+02  0.58078867837E+02  0.10566000000E+00 0.  1.
         22    1    1    0    0    0 -0.11577086860E+02  0.89587771379E+01 -0.25075772091E+02  0.29035891134E+02  0.00000000000E+00 0.  1.
</event>
<event>
 5    1  0.1245581E-004  0.9118800E+02  0.7818608E-02  0.1130116E+00
         25   -1    0    0    0    0  0.00000000000E+00  0.00000000000E+00  0.99999998245E-14  0.12500000000E+03  0.12500000000E+03 0.  0.
        -13    1    3    3    0    0 -0.29022976914E+02  0.31517971749E+02 -0.23263333170E+02  0.48753559525E+02  0.10566000000E+00 0. -1.
         23    2    1    0    0    0  0.96958326738E+01  0.27831728086E+02  0.25241853278E+01  0.95419841599E+02  0.90719129183E+02 0.  0.
         13    1    3    3    0    0  0.38718809588E+02 -0.36862436639E+01  0.25787518498E+02  0.46666282074E+02  0.10566000000E+00 0.  1.
         22    1    1    0    0    0 -0.96958326738E+01 -0.27831728086E+02 -0.25241853278E+01  0.29580158401E+02  0.00000000000E+00 0. -1.
</event>
<event>
 5    1  0.1245581E-004  0.9118800E+02  0.7818608E-02  0.1130116E+00
         25   -1    0    0    0    0  0.00000000000E+00  0.00000000000E+00  0.99999998245E-14  0.12500000000E+03  0.12500000000E+03 0.  0.
        -13    1    3    3    0    0 -0.48558241116E+02 -0.11733686266E+02  0.34350958134E+02  0.60626575546E+02  0.10566000000E+00 0. -1.
         23    2    1    0    0    0 -0.27007963913E+02 -0.12859499591E+02  0.93354504894E+01  0.93663958764E+02  0.88266583094E+02 0.  0.
         13    1    3    3    0    0  0.21550277203E+02 -0.11258133256E+01 -0.25015507645E+02  0.33037383219E+02  0.10566000000E+00 0.  1.
         22    1    1    0    0    0  0.27007963913E+02  0.12859499591E+02 -0.93354504894E+01  0.31336041236E+02  0.00000000000E+00 0. -1.
</event>
<event>
 5    1  0.1245581E-004  0.9118800E+02  0.7818608E-02  0.1130116E+00
         25   -1    0    0    0    0  0.00000000000E+00  0.00000000000E+00  0.99999998245E-14  0.12500000000E+03  0.12500000000E+03 0.  0.
        -13    1    3    3    0    0  0.78820001928E+01 -0.47281539530E+02  0.32995290145E+01  0.48047559388E+02  0.10566000000E+00 0. -1.
         23    2    1    0    0    0  0.67044619663E+01  0.26162604367E+01 -0.20449201388E+02  0.10332133615E+03  0.10102145335E+03 0.  0.
         13    1    3    3    0    0 -0.11775382265E+01  0.49897799967E+02 -0.23748730402E+02  0.55273776762E+02  0.10566000000E+00 0.  1.
         22    1    1    0    0    0 -0.67044619663E+01 -0.26162604367E+01  0.20449201388E+02  0.21678663850E+02  0.00000000000E+00 0.  1.
</event>
<event>
 5    1  0.1245581E-004  0.9118800E+02  0.7818608E-02  0.1130116E+00
         25   -1    0    0    0    0  0.00000000000E+00  0.00000000000E+00  0.99999998245E-14  0.12500000000E+03  0.12500000000E+03 0.  0.
        -13    1    3    3    0    0  0.20819569028E+02 -0.50742509452E+02  0.20513578527E+02  0.58558302469E+02  0.10566000000E+00 0.  1.
         23    2    1    0    0    0  0.14848711302E+02 -0.15622755267E+02 -0.56031723882E+01  0.10273005949E+03  0.10028716205E+03 0.  0.
         13    1    3    3    0    0 -0.59708577265E+01  0.35119754186E+02 -0.26116750915E+02  0.44171757022E+02  0.10566000000E+00 0. -1.
         22    1    1    0    0    0 -0.14848711302E+02  0.15622755267E+02  0.56031723882E+01  0.22269940509E+02  0.00000000000E+00 0.  1.
</event>
<event>
 5    1  0.1245581E-004  0.9118800E+02  0.7818608E-02  0.1130116E+00
         25   -1    0    0    0    0  0.00000000000E+00  0.00000000000E+00  0.99999998245E-14  0.12500000000E+03  0.12500000000E+03 0.  0.
        -13    1    3    3    0    0  0.48763606977E+02  0.27871193000E+02  0.19285312324E+02  0.59385412351E+02  0.10566000000E+00 0.  1.
         23    2    1    0    0    0  0.27771998645E+02  0.50087026144E+00  0.47318221370E+01  0.96823326660E+02  0.92632778567E+02 0.  0.
         13    1    3    3    0    0 -0.20991608332E+02 -0.27370322738E+02 -0.14553490187E+02  0.37437914309E+02  0.10566000000E+00 0. -1.
         22    1    1    0    0    0 -0.27771998645E+02 -0.50087026144E+00 -0.47318221370E+01  0.28176673340E+02  0.00000000000E+00 0.  1.
</event>
<event>
 5    1  0.1245581E-004  0.9118800E+02  0.7818608E-02  0.1130116E+00
         25   -1    0    0    0    0  0.00000000000E+00  0.00000000000E+00  0.99999998245E-14  0.12500000000E+03  0.12500000000E+03 0.  0.
        -13    1    3    3    0    0 -0.41118693218E+01  0.74585390593E+01  0.48667037205E+02  0.49406770271E+02  0.10566000000E+00 0.  1.
         23    2    1    0    0    0  0.15162416141E+02  0.26638736120E+02  0.25738084944E+02  0.84975380803E+02  0.74958956775E+02 0.  0.
         13    1    3    3    0    0  0.19274285462E+02  0.19180197060E+02 -0.22928952261E+02  0.35568610532E+02  0.10566000000E+00 0. -1.
         22    1    1    0    0    0 -0.15162416141E+02 -0.26638736120E+02 -0.25738084944E+02  0.40024619197E+02  0.00000000000E+00 0.  1.
</event>
<event>
 5    1  0.1245581E-004  0.9118800E+02  0.7818608E-02  0.1130116E+00
         25   -1    0    0    0    0  0.00000000000E+00  0.00000000000E+00  0.99999998245E-14  0.12500000000E+03  0.12500000000E+03 0.  0.
        -13    1    3    3    0    0  0.10810472680E+01  0.35358854728E+02  0.58405235690E+01  0.35854429998E+02  0.10566000000E+00 0. -1.
         23    2    1    0    0    0 -0.14311300112E+02 -0.18028174806E+02 -0.17465098582E+02  0.96106089461E+02  0.91659818707E+02 0.  0.
         13    1    3    3    0    0 -0.15392347380E+02 -0.53387029533E+02 -0.23305622151E+02  0.60251659464E+02  0.10566000000E+00 0.  1.
         22    1    1    0    0    0  0.14311300112E+02  0.18028174806E+02  0.17465098582E+02  0.28893910539E+02  0.00000000000E+00 0.  1.
</event>
<event>
 5    1  0.1245581E-004  0.9118800E+02  0.7818608E-02  0.1130116E+00
         25   -1    0    0    0    0  0.00000000000E+00  0.00000000000E+00  0.99999998245E-14  0.12500000000E+03  0.12500000000E+03 0.  0.
        -13    1    3    3    0    0 -0.45987045673E+01 -0.30384243449E+02  0.72258605318E+00  0.30738959454E+02  0.10566000000E+00 0. -1.
         23    2    1    0    0    0  0.16306152894E+02  0.20604189021E+02  0.22903756736E+02  0.90143073858E+02  0.83131031899E+02 0.  0.
         13    1    3    3    0    0  0.20904857462E+02  0.50988432470E+02  0.22181170683E+02  0.59404114404E+02  0.10566000000E+00 0.  1.
         22    1    1    0    0    0 -0.16306152894E+02 -0.20604189021E+02 -0.22903756736E+02  0.34856926142E+02  0.00000000000E+00 0.  1.
</event>
<event>
 5    1  0.1245581E-004  0.9118800E+02  0.7818608E-02  0.1130116E+00
         25   -1    0    0    0    0  0.00000000000E+00  0.00000000000E+00  0.99999998245E-14  0.12500000000E+03  0.12500000000E+03 0.  0.
        -13    1    3    3    0    0 -0.28961943165E+02 -0.12315746808E+02  0.29339344158E+00  0.31473306390E+02  0.10566000000E+00 0.  1.
         23    2    1    0    0    0  0.23968119883E+02  0.20191592129E+02  0.18208320186E+01  0.93607539238E+02  0.88186647570E+02 0.  0.
         13    1    3    3    0    0  0.52930063048E+02  0.32507338937E+02  0.15274385770E+01  0.62134232849E+02  0.10566000000E+00 0. -1.
         22    1    1    0    0    0 -0.23968119883E+02 -0.20191592129E+02 -0.18208320186E+01  0.31392460762E+02  0.00000000000E+00 0. -1.
</event>
<event>
 5    1  0.1245581E-004  0.9118800E+02  0.7818608E-02  0.1130116E+00
         25   -1    0    0    0    0  0.00000000000E+00  0.00000000000E+00  0.99999998245E-14  0.12500000000E+03  0.12500000000E+03 0.  0.
        -13    1    3    3    0    0  0.21843220814E+02 -0.23920794794E+02 -0.22182160410E+02  0.39260541560E+02  0.10566000000E+00 0.  1.
         23    2    1    0    0    0 -0.18780296840E+02 -0.13068880121E+02  0.16812511820E+02  0.96607118309E+02  0.92340563012E+02 0.  0.
         13    1    3    3    0    0 -0.40623517653E+02  0.10851914673E+02  0.38994672229E+02  0.57346576750E+02  0.10566000000E+00 0. -1.
         22    1    1    0    0    0  0.18780296840E+02  0.13068880121E+02 -0.16812511820E+02  0.28392881691E+02  0.00000000000E+00 0. -1.
</event>
<event>
 5    1  0.1245581E-004  0.9118800E+02  0.7818608E-02  0.1130116E+00
         25   -1    0    0    0    0  0.00000000000E+00  0.00000000000E+00  0.99999998245E-14  0.12500000000E+03  0.12500000000E+03 0.  0.
        -13    1    3    3    0    0 -0.54373353186E+01 -0.25092230584E+02 -0.31140102023E+02  0.40359655215E+02  0.10566000000E+00 0. -1.
         23    2    1    0    0    0  0.26988702265E+02 -0.17255611438E+01  0.85001166118E+01  0.96651814985E+02  0.92401048404E+02 0.  0.
         13    1    3    3    0    0  0.32426037584E+02  0.23366669440E+02  0.39640218634E+02  0.56292159770E+02  0.10566000000E+00 0.  1.
         22    1    1    0    0    0 -0.26988702265E+02  0.17255611438E+01 -0.85001166118E+01  0.28348185015E+02  0.00000000000E+00 0.  1.
</event>
<event>
 5    1  0.1245581E-004  0.9118800E+02  0.7818608E-02  0.1130116E+00
         25   -1    0    0    0    0  0.00000000000E+00  0.00000000000E+00  0.99999998245E-14  0.12500000000E+03  0.12500000000E+03 0.  0.
        -13    1    3    3    0    0  0.99342591860E+01 -0.30946531848E+02 -0.35168886708E+02  0.47887776053E+02  0.10566000000E+00 0.  1.
         23    2    1    0    0    0 -0.22599480551E+02 -0.12176057205E+01 -0.20852425349E+02  0.94225940668E+02  0.89058885952E+02 0.  0.
         13    1    3    3    0    0 -0.32533739737E+02  0.29728926128E+02  0.14316461359E+02  0.46338164615E+02  0.10566000000E+00 0. -1.
         22    1    1    0    0    0  0.22599480551E+02  0.12176057205E+01  0.20852425349E+02  0.30774059332E+02  0.00000000000E+00 0. -1.
</event>
<event>
 5    1  0.1245581E-004  0.9118800E+02  0.7818608E-02  0.1130116E+00
         25   -1    0    0    0    0  0.00000000000E+00  0.00000000000E+00  0.99999998245E-14  0.12500000000E+03  0.12500000000E+03 0.  0.
        -13    1    3    3    0    0  0.10590003011E+01  0.51850572340E+02  0.16307753110E+02  0.54365037562E+02  0.10566000000E+00 0.  1.
         23    2    1    0    0    0  0.22018869778E+02  0.16462341606E+02  0.84457533725E+01  0.96239435550E+02  0.91841487834E+02 0.  0.
         13    1    3    3    0    0  0.20959869476E+02 -0.35388230734E+02 -0.78619997375E+01  0.41874397988E+02  0.10566000000E+00 0. -1.
         22    1    1    0    0    0 -0.22018869778E+02 -0.16462341606E+02 -0.84457533725E+01  0.28760564450E+02  0.00000000000E+00 0. -1.
</event>
<event>
 5    1  0.1245581E-004  0.9118800E+02  0.7818608E-02  0.1130116E+00
         25   -1    0    0    0    0  0.00000000000E+00  0.00000000000E+00  0.99999998245E-14  0.12500000000E+03  0.12500000000E+03 0.  0.
        -13    1    3    3    0    0  0.46345950667E+02 -0.17490334712E+02 -0.15751145570E+02  0.51980464623E+02  0.10566000000E+00 0. -1.
         23    2    1    0    0    0  0.15696029610E+02 -0.40934704324E+01  0.18866693728E+02  0.10011880272E+03  0.96977836028E+02 0.  0.
         13    1    3    3    0    0 -0.30649921057E+02  0.13396864280E+02  0.34617839299E+02  0.48138338100E+02  0.10566000000E+00 0.  1.
         22    1    1    0    0    0 -0.15696029610E+02  0.40934704324E+01 -0.18866693728E+02  0.24881197277E+02  0.00000000000E+00 0. -1.
</event>
<event>
 5    1  0.1245581E-004  0.9118800E+02  0.7818608E-02  0.1130116E+00
         25   -1    0    0    0    0  0.00000000000E+00  0.00000000000E+00  0.99999998245E-14  0.12500000000E+03  0.12500000000E+03 0.  0.
        -13    1    3    3    0    0  0.17236190770E+02  0.56205358192E+02 -0.81367139789E+01  0.59349354168E+02  0.10566000000E+00 0. -1.
         23    2    1    0    0    0  0.74708059923E+01  0.27135088878E+02  0.10181043310E+02  0.95070422097E+02  0.90236386919E+02 0.  0.
         13    1    3    3    0    0 -0.97653847774E+01 -0.29070269314E+02  0.18317757289E+02  0.35721067929E+02  0.10566000000E+00 0.  1.
         22    1    1    0    0    0 -0.74708059923E+01 -0.27135088878E+02 -0.10181043310E+02  0.29929577903E+02  0.00000000000E+00 0. -1.
</event>
<event>
 5    1  0.1245581E-004  0.9118800E+02  0.7818608E-02  0.1130116E+00
         25   -1    0    0    0    0  0.00000000000E+00  0.00000000000E+00  0.99999998245E-14  0.12500000000E+03  0.12500000000E+03 0.  0.
        -13    1    3    3    0    0 -0.88474002267E+01 -0.30075956284E+02  0.16921861252E+02  0.35625835982E+02  0.10566000000E+00 0.  1.
         23    2    1    0    0    0  0.24622140796E+01  0.33138127045E+01 -0.30224433972E+02  0.94494914166E+02  0.89435611149E+02 0.  0.
         13    1    3    3    0    0  0.11309614306E+02  0.33389768989E+02 -0.47146295224E+02  0.58869078184E+02  0.10566000000E+00 0. -1.
         22    1    1    0    0    0 -0.24622140796E+01 -0.33138127045E+01  0.30224433972E+02  0.30505085834E+02  0.00000000000E+00 0. -1.
</event>
<event>
 5    1  0.1245581E-004  0.9118800E+02  0.7818608E-02  0.1130116E+00
         25   -1    0    0    0    0  0.00000000000E+00  0.00000000000E+00  0.99999998245E-14  0.12500000000E+03  0.12500000000E+03 0.  0.
        -13    1    3    3    0    0  0.31814044952E+02  0.18686672084E+02 -0.15440671287E+01  0.36928586178E+02  0.10566000000E+00 0. -1.
         23    2    1    0    0    0  0.12975415342E+01 -0.29984973889E+02 -0.53994000012E+01  0.94505151361E+02  0.89449918056E+02 0.  0.
         13    1    3    3    0    0 -0.30516503418E+02 -0.48671645973E+02 -0.38553328725E+01  0.57576565182E+02  0.10566000000E+00 0.  1.
         22    1    1    0    0    0 -0.12975415342E+01  0.29984973889E+02  0.53994000012E+01  0.30494848639E+02  0.00000000000E+00 0.  1.
</event>
<event>
 5    1  0.1245581E-004  0.9118800E+02  0.7818608E-02  0.1130116E+00
         25   -1    0    0    0    0  0.00000000000E+00  0.00000000000E+00  0.99999998245E-14  0.12500000000E+03  0.12500000000E+03 0.  0.
        -13    1    3    3    0    0 -0.45456902716E+02  0.82884391559E+01 -0.20524901546E+02  0.50559974047E+02  0.10566000000E+00 0.  1.
         23    2    1    0    0    0 -0.32210136317E+02 -0.20257420767E+02 -0.24057041850E+01  0.86873324427E+02  0.78059791869E+02 0.  0.
         13    1    3    3    0    0  0.13246766399E+02 -0.28545859923E+02  0.18119197361E+02  0.36313350379E+02  0.10566000000E+00 0. -1.
         22    1    1    0    0    0  0.32210136317E+02  0.20257420767E+02  0.24057041850E+01  0.38126675573E+02  0.00000000000E+00 0.  1.
</event>
<event>
 5    1  0.1245581E-004  0.9118800E+02  0.7818608E-02  0.1130116E+00
         25   -1    0    0    0    0  0.00000000000E+00  0.00000000000E+00  0.99999998245E-14  0.12500000000E+03  0.12500000000E+03 0.  0.
        -13    1    3    3    0    0 -0.34870601355E+02  0.14805037718E+02  0.18697555354E+02  0.42246392993E+02  0.10566000000E+00 0.  1.
         23    2    1    0    0    0 -0.16017504751E+02 -0.26263710803E+02 -0.58698935876E+01  0.93682295513E+02  0.88292547128E+02 0.  0.
         13    1    3    3    0    0  0.18853096603E+02 -0.41068748520E+02 -0.24567448941E+02  0.51435902520E+02  0.10566000000E+00 0. -1.
         22    1    1    0    0    0  0.16017504751E+02  0.26263710803E+02  0.58698935876E+01  0.31317704487E+02  0.00000000000E+00 0. -1.
</event>
<event>
 5    1  0.1245581E-004  0.9118800E+02  0.7818608E-02  0.1130116E+00
         25   -1    0    0    0    0  0.00000000000E+00  0.00000000000E+00  0.99999998245E-14  0.12500000000E+03  0.12500000000E+03 0.  0.
        -13    1    3    3    0    0 -0.15461517872E+02 -0.29261531042E+02  0.23608653079E+02  0.40653110559E+02  0.10566000000E+00 0.  1.
         23    2    1    0    0    0 -0.16490708665E+02 -0.17007918631E+01 -0.24093175565E+02  0.95754192197E+02  0.91178660055E+02 0.  0.
         13    1    3    3    0    0 -0.10291907925E+01  0.27560739179E+02 -0.47701828644E+02  0.55101081639E+02  0.10566000000E+00 0. -1.
         22    1    1    0    0    0  0.16490708665E+02  0.17007918631E+01  0.24093175565E+02  0.29245807803E+02  0.00000000000E+00 0. -1.
</event>
<event>
 5    1  0.1245581E-004  0.9118800E+02  0.7818608E-02  0.1130116E+00
         25   -1    0    0    0    0  0.00000000000E+00  0.00000000000E+00  0.99999998245E-14  0.12500000000E+03  0.12500000000E+03 0.  0.
        -13    1    3    3    0    0  0.32817861117E+02  0.14288212427E+01 -0.45764959327E+02  0.56333792742E+02  0.10566000000E+00 0. -1.
         23    2    1    0    0    0  0.22500572701E+01 -0.13819385866E+02 -0.25102383475E+02  0.96256864479E+02  0.91865206252E+02 0.  0.
         13    1    3    3    0    0 -0.30567803847E+02 -0.15248207108E+02  0.20662575852E+02  0.39923071737E+02  0.10566000000E+00 0.  1.
         22    1    1    0    0    0 -0.22500572701E+01  0.13819385866E+02  0.25102383475E+02  0.28743135521E+02  0.00000000000E+00 0. -1.
</event>
<event>
 5    1  0.1245581E-004  0.9118800E+02  0.7818608E-02  0.1130116E+00
         25   -1    0    0    0    0  0.00000000000E+00  0.00000000000E+00  0.99999998245E-14  0.12500000000E+03  0.12500000000E+03 0.  0.
        -13    1    3    3    0    0 -0.40953427430E+02 -0.75811664560E+01 -0.13307781489E+02  0.43723740865E+02  0.10566000000E+00 0. -1.
         23    2    1    0    0    0 -0.10827274877E+02  0.16565139746E+02  0.21551256851E+02  0.95740977324E+02  0.91160541525E+02 0.  0.
         13    1    3    3    0    0  0.30126152553E+02  0.24146306202E+02  0.34859038340E+02  0.52017236459E+02  0.10566000000E+00 0.  1.
         22    1    1    0    0    0  0.10827274877E+02 -0.16565139746E+02 -0.21551256851E+02  0.29259022676E+02  0.00000000000E+00 0.  1.
</event>
<event>
 5    1  0.1245581E-004  0.9118800E+02  0.7818608E-02  0.1130116E+00
         25   -1    0    0    0    0  0.00000000000E+00  0.00000000000E+00  0.99999998245E-14  0.12500000000E+03  0.12500000000E+03 0.  0.
        -13    1    3    3    0    0 -0.40542814496E+02  0.15117466909E+02  0.32227678757E+02  0.53952683484E+02  0.10566000000E+00 0.  1.
         23    2    1    0    0    0 -0.28934088815E+02  0.84052722856E+01 -0.58362751319E+01  0.94309737616E+02  0.89176422916E+02 0.  0.
         13    1    3    3    0    0  0.11608725681E+02 -0.67121946238E+01 -0.38063953888E+02  0.40357054133E+02  0.10566000000E+00 0. -1.
         22    1    1    0    0    0  0.28934088815E+02 -0.84052722856E+01  0.58362751319E+01  0.30690262384E+02  0.00000000000E+00 0.  1.
</event>
<event>
 5    1  0.1245581E-004  0.9118800E+02  0.7818608E-02  0.1130116E+00
         25   -1    0    0    0    0  0.00000000000E+00  0.00000000000E+00  0.99999998245E-14  0.12500000000E+03  0.12500000000E+03 0.  0.
        -13    1    3    3    0    0 -0.13648712214E+02  0.22733386329E+02 -0.31207491031E+02  0.40951347470E+02  0.10566000000E+00 0.  1.
         23    2    1    0    0    0  0.20808737875E+02 -0.15961633653E+02 -0.10264509424E+02  0.96837303493E+02  0.92651637186E+02 0.  0.
         13    1    3    3    0    0  0.34457450089E+02 -0.38695019982E+02  0.20942981607E+02  0.55885956024E+02  0.10566000000E+00 0. -1.
         22    1    1    0    0    0 -0.20808737875E+02  0.15961633653E+02  0.10264509424E+02  0.28162696507E+02  0.00000000000E+00 0. -1.
</event>
<event>
 5    1  0.1245581E-004  0.9118800E+02  0.7818608E-02  0.1130116E+00
         25   -1    0    0    0    0  0.00000000000E+00  0.00000000000E+00  0.99999998245E-14  0.12500000000E+03  0.12500000000E+03 0.  0.
        -13    1    3    3    0    0 -0.22509428961E+02 -0.25221914914E+02 -0.22504611749E+01  0.33880600993E+02  0.10566000000E+00 0.  1.
         23    2    1    0    0    0  0.12210260815E+02  0.24589507134E+02  0.99245904426E+01  0.95806990122E+02  0.91251013860E+02 0.  0.
         13    1    3    3    0    0  0.34719689776E+02  0.49811422049E+02  0.12175051618E+02  0.61926389129E+02  0.10566000000E+00 0. -1.
         22    1    1    0    0    0 -0.12210260815E+02 -0.24589507134E+02 -0.99245904426E+01  0.29193009878E+02  0.00000000000E+00 0. -1.
</event>
<event>
 5    1  0.1245581E-004  0.9118800E+02  0.7818608E-02  0.1130116E+00
         25   -1    0    0    0    0  0.00000000000E+00  0.00000000000E+00  0.99999998245E-14  0.12500000000E+03  0.12500000000E+03 0.  0.
        -13    1    3    3    0    0  0.51343204672E+02 -0.16909897740E+02 -0.14708660288E+02  0.56021649021E+02  0.10566000000E+00 0.  1.
         23    2    1    0    0    0  0.13879685111E+02 -0.25137291588E+02 -0.96340022361E+01  0.94712327818E+02  0.89738965642E+02 0.  0.
         13    1    3    3    0    0 -0.37463519561E+02 -0.82273938476E+01  0.50746580515E+01  0.38690678797E+02  0.10566000000E+00 0. -1.
         22    1    1    0    0    0 -0.13879685111E+02  0.25137291588E+02  0.96340022361E+01  0.30287672182E+02  0.00000000000E+00 0.  1.
</event>
<event>
 5    1  0.1245581E-004  0.9118800E+02  0.7818608E-02  0.1130116E+00
         25   -1    0    0    0    0  0.00000000000E+00  0.00000000000E+00  0.99999998245E-14  0.12500000000E+03  0.12500000000E+03 0.  0.
        -13    1    3    3    0    0  0.92824212914E+01 -0.28522734722E+02  0.47901333437E+02  0.56517772870E+02  0.10566000000E+00 0.  1.
         23    2    1    0    0    0  0.22975141918E+02 -0.96694320893E+01  0.18913124646E+02  0.93710043993E+02  0.88331823247E+02 0.  0.
         13    1    3    3    0    0  0.13692720626E+02  0.18853302633E+02 -0.28988208792E+02  0.37192271123E+02  0.10566000000E+00 0. -1.
         22    1    1    0    0    0 -0.22975141918E+02  0.96694320893E+01 -0.18913124646E+02  0.31289956007E+02  0.00000000000E+00 0.  1.
</event>
<event>
 5    1  0.1245581E-004  0.9118800E+02  0.7818608E-02  0.1130116E+00
         25   -1    0    0    0    0  0.00000000000E+00  0.00000000000E+00  0.99999998245E-14  0.12500000000E+03  0.12500000000E+03 0.  0.
        -13    1    3    3    0    0  0.56042866410E+02  0.18296349781E+02 -0.69588895817E+01  0.59363259673E+02  0.10566000000E+00 0. -1.
         23    2    1    0    0    0  0.31786092086E+02 -0.31660085929E+01  0.20778692453E+01  0.92989114335E+02  0.87305661808E+02 0.  0.
         13    1    3    3    0    0 -0.24256774324E+02 -0.21462358374E+02  0.90367588270E+01  0.33625854662E+02  0.10566000000E+00 0.  1.
         22    1    1    0    0    0 -0.31786092086E+02  0.31660085929E+01 -0.20778692453E+01  0.32010885665E+02  0.00000000000E+00 0. -1.
</event>
<event>
 5    1  0.1245581E-004  0.9118800E+02  0.7818608E-02  0.1130116E+00
         25   -1    0    0    0    0  0.00000000000E+00  0.00000000000E+00  0.99999998245E-14  0.12500000000E+03  0.12500000000E+03 0.  0.
        -13    1    3    3    0    0  0.79630092186E+01 -0.45434589442E+02  0.11973753117E+02  0.47655989774E+02  0.10566000000E+00 0.  1.
         23    2    1    0    0    0  0.10284854291E+02 -0.13758533833E+02 -0.23898596973E+02  0.95568411216E+02  0.90923609718E+02 0.  0.
         13    1    3    3    0    0  0.23218450725E+01  0.31676055609E+02 -0.35872350090E+02  0.47912421442E+02  0.10566000000E+00 0. -1.
         22    1    1    0    0    0 -0.10284854291E+02  0.13758533833E+02  0.23898596973E+02  0.29431588784E+02  0.00000000000E+00 0.  1.
</event>
<event>
 5    1  0.1245581E-004  0.9118800E+02  0.7818608E-02  0.1130116E+00
         25   -1    0    0    0    0  0.00000000000E+00  0.00000000000E+00  0.99999998245E-14  0.12500000000E+03  0.12500000000E+03 0.  0.
        -13    1    3    3    0    0 -0.24012387681E+02  0.76674918618E+01  0.23423500235E+02  0.34410125267E+02  0.10566000000E+00 0.  1.
         23    2    1    0    0    0  0.68178467682E+01  0.15416019530E+02 -0.26498633079E+02  0.93594359619E+02  0.88167964164E+02 0.  0.
         13    1    3    3    0    0  0.30830234449E+02  0.77485276679E+01 -0.49922133314E+02  0.59184234352E+02  0.10566000000E+00 0. -1.
         22    1    1    0    0    0 -0.68178467682E+01 -0.15416019530E+02  0.26498633079E+02  0.31405640381E+02  0.00000000000E+00 0. -1.
</event>
<event>
 5    1  0.1245581E-004  0.9118800E+02  0.7818608E-02  0.1130116E+00
         25   -1    0    0    0    0  0.00000000000E+00  0.00000000000E+00  0.99999998245E-14  0.12500000000E+03  0.12500000000E+03 0.  0.
        -13    1    3    3    0    0 -0.51031843413E+01 -0.39229515784E+02 -0.12332791980E+02  0.41437981625E+02  0.10566000000E+00 0. -1.
         23    2    1    0    0    0  0.15619118012E+02  0.11844447540E+02 -0.19893005244E+02  0.97071887951E+02  0.92967585683E+02 0.  0.
         13    1    3    3    0    0  0.20722302353E+02  0.51073963324E+02 -0.75602132643E+01  0.55633906326E+02  0.10566000000E+00 0.  1.
         22    1    1    0    0    0 -0.15619118012E+02 -0.11844447540E+02  0.19893005244E+02  0.27928112049E+02  0.00000000000E+00 0.  1.
</event>
<event>
 5    1  0.1245581E-004  0.9118800E+02  0.7818608E-02  0.1130116E+00
         25   -1    0    0    0    0  0.00000000000E+00  0.00000000000E+00  0.99999998245E-14  0.12500000000E+03  0.12500000000E+03 0.  0.
        -13    1    3    3    0    0  0.51416681902E+02  0.30270985664E+02 -0.18121213307E+02  0.62357014735E+02  0.10566000000E+00 0.  1.
         23    2    1    0    0    0  0.23136146541E+02  0.15677313081E+02 -0.59701775144E+01  0.96421993741E+02  0.92089621756E+02 0.  0.
         13    1    3    3    0    0 -0.28280535361E+02 -0.14593672583E+02  0.12151035792E+02  0.34064979005E+02  0.10566000000E+00 0. -1.
         22    1    1    0    0    0 -0.23136146541E+02 -0.15677313081E+02  0.59701775144E+01  0.28578006259E+02  0.00000000000E+00 0.  1.
</event>
<event>
 5    1  0.1245581E-004  0.9118800E+02  0.7818608E-02  0.1130116E+00
         25   -1    0    0    0    0  0.00000000000E+00  0.00000000000E+00  0.99999998245E-14  0.12500000000E+03  0.12500000000E+03 0.  0.
        -13    1    3    3    0    0 -0.44010651700E+02  0.24835498352E+02  0.14862049221E+01  0.50556497214E+02  0.10566000000E+00 0. -1.
         23    2    1    0    0    0 -0.56320644201E+01  0.29715103959E+02  0.14613127201E+02  0.91410551664E+02  0.85015515737E+02 0.  0.
         13    1    3    3    0    0  0.38378587280E+02  0.48796056072E+01  0.13126922279E+02  0.40854054450E+02  0.10566000000E+00 0.  1.
         22    1    1    0    0    0  0.56320644201E+01 -0.29715103959E+02 -0.14613127201E+02  0.33589448336E+02  0.00000000000E+00 0.  1.
</event>
<event>
 5    1  0.1245581E-004  0.9118800E+02  0.7818608E-02  0.1130116E+00
         25   -1    0    0    0    0  0.00000000000E+00  0.00000000000E+00  0.99999998245E-14  0.12500000000E+03  0.12500000000E+03 0.  0.
        -13    1    3    3    0    0  0.96417981362E+01  0.30604149512E+02 -0.52168191061E+02  0.61246302430E+02  0.10566000000E+00 0.  1.
         23    2    1    0    0    0  0.11094864503E+02  0.16877553562E+02 -0.18596823724E+02  0.97544769438E+02  0.93601241228E+02 0.  0.
         13    1    3    3    0    0  0.14530663670E+01 -0.13726595949E+02  0.33571367337E+02  0.36298467008E+02  0.10566000000E+00 0. -1.
         22    1    1    0    0    0 -0.11094864503E+02 -0.16877553562E+02  0.18596823724E+02  0.27455230562E+02  0.00000000000E+00 0.  1.
</event>
<event>
 5    1  0.1245581E-004  0.9118800E+02  0.7818608E-02  0.1130116E+00
         25   -1    0    0    0    0  0.00000000000E+00  0.00000000000E+00  0.99999998245E-14  0.12500000000E+03  0.12500000000E+03 0.  0.
        -13    1    3    3    0    0  0.89434781858E+01  0.61675478130E+01 -0.40964791816E+02  0.42381007310E+02  0.10566000000E+00 0. -1.
         23    2    1    0    0    0  0.27625924490E+02 -0.46431648540E+01  0.79783824785E+01  0.95872602746E+02  0.91340848948E+02 0.  0.
         13    1    3    3    0    0  0.18682446304E+02 -0.10810712667E+02  0.48943174294E+02  0.53491595436E+02  0.10566000000E+00 0.  1.
         22    1    1    0    0    0 -0.27625924490E+02  0.46431648540E+01 -0.79783824785E+01  0.29127397254E+02  0.00000000000E+00 0.  1.
</event>
<event>
 5    1  0.1245581E-004  0.9118800E+02  0.7818608E-02  0.1130116E+00
         25   -1    0    0    0    0  0.00000000000E+00  0.00000000000E+00  0.99999998245E-14  0.12500000000E+03  0.12500000000E+03 0.  0.
        -13    1    3    3    0    0 -0.39597727167E+02 -0.24224599303E+02  0.17331564386E+02  0.49550030235E+02  0.10566000000E+00 0.  1.
         23    2    1    0    0    0  0.17760988102E+01 -0.28676915529E+02 -0.34469338064E+01  0.96062111966E+02  0.91599825281E+02 0.  0.
         13    1    3    3    0    0  0.41373825977E+02 -0.44523162258E+01 -0.20778498193E+02  0.46512081731E+02  0.10566000000E+00 0. -1.
         22    1    1    0    0    0 -0.17760988102E+01  0.28676915529E+02  0.34469338064E+01  0.28937888034E+02  0.00000000000E+00 0.  1.
</event>
<event>
 5    1  0.1245581E-004  0.9118800E+02  0.7818608E-02  0.1130116E+00
         25   -1    0    0    0    0  0.00000000000E+00  0.00000000000E+00  0.99999998245E-14  0.12500000000E+03  0.12500000000E+03 0.  0.
        -13    1    3    3    0    0  0.31426130654E+02 -0.16777927591E+02 -0.20700078462E+02  0.41202001826E+02  0.10566000000E+00 0.  1.
         23    2    1    0    0    0 -0.25284602334E+00  0.21319129486E+02  0.11968224320E+02  0.10054989557E+03  0.97531912177E+02 0.  0.
         13    1    3    3    0    0 -0.31678976677E+02  0.38097057078E+02  0.32668302782E+02  0.59347893745E+02  0.10566000000E+00 0. -1.
         22    1    1    0    0    0  0.25284602334E+00 -0.21319129486E+02 -0.11968224320E+02  0.24450104428E+02  0.00000000000E+00 0. -1.
</event>
<event>
 5    1  0.1245581E-004  0.9118800E+02  0.7818608E-02  0.1130116E+00
         25   -1    0    0    0    0  0.00000000000E+00  0.00000000000E+00  0.99999998245E-14  0.12500000000E+03  0.12500000000E+03 0.  0.
        -13    1    3    3    0    0  0.20276956204E+02  0.62974702973E+01 -0.26668851330E+02  0.34088882064E+02  0.10566000000E+00 0.  1.
         23    2    1    0    0    0 -0.24659075228E+02 -0.39901726811E+01  0.14689505217E+02  0.96021162332E+02  0.91543927067E+02 0.  0.
         13    1    3    3    0    0 -0.44936031432E+02 -0.10287642978E+02  0.41358356547E+02  0.61932280268E+02  0.10566000000E+00 0. -1.
         22    1    1    0    0    0  0.24659075228E+02  0.39901726811E+01 -0.14689505217E+02  0.28978837668E+02  0.00000000000E+00 0. -1.
</event>
<event>
 5    1  0.1245581E-004  0.9118800E+02  0.7818608E-02  0.1130116E+00
         25   -1    0    0    0    0  0.00000000000E+00  0.00000000000E+00  0.99999998245E-14  0.12500000000E+03  0.12500000000E+03 0.  0.
        -13    1    3    3    0    0 -0.43913279465E+01 -0.26761876544E+01  0.39057851524E+02  0.39395084353E+02  0.10566000000E+00 0.  1.
         23    2    1    0    0    0  0.19335214548E+02  0.16918668605E+02 -0.10103119685E+02  0.97392665896E+02  0.93397893305E+02 0.  0.
         13    1    3    3    0    0  0.23726542495E+02  0.19594856259E+02 -0.49160971209E+02  0.57997581543E+02  0.10566000000E+00 0. -1.
         22    1    1    0    0    0 -0.19335214548E+02 -0.16918668605E+02  0.10103119685E+02  0.27607334104E+02  0.00000000000E+00 0. -1.
</event>
<event>
 5    1  0.1245581E-004  0.9118800E+02  0.7818608E-02  0.1130116E+00
         25   -1    0    0    0    0  0.00000000000E+00  0.00000000000E+00  0.99999998245E-14  0.12500000000E+03  0.12500000000E+03 0.  0.
        -13    1    3    3    0    0 -0.17906260630E+02  0.17844793137E+02 -0.33372183298E+02  0.41866270361E+02  0.10566000000E+00 0. -1.
         23    2    1    0    0    0  0.21052694356E+02 -0.14205081256E+02 -0.14678319732E+02  0.95666514982E+02  0.91058380974E+02 0.  0.
         13    1    3    3    0    0  0.38958954986E+02 -0.32049874393E+02  0.18693863566E+02  0.53800244621E+02  0.10566000000E+00 0.  1.
         22    1    1    0    0    0 -0.21052694356E+02  0.14205081256E+02  0.14678319732E+02  0.29333485018E+02  0.00000000000E+00 0.  1.
</event>
<event>
 5    1  0.1245581E-004  0.9118800E+02  0.7818608E-02  0.1130116E+00
         25   -1    0    0    0    0  0.00000000000E+00  0.00000000000E+00  0.99999998245E-14  0.12500000000E+03  0.12500000000E+03 0.  0.
        -13    1    3    3    0    0  0.65100574063E+01  0.22309659359E+02  0.38568713470E+02  0.45029529988E+02  0.10566000000E+00 0. -1.
         23    2    1    0    0    0  0.28304677152E+02  0.80084491008E+01 -0.43696231193E+01  0.95261412073E+02  0.90500569159E+02 0.  0.
         13    1    3    3    0    0  0.21794619746E+02 -0.14301210258E+02 -0.42938336589E+02  0.50231882085E+02  0.10566000000E+00 0.  1.
         22    1    1    0    0    0 -0.28304677152E+02 -0.80084491008E+01  0.43696231193E+01  0.29738587927E+02  0.00000000000E+00 0.  1.
</event>
<event>
 5    1  0.1245581E-004  0.9118800E+02  0.7818608E-02  0.1130116E+00
         25   -1    0    0    0    0  0.00000000000E+00  0.00000000000E+00  0.99999998245E-14  0.12500000000E+03  0.12500000000E+03 0.  0.
        -13    1    3    3    0    0  0.26320397693E+02  0.34609209980E+02  0.19880011702E+02  0.47809902525E+02  0.10566000000E+00 0.  1.
         23    2    1    0    0    0  0.26271456492E+02 -0.11014199242E+02  0.34350434923E+01  0.96306768482E+02  0.91933085016E+02 0.  0.
         13    1    3    3    0    0 -0.48941201111E-01 -0.45623409222E+02 -0.16444968209E+02  0.48496865958E+02  0.10566000000E+00 0. -1.
         22    1    1    0    0    0 -0.26271456492E+02  0.11014199242E+02 -0.34350434923E+01  0.28693231518E+02  0.00000000000E+00 0.  1.
</event>
<event>
 5    1  0.1245581E-004  0.9118800E+02  0.7818608E-02  0.1130116E+00
         25   -1    0    0    0    0  0.00000000000E+00  0.00000000000E+00  0.99999998245E-14  0.12500000000E+03  0.12500000000E+03 0.  0.
        -13    1    3    3    0    0  0.53693467810E+02  0.22404697265E+02 -0.12582789102E+02  0.59525596936E+02  0.10566000000E+00 0. -1.
         23    2    1    0    0    0  0.25996554133E+02  0.14445668726E+02  0.70998436210E+01  0.94423768199E+02  0.89336118394E+02 0.  0.
         13    1    3    3    0    0 -0.27696913677E+02 -0.79590285395E+01  0.19682632723E+02  0.34898171262E+02  0.10566000000E+00 0.  1.
         22    1    1    0    0    0 -0.25996554133E+02 -0.14445668726E+02 -0.70998436210E+01  0.30576231801E+02  0.00000000000E+00 0. -1.
</event>
<event>
 5    1  0.1245581E-004  0.9118800E+02  0.7818608E-02  0.1130116E+00
         25   -1    0    0    0    0  0.00000000000E+00  0.00000000000E+00  0.99999998245E-14  0.12500000000E+03  0.12500000000E+03 0.  0.
        -13    1    3    3    0    0 -0.93168791012E+01  0.24327073157E+02 -0.34069142629E+02  0.42887391714E+02  0.10566000000E+00 0.  1.
         23    2    1    0    0    0 -0.21016210028E+02 -0.18778617183E+02 -0.44849448519E+01  0.96461740110E+02  0.92143556624E+02 0.  0.
         13    1    3    3    0    0 -0.11699330927E+02 -0.43105690340E+02  0.29584197777E+02  0.53574348395E+02  0.10566000000E+00 0. -1.
         22    1    1    0    0    0  0.21016210028E+02  0.18778617183E+02  0.44849448519E+01  0.28538259890E+02  0.00000000000E+00 0. -1.
</event>
<event>
 5    1  0.1245581E-004  0.9118800E+02  0.7818608E-02  0.1130116E+00
         25   -1    0    0    0    0  0.00000000000E+00  0.00000000000E+00  0.99999998245E-14  0.12500000000E+03  0.12500000000E+03 0.  0.
        -13    1    3    3    0    0 -0.76952395994E+01 -0.50079613249E+02  0.29491625370E+02  0.58625519245E+02  0.10566000000E+00 0.  1.
         23    2    1    0    0    0  0.25250867395E+01 -0.28158060368E+02  0.49356044633E-01  0.96728904112E+02  0.92505275676E+02 0.  0.
         13    1    3    3    0    0  0.10220326339E+02  0.21921552882E+02 -0.29442269326E+02  0.38103384867E+02  0.10566000000E+00 0. -1.
         22    1    1    0    0    0 -0.25250867395E+01  0.28158060368E+02 -0.49356044633E-01  0.28271095888E+02  0.00000000000E+00 0.  1.
</event>
<event>
 5    1  0.1245581E-004  0.9118800E+02  0.7818608E-02  0.1130116E+00
         25   -1    0    0    0    0  0.00000000000E+00  0.00000000000E+00  0.99999998245E-14  0.12500000000E+03  0.12500000000E+03 0.  0.
        -13    1    3    3    0    0  0.21632880009E+02  0.24936438721E+02  0.67653354316E+01  0.33698492564E+02  0.10566000000E+00 0. -1.
         23    2    1    0    0    0 -0.18436583095E+02 -0.20632920233E+02  0.12476449680E+02  0.94647293528E+02  0.89648331730E+02 0.  0.
         13    1    3    3    0    0 -0.40069463104E+02 -0.45569358954E+02  0.57111142481E+01  0.60948800964E+02  0.10566000000E+00 0.  1.
         22    1    1    0    0    0  0.18436583095E+02  0.20632920233E+02 -0.12476449680E+02  0.30352706472E+02  0.00000000000E+00 0.  1.
</event>
<event>
 5    1  0.1245581E-004  0.9118800E+02  0.7818608E-02  0.1130116E+00
         25   -1    0    0    0    0  0.00000000000E+00  0.00000000000E+00  0.99999998245E-14  0.12500000000E+03  0.12500000000E+03 0.  0.
        -13    1    3    3    0    0 -0.16559713489E+02  0.30232505929E+02  0.10297286315E+02  0.35976016943E+02  0.10566000000E+00 0.  1.
         23    2    1    0    0    0  0.29784108008E+02 -0.48415542837E+01  0.12238838387E+01  0.94800138587E+02  0.89861196558E+02 0.  0.
         13    1    3    3    0    0  0.46343821497E+02 -0.35074060213E+02 -0.90734024764E+01  0.58824121644E+02  0.10566000000E+00 0. -1.
         22    1    1    0    0    0 -0.29784108008E+02  0.48415542837E+01 -0.12238838387E+01  0.30199861413E+02  0.00000000000E+00 0. -1.
</event>
<event>
 5    1  0.1245581E-004  0.9118800E+02  0.7818608E-02  0.1130116E+00
         25   -1    0    0    0    0  0.00000000000E+00  0.00000000000E+00  0.99999998245E-14  0.12500000000E+03  0.12500000000E+03 0.  0.
        -13    1    3    3    0    0 -0.24179489786E+02  0.26288057923E+02  0.43743171711E+01  0.35984101078E+02  0.10566000000E+00 0. -1.
         23    2    1    0    0    0  0.29737081354E+02  0.25664467086E+01 -0.10201302846E+01  0.95134948151E+02  0.90325727441E+02 0.  0.
         13    1    3    3    0    0  0.53916571140E+02 -0.23721611214E+02 -0.53944474557E+01  0.59150847073E+02  0.10566000000E+00 0.  1.
         22    1    1    0    0    0 -0.29737081354E+02 -0.25664467086E+01  0.10201302846E+01  0.29865051849E+02  0.00000000000E+00 0.  1.
</event>
<event>
 5    1  0.1245581E-004  0.9118800E+02  0.7818608E-02  0.1130116E+00
         25   -1    0    0    0    0  0.00000000000E+00  0.00000000000E+00  0.99999998245E-14  0.12500000000E+03  0.12500000000E+03 0.  0.
        -13    1    3    3    0    0 -0.19638667400E+02 -0.48992323872E+02  0.51984563036E+01  0.53037346914E+02  0.10566000000E+00 0.  1.
         23    2    1    0    0    0 -0.14718496260E+02 -0.84763123592E+01  0.22027526131E+02  0.97184646132E+02  0.93119071800E+02 0.  0.
         13    1    3    3    0    0  0.49201711404E+01  0.40516011513E+02  0.16829069827E+02  0.44147299218E+02  0.10566000000E+00 0. -1.
         22    1    1    0    0    0  0.14718496260E+02  0.84763123592E+01 -0.22027526131E+02  0.27815353868E+02  0.00000000000E+00 0. -1.
</event>
<event>
 5    1  0.1245581E-004  0.9118800E+02  0.7818608E-02  0.1130116E+00
         25   -1    0    0    0    0  0.00000000000E+00  0.00000000000E+00  0.99999998245E-14  0.12500000000E+03  0.12500000000E+03 0.  0.
        -13    1    3    3    0    0  0.82838638063E+01  0.30083523257E+02  0.37988535361E+02  0.49160764376E+02  0.10566000000E+00 0.  1.
         23    2    1    0    0    0 -0.20886502510E+02 -0.22579627026E+01  0.19003102561E+02  0.96672234652E+02  0.92428667972E+02 0.  0.
         13    1    3    3    0    0 -0.29170366316E+02 -0.32341485960E+02 -0.18985432800E+02  0.47511470276E+02  0.10566000000E+00 0. -1.
         22    1    1    0    0    0  0.20886502510E+02  0.22579627026E+01 -0.19003102561E+02  0.28327765348E+02  0.00000000000E+00 0.  1.
</event>
<event>
 5    1  0.1245581E-004  0.9118800E+02  0.7818608E-02  0.1130116E+00
         25   -1    0    0    0    0  0.00000000000E+00  0.00000000000E+00  0.99999998245E-14  0.12500000000E+03  0.12500000000E+03 0.  0.
        -13    1    3    3    0    0  0.37639757953E+02  0.56142970788E+01  0.13729497768E+02  0.40457162326E+02  0.10566000000E+00 0.  1.
         23    2    1    0    0    0 -0.14876156135E+02 -0.19906767942E+02  0.66562352308E+01  0.99272876206E+02  0.95881275813E+02 0.  0.
         13    1    3    3    0    0 -0.52515914088E+02 -0.25521065021E+02 -0.70732625370E+01  0.58815713880E+02  0.10566000000E+00 0. -1.
         22    1    1    0    0    0  0.14876156135E+02  0.19906767942E+02 -0.66562352308E+01  0.25727123794E+02  0.00000000000E+00 0. -1.
</event>
<event>
 5    1  0.1245581E-004  0.9118800E+02  0.7818608E-02  0.1130116E+00
         25   -1    0    0    0    0  0.00000000000E+00  0.00000000000E+00  0.99999998245E-14  0.12500000000E+03  0.12500000000E+03 0.  0.
        -13    1    3    3    0    0  0.39491266505E+02 -0.11228639627E+02  0.63476837215E+01  0.41544515050E+02  0.10566000000E+00 0. -1.
         23    2    1    0    0    0 -0.44258359740E+01  0.18031098282E+02  0.21639587533E+02  0.96487190985E+02  0.92178076278E+02 0.  0.
         13    1    3    3    0    0 -0.43917102479E+02  0.29259737909E+02  0.15291903811E+02  0.54942675935E+02  0.10566000000E+00 0.  1.
         22    1    1    0    0    0  0.44258359740E+01 -0.18031098282E+02 -0.21639587533E+02  0.28512809015E+02  0.00000000000E+00 0.  1.
</event>
<event>
 5    1  0.1245581E-004  0.9118800E+02  0.7818608E-02  0.1130116E+00
         25   -1    0    0    0    0  0.00000000000E+00  0.00000000000E+00  0.99999998245E-14  0.12500000000E+03  0.12500000000E+03 0.  0.
        -13    1    3    3    0    0 -0.19164281471E+02 -0.42001047992E+02 -0.31203334888E+02  0.55722679304E+02  0.10566000000E+00 0.  1.
         23    2    1    0    0    0  0.96807180844E+01 -0.15436889535E+02 -0.22777194981E+02  0.95831275784E+02  0.91284275459E+02 0.  0.
         13    1    3    3    0    0  0.28844999555E+02  0.26564158456E+02  0.84261399068E+01  0.40108596480E+02  0.10566000000E+00 0. -1.
         22    1    1    0    0    0 -0.96807180844E+01  0.15436889535E+02  0.22777194981E+02  0.29168724216E+02  0.00000000000E+00 0.  1.
</event>
<event>
 5    1  0.1245581E-004  0.9118800E+02  0.7818608E-02  0.1130116E+00
         25   -1    0    0    0    0  0.00000000000E+00  0.00000000000E+00  0.99999998245E-14  0.12500000000E+03  0.12500000000E+03 0.  0.
        -13    1    3    3    0    0 -0.30640559639E+02  0.57116149237E+01  0.17726994358E+02  0.35856992805E+02  0.10566000000E+00 0.  1.
         23    2    1    0    0    0  0.18011158823E+02  0.93777464153E+01 -0.19206446920E+02  0.97049479910E+02  0.92937451964E+02 0.  0.
         13    1    3    3    0    0  0.48651718462E+02  0.36661314916E+01 -0.36933441278E+02  0.61192487105E+02  0.10566000000E+00 0. -1.
         22    1    1    0    0    0 -0.18011158823E+02 -0.93777464153E+01  0.19206446920E+02  0.27950520090E+02  0.00000000000E+00 0. -1.
</event>
<event>
 5    1  0.1245581E-004  0.9118800E+02  0.7818608E-02  0.1130116E+00
         25   -1    0    0    0    0  0.00000000000E+00  0.00000000000E+00  0.99999998245E-14  0.12500000000E+03  0.12500000000E+03 0.  0.
        -13    1    3    3    0    0 -0.10868065619E+02 -0.42662615832E+02 -0.12177024688E+01  0.44042111703E+02  0.10566000000E+00 0.  1.
         23    2    1    0    0    0 -0.32148290203E+02  0.11400276193E+01 -0.22663618914E+01  0.92751765596E+02  0.86965173483E+02 0.  0.
         13    1    3    3    0    0 -0.21280224585E+02  0.43802643451E+02 -0.10486594226E+01  0.48709653893E+02  0.10566000000E+00 0. -1.
         22    1    1    0    0    0  0.32148290203E+02 -0.11400276193E+01  0.22663618914E+01  0.32248234404E+02  0.00000000000E+00 0.  1.
</event>
<event>
 5    1  0.1245581E-004  0.9118800E+02  0.7818608E-02  0.1130116E+00
         25   -1    0    0    0    0  0.00000000000E+00  0.00000000000E+00  0.99999998245E-14  0.12500000000E+03  0.12500000000E+03 0.  0.
        -13    1    3    3    0    0  0.27030945975E+02 -0.26224935518E+02  0.44341610687E+02  0.58177391533E+02  0.10566000000E+00 0.  1.
         23    2    1    0    0    0 -0.38360964564E+01 -0.63280558349E+01  0.23410581902E+02  0.10044770333E+03  0.97400851295E+02 0.  0.
         13    1    3    3    0    0 -0.30867042431E+02  0.19896879683E+02 -0.20931028785E+02  0.42270311799E+02  0.10566000000E+00 0. -1.
         22    1    1    0    0    0  0.38360964564E+01  0.63280558349E+01 -0.23410581902E+02  0.24552296668E+02  0.00000000000E+00 0.  1.
</event>
<event>
 5    1  0.1245581E-004  0.9118800E+02  0.7818608E-02  0.1130116E+00
         25   -1    0    0    0    0  0.00000000000E+00  0.00000000000E+00  0.99999998245E-14  0.12500000000E+03  0.12500000000E+03 0.  0.
        -13    1    3    3    0    0 -0.26144660602E+02 -0.14772420213E+02  0.16143471805E+02  0.34093848755E+02  0.10566000000E+00 0. -1.
         23    2    1    0    0    0  0.13286038081E+01  0.16734698446E+02 -0.26384915187E+02  0.93727343100E+02  0.88356300143E+02 0.  0.
         13    1    3    3    0    0  0.27473264410E+02  0.31507118660E+02 -0.42528386992E+02  0.59633494345E+02  0.10566000000E+00 0.  1.
         22    1    1    0    0    0 -0.13286038081E+01 -0.16734698446E+02  0.26384915187E+02  0.31272656900E+02  0.00000000000E+00 0.  1.
</event>
<event>
 5    1  0.1245581E-004  0.9118800E+02  0.7818608E-02  0.1130116E+00
         25   -1    0    0    0    0  0.00000000000E+00  0.00000000000E+00  0.99999998245E-14  0.12500000000E+03  0.12500000000E+03 0.  0.
        -13    1    3    3    0    0 -0.31696659802E+02 -0.29405993578E+02  0.30456713175E+01  0.43343719023E+02  0.10566000000E+00 0. -1.
         23    2    1    0    0    0 -0.21107350505E+02  0.21048203200E+02 -0.18812706451E+01  0.95132186513E+02  0.90321905584E+02 0.  0.
         13    1    3    3    0    0  0.10589309297E+02  0.50454196777E+02 -0.49269419626E+01  0.51788467490E+02  0.10566000000E+00 0.  1.
         22    1    1    0    0    0  0.21107350505E+02 -0.21048203200E+02  0.18812706451E+01  0.29867813487E+02  0.00000000000E+00 0.  1.
</event>
<event>
 5    1  0.1245581E-004  0.9118800E+02  0.7818608E-02  0.1130116E+00
         25   -1    0    0    0    0  0.00000000000E+00  0.00000000000E+00  0.99999998245E-14  0.12500000000E+03  0.12500000000E+03 0.  0.
        -13    1    3    3    0    0 -0.29766911919E+01  0.35674368512E+02 -0.34674176669E+02  0.49838047222E+02  0.10566000000E+00 0.  1.
         23    2    1    0    0    0  0.11688882371E+02  0.22493594088E+02  0.92742000210E+01  0.98007361521E+02  0.94216985624E+02 0.  0.
         13    1    3    3    0    0  0.14665573563E+02 -0.13180774424E+02  0.43948376690E+02  0.48169314299E+02  0.10566000000E+00 0. -1.
         22    1    1    0    0    0 -0.11688882371E+02 -0.22493594088E+02 -0.92742000210E+01  0.26992638479E+02  0.00000000000E+00 0. -1.
</event>
<event>
 5    1  0.1245581E-004  0.9118800E+02  0.7818608E-02  0.1130116E+00
         25   -1    0    0    0    0  0.00000000000E+00  0.00000000000E+00  0.99999998245E-14  0.12500000000E+03  0.12500000000E+03 0.  0.
        -13    1    3    3    0    0 -0.35459082957E+02 -0.23723684430E+02  0.38159806758E+02  0.57239337722E+02  0.10566000000E+00 0. -1.
         23    2    1    0    0    0 -0.60690340322E+01 -0.25463810702E+02  0.14065512523E+02  0.95283380541E+02  0.90530907071E+02 0.  0.
         13    1    3    3    0    0  0.29390048925E+02 -0.17401262718E+01 -0.24094294235E+02  0.38044042818E+02  0.10566000000E+00 0.  1.
         22    1    1    0    0    0  0.60690340322E+01  0.25463810702E+02 -0.14065512523E+02  0.29716619459E+02  0.00000000000E+00 0. -1.
</event>
<event>
 5    1  0.1245581E-004  0.9118800E+02  0.7818608E-02  0.1130116E+00
         25   -1    0    0    0    0  0.00000000000E+00  0.00000000000E+00  0.99999998245E-14  0.12500000000E+03  0.12500000000E+03 0.  0.
        -13    1    3    3    0    0 -0.37248578530E+02  0.17091297974E+02 -0.91300695744E+01  0.41987360044E+02  0.10566000000E+00 0.  1.
         23    2    1    0    0    0  0.49766207783E+01 -0.12902475831E+02 -0.25232349118E+02  0.96226538635E+02  0.91823932930E+02 0.  0.
         13    1    3    3    0    0  0.42225199309E+02 -0.29993773805E+02 -0.16102279543E+02  0.54239178591E+02  0.10566000000E+00 0. -1.
         22    1    1    0    0    0 -0.49766207783E+01  0.12902475831E+02  0.25232349118E+02  0.28773461365E+02  0.00000000000E+00 0. -1.
</event>
<event>
 5    1  0.1245581E-004  0.9118800E+02  0.7818608E-02  0.1130116E+00
         25   -1    0    0    0    0  0.00000000000E+00  0.00000000000E+00  0.99999998245E-14  0.12500000000E+03  0.12500000000E+03 0.  0.
        -13    1    3    3    0    0  0.54256752141E+02 -0.13202668867E+02 -0.11644323503E+01  0.55852239748E+02  0.10566000000E+00 0.  1.
         23    2    1    0    0    0  0.19453610033E+02 -0.98690970611E+01 -0.19860247431E+02  0.95499636474E+02  0.90829010336E+02 0.  0.
         13    1    3    3    0    0 -0.34803142108E+02  0.33335718061E+01 -0.18695815081E+02  0.39647396726E+02  0.10566000000E+00 0. -1.
         22    1    1    0    0    0 -0.19453610033E+02  0.98690970611E+01  0.19860247431E+02  0.29500363526E+02  0.00000000000E+00 0.  1.
</event>
<event>
 5    1  0.1245581E-004  0.9118800E+02  0.7818608E-02  0.1130116E+00
         25   -1    0    0    0    0  0.00000000000E+00  0.00000000000E+00  0.99999998245E-14  0.12500000000E+03  0.12500000000E+03 0.  0.
        -13    1    3    3    0    0 -0.14731646149E+01  0.39182344114E+02  0.19718637420E+01  0.39259721279E+02  0.10566000000E+00 0. -1.
         23    2    1    0    0    0 -0.28380200149E+02 -0.87003295121E+01 -0.58689670316E+01  0.94741509156E+02  0.89779603970E+02 0.  0.
         13    1    3    3    0    0 -0.26907035534E+02 -0.47882673626E+02 -0.78408307736E+01  0.55481787877E+02  0.10566000000E+00 0.  1.
         22    1    1    0    0    0  0.28380200149E+02  0.87003295121E+01  0.58689670316E+01  0.30258490844E+02  0.00000000000E+00 0.  1.
</event>
<event>
 5    1  0.1245581E-004  0.9118800E+02  0.7818608E-02  0.1130116E+00
         25   -1    0    0    0    0  0.00000000000E+00  0.00000000000E+00  0.99999998245E-14  0.12500000000E+03  0.12500000000E+03 0.  0.
        -13    1    3    3    0    0 -0.34568497853E+02  0.47578075438E+02 -0.15977430563E+02  0.60942134502E+02  0.10566000000E+00 0.  1.
         23    2    1    0    0    0 -0.22420641898E+02  0.18023657409E+02 -0.10418084671E+01  0.96214191441E+02  0.91807123146E+02 0.  0.
         13    1    3    3    0    0  0.12147855955E+02 -0.29554418029E+02  0.14935622096E+02  0.35272056940E+02  0.10566000000E+00 0. -1.
         22    1    1    0    0    0  0.22420641898E+02 -0.18023657409E+02  0.10418084671E+01  0.28785808559E+02  0.00000000000E+00 0.  1.
</event>
<event>
 5    1  0.1245581E-004  0.9118800E+02  0.7818608E-02  0.1130116E+00
         25   -1    0    0    0    0  0.00000000000E+00  0.00000000000E+00  0.99999998245E-14  0.12500000000E+03  0.12500000000E+03 0.  0.
        -13    1    3    3    0    0 -0.28383105860E+02  0.28325955994E+02  0.78112150630E+01  0.40853233973E+02  0.10566000000E+00 0. -1.
         23    2    1    0    0    0  0.23654356058E+02  0.20161527658E+02  0.39592690687E+01  0.93668042360E+02  0.88272365947E+02 0.  0.
         13    1    3    3    0    0  0.52037461918E+02 -0.81644283358E+01 -0.38519459943E+01  0.52814808386E+02  0.10566000000E+00 0.  1.
         22    1    1    0    0    0 -0.23654356058E+02 -0.20161527658E+02 -0.39592690687E+01  0.31331957640E+02  0.00000000000E+00 0.  1.
</event>
<event>
 5    1  0.1245581E-004  0.9118800E+02  0.7818608E-02  0.1130116E+00
         25   -1    0    0    0    0  0.00000000000E+00  0.00000000000E+00  0.99999998245E-14  0.12500000000E+03  0.12500000000E+03 0.  0.
        -13    1    3    3    0    0  0.47524579866E+02 -0.30580625683E+02  0.12783513172E+02  0.57941261046E+02  0.10566000000E+00 0.  1.
         23    2    1    0    0    0  0.21383731762E+02 -0.14825838556E+02  0.23146631657E+02  0.90174204531E+02  0.83177828373E+02 0.  0.
         13    1    3    3    0    0 -0.26140848104E+02  0.15754787126E+02  0.10363118485E+02  0.32232943485E+02  0.10566000000E+00 0. -1.
         22    1    1    0    0    0 -0.21383731762E+02  0.14825838556E+02 -0.23146631657E+02  0.34825795469E+02  0.00000000000E+00 0.  1.
</event>
<event>
 5    1  0.1245581E-004  0.9118800E+02  0.7818608E-02  0.1130116E+00
         25   -1    0    0    0    0  0.00000000000E+00  0.00000000000E+00  0.99999998245E-14  0.12500000000E+03  0.12500000000E+03 0.  0.
        -13    1    3    3    0    0 -0.23855501384E+02  0.71682407860E+01 -0.21728288743E+02  0.33054475007E+02  0.10566000000E+00 0.  1.
         23    2    1    0    0    0  0.21101990606E+02  0.12115817017E+02  0.19162511597E+02  0.94027611002E+02  0.88780080821E+02 0.  0.
         13    1    3    3    0    0  0.44957491990E+02  0.49475762309E+01  0.40890800341E+02  0.60973135995E+02  0.10566000000E+00 0. -1.
         22    1    1    0    0    0 -0.21101990606E+02 -0.12115817017E+02 -0.19162511597E+02  0.30972388998E+02  0.00000000000E+00 0. -1.
</event>
<event>
 5    1  0.1245581E-004  0.9118800E+02  0.7818608E-02  0.1130116E+00
         25   -1    0    0    0    0  0.00000000000E+00  0.00000000000E+00  0.99999998245E-14  0.12500000000E+03  0.12500000000E+03 0.  0.
        -13    1    3    3    0    0  0.19815973406E+02 -0.86942277598E+01 -0.44128550791E+02  0.49148779815E+02  0.10566000000E+00 0. -1.
         23    2    1    0    0    0  0.19987122891E+02  0.20297032351E+02 -0.81177128681E+01  0.95379873971E+02  0.90664041896E+02 0.  0.
         13    1    3    3    0    0  0.17114948545E+00  0.28991260111E+02  0.36010837923E+02  0.46231094156E+02  0.10566000000E+00 0.  1.
         22    1    1    0    0    0 -0.19987122891E+02 -0.20297032351E+02  0.81177128681E+01  0.29620126029E+02  0.00000000000E+00 0. -1.
</event>
<event>
 5    1  0.1245581E-004  0.9118800E+02  0.7818608E-02  0.1130116E+00
         25   -1    0    0    0    0  0.00000000000E+00  0.00000000000E+00  0.99999998245E-14  0.12500000000E+03  0.12500000000E+03 0.  0.
        -13    1    3    3    0    0  0.16214498738E+02  0.22399158272E+02 -0.24446534053E+02  0.36909029408E+02  0.10566000000E+00 0.  1.
         23    2    1    0    0    0 -0.63186755776E+01 -0.28175477358E+02 -0.44125738139E+01  0.95789488312E+02  0.91227035894E+02 0.  0.
         13    1    3    3    0    0 -0.22533174315E+02 -0.50574635630E+02  0.20033960239E+02  0.58880458904E+02  0.10566000000E+00 0. -1.
         22    1    1    0    0    0  0.63186755776E+01  0.28175477358E+02  0.44125738139E+01  0.29210511688E+02  0.00000000000E+00 0. -1.
</event>
<event>
 5    1  0.1245581E-004  0.9118800E+02  0.7818608E-02  0.1130116E+00
         25   -1    0    0    0    0  0.00000000000E+00  0.00000000000E+00  0.99999998245E-14  0.12500000000E+03  0.12500000000E+03 0.  0.
        -13    1    3    3    0    0 -0.10677624685E+02  0.25704213767E+01 -0.46306231281E+02  0.47590933532E+02  0.10566000000E+00 0.  1.
         23    2    1    0    0    0 -0.18876428479E+02 -0.21436636721E+02 -0.50926534926E+01  0.95986484776E+02  0.91496563838E+02 0.  0.
         13    1    3    3    0    0 -0.81988037941E+01 -0.24007058098E+02  0.41213577788E+02  0.48395551245E+02  0.10566000000E+00 0. -1.
         22    1    1    0    0    0  0.18876428479E+02  0.21436636721E+02  0.50926534926E+01  0.29013515224E+02  0.00000000000E+00 0.  1.
</event>
<event>
 5    1  0.1245581E-004  0.9118800E+02  0.7818608E-02  0.1130116E+00
         25   -1    0    0    0    0  0.00000000000E+00  0.00000000000E+00  0.99999998245E-14  0.12500000000E+03  0.12500000000E+03 0.  0.
        -13    1    3    3    0    0 -0.32363055685E+02  0.37944075227E+02  0.20093774701E+02  0.53767008136E+02  0.10566000000E+00 0.  1.
         23    2    1    0    0    0 -0.23721156193E+02 -0.27343464859E+01  0.17426793403E+02  0.95438825630E+02  0.90745283114E+02 0.  0.
         13    1    3    3    0    0  0.86418994921E+01 -0.40678421713E+02 -0.26669812977E+01  0.41671817493E+02  0.10566000000E+00 0. -1.
         22    1    1    0    0    0  0.23721156193E+02  0.27343464859E+01 -0.17426793403E+02  0.29561174370E+02  0.00000000000E+00 0.  1.
</event>
<event>
 5    1  0.1245581E-004  0.9118800E+02  0.7818608E-02  0.1130116E+00
         25   -1    0    0    0    0  0.00000000000E+00  0.00000000000E+00  0.99999998245E-14  0.12500000000E+03  0.12500000000E+03 0.  0.
        -13    1    3    3    0    0  0.29227276831E+02 -0.35353641989E+02  0.36533054452E+02  0.58641188123E+02  0.10566000000E+00 0.  1.
         23    2    1    0    0    0  0.28405127990E+00 -0.24377161327E+02  0.14526072176E+02  0.96621602365E+02  0.92360167774E+02 0.  0.
         13    1    3    3    0    0 -0.28943225551E+02  0.10976480662E+02 -0.22006982277E+02  0.37980414242E+02  0.10566000000E+00 0. -1.
         22    1    1    0    0    0 -0.28405127990E+00  0.24377161327E+02 -0.14526072176E+02  0.28378397635E+02  0.00000000000E+00 0.  1.
</event>
<event>
 5    1  0.1245581E-004  0.9118800E+02  0.7818608E-02  0.1130116E+00
         25   -1    0    0    0    0  0.00000000000E+00  0.00000000000E+00  0.99999998245E-14  0.12500000000E+03  0.12500000000E+03 0.  0.
        -13    1    3    3    0    0 -0.37441422018E+02  0.24342706404E+02  0.17833116387E+02  0.48088030132E+02  0.10566000000E+00 0.  1.
         23    2    1    0    0    0  0.80192205486E+01  0.27936063769E+02  0.93165042888E+01  0.94479043113E+02  0.89413426163E+02 0.  0.
         13    1    3    3    0    0  0.45460642567E+02  0.35933573651E+01 -0.85166120983E+01  0.46391012981E+02  0.10566000000E+00 0. -1.
         22    1    1    0    0    0 -0.80192205486E+01 -0.27936063769E+02 -0.93165042888E+01  0.30520956887E+02  0.00000000000E+00 0. -1.
</event>
<event>
 5    1  0.1245581E-004  0.9118800E+02  0.7818608E-02  0.1130116E+00
         25   -1    0    0    0    0  0.00000000000E+00  0.00000000000E+00  0.99999998245E-14  0.12500000000E+03  0.12500000000E+03 0.  0.
        -13    1    3    3    0    0 -0.15432123632E+02 -0.37795158029E+02 -0.40077701862E+02  0.57208895819E+02  0.10566000000E+00 0. -1.
         23    2    1    0    0    0 -0.40103522176E+01 -0.60977987423E+01 -0.32430471584E+02  0.91758436234E+02  0.85525487772E+02 0.  0.
         13    1    3    3    0    0  0.11421771414E+02  0.31697359287E+02  0.76472302778E+01  0.34549540416E+02  0.10566000000E+00 0.  1.
         22    1    1    0    0    0  0.40103522176E+01  0.60977987423E+01  0.32430471584E+02  0.33241563766E+02  0.00000000000E+00 0. -1.
</event>
<event>
 5    1  0.1245581E-004  0.9118800E+02  0.7818608E-02  0.1130116E+00
         25   -1    0    0    0    0  0.00000000000E+00  0.00000000000E+00  0.99999998245E-14  0.12500000000E+03  0.12500000000E+03 0.  0.
        -13    1    3    3    0    0  0.48317501316E+02 -0.10619831290E+02 -0.26983342224E+01  0.49544464087E+02  0.10566000000E+00 0.  1.
         23    2    1    0    0    0  0.13925255495E+02  0.22914679575E+02  0.34228801335E+01  0.97968326188E+02  0.94165182244E+02 0.  0.
         13    1    3    3    0    0 -0.34392245821E+02  0.33534510866E+02  0.61212143559E+01  0.48423862101E+02  0.10566000000E+00 0. -1.
         22    1    1    0    0    0 -0.13925255495E+02 -0.22914679575E+02 -0.34228801335E+01  0.27031673812E+02  0.00000000000E+00 0.  1.
</event>
<event>
 5    1  0.1245581E-004  0.9118800E+02  0.7818608E-02  0.1130116E+00
         25   -1    0    0    0    0  0.00000000000E+00  0.00000000000E+00  0.99999998245E-14  0.12500000000E+03  0.12500000000E+03 0.  0.
        -13    1    3    3    0    0  0.42970519099E+02  0.32644842704E+02 -0.33055174980E+00  0.53965467619E+02  0.10566000000E+00 0.  1.
         23    2    1    0    0    0  0.18913677024E+02  0.91648450915E+01  0.22196638478E+02  0.94431841340E+02  0.89347413701E+02 0.  0.
         13    1    3    3    0    0 -0.24056842076E+02 -0.23479997612E+02  0.22527190228E+02  0.40466373721E+02  0.10566000000E+00 0. -1.
         22    1    1    0    0    0 -0.18913677024E+02 -0.91648450915E+01 -0.22196638478E+02  0.30568158660E+02  0.00000000000E+00 0.  1.
</event>
<event>
 5    1  0.1245581E-004  0.9118800E+02  0.7818608E-02  0.1130116E+00
         25   -1    0    0    0    0  0.00000000000E+00  0.00000000000E+00  0.99999998245E-14  0.12500000000E+03  0.12500000000E+03 0.  0.
        -13    1    3    3    0    0  0.92708177833E+01  0.12482671101E+02  0.54765767800E+02  0.56930357692E+02  0.10566000000E+00 0.  1.
         23    2    1    0    0    0  0.60570979460E+01 -0.13148100567E+02  0.22198554790E+02  0.98498361960E+02  0.94866171473E+02 0.  0.
         13    1    3    3    0    0 -0.32137198373E+01 -0.25630771668E+02 -0.32567213010E+02  0.41568004267E+02  0.10566000000E+00 0. -1.
         22    1    1    0    0    0 -0.60570979460E+01  0.13148100567E+02 -0.22198554790E+02  0.26501638040E+02  0.00000000000E+00 0.  1.
</event>
<event>
 5    1  0.1245581E-004  0.9118800E+02  0.7818608E-02  0.1130116E+00
         25   -1    0    0    0    0  0.00000000000E+00  0.00000000000E+00  0.99999998245E-14  0.12500000000E+03  0.12500000000E+03 0.  0.
        -13    1    3    3    0    0 -0.35598020285E+02  0.27553491360E+02 -0.31879680728E+02  0.55161029194E+02  0.10566000000E+00 0.  1.
         23    2    1    0    0    0 -0.29377833246E+02 -0.25850035745E+01 -0.71134590380E+01  0.94662883638E+02  0.89670066964E+02 0.  0.
         13    1    3    3    0    0  0.62201870396E+01 -0.30138494934E+02  0.24766221690E+02  0.39501854444E+02  0.10566000000E+00 0. -1.
         22    1    1    0    0    0  0.29377833246E+02  0.25850035745E+01  0.71134590380E+01  0.30337116362E+02  0.00000000000E+00 0.  1.
</event>
<event>
 5    1  0.1245581E-004  0.9118800E+02  0.7818608E-02  0.1130116E+00
         25   -1    0    0    0    0  0.00000000000E+00  0.00000000000E+00  0.99999998245E-14  0.12500000000E+03  0.12500000000E+03 0.  0.
        -13    1    3    3    0    0  0.15302385229E+02  0.26967660100E+01 -0.30152597907E+02  0.33920876539E+02  0.10566000000E+00 0.  1.
         23    2    1    0    0    0  0.15893371510E+01  0.63493576720E+01  0.29266147969E+02  0.95010872765E+02  0.90153858437E+02 0.  0.
         13    1    3    3    0    0 -0.13713048078E+02  0.36525916621E+01  0.59418745875E+02  0.61089996226E+02  0.10566000000E+00 0. -1.
         22    1    1    0    0    0 -0.15893371510E+01 -0.63493576720E+01 -0.29266147969E+02  0.29989127235E+02  0.00000000000E+00 0. -1.
</event>
<event>
 5    1  0.1245581E-004  0.9118800E+02  0.7818608E-02  0.1130116E+00
         25   -1    0    0    0    0  0.00000000000E+00  0.00000000000E+00  0.99999998245E-14  0.12500000000E+03  0.12500000000E+03 0.  0.
        -13    1    3    3    0    0  0.39473209063E+02  0.11151776057E+02 -0.14047550772E+02  0.43357135396E+02  0.10566000000E+00 0.  1.
         23    2    1    0    0    0  0.84601718846E+01 -0.19932559807E+02  0.17279938074E+02  0.97296611965E+02  0.93269249977E+02 0.  0.
         13    1    3    3    0    0 -0.31013037179E+02 -0.31084335864E+02  0.31327488846E+02  0.53939476569E+02  0.10566000000E+00 0. -1.
         22    1    1    0    0    0 -0.84601718846E+01  0.19932559807E+02 -0.17279938074E+02  0.27703388035E+02  0.00000000000E+00 0.  1.
</event>
<event>
 5    1  0.1245581E-004  0.9118800E+02  0.7818608E-02  0.1130116E+00
         25   -1    0    0    0    0  0.00000000000E+00  0.00000000000E+00  0.99999998245E-14  0.12500000000E+03  0.12500000000E+03 0.  0.
        -13    1    3    3    0    0  0.48771767937E+02  0.85294844347E+01  0.26174879886E+02  0.56005115423E+02  0.10566000000E+00 0.  1.
         23    2    1    0    0    0  0.20318773273E+02  0.80079911026E+01 -0.91103217636E+01  0.10133613659E+03  0.98534431280E+02 0.  0.
         13    1    3    3    0    0 -0.28452994664E+02 -0.52149333205E+00 -0.35285201650E+02  0.45331021168E+02  0.10566000000E+00 0. -1.
         22    1    1    0    0    0 -0.20318773273E+02 -0.80079911026E+01  0.91103217636E+01  0.23663863409E+02  0.00000000000E+00 0.  1.
</event>
<event>
 5    1  0.1245581E-004  0.9118800E+02  0.7818608E-02  0.1130116E+00
         25   -1    0    0    0    0  0.00000000000E+00  0.00000000000E+00  0.99999998245E-14  0.12500000000E+03  0.12500000000E+03 0.  0.
        -13    1    3    3    0    0 -0.15310559310E+02  0.21947991026E+02  0.47706332694E+02  0.54699477874E+02  0.10566000000E+00 0.  1.
         23    2    1    0    0    0 -0.24075185641E+02 -0.10224584443E+01  0.11924041989E+02  0.98114264707E+02  0.94358710127E+02 0.  0.
         13    1    3    3    0    0 -0.87646263309E+01 -0.22970449471E+02 -0.35782290706E+02  0.43414786833E+02  0.10566000000E+00 0. -1.
         22    1    1    0    0    0  0.24075185641E+02  0.10224584443E+01 -0.11924041989E+02  0.26885735293E+02  0.00000000000E+00 0.  1.
</event>
<event>
 5    1  0.1245581E-004  0.9118800E+02  0.7818608E-02  0.1130116E+00
         25   -1    0    0    0    0  0.00000000000E+00  0.00000000000E+00  0.99999998245E-14  0.12500000000E+03  0.12500000000E+03 0.  0.
        -13    1    3    3    0    0 -0.71868415464E+01  0.40243498537E+02 -0.29689194165E+02  0.50523749664E+02  0.10566000000E+00 0.  1.
         23    2    1    0    0    0 -0.26359173522E+02  0.11029887068E+02  0.76509748442E-01  0.96426055728E+02  0.92095135224E+02 0.  0.
         13    1    3    3    0    0 -0.19172331976E+02 -0.29213611469E+02  0.29765703914E+02  0.45902306064E+02  0.10566000000E+00 0. -1.
         22    1    1    0    0    0  0.26359173522E+02 -0.11029887068E+02 -0.76509748442E-01  0.28573944272E+02  0.00000000000E+00 0. -1.
</event>
<event>
 5    1  0.1245581E-004  0.9118800E+02  0.7818608E-02  0.1130116E+00
         25   -1    0    0    0    0  0.00000000000E+00  0.00000000000E+00  0.99999998245E-14  0.12500000000E+03  0.12500000000E+03 0.  0.
        -13    1    3    3    0    0  0.75222427214E+01 -0.28331292468E+02 -0.15931974664E+02  0.33362932263E+02  0.10566000000E+00 0.  1.
         23    2    1    0    0    0 -0.64625196230E-01  0.12392608472E+02  0.28386004091E+02  0.94026686496E+02  0.88778779131E+02 0.  0.
         13    1    3    3    0    0 -0.75868679176E+01  0.40723900940E+02  0.44317978755E+02  0.60663754233E+02  0.10566000000E+00 0. -1.
         22    1    1    0    0    0  0.64625196230E-01 -0.12392608472E+02 -0.28386004091E+02  0.30973313504E+02  0.00000000000E+00 0. -1.
</event>
<event>
 5    1  0.1245581E-004  0.9118800E+02  0.7818608E-02  0.1130116E+00
         25   -1    0    0    0    0  0.00000000000E+00  0.00000000000E+00  0.99999998245E-14  0.12500000000E+03  0.12500000000E+03 0.  0.
        -13    1    3    3    0    0  0.32012243555E+02  0.49161689620E+02 -0.17850308210E+02  0.61321286116E+02  0.10566000000E+00 0. -1.
         23    2    1    0    0    0  0.75635540049E+01  0.27292257150E+02 -0.80165774540E+01  0.95566343014E+02  0.90920766349E+02 0.  0.
         13    1    3    3    0    0 -0.24448689550E+02 -0.21869432470E+02  0.98337307559E+01  0.34245056897E+02  0.10566000000E+00 0.  1.
         22    1    1    0    0    0 -0.75635540049E+01 -0.27292257150E+02  0.80165774540E+01  0.29433656986E+02  0.00000000000E+00 0. -1.
</event>
<event>
 5    1  0.1245581E-004  0.9118800E+02  0.7818608E-02  0.1130116E+00
         25   -1    0    0    0    0  0.00000000000E+00  0.00000000000E+00  0.99999998245E-14  0.12500000000E+03  0.12500000000E+03 0.  0.
        -13    1    3    3    0    0 -0.26286139029E+02  0.20996745669E+02 -0.20446954350E+01  0.33704842044E+02  0.10566000000E+00 0. -1.
         23    2    1    0    0    0  0.18950757106E+02 -0.21318948315E+02 -0.62787701912E+01  0.95792951069E+02  0.91231780467E+02 0.  0.
         13    1    3    3    0    0  0.45236896135E+02 -0.42315693983E+02 -0.42340747562E+01  0.62088109025E+02  0.10566000000E+00 0.  1.
         22    1    1    0    0    0 -0.18950757106E+02  0.21318948315E+02  0.62787701912E+01  0.29207048931E+02  0.00000000000E+00 0.  1.
</event>
<event>
 5    1  0.1245581E-004  0.9118800E+02  0.7818608E-02  0.1130116E+00
         25   -1    0    0    0    0  0.00000000000E+00  0.00000000000E+00  0.99999998245E-14  0.12500000000E+03  0.12500000000E+03 0.  0.
        -13    1    3    3    0    0 -0.42405187474E+02 -0.69877344037E+01 -0.19157087693E+02  0.47053517719E+02  0.10566000000E+00 0.  1.
         23    2    1    0    0    0 -0.17770099586E+02  0.13679466815E+02  0.18036982697E+02  0.96220893057E+02  0.91816247278E+02 0.  0.
         13    1    3    3    0    0  0.24635087888E+02  0.20667201219E+02  0.37194070390E+02  0.49167375338E+02  0.10566000000E+00 0. -1.
         22    1    1    0    0    0  0.17770099586E+02 -0.13679466815E+02 -0.18036982697E+02  0.28779106943E+02  0.00000000000E+00 0.  1.
</event>
<event>
 5    1  0.1245581E-004  0.9118800E+02  0.7818608E-02  0.1130116E+00
         25   -1    0    0    0    0  0.00000000000E+00  0.00000000000E+00  0.99999998245E-14  0.12500000000E+03  0.12500000000E+03 0.  0.
        -13    1    3    3    0    0 -0.19403163765E+02  0.12873761248E+02 -0.24666040296E+02  0.33921102586E+02  0.10566000000E+00 0.  1.
         23    2    1    0    0    0 -0.20556468948E+01  0.57968677866E+01  0.31383665454E+02  0.93019321183E+02  0.87348899797E+02 0.  0.
         13    1    3    3    0    0  0.17347516870E+02 -0.70768934611E+01  0.56049705750E+02  0.59098218597E+02  0.10566000000E+00 0. -1.
         22    1    1    0    0    0  0.20556468948E+01 -0.57968677866E+01 -0.31383665454E+02  0.31980678817E+02  0.00000000000E+00 0. -1.
</event>
<event>
 5    1  0.1245581E-004  0.9118800E+02  0.7818608E-02  0.1130116E+00
         25   -1    0    0    0    0  0.00000000000E+00  0.00000000000E+00  0.99999998245E-14  0.12500000000E+03  0.12500000000E+03 0.  0.
        -13    1    3    3    0    0  0.27740714189E+02  0.13109214410E+02  0.54317186394E+02  0.62384025423E+02  0.10566000000E+00 0.  1.
         23    2    1    0    0    0  0.13284728102E+02  0.92525977293E+01  0.28206711211E+02  0.92477498208E+02  0.86570055747E+02 0.  0.
         13    1    3    3    0    0 -0.14455986088E+02 -0.38566166803E+01 -0.26110475183E+02  0.30093472786E+02  0.10566000000E+00 0. -1.
         22    1    1    0    0    0 -0.13284728102E+02 -0.92525977293E+01 -0.28206711211E+02  0.32522501792E+02  0.00000000000E+00 0.  1.
</event>
<event>
 5    1  0.1245581E-004  0.9118800E+02  0.7818608E-02  0.1130116E+00
         25   -1    0    0    0    0  0.00000000000E+00  0.00000000000E+00  0.99999998245E-14  0.12500000000E+03  0.12500000000E+03 0.  0.
        -13    1    3    3    0    0 -0.16287809522E+02 -0.13058728128E+02  0.28548047180E+02  0.35367008372E+02  0.10566000000E+00 0.  1.
         23    2    1    0    0    0  0.16185284851E+02  0.18993487810E+02 -0.12810705870E+02  0.96949506069E+02  0.92802890673E+02 0.  0.
         13    1    3    3    0    0  0.32473094373E+02  0.32052215939E+02 -0.41358753050E+02  0.61582497697E+02  0.10566000000E+00 0. -1.
         22    1    1    0    0    0 -0.16185284851E+02 -0.18993487810E+02  0.12810705870E+02  0.28050493931E+02  0.00000000000E+00 0. -1.
</event>
<event>
 5    1  0.1245581E-004  0.9118800E+02  0.7818608E-02  0.1130116E+00
         25   -1    0    0    0    0  0.00000000000E+00  0.00000000000E+00  0.99999998245E-14  0.12500000000E+03  0.12500000000E+03 0.  0.
        -13    1    3    3    0    0  0.25062649886E+01 -0.42869977711E+02  0.11321031719E+02  0.44410508625E+02  0.10566000000E+00 0.  1.
         23    2    1    0    0    0 -0.26307600082E+02  0.13323981636E+01  0.87714901354E+01  0.97236640222E+02  0.93188840832E+02 0.  0.
         13    1    3    3    0    0 -0.28813865071E+02  0.44202375874E+02 -0.25495415835E+01  0.52826131598E+02  0.10566000000E+00 0. -1.
         22    1    1    0    0    0  0.26307600082E+02 -0.13323981636E+01 -0.87714901354E+01  0.27763359778E+02  0.00000000000E+00 0. -1.
</event>
<event>
 5    1  0.1245581E-004  0.9118800E+02  0.7818608E-02  0.1130116E+00
         25   -1    0    0    0    0  0.00000000000E+00  0.00000000000E+00  0.99999998245E-14  0.12500000000E+03  0.12500000000E+03 0.  0.
        -13    1    3    3    0    0  0.80339993823E+01 -0.56778998774E+02 -0.81382231123E+01  0.57919268705E+02  0.10566000000E+00 0.  1.
         23    2    1    0    0    0 -0.95295464935E+01 -0.28237897336E+02  0.65124604260E+01  0.94494209679E+02  0.89434626514E+02 0.  0.
         13    1    3    3    0    0 -0.17563545876E+02  0.28541101439E+02  0.14650683538E+02  0.36574940974E+02  0.10566000000E+00 0. -1.
         22    1    1    0    0    0  0.95295464935E+01  0.28237897336E+02 -0.65124604260E+01  0.30505790321E+02  0.00000000000E+00 0.  1.
</event>
<event>
 5    1  0.1245581E-004  0.9118800E+02  0.7818608E-02  0.1130116E+00
         25   -1    0    0    0    0  0.00000000000E+00  0.00000000000E+00  0.99999998245E-14  0.12500000000E+03  0.12500000000E+03 0.  0.
        -13    1    3    3    0    0  0.12777273196E+02 -0.31497082850E+01 -0.57760678629E+02  0.59240919408E+02  0.10566000000E+00 0.  1.
         23    2    1    0    0    0 -0.86634572278E+01 -0.12062145317E+00 -0.25267203541E+02  0.98288548983E+02  0.94589308306E+02 0.  0.
         13    1    3    3    0    0 -0.21440730423E+02  0.30290868319E+01  0.32493475088E+02  0.39047629575E+02  0.10566000000E+00 0. -1.
         22    1    1    0    0    0  0.86634572278E+01  0.12062145317E+00  0.25267203541E+02  0.26711451017E+02  0.00000000000E+00 0.  1.
</event>
<event>
 5    1  0.1245581E-004  0.9118800E+02  0.7818608E-02  0.1130116E+00
         25   -1    0    0    0    0  0.00000000000E+00  0.00000000000E+00  0.99999998245E-14  0.12500000000E+03  0.12500000000E+03 0.  0.
        -13    1    3    3    0    0  0.13404319549E+02  0.19640488309E+01 -0.34999845128E+02  0.37530435561E+02  0.10566000000E+00 0. -1.
         23    2    1    0    0    0  0.88066997540E+01 -0.80662663511E+01  0.24340295346E+02  0.97887777831E+02  0.94058197185E+02 0.  0.
         13    1    3    3    0    0 -0.45976197954E+01 -0.10030315182E+02  0.59340140474E+02  0.60357342270E+02  0.10566000000E+00 0.  1.
         22    1    1    0    0    0 -0.88066997540E+01  0.80662663511E+01 -0.24340295346E+02  0.27112222169E+02  0.00000000000E+00 0.  1.
</event>
<event>
 5    1  0.1245581E-004  0.9118800E+02  0.7818608E-02  0.1130116E+00
         25   -1    0    0    0    0  0.00000000000E+00  0.00000000000E+00  0.99999998245E-14  0.12500000000E+03  0.12500000000E+03 0.  0.
        -13    1    3    3    0    0 -0.95635935304E+01 -0.68583664401E+01  0.50443632988E+02  0.51798366620E+02  0.10566000000E+00 0.  1.
         23    2    1    0    0    0  0.16628959084E+02 -0.17047617470E+02  0.15746202804E+02  0.96450281187E+02  0.92128010380E+02 0.  0.
         13    1    3    3    0    0  0.26192552614E+02 -0.10189251029E+02 -0.34697430185E+02  0.44651914566E+02  0.10566000000E+00 0. -1.
         22    1    1    0    0    0 -0.16628959084E+02  0.17047617470E+02 -0.15746202804E+02  0.28549718813E+02  0.00000000000E+00 0.  1.
</event>
<event>
 5    1  0.1245581E-004  0.9118800E+02  0.7818608E-02  0.1130116E+00
         25   -1    0    0    0    0  0.00000000000E+00  0.00000000000E+00  0.99999998245E-14  0.12500000000E+03  0.12500000000E+03 0.  0.
        -13    1    3    3    0    0  0.48372636723E+02  0.22015059736E+01  0.51431689128E+01  0.48695194451E+02  0.10566000000E+00 0.  1.
         23    2    1    0    0    0  0.81886491032E+01 -0.20902074350E+02  0.17350035400E+02  0.96627928968E+02  0.92368729784E+02 0.  0.
         13    1    3    3    0    0 -0.40183987620E+02 -0.23103580324E+02  0.12206866487E+02  0.47932734517E+02  0.10566000000E+00 0. -1.
         22    1    1    0    0    0 -0.81886491032E+01  0.20902074350E+02 -0.17350035400E+02  0.28372071032E+02  0.00000000000E+00 0. -1.
</event>
<event>
 5    1  0.1245581E-004  0.9118800E+02  0.7818608E-02  0.1130116E+00
         25   -1    0    0    0    0  0.00000000000E+00  0.00000000000E+00  0.99999998245E-14  0.12500000000E+03  0.12500000000E+03 0.  0.
        -13    1    3    3    0    0 -0.35371054506E+02 -0.45087277523E+01  0.50744971088E+02  0.62020185243E+02  0.10566000000E+00 0.  1.
         23    2    1    0    0    0 -0.11464694078E+02 -0.24711487434E+01  0.25947446575E+02  0.96525173044E+02  0.92229568258E+02 0.  0.
         13    1    3    3    0    0  0.23906360428E+02  0.20375790088E+01 -0.24797524513E+02  0.34504987801E+02  0.10566000000E+00 0. -1.
         22    1    1    0    0    0  0.11464694078E+02  0.24711487434E+01 -0.25947446575E+02  0.28474826956E+02  0.00000000000E+00 0.  1.
</event>
<event>
 5    1  0.1245581E-004  0.9118800E+02  0.7818608E-02  0.1130116E+00
         25   -1    0    0    0    0  0.00000000000E+00  0.00000000000E+00  0.99999998245E-14  0.12500000000E+03  0.12500000000E+03 0.  0.
        -13    1    3    3    0    0 -0.27545489269E+01  0.31980920558E+02 -0.45855286385E+01  0.32425376736E+02  0.10566000000E+00 0.  1.
         23    2    1    0    0    0  0.21637074461E+02 -0.15415463514E+02  0.20601721994E+02  0.91381099724E+02  0.84972200931E+02 0.  0.
         13    1    3    3    0    0  0.24391623388E+02 -0.47396384072E+02  0.25187250633E+02  0.58955722989E+02  0.10566000000E+00 0. -1.
         22    1    1    0    0    0 -0.21637074461E+02  0.15415463514E+02 -0.20601721994E+02  0.33618900276E+02  0.00000000000E+00 0. -1.
</event>
<event>
 5    1  0.1245581E-004  0.9118800E+02  0.7818608E-02  0.1130116E+00
         25   -1    0    0    0    0  0.00000000000E+00  0.00000000000E+00  0.99999998245E-14  0.12500000000E+03  0.12500000000E+03 0.  0.
        -13    1    3    3    0    0  0.19472288020E+02  0.28468532811E+02  0.25258314505E+01  0.34583498228E+02  0.10566000000E+00 0. -1.
         23    2    1    0    0    0 -0.20039937253E+02 -0.19645788025E+02  0.22911799838E+01  0.96843196595E+02  0.92659587463E+02 0.  0.
         13    1    3    3    0    0 -0.39512225273E+02 -0.48114320835E+02 -0.23465146672E+00  0.62259698368E+02  0.10566000000E+00 0.  1.
         22    1    1    0    0    0  0.20039937253E+02  0.19645788025E+02 -0.22911799838E+01  0.28156803405E+02  0.00000000000E+00 0.  1.
</event>
<event>
 5    1  0.1245581E-004  0.9118800E+02  0.7818608E-02  0.1130116E+00
         25   -1    0    0    0    0  0.00000000000E+00  0.00000000000E+00  0.99999998245E-14  0.12500000000E+03  0.12500000000E+03 0.  0.
        -13    1    3    3    0    0 -0.11414903211E+02  0.48803922433E+02 -0.32200412975E+02  0.59573489238E+02  0.10566000000E+00 0. -1.
         23    2    1    0    0    0  0.62927648631E+01  0.26536626288E+02 -0.90101114868E+01  0.96277647496E+02  0.91893481129E+02 0.  0.
         13    1    3    3    0    0  0.17707668074E+02 -0.22267296145E+02  0.23190301488E+02  0.36704158258E+02  0.10566000000E+00 0.  1.
         22    1    1    0    0    0 -0.62927648631E+01 -0.26536626288E+02  0.90101114868E+01  0.28722352504E+02  0.00000000000E+00 0. -1.
</event>
<event>
 5    1  0.1245581E-004  0.9118800E+02  0.7818608E-02  0.1130116E+00
         25   -1    0    0    0    0  0.00000000000E+00  0.00000000000E+00  0.99999998245E-14  0.12500000000E+03  0.12500000000E+03 0.  0.
        -13    1    3    3    0    0  0.35017432435E+02  0.44112990821E+01  0.12086632328E+02  0.37306540700E+02  0.10566000000E+00 0. -1.
         23    2    1    0    0    0 -0.78697440072E+01 -0.28414759223E+02 -0.71898794476E+01  0.94651593470E+02  0.89654327099E+02 0.  0.
         13    1    3    3    0    0 -0.42887176442E+02 -0.32826058305E+02 -0.19276511775E+02  0.57345052771E+02  0.10566000000E+00 0.  1.
         22    1    1    0    0    0  0.78697440072E+01  0.28414759223E+02  0.71898794476E+01  0.30348406530E+02  0.00000000000E+00 0.  1.
</event>
<event>
 5    1  0.1245581E-004  0.9118800E+02  0.7818608E-02  0.1130116E+00
         25   -1    0    0    0    0  0.00000000000E+00  0.00000000000E+00  0.99999998245E-14  0.12500000000E+03  0.12500000000E+03 0.  0.
        -13    1    3    3    0    0  0.21292357333E+01 -0.29637120430E+02  0.33058751370E+02  0.44449800431E+02  0.10566000000E+00 0.  1.
         23    2    1    0    0    0 -0.21798688953E+02 -0.17110005837E+02 -0.10219168343E+02  0.95464148202E+02  0.90780157802E+02 0.  0.
         13    1    3    3    0    0 -0.23927924686E+02  0.12527114593E+02 -0.43277919713E+02  0.51014347771E+02  0.10566000000E+00 0. -1.
         22    1    1    0    0    0  0.21798688953E+02  0.17110005837E+02  0.10219168343E+02  0.29535851798E+02  0.00000000000E+00 0.  1.
</event>
<event>
 5    1  0.1245581E-004  0.9118800E+02  0.7818608E-02  0.1130116E+00
         25   -1    0    0    0    0  0.00000000000E+00  0.00000000000E+00  0.99999998245E-14  0.12500000000E+03  0.12500000000E+03 0.  0.
        -13    1    3    3    0    0  0.13971828292E+02 -0.49626282948E+02 -0.29418755992E+02  0.59358691977E+02  0.10566000000E+00 0.  1.
         23    2    1    0    0    0 -0.33457162298E+01 -0.29466289340E+02 -0.60823614265E+01  0.94727055890E+02  0.89759478455E+02 0.  0.
         13    1    3    3    0    0 -0.17317544522E+02  0.20159993608E+02  0.23336394565E+02  0.35368363913E+02  0.10566000000E+00 0. -1.
         22    1    1    0    0    0  0.33457162298E+01  0.29466289340E+02  0.60823614265E+01  0.30272944110E+02  0.00000000000E+00 0.  1.
</event>
<event>
 5    1  0.1245581E-004  0.9118800E+02  0.7818608E-02  0.1130116E+00
         25   -1    0    0    0    0  0.00000000000E+00  0.00000000000E+00  0.99999998245E-14  0.12500000000E+03  0.12500000000E+03 0.  0.
        -13    1    3    3    0    0 -0.29355295710E+02 -0.15312066105E+01  0.46489965065E+02  0.55003690746E+02  0.10566000000E+00 0.  1.
         23    2    1    0    0    0 -0.28981172545E+02  0.67025787099E+00  0.62001887527E+01  0.95355439820E+02  0.90630347870E+02 0.  0.
         13    1    3    3    0    0  0.37412316543E+00  0.22014644815E+01 -0.40289776312E+02  0.40351749074E+02  0.10566000000E+00 0. -1.
         22    1    1    0    0    0  0.28981172545E+02 -0.67025787099E+00 -0.62001887527E+01  0.29644560180E+02  0.00000000000E+00 0.  1.
</event>
<event>
 5    1  0.1245581E-004  0.9118800E+02  0.7818608E-02  0.1130116E+00
         25   -1    0    0    0    0  0.00000000000E+00  0.00000000000E+00  0.99999998245E-14  0.12500000000E+03  0.12500000000E+03 0.  0.
        -13    1    3    3    0    0 -0.25272295642E+02  0.48004251081E+01  0.20319990342E+02  0.32781796470E+02  0.10566000000E+00 0. -1.
         23    2    1    0    0    0  0.22047754896E+02 -0.73855961867E+01 -0.18577953379E+02  0.95237760858E+02  0.90467896043E+02 0.  0.
         13    1    3    3    0    0  0.47320050538E+02 -0.12186021295E+02 -0.38897943721E+02  0.62455964388E+02  0.10566000000E+00 0.  1.
         22    1    1    0    0    0 -0.22047754896E+02  0.73855961867E+01  0.18577953379E+02  0.29762239142E+02  0.00000000000E+00 0.  1.
</event>
<event>
 5    1  0.1245581E-004  0.9118800E+02  0.7818608E-02  0.1130116E+00
         25   -1    0    0    0    0  0.00000000000E+00  0.00000000000E+00  0.99999998245E-14  0.12500000000E+03  0.12500000000E+03 0.  0.
        -13    1    3    3    0    0  0.20118261889E+02  0.98851292251E+00 -0.33657965653E+02  0.39224882857E+02  0.10566000000E+00 0.  1.
         23    2    1    0    0    0 -0.26228784993E+02 -0.11977857717E+02 -0.36622869830E+01  0.95934030489E+02  0.91424874198E+02 0.  0.
         13    1    3    3    0    0 -0.46347046881E+02 -0.12966370640E+02  0.29995678670E+02  0.56709147632E+02  0.10566000000E+00 0. -1.
         22    1    1    0    0    0  0.26228784993E+02  0.11977857717E+02  0.36622869830E+01  0.29065969511E+02  0.00000000000E+00 0. -1.
</event>
<event>
 5    1  0.1245581E-004  0.9118800E+02  0.7818608E-02  0.1130116E+00
         25   -1    0    0    0    0  0.00000000000E+00  0.00000000000E+00  0.99999998245E-14  0.12500000000E+03  0.12500000000E+03 0.  0.
        -13    1    3    3    0    0 -0.23499714642E+02  0.93215930830E+01  0.20472391694E+02  0.32530887962E+02  0.10566000000E+00 0.  1.
         23    2    1    0    0    0  0.17857652751E+02 -0.14943197360E+02 -0.19242895733E+02  0.94792650806E+02  0.89850780194E+02 0.  0.
         13    1    3    3    0    0  0.41357367393E+02 -0.24264790443E+02 -0.39715287428E+02  0.62261762844E+02  0.10566000000E+00 0. -1.
         22    1    1    0    0    0 -0.17857652751E+02  0.14943197360E+02  0.19242895733E+02  0.30207349194E+02  0.00000000000E+00 0. -1.
</event>
<event>
 4    1  0.1245581E-004  0.9118800E+02  0.7818608E-02  0.1130116E+00
         25   -1    0    0    0    0  0.00000000000E+00  0.00000000000E+00  0.99999998245E-14  0.12500000000E+03  0.12500000000E+03 0.  0.
        -13    1    1    0    0    0  0.29491597096E+02  0.35362715793E+02  0.96164249858E+00  0.46056616114E+02  0.10566000000E+00 0.  1.
         13    1    1    0    0    0  0.13033429768E+02 -0.90358775261E+01  0.19299944619E+02  0.24980320265E+02  0.10566000000E+00 0. -1.
         22    1    1    0    0    0 -0.42525026864E+02 -0.26326838267E+02 -0.20261587118E+02  0.53963063622E+02  0.00000000000E+00 0.  1.
</event>
<event>
 5    1  0.1245581E-004  0.9118800E+02  0.7818608E-02  0.1130116E+00
         25   -1    0    0    0    0  0.00000000000E+00  0.00000000000E+00  0.99999998245E-14  0.12500000000E+03  0.12500000000E+03 0.  0.
        -13    1    3    3    0    0  0.36730320878E+02 -0.15853347227E+02 -0.54155368762E+00  0.40009368085E+02  0.10566000000E+00 0. -1.
         23    2    1    0    0    0 -0.12687121988E+02  0.59923980958E+00  0.24198360047E+02  0.97670843744E+02  0.93769456307E+02 0.  0.
         13    1    3    3    0    0 -0.49417442866E+02  0.16452587036E+02  0.24739913734E+02  0.57661475660E+02  0.10566000000E+00 0.  1.
         22    1    1    0    0    0  0.12687121988E+02 -0.59923980958E+00 -0.24198360047E+02  0.27329156256E+02  0.00000000000E+00 0.  1.
</event>
<event>
 5    1  0.1245581E-004  0.9118800E+02  0.7818608E-02  0.1130116E+00
         25   -1    0    0    0    0  0.00000000000E+00  0.00000000000E+00  0.99999998245E-14  0.12500000000E+03  0.12500000000E+03 0.  0.
        -13    1    3    3    0    0 -0.17942608415E+02 -0.30441729187E+02  0.46274617651E+02  0.58223598957E+02  0.10566000000E+00 0. -1.
         23    2    1    0    0    0 -0.23910199996E+02 -0.10340010378E+02  0.18390718401E+02  0.93112196661E+02  0.87481707604E+02 0.  0.
         13    1    3    3    0    0 -0.59675915810E+01  0.20101718809E+02 -0.27883899250E+02  0.34888597705E+02  0.10566000000E+00 0.  1.
         22    1    1    0    0    0  0.23910199996E+02  0.10340010378E+02 -0.18390718401E+02  0.31887803339E+02  0.00000000000E+00 0. -1.
</event>
<event>
 5    1  0.1245581E-004  0.9118800E+02  0.7818608E-02  0.1130116E+00
         25   -1    0    0    0    0  0.00000000000E+00  0.00000000000E+00  0.99999998245E-14  0.12500000000E+03  0.12500000000E+03 0.  0.
        -13    1    3    3    0    0  0.28585029154E+02 -0.20163468712E+02 -0.20781888888E+02  0.40688664662E+02  0.10566000000E+00 0.  1.
         23    2    1    0    0    0 -0.24353045785E+02 -0.14245063507E+02 -0.10213111900E+02  0.94994994951E+02  0.90131840865E+02 0.  0.
         13    1    3    3    0    0 -0.52938074938E+02  0.59184052051E+01  0.10568776988E+02  0.54306330289E+02  0.10566000000E+00 0. -1.
         22    1    1    0    0    0  0.24353045785E+02  0.14245063507E+02  0.10213111900E+02  0.30005005049E+02  0.00000000000E+00 0. -1.
</event>
<event>
 5    1  0.1245581E-004  0.9118800E+02  0.7818608E-02  0.1130116E+00
         25   -1    0    0    0    0  0.00000000000E+00  0.00000000000E+00  0.99999998245E-14  0.12500000000E+03  0.12500000000E+03 0.  0.
        -13    1    3    3    0    0  0.14197392095E+02 -0.24542496126E+01 -0.20084227229E+02  0.24717941478E+02  0.10566000000E+00 0. -1.
         23    2    1    0    0    0  0.41900260109E+02 -0.13992215005E+02  0.21396667477E+02  0.75916079445E+02  0.57913900414E+02 0.  0.
         13    1    3    3    0    0  0.27702868014E+02 -0.11537965393E+02  0.41480894706E+02  0.51198137967E+02  0.10566000000E+00 0.  1.
         22    1    1    0    0    0 -0.41900260109E+02  0.13992215005E+02 -0.21396667477E+02  0.49083920555E+02  0.00000000000E+00 0.  1.
</event>
<event>
 5    1  0.1245581E-004  0.9118800E+02  0.7818608E-02  0.1130116E+00
         25   -1    0    0    0    0  0.00000000000E+00  0.00000000000E+00  0.99999998245E-14  0.12500000000E+03  0.12500000000E+03 0.  0.
        -13    1    3    3    0    0  0.21681204793E+02 -0.88639531624E+00 -0.25296759196E+02  0.33328629252E+02  0.10566000000E+00 0. -1.
         23    2    1    0    0    0 -0.21107048632E+02  0.16359332975E+02  0.14814818292E+02  0.94461268554E+02  0.89388573869E+02 0.  0.
         13    1    3    3    0    0 -0.42788253425E+02  0.17245728292E+02  0.40111577488E+02  0.61132639302E+02  0.10566000000E+00 0.  1.
         22    1    1    0    0    0  0.21107048632E+02 -0.16359332975E+02 -0.14814818292E+02  0.30538731446E+02  0.00000000000E+00 0.  1.
</event>
<event>
 5    1  0.1245581E-004  0.9118800E+02  0.7818608E-02  0.1130116E+00
         25   -1    0    0    0    0  0.00000000000E+00  0.00000000000E+00  0.99999998245E-14  0.12500000000E+03  0.12500000000E+03 0.  0.
        -13    1    3    3    0    0  0.12116198442E+01 -0.31553416442E+01 -0.33606628611E+02  0.33776335712E+02  0.10566000000E+00 0. -1.
         23    2    1    0    0    0 -0.61878618921E+01  0.25949165382E+01  0.28058908185E+02  0.96149947051E+02  0.91719609478E+02 0.  0.
         13    1    3    3    0    0 -0.73994817363E+01  0.57502581824E+01  0.61665536795E+02  0.62373611339E+02  0.10566000000E+00 0.  1.
         22    1    1    0    0    0  0.61878618921E+01 -0.25949165382E+01 -0.28058908185E+02  0.28850052949E+02  0.00000000000E+00 0.  1.
</event>
<event>
 5    1  0.1245581E-004  0.9118800E+02  0.7818608E-02  0.1130116E+00
         25   -1    0    0    0    0  0.00000000000E+00  0.00000000000E+00  0.99999998245E-14  0.12500000000E+03  0.12500000000E+03 0.  0.
        -13    1    3    3    0    0 -0.42933522635E+02 -0.25659742453E+02 -0.25696057264E+02  0.56231737227E+02  0.10566000000E+00 0.  1.
         23    2    1    0    0    0 -0.29409127531E+02 -0.45063065893E+01  0.38440129271E+01  0.95000333059E+02  0.90139243755E+02 0.  0.
         13    1    3    3    0    0  0.13524395104E+02  0.21153435864E+02  0.29540070192E+02  0.38768595832E+02  0.10566000000E+00 0. -1.
         22    1    1    0    0    0  0.29409127531E+02  0.45063065893E+01 -0.38440129271E+01  0.29999666941E+02  0.00000000000E+00 0.  1.
</event>
<event>
 5    1  0.1245581E-004  0.9118800E+02  0.7818608E-02  0.1130116E+00
         25   -1    0    0    0    0  0.00000000000E+00  0.00000000000E+00  0.99999998245E-14  0.12500000000E+03  0.12500000000E+03 0.  0.
        -13    1    3    3    0    0  0.18741206480E+02  0.47440554624E+02 -0.20275533044E+02  0.54890321985E+02  0.10566000000E+00 0.  1.
         23    2    1    0    0    0 -0.12829067856E+02  0.25626014575E+02 -0.69592132690E+01  0.95509183559E+02  0.90842148201E+02 0.  0.
         13    1    3    3    0    0 -0.31570274336E+02 -0.21814540049E+02  0.13316319775E+02  0.40618861574E+02  0.10566000000E+00 0. -1.
         22    1    1    0    0    0  0.12829067856E+02 -0.25626014575E+02  0.69592132690E+01  0.29490816441E+02  0.00000000000E+00 0.  1.
</event>
<event>
 5    1  0.1245581E-004  0.9118800E+02  0.7818608E-02  0.1130116E+00
         25   -1    0    0    0    0  0.00000000000E+00  0.00000000000E+00  0.99999998245E-14  0.12500000000E+03  0.12500000000E+03 0.  0.
        -13    1    3    3    0    0 -0.34361114405E+02  0.38903944378E+02 -0.33278750277E+01  0.52012392634E+02  0.10566000000E+00 0.  1.
         23    2    1    0    0    0 -0.26884782862E+02 -0.11058683774E+01  0.12042831612E+02  0.95520442886E+02  0.90857639863E+02 0.  0.
         13    1    3    3    0    0  0.74763315430E+01 -0.40009812755E+02  0.15370706640E+02  0.43508050252E+02  0.10566000000E+00 0. -1.
         22    1    1    0    0    0  0.26884782862E+02  0.11058683774E+01 -0.12042831612E+02  0.29479557114E+02  0.00000000000E+00 0.  1.
</event>
<event>
 5    1  0.1245581E-004  0.9118800E+02  0.7818608E-02  0.1130116E+00
         25   -1    0    0    0    0  0.00000000000E+00  0.00000000000E+00  0.99999998245E-14  0.12500000000E+03  0.12500000000E+03 0.  0.
        -13    1    3    3    0    0  0.51569581451E+02 -0.30729501518E+02  0.16017272098E+02  0.62131217307E+02  0.10566000000E+00 0.  1.
         23    2    1    0    0    0  0.25600967742E+02 -0.14827621614E+02  0.29465866693E+01  0.95268698564E+02  0.90510632751E+02 0.  0.
         13    1    3    3    0    0 -0.25968613709E+02  0.15901879904E+02 -0.13070685429E+02  0.33137481257E+02  0.10566000000E+00 0. -1.
         22    1    1    0    0    0 -0.25600967742E+02  0.14827621614E+02 -0.29465866693E+01  0.29731301436E+02  0.00000000000E+00 0.  1.
</event>
<event>
 5    1  0.1245581E-004  0.9118800E+02  0.7818608E-02  0.1130116E+00
         25   -1    0    0    0    0  0.00000000000E+00  0.00000000000E+00  0.99999998245E-14  0.12500000000E+03  0.12500000000E+03 0.  0.
        -13    1    3    3    0    0  0.28310226182E+02  0.34220999196E+01  0.39446099437E+02  0.48674280674E+02  0.10566000000E+00 0.  1.
         23    2    1    0    0    0  0.14837369101E+02  0.26447644757E+02  0.20572848838E+01  0.94604969878E+02  0.89589298856E+02 0.  0.
         13    1    3    3    0    0 -0.13472857081E+02  0.23025544837E+02 -0.37388814553E+02  0.45930689204E+02  0.10566000000E+00 0. -1.
         22    1    1    0    0    0 -0.14837369101E+02 -0.26447644757E+02 -0.20572848838E+01  0.30395030122E+02  0.00000000000E+00 0. -1.
</event>
<event>
 5    1  0.1245581E-004  0.9118800E+02  0.7818608E-02  0.1130116E+00
         25   -1    0    0    0    0  0.00000000000E+00  0.00000000000E+00  0.99999998245E-14  0.12500000000E+03  0.12500000000E+03 0.  0.
        -13    1    3    3    0    0  0.63175836058E+01  0.20524622945E+02 -0.29350763475E+02  0.36368262129E+02  0.10566000000E+00 0.  1.
         23    2    1    0    0    0  0.15895699088E+02 -0.92583779693E+01  0.21891279497E+02  0.96405963381E+02  0.92067860002E+02 0.  0.
         13    1    3    3    0    0  0.95781154824E+01 -0.29783000914E+02  0.51242042973E+02  0.60037701253E+02  0.10566000000E+00 0. -1.
         22    1    1    0    0    0 -0.15895699088E+02  0.92583779693E+01 -0.21891279497E+02  0.28594036619E+02  0.00000000000E+00 0. -1.
</event>
<event>
 5    1  0.1245581E-004  0.9118800E+02  0.7818608E-02  0.1130116E+00
         25   -1    0    0    0    0  0.00000000000E+00  0.00000000000E+00  0.99999998245E-14  0.12500000000E+03  0.12500000000E+03 0.  0.
        -13    1    3    3    0    0  0.96164301429E+01  0.34884942116E+02  0.47000580409E+02  0.59316950680E+02  0.10566000000E+00 0.  1.
         23    2    1    0    0    0  0.14630139054E+02  0.23983704359E+02  0.15748999648E+02  0.92793012661E+02  0.87024440046E+02 0.  0.
         13    1    3    3    0    0  0.50137089113E+01 -0.10901237757E+02 -0.31251580761E+02  0.33476061981E+02  0.10566000000E+00 0. -1.
         22    1    1    0    0    0 -0.14630139054E+02 -0.23983704359E+02 -0.15748999648E+02  0.32206987339E+02  0.00000000000E+00 0.  1.
</event>
<event>
 5    1  0.1245581E-004  0.9118800E+02  0.7818608E-02  0.1130116E+00
         25   -1    0    0    0    0  0.00000000000E+00  0.00000000000E+00  0.99999998245E-14  0.12500000000E+03  0.12500000000E+03 0.  0.
        -13    1    3    3    0    0 -0.78872707969E+01  0.21462618911E+02  0.24019303067E+02  0.33163098996E+02  0.10566000000E+00 0. -1.
         23    2    1    0    0    0  0.83799801155E+01 -0.22084307173E+02 -0.17588249424E+02  0.95550259630E+02  0.90898651846E+02 0.  0.
         13    1    3    3    0    0  0.16267250912E+02 -0.43546926084E+02 -0.41607552491E+02  0.62387160634E+02  0.10566000000E+00 0.  1.
         22    1    1    0    0    0 -0.83799801155E+01  0.22084307173E+02  0.17588249424E+02  0.29449740370E+02  0.00000000000E+00 0.  1.
</event>
<event>
 5    1  0.1245581E-004  0.9118800E+02  0.7818608E-02  0.1130116E+00
         25   -1    0    0    0    0  0.00000000000E+00  0.00000000000E+00  0.99999998245E-14  0.12500000000E+03  0.12500000000E+03 0.  0.
        -13    1    3    3    0    0 -0.29903099802E+02  0.78717958095E+01 -0.98354018387E+01  0.32448526013E+02  0.10566000000E+00 0. -1.
         23    2    1    0    0    0  0.27057630115E+02 -0.14621260381E+02 -0.21587598103E+01  0.94168898066E+02  0.88978786890E+02 0.  0.
         13    1    3    3    0    0  0.56960729917E+02 -0.22493056190E+02  0.76766420284E+01  0.61720372053E+02  0.10566000000E+00 0.  1.
         22    1    1    0    0    0 -0.27057630115E+02  0.14621260381E+02  0.21587598103E+01  0.30831101934E+02  0.00000000000E+00 0.  1.
</event>
<event>
 5    1  0.1245581E-004  0.9118800E+02  0.7818608E-02  0.1130116E+00
         25   -1    0    0    0    0  0.00000000000E+00  0.00000000000E+00  0.99999998245E-14  0.12500000000E+03  0.12500000000E+03 0.  0.
        -13    1    3    3    0    0  0.15069204283E+02 -0.35757901321E+02  0.31414539551E+02  0.49925873891E+02  0.10566000000E+00 0.  1.
         23    2    1    0    0    0  0.27214773102E+02  0.31748227163E+01  0.12295547973E+02  0.94968285526E+02  0.90094791090E+02 0.  0.
         13    1    3    3    0    0  0.12145568820E+02  0.38932724037E+02 -0.19118991578E+02  0.45042411635E+02  0.10566000000E+00 0. -1.
         22    1    1    0    0    0 -0.27214773102E+02 -0.31748227163E+01 -0.12295547973E+02  0.30031714474E+02  0.00000000000E+00 0.  1.
</event>
<event>
 5    1  0.1245581E-004  0.9118800E+02  0.7818608E-02  0.1130116E+00
         25   -1    0    0    0    0  0.00000000000E+00  0.00000000000E+00  0.99999998245E-14  0.12500000000E+03  0.12500000000E+03 0.  0.
        -13    1    3    3    0    0 -0.53048789122E+01  0.28352447397E+02  0.21802552301E+02  0.36157509104E+02  0.10566000000E+00 0. -1.
         23    2    1    0    0    0  0.11128172657E+02 -0.21650517272E+01 -0.26827395735E+02  0.95875562880E+02  0.91344899802E+02 0.  0.
         13    1    3    3    0    0  0.16433051569E+02 -0.30517499125E+02 -0.48629948037E+02  0.59718053776E+02  0.10566000000E+00 0.  1.
         22    1    1    0    0    0 -0.11128172657E+02  0.21650517272E+01  0.26827395735E+02  0.29124437120E+02  0.00000000000E+00 0.  1.
</event>
<event>
 5    1  0.1245581E-004  0.9118800E+02  0.7818608E-02  0.1130116E+00
         25   -1    0    0    0    0  0.00000000000E+00  0.00000000000E+00  0.99999998245E-14  0.12500000000E+03  0.12500000000E+03 0.  0.
        -13    1    3    3    0    0 -0.82617288709E+00  0.32099950275E+02  0.20160098406E+02  0.37914774179E+02  0.10566000000E+00 0. -1.
         23    2    1    0    0    0  0.17468163637E+02  0.53998569893E+01 -0.25339976110E+02  0.93752446726E+02  0.88391807773E+02 0.  0.
         13    1    3    3    0    0  0.18294336524E+02 -0.26700093285E+02 -0.45500074517E+02  0.55837672546E+02  0.10566000000E+00 0.  1.
         22    1    1    0    0    0 -0.17468163637E+02 -0.53998569893E+01  0.25339976110E+02  0.31247553274E+02  0.00000000000E+00 0.  1.
</event>
<event>
 5    1  0.1245581E-004  0.9118800E+02  0.7818608E-02  0.1130116E+00
         25   -1    0    0    0    0  0.00000000000E+00  0.00000000000E+00  0.99999998245E-14  0.12500000000E+03  0.12500000000E+03 0.  0.
        -13    1    3    3    0    0 -0.20334979456E+01  0.32365721203E+02 -0.36555417615E+02  0.48867010794E+02  0.10566000000E+00 0.  1.
         23    2    1    0    0    0  0.22531577278E+02  0.21678333206E+01  0.14002114176E+00  0.10236394288E+03  0.99829783735E+02 0.  0.
         13    1    3    3    0    0  0.24565075223E+02 -0.30197887882E+02  0.36695438757E+02  0.53496932088E+02  0.10566000000E+00 0. -1.
         22    1    1    0    0    0 -0.22531577278E+02 -0.21678333206E+01 -0.14002114176E+00  0.22636057118E+02  0.00000000000E+00 0.  1.
</event>
<event>
 5    1  0.1245581E-004  0.9118800E+02  0.7818608E-02  0.1130116E+00
         25   -1    0    0    0    0  0.00000000000E+00  0.00000000000E+00  0.99999998245E-14  0.12500000000E+03  0.12500000000E+03 0.  0.
        -13    1    3    3    0    0  0.95104060411E+01 -0.24295818961E+02 -0.55285150905E+02  0.61132591280E+02  0.10566000000E+00 0.  1.
         23    2    1    0    0    0  0.55228675340E+01 -0.28807514772E+01 -0.29322218071E+02  0.95023454710E+02  0.90171301852E+02 0.  0.
         13    1    3    3    0    0 -0.39875385071E+01  0.21415067483E+02  0.25962932834E+02  0.33890863430E+02  0.10566000000E+00 0. -1.
         22    1    1    0    0    0 -0.55228675340E+01  0.28807514772E+01  0.29322218071E+02  0.29976545290E+02  0.00000000000E+00 0.  1.
</event>
<event>
 5    1  0.1245581E-004  0.9118800E+02  0.7818608E-02  0.1130116E+00
         25   -1    0    0    0    0  0.00000000000E+00  0.00000000000E+00  0.99999998245E-14  0.12500000000E+03  0.12500000000E+03 0.  0.
        -13    1    3    3    0    0  0.21962123261E+02  0.37050995340E+02 -0.54799036543E+01  0.43418332786E+02  0.10566000000E+00 0. -1.
         23    2    1    0    0    0  0.22388740092E+02 -0.15513314396E+02 -0.95361381649E+01  0.96140746068E+02  0.91707069068E+02 0.  0.
         13    1    3    3    0    0  0.42661683016E+00 -0.52564309735E+02 -0.40562345106E+01  0.52722413282E+02  0.10566000000E+00 0.  1.
         22    1    1    0    0    0 -0.22388740092E+02  0.15513314396E+02  0.95361381649E+01  0.28859253932E+02  0.00000000000E+00 0. -1.
</event>
<event>
 5    1  0.1245581E-004  0.9118800E+02  0.7818608E-02  0.1130116E+00
         25   -1    0    0    0    0  0.00000000000E+00  0.00000000000E+00  0.99999998245E-14  0.12500000000E+03  0.12500000000E+03 0.  0.
        -13    1    3    3    0    0  0.10699103180E+02 -0.89960711980E+01 -0.50740209203E+02  0.52630600413E+02  0.10566000000E+00 0. -1.
         23    2    1    0    0    0 -0.88115101930E+01  0.16781436708E+02 -0.22714756258E+02  0.95415891399E+02  0.90713686121E+02 0.  0.
         13    1    3    3    0    0 -0.19510613373E+02  0.25777507905E+02  0.28025452944E+02  0.42785290986E+02  0.10566000000E+00 0.  1.
         22    1    1    0    0    0  0.88115101930E+01 -0.16781436708E+02  0.22714756258E+02  0.29584108601E+02  0.00000000000E+00 0. -1.
</event>
<event>
 5    1  0.1245581E-004  0.9118800E+02  0.7818608E-02  0.1130116E+00
         25   -1    0    0    0    0  0.00000000000E+00  0.00000000000E+00  0.99999998245E-14  0.12500000000E+03  0.12500000000E+03 0.  0.
        -13    1    3    3    0    0 -0.18978932270E+02  0.28241336441E+02 -0.45849232634E+02  0.57095851436E+02  0.10566000000E+00 0.  1.
         23    2    1    0    0    0 -0.11822808763E+02  0.26474401765E+02 -0.90501773907E+01  0.94626023199E+02  0.89618668813E+02 0.  0.
         13    1    3    3    0    0  0.71561235066E+01 -0.17669346760E+01  0.36799055243E+02  0.37530171763E+02  0.10566000000E+00 0. -1.
         22    1    1    0    0    0  0.11822808763E+02 -0.26474401765E+02  0.90501773907E+01  0.30373976801E+02  0.00000000000E+00 0.  1.
</event>
<event>
 5    1  0.1245581E-004  0.9118800E+02  0.7818608E-02  0.1130116E+00
         25   -1    0    0    0    0  0.00000000000E+00  0.00000000000E+00  0.99999998245E-14  0.12500000000E+03  0.12500000000E+03 0.  0.
        -13    1    3    3    0    0  0.35003398725E+02 -0.13312630281E+02 -0.35531300330E+01  0.37617814189E+02  0.10566000000E+00 0.  1.
         23    2    1    0    0    0 -0.12627345073E+02  0.93044358070E+01  0.23395473731E+02  0.96833165595E+02  0.92646054416E+02 0.  0.
         13    1    3    3    0    0 -0.47630743798E+02  0.22617066088E+02  0.26948603764E+02  0.59215351406E+02  0.10566000000E+00 0. -1.
         22    1    1    0    0    0  0.12627345073E+02 -0.93044358070E+01 -0.23395473731E+02  0.28166834405E+02  0.00000000000E+00 0. -1.
</event>
<event>
 5    1  0.1245581E-004  0.9118800E+02  0.7818608E-02  0.1130116E+00
         25   -1    0    0    0    0  0.00000000000E+00  0.00000000000E+00  0.99999998245E-14  0.12500000000E+03  0.12500000000E+03 0.  0.
        -13    1    3    3    0    0  0.61429695366E+01  0.40670751952E+02  0.10459933941E+02  0.42441342123E+02  0.10566000000E+00 0. -1.
         23    2    1    0    0    0 -0.26296040947E+02  0.37089988769E+01 -0.11200686671E+02  0.96178240441E+02  0.91758161001E+02 0.  0.
         13    1    3    3    0    0 -0.32439010483E+02 -0.36961753076E+02 -0.21660620612E+02  0.53736898319E+02  0.10566000000E+00 0.  1.
         22    1    1    0    0    0  0.26296040947E+02 -0.37089988769E+01  0.11200686671E+02  0.28821759559E+02  0.00000000000E+00 0.  1.
</event>
<event>
 4    1  0.1245581E-004  0.9118800E+02  0.7818608E-02  0.1130116E+00
         25   -1    0    0    0    0  0.00000000000E+00  0.00000000000E+00  0.99999998245E-14  0.12500000000E+03  0.12500000000E+03 0.  0.
        -13    1    1    0    0    0  0.14271156678E+01  0.51691907929E+01  0.94482755240E+01  0.10864541730E+02  0.10566000000E+00 0.  1.
         13    1    1    0    0    0 -0.49538126258E+02  0.26076913465E+02  0.79021294521E-01  0.55982575659E+02  0.10566000000E+00 0. -1.
         22    1    1    0    0    0  0.48111010590E+02 -0.31246104258E+02 -0.95272968185E+01  0.58152882611E+02  0.00000000000E+00 0. -1.
</event>
<event>
 5    1  0.1245581E-004  0.9118800E+02  0.7818608E-02  0.1130116E+00
         25   -1    0    0    0    0  0.00000000000E+00  0.00000000000E+00  0.99999998245E-14  0.12500000000E+03  0.12500000000E+03 0.  0.
        -13    1    3    3    0    0  0.25694276763E+02  0.21707622831E+02 -0.19427020235E+02  0.38843751449E+02  0.10566000000E+00 0. -1.
         23    2    1    0    0    0 -0.25124362260E+02  0.96961506554E+01  0.67209541042E+01  0.97243556774E+02  0.93198117972E+02 0.  0.
         13    1    3    3    0    0 -0.50818639023E+02 -0.12011472176E+02  0.26147974339E+02  0.58399805325E+02  0.10566000000E+00 0.  1.
         22    1    1    0    0    0  0.25124362260E+02 -0.96961506554E+01 -0.67209541042E+01  0.27756443226E+02  0.00000000000E+00 0.  1.
</event>
<event>
 5    1  0.1245581E-004  0.9118800E+02  0.7818608E-02  0.1130116E+00
         25   -1    0    0    0    0  0.00000000000E+00  0.00000000000E+00  0.99999998245E-14  0.12500000000E+03  0.12500000000E+03 0.  0.
        -13    1    3    3    0    0  0.16070200687E+02 -0.21342845835E+02 -0.26770674309E+02  0.37821271600E+02  0.10566000000E+00 0.  1.
         23    2    1    0    0    0 -0.84798432236E+01 -0.12173841075E+02  0.25046897989E+02  0.95888881050E+02  0.91363123100E+02 0.  0.
         13    1    3    3    0    0 -0.24550043911E+02  0.91690047602E+01  0.51817572298E+02  0.58067609450E+02  0.10566000000E+00 0. -1.
         22    1    1    0    0    0  0.84798432236E+01  0.12173841075E+02 -0.25046897989E+02  0.29111118950E+02  0.00000000000E+00 0. -1.
</event>
<event>
 5    1  0.1245581E-004  0.9118800E+02  0.7818608E-02  0.1130116E+00
         25   -1    0    0    0    0  0.00000000000E+00  0.00000000000E+00  0.99999998245E-14  0.12500000000E+03  0.12500000000E+03 0.  0.
        -13    1    3    3    0    0 -0.16658057338E+02 -0.34357827934E+02  0.18216376760E+02  0.42306013295E+02  0.10566000000E+00 0. -1.
         23    2    1    0    0    0 -0.23353855868E+02  0.50272009007E+01 -0.17094642439E+02  0.95624804121E+02  0.91001104556E+02 0.  0.
         13    1    3    3    0    0 -0.66957985302E+01  0.39385028835E+02 -0.35311019199E+02  0.53318790826E+02  0.10566000000E+00 0.  1.
         22    1    1    0    0    0  0.23353855868E+02 -0.50272009007E+01  0.17094642439E+02  0.29375195879E+02  0.00000000000E+00 0. -1.
</event>
<event>
 5    1  0.1245581E-004  0.9118800E+02  0.7818608E-02  0.1130116E+00
         25   -1    0    0    0    0  0.00000000000E+00  0.00000000000E+00  0.99999998245E-14  0.12500000000E+03  0.12500000000E+03 0.  0.
        -13    1    3    3    0    0  0.24707261227E+02 -0.51002690825E+02 -0.16763244455E+02  0.59099414189E+02  0.10566000000E+00 0.  1.
         23    2    1    0    0    0  0.14359441201E+02 -0.26465534723E+02  0.61944966351E+01  0.94259312495E+02  0.89105713193E+02 0.  0.
         13    1    3    3    0    0 -0.10347820026E+02  0.24537156103E+02  0.22957741090E+02  0.35159898306E+02  0.10566000000E+00 0. -1.
         22    1    1    0    0    0 -0.14359441201E+02  0.26465534723E+02 -0.61944966351E+01  0.30740687505E+02  0.00000000000E+00 0.  1.
</event>
<event>
 5    1  0.1245581E-004  0.9118800E+02  0.7818608E-02  0.1130116E+00
         25   -1    0    0    0    0  0.00000000000E+00  0.00000000000E+00  0.99999998245E-14  0.12500000000E+03  0.12500000000E+03 0.  0.
        -13    1    3    3    0    0 -0.51403750890E+02 -0.91834990074E+01 -0.32860808698E+02  0.61697051566E+02  0.10566000000E+00 0. -1.
         23    2    1    0    0    0 -0.19773395922E+02 -0.81233576327E+01 -0.19552880235E+02  0.96029476170E+02  0.91555278616E+02 0.  0.
         13    1    3    3    0    0  0.31630354968E+02  0.10601413747E+01  0.13307928463E+02  0.34332424604E+02  0.10566000000E+00 0.  1.
         22    1    1    0    0    0  0.19773395922E+02  0.81233576327E+01  0.19552880235E+02  0.28970523830E+02  0.00000000000E+00 0. -1.
</event>
<event>
 5    1  0.1245581E-004  0.9118800E+02  0.7818608E-02  0.1130116E+00
         25   -1    0    0    0    0  0.00000000000E+00  0.00000000000E+00  0.99999998245E-14  0.12500000000E+03  0.12500000000E+03 0.  0.
        -13    1    3    3    0    0  0.36980593752E+02 -0.16171772877E+01 -0.46530697045E+02  0.59458359447E+02  0.10566000000E+00 0.  1.
         23    2    1    0    0    0  0.24052562681E+02 -0.88043474931E+01 -0.12637639538E+02  0.96438623293E+02  0.92112191502E+02 0.  0.
         13    1    3    3    0    0 -0.12928031071E+02 -0.71871702054E+01  0.33893057506E+02  0.36980263846E+02  0.10566000000E+00 0. -1.
         22    1    1    0    0    0 -0.24052562681E+02  0.88043474931E+01  0.12637639538E+02  0.28561376707E+02  0.00000000000E+00 0.  1.
</event>
<event>
 5    1  0.1245581E-004  0.9118800E+02  0.7818608E-02  0.1130116E+00
         25   -1    0    0    0    0  0.00000000000E+00  0.00000000000E+00  0.99999998245E-14  0.12500000000E+03  0.12500000000E+03 0.  0.
        -13    1    3    3    0    0 -0.17014983912E+02 -0.55896615950E+02  0.16548569047E+02  0.60727322135E+02  0.10566000000E+00 0.  1.
         23    2    1    0    0    0  0.27680366315E+01 -0.26664769756E+02  0.69976295099E+01  0.97293704836E+02  0.93265353745E+02 0.  0.
         13    1    3    3    0    0  0.19783020544E+02  0.29231846194E+02 -0.95509395368E+01  0.36566382701E+02  0.10566000000E+00 0. -1.
         22    1    1    0    0    0 -0.27680366315E+01  0.26664769756E+02 -0.69976295099E+01  0.27706295164E+02  0.00000000000E+00 0.  1.
</event>
<event>
 5    1  0.1245581E-004  0.9118800E+02  0.7818608E-02  0.1130116E+00
         25   -1    0    0    0    0  0.00000000000E+00  0.00000000000E+00  0.99999998245E-14  0.12500000000E+03  0.12500000000E+03 0.  0.
        -13    1    3    3    0    0 -0.45410118986E+02  0.80756378284E+01 -0.20606437931E+02  0.50516643603E+02  0.10566000000E+00 0.  1.
         23    2    1    0    0    0 -0.17072921102E+02  0.10146065331E+01  0.18812605107E+02  0.99575048235E+02  0.96274410196E+02 0.  0.
         13    1    3    3    0    0  0.28337197884E+02 -0.70610312953E+01  0.39419043038E+02  0.49058404631E+02  0.10566000000E+00 0. -1.
         22    1    1    0    0    0  0.17072921102E+02 -0.10146065331E+01 -0.18812605107E+02  0.25424951765E+02  0.00000000000E+00 0. -1.
</event>
<event>
 5    1  0.1245581E-004  0.9118800E+02  0.7818608E-02  0.1130116E+00
         25   -1    0    0    0    0  0.00000000000E+00  0.00000000000E+00  0.99999998245E-14  0.12500000000E+03  0.12500000000E+03 0.  0.
        -13    1    3    3    0    0 -0.27492657597E+02  0.31474755046E+02 -0.28083652290E+02  0.50350860141E+02  0.10566000000E+00 0. -1.
         23    2    1    0    0    0  0.70284219700E+01  0.39044348567E+01 -0.29370180560E+02  0.94549206364E+02  0.89511460668E+02 0.  0.
         13    1    3    3    0    0  0.34521079567E+02 -0.27570320189E+02 -0.12865282704E+01  0.44198346223E+02  0.10566000000E+00 0.  1.
         22    1    1    0    0    0 -0.70284219700E+01 -0.39044348567E+01  0.29370180560E+02  0.30450793636E+02  0.00000000000E+00 0. -1.
</event>
<event>
 5    1  0.1245581E-004  0.9118800E+02  0.7818608E-02  0.1130116E+00
         25   -1    0    0    0    0  0.00000000000E+00  0.00000000000E+00  0.99999998245E-14  0.12500000000E+03  0.12500000000E+03 0.  0.
        -13    1    3    3    0    0 -0.35441901409E+02  0.89909474120E+00  0.99734719473E-01  0.35453601480E+02  0.10566000000E+00 0.  1.
         23    2    1    0    0    0  0.23216219340E+02 -0.16360329800E+02  0.44320512771E-01  0.96598324065E+02  0.92328657611E+02 0.  0.
         13    1    3    3    0    0  0.58658120749E+02 -0.17259424542E+02 -0.55414206702E-01  0.61144722585E+02  0.10566000000E+00 0. -1.
         22    1    1    0    0    0 -0.23216219340E+02  0.16360329800E+02 -0.44320512771E-01  0.28401675935E+02  0.00000000000E+00 0. -1.
</event>
<event>
 5    1  0.1245581E-004  0.9118800E+02  0.7818608E-02  0.1130116E+00
         25   -1    0    0    0    0  0.00000000000E+00  0.00000000000E+00  0.99999998245E-14  0.12500000000E+03  0.12500000000E+03 0.  0.
        -13    1    3    3    0    0  0.46292644399E+02 -0.14363582977E+02 -0.14391300833E+02  0.50561271198E+02  0.10566000000E+00 0.  1.
         23    2    1    0    0    0  0.32802631421E+02 -0.27843747567E+01  0.17977156513E+02  0.87490754110E+02  0.79042321116E+02 0.  0.
         13    1    3    3    0    0 -0.13490012978E+02  0.11579208220E+02  0.32368457346E+02  0.36929482912E+02  0.10566000000E+00 0. -1.
         22    1    1    0    0    0 -0.32802631421E+02  0.27843747567E+01 -0.17977156513E+02  0.37509245890E+02  0.00000000000E+00 0. -1.
</event>
<event>
 5    1  0.1245581E-004  0.9118800E+02  0.7818608E-02  0.1130116E+00
         25   -1    0    0    0    0  0.00000000000E+00  0.00000000000E+00  0.99999998245E-14  0.12500000000E+03  0.12500000000E+03 0.  0.
        -13    1    3    3    0    0 -0.36534382012E+01 -0.22503314102E+02 -0.26810516748E+02  0.35193205716E+02  0.10566000000E+00 0.  1.
         23    2    1    0    0    0 -0.20915104213E+02  0.16082746679E+02  0.15001278053E+02  0.94649799536E+02  0.89651825882E+02 0.  0.
         13    1    3    3    0    0 -0.17261666012E+02  0.38586060780E+02  0.41811794802E+02  0.59456593820E+02  0.10566000000E+00 0. -1.
         22    1    1    0    0    0  0.20915104213E+02 -0.16082746679E+02 -0.15001278053E+02  0.30350200464E+02  0.00000000000E+00 0. -1.
</event>
<event>
 5    1  0.1245581E-004  0.9118800E+02  0.7818608E-02  0.1130116E+00
         25   -1    0    0    0    0  0.00000000000E+00  0.00000000000E+00  0.99999998245E-14  0.12500000000E+03  0.12500000000E+03 0.  0.
        -13    1    3    3    0    0  0.33285545069E+01  0.32311016546E+02 -0.32572058954E+02  0.46000339714E+02  0.10566000000E+00 0.  1.
         23    2    1    0    0    0  0.16996499789E+02  0.14559790423E+02  0.14638881976E+02  0.98257424063E+02  0.94548167701E+02 0.  0.
         13    1    3    3    0    0  0.13667945282E+02 -0.17751226123E+02  0.47210940930E+02  0.52257084348E+02  0.10566000000E+00 0. -1.
         22    1    1    0    0    0 -0.16996499789E+02 -0.14559790423E+02 -0.14638881976E+02  0.26742575937E+02  0.00000000000E+00 0.  1.
</event>
<event>
 5    1  0.1245581E-004  0.9118800E+02  0.7818608E-02  0.1130116E+00
         25   -1    0    0    0    0  0.00000000000E+00  0.00000000000E+00  0.99999998245E-14  0.12500000000E+03  0.12500000000E+03 0.  0.
        -13    1    3    3    0    0  0.11779465609E+02  0.14355361017E+02 -0.27734842492E+02  0.33377610041E+02  0.10566000000E+00 0. -1.
         23    2    1    0    0    0 -0.10445551734E+01 -0.10788215575E+02  0.27519148564E+02  0.95423316134E+02  0.90723916546E+02 0.  0.
         13    1    3    3    0    0 -0.12824020782E+02 -0.25143576592E+02  0.55253991057E+02  0.62045706093E+02  0.10566000000E+00 0.  1.
         22    1    1    0    0    0  0.10445551734E+01  0.10788215575E+02 -0.27519148564E+02  0.29576683866E+02  0.00000000000E+00 0.  1.
</event>
<event>
 5    1  0.1245581E-004  0.9118800E+02  0.7818608E-02  0.1130116E+00
         25   -1    0    0    0    0  0.00000000000E+00  0.00000000000E+00  0.99999998245E-14  0.12500000000E+03  0.12500000000E+03 0.  0.
        -13    1    3    3    0    0  0.24320101083E+02 -0.21526969177E+02  0.46963543389E+02  0.57100466639E+02  0.10566000000E+00 0. -1.
         23    2    1    0    0    0  0.25778327789E+02 -0.84276653871E+01  0.10423760319E+02  0.95944836833E+02  0.91439647901E+02 0.  0.
         13    1    3    3    0    0  0.14582267062E+01  0.13099303790E+02 -0.36539783071E+02  0.38844370194E+02  0.10566000000E+00 0.  1.
         22    1    1    0    0    0 -0.25778327789E+02  0.84276653871E+01 -0.10423760319E+02  0.29055163167E+02  0.00000000000E+00 0. -1.
</event>
<event>
 5    1  0.1245581E-004  0.9118800E+02  0.7818608E-02  0.1130116E+00
         25   -1    0    0    0    0  0.00000000000E+00  0.00000000000E+00  0.99999998245E-14  0.12500000000E+03  0.12500000000E+03 0.  0.
        -13    1    3    3    0    0 -0.14518976568E+01 -0.34132038136E+02  0.11661116863E+02  0.36098432717E+02  0.10566000000E+00 0. -1.
         23    2    1    0    0    0  0.11519146885E+02  0.22704638642E+02  0.16602172750E+02  0.94605535030E+02  0.89590087384E+02 0.  0.
         13    1    3    3    0    0  0.12971044542E+02  0.56836676778E+02  0.49410558868E+01  0.58507102312E+02  0.10566000000E+00 0.  1.
         22    1    1    0    0    0 -0.11519146885E+02 -0.22704638642E+02 -0.16602172750E+02  0.30394464970E+02  0.00000000000E+00 0.  1.
</event>
<event>
 5    1  0.1245581E-004  0.9118800E+02  0.7818608E-02  0.1130116E+00
         25   -1    0    0    0    0  0.00000000000E+00  0.00000000000E+00  0.99999998245E-14  0.12500000000E+03  0.12500000000E+03 0.  0.
        -13    1    3    3    0    0 -0.37248866796E+02 -0.16137954472E+02  0.30118181866E+02  0.50547281777E+02  0.10566000000E+00 0.  1.
         23    2    1    0    0    0  0.35861443709E+01  0.35408067225E+01  0.28660066790E+02  0.95900220411E+02  0.91378635921E+02 0.  0.
         13    1    3    3    0    0  0.40835011167E+02  0.19678761194E+02 -0.14581150760E+01  0.45352938634E+02  0.10566000000E+00 0. -1.
         22    1    1    0    0    0 -0.35861443709E+01 -0.35408067225E+01 -0.28660066790E+02  0.29099779589E+02  0.00000000000E+00 0.  1.
</event>
<event>
 5    1  0.1245581E-004  0.9118800E+02  0.7818608E-02  0.1130116E+00
         25   -1    0    0    0    0  0.00000000000E+00  0.00000000000E+00  0.99999998245E-14  0.12500000000E+03  0.12500000000E+03 0.  0.
        -13    1    3    3    0    0 -0.25277532677E+02 -0.23906975917E+02  0.18718944357E+02  0.39508318081E+02  0.10566000000E+00 0.  1.
         23    2    1    0    0    0  0.85655223862E+01  0.23425337309E+02  0.88978253047E+01  0.98518196871E+02  0.94892303259E+02 0.  0.
         13    1    3    3    0    0  0.33843055064E+02  0.47332313226E+02 -0.98211190522E+01  0.59009878790E+02  0.10566000000E+00 0. -1.
         22    1    1    0    0    0 -0.85655223862E+01 -0.23425337309E+02 -0.88978253047E+01  0.26481803129E+02  0.00000000000E+00 0. -1.
</event>
<event>
 5    1  0.1245581E-004  0.9118800E+02  0.7818608E-02  0.1130116E+00
         25   -1    0    0    0    0  0.00000000000E+00  0.00000000000E+00  0.99999998245E-14  0.12500000000E+03  0.12500000000E+03 0.  0.
        -13    1    3    3    0    0  0.15824994559E+01  0.54046174977E+02 -0.23513061514E+02  0.58960737444E+02  0.10566000000E+00 0. -1.
         23    2    1    0    0    0 -0.14067980217E+02  0.26767088004E+02 -0.12424603511E+02  0.92308168605E+02  0.86325211562E+02 0.  0.
         13    1    3    3    0    0 -0.15650479673E+02 -0.27279086973E+02  0.11088458003E+02  0.33347431160E+02  0.10566000000E+00 0.  1.
         22    1    1    0    0    0  0.14067980217E+02 -0.26767088004E+02  0.12424603511E+02  0.32691831395E+02  0.00000000000E+00 0. -1.
</event>
<event>
 5    1  0.1245581E-004  0.9118800E+02  0.7818608E-02  0.1130116E+00
         25   -1    0    0    0    0  0.00000000000E+00  0.00000000000E+00  0.99999998245E-14  0.12500000000E+03  0.12500000000E+03 0.  0.
        -13    1    3    3    0    0  0.33362417437E+02  0.25815203709E+01 -0.45854578090E+02  0.56765910901E+02  0.10566000000E+00 0. -1.
         23    2    1    0    0    0  0.15687651206E+02 -0.17453981599E+02 -0.17495963310E+02  0.95727955211E+02  0.91142683758E+02 0.  0.
         13    1    3    3    0    0 -0.17674766230E+02 -0.20035501970E+02  0.28358614780E+02  0.38962044309E+02  0.10566000000E+00 0.  1.
         22    1    1    0    0    0 -0.15687651206E+02  0.17453981599E+02  0.17495963310E+02  0.29272044789E+02  0.00000000000E+00 0. -1.
</event>
<event>
 5    1  0.1245581E-004  0.9118800E+02  0.7818608E-02  0.1130116E+00
         25   -1    0    0    0    0  0.00000000000E+00  0.00000000000E+00  0.99999998245E-14  0.12500000000E+03  0.12500000000E+03 0.  0.
        -13    1    3    3    0    0 -0.33689775064E+02 -0.14998424682E+02 -0.16794893608E+02  0.40522010095E+02  0.10566000000E+00 0. -1.
         23    2    1    0    0    0  0.51172559150E+01  0.23987794429E+02 -0.16332254506E+02  0.95532337607E+02  0.90874002893E+02 0.  0.
         13    1    3    3    0    0  0.38807030979E+02  0.38986219111E+02  0.46263910233E+00  0.55010327512E+02  0.10566000000E+00 0.  1.
         22    1    1    0    0    0 -0.51172559150E+01 -0.23987794429E+02  0.16332254506E+02  0.29467662393E+02  0.00000000000E+00 0.  1.
</event>
<event>
 5    1  0.1245581E-004  0.9118800E+02  0.7818608E-02  0.1130116E+00
         25   -1    0    0    0    0  0.00000000000E+00  0.00000000000E+00  0.99999998245E-14  0.12500000000E+03  0.12500000000E+03 0.  0.
        -13    1    3    3    0    0  0.34708900579E+02 -0.16552267424E+01  0.19476514409E+02  0.39834574587E+02  0.10566000000E+00 0. -1.
         23    2    1    0    0    0  0.11203147223E+02  0.61121432065E+01 -0.28473023199E+02  0.93797726808E+02  0.88455817796E+02 0.  0.
         13    1    3    3    0    0 -0.23505753356E+02  0.77673699489E+01 -0.47949537608E+02  0.53963152221E+02  0.10566000000E+00 0.  1.
         22    1    1    0    0    0 -0.11203147223E+02 -0.61121432065E+01  0.28473023199E+02  0.31202273192E+02  0.00000000000E+00 0. -1.
</event>
<event>
 5    1  0.1245581E-004  0.9118800E+02  0.7818608E-02  0.1130116E+00
         25   -1    0    0    0    0  0.00000000000E+00  0.00000000000E+00  0.99999998245E-14  0.12500000000E+03  0.12500000000E+03 0.  0.
        -13    1    3    3    0    0 -0.60715118758E+01  0.36260766978E+02 -0.92797801963E+01  0.37918754764E+02  0.10566000000E+00 0.  1.
         23    2    1    0    0    0 -0.20165657071E+02 -0.19554925208E+02 -0.90537555550E+01  0.95486963649E+02  0.90811568163E+02 0.  0.
         13    1    3    3    0    0 -0.14094145195E+02 -0.55815692187E+02  0.22602464123E+00  0.57568208885E+02  0.10566000000E+00 0. -1.
         22    1    1    0    0    0  0.20165657071E+02  0.19554925208E+02  0.90537555550E+01  0.29513036351E+02  0.00000000000E+00 0. -1.
</event>
<event>
 5    1  0.1245581E-004  0.9118800E+02  0.7818608E-02  0.1130116E+00
         25   -1    0    0    0    0  0.00000000000E+00  0.00000000000E+00  0.99999998245E-14  0.12500000000E+03  0.12500000000E+03 0.  0.
        -13    1    3    3    0    0  0.28253735976E+01 -0.73206835531E+01  0.40851877895E+02  0.41598824926E+02  0.10566000000E+00 0. -1.
         23    2    1    0    0    0 -0.24598006200E+02  0.15206941810E+02 -0.47992998066E+00  0.96076941361E+02  0.91620059704E+02 0.  0.
         13    1    3    3    0    0 -0.27423379798E+02  0.22527625363E+02 -0.41331807875E+02  0.54478116435E+02  0.10566000000E+00 0.  1.
         22    1    1    0    0    0  0.24598006200E+02 -0.15206941810E+02  0.47992998066E+00  0.28923058639E+02  0.00000000000E+00 0.  1.
</event>
<event>
 5    1  0.1245581E-004  0.9118800E+02  0.7818608E-02  0.1130116E+00
         25   -1    0    0    0    0  0.00000000000E+00  0.00000000000E+00  0.99999998245E-14  0.12500000000E+03  0.12500000000E+03 0.  0.
        -13    1    3    3    0    0 -0.22241095539E+01  0.26119053540E+02  0.40996631434E+02  0.48660934785E+02  0.10566000000E+00 0.  1.
         23    2    1    0    0    0  0.22709879991E+02  0.19307053889E+02  0.24232672182E+01  0.95093926987E+02  0.90268941207E+02 0.  0.
         13    1    3    3    0    0  0.24933989545E+02 -0.68119996510E+01 -0.38573364216E+02  0.46432992202E+02  0.10566000000E+00 0. -1.
         22    1    1    0    0    0 -0.22709879991E+02 -0.19307053889E+02 -0.24232672182E+01  0.29906073013E+02  0.00000000000E+00 0.  1.
</event>
<event>
 5    1  0.1245581E-004  0.9118800E+02  0.7818608E-02  0.1130116E+00
         25   -1    0    0    0    0  0.00000000000E+00  0.00000000000E+00  0.99999998245E-14  0.12500000000E+03  0.12500000000E+03 0.  0.
        -13    1    3    3    0    0  0.35235408840E+02  0.12199362994E+02  0.48623870523E+02  0.61275202507E+02  0.10566000000E+00 0. -1.
         23    2    1    0    0    0  0.14343663680E+02  0.13974557658E+02  0.20651626772E+02  0.96233376322E+02  0.91833240607E+02 0.  0.
         13    1    3    3    0    0 -0.20891745160E+02  0.17751946644E+01 -0.27972243751E+02  0.34958173815E+02  0.10566000000E+00 0.  1.
         22    1    1    0    0    0 -0.14343663680E+02 -0.13974557658E+02 -0.20651626772E+02  0.28766623678E+02  0.00000000000E+00 0. -1.
</event>
<event>
 5    1  0.1245581E-004  0.9118800E+02  0.7818608E-02  0.1130116E+00
         25   -1    0    0    0    0  0.00000000000E+00  0.00000000000E+00  0.99999998245E-14  0.12500000000E+03  0.12500000000E+03 0.  0.
        -13    1    3    3    0    0  0.15518980813E+02  0.13987151957E+02 -0.19472459914E+02  0.28559885232E+02  0.10566000000E+00 0.  1.
         23    2    1    0    0    0  0.10662466494E+02  0.45168972000E+02  0.15879351794E+02  0.75948210668E+02  0.57983210216E+02 0.  0.
         13    1    3    3    0    0 -0.48565143189E+01  0.31181820043E+02  0.35351811708E+02  0.47388325436E+02  0.10566000000E+00 0. -1.
         22    1    1    0    0    0 -0.10662466494E+02 -0.45168972000E+02 -0.15879351794E+02  0.49051789332E+02  0.00000000000E+00 0. -1.
</event>
<event>
 5    1  0.1245581E-004  0.9118800E+02  0.7818608E-02  0.1130116E+00
         25   -1    0    0    0    0  0.00000000000E+00  0.00000000000E+00  0.99999998245E-14  0.12500000000E+03  0.12500000000E+03 0.  0.
        -13    1    3    3    0    0  0.19806206499E+02  0.34105918155E+02  0.85682214136E+01  0.40359943648E+02  0.10566000000E+00 0. -1.
         23    2    1    0    0    0 -0.28295653332E+02  0.78653745458E+01  0.17033333746E+01  0.95582157475E+02  0.90942505842E+02 0.  0.
         13    1    3    3    0    0 -0.48101859831E+02 -0.26240543609E+02 -0.68648880391E+01  0.55222213827E+02  0.10566000000E+00 0.  1.
         22    1    1    0    0    0  0.28295653332E+02 -0.78653745458E+01 -0.17033333746E+01  0.29417842525E+02  0.00000000000E+00 0.  1.
</event>
<event>
 5    1  0.1245581E-004  0.9118800E+02  0.7818608E-02  0.1130116E+00
         25   -1    0    0    0    0  0.00000000000E+00  0.00000000000E+00  0.99999998245E-14  0.12500000000E+03  0.12500000000E+03 0.  0.
        -13    1    3    3    0    0 -0.86587208047E+01 -0.17181639707E+02 -0.32468543242E+02  0.37741219552E+02  0.10566000000E+00 0. -1.
         23    2    1    0    0    0  0.34269289269E+02 -0.69703296232E+01 -0.51168111454E+01  0.89656663451E+02  0.82396394720E+02 0.  0.
         13    1    3    3    0    0  0.42928010074E+02  0.10211310083E+02  0.27351732097E+02  0.51915443899E+02  0.10566000000E+00 0.  1.
         22    1    1    0    0    0 -0.34269289269E+02  0.69703296232E+01  0.51168111454E+01  0.35343336549E+02  0.00000000000E+00 0.  1.
</event>
<event>
 5    1  0.1245581E-004  0.9118800E+02  0.7818608E-02  0.1130116E+00
         25   -1    0    0    0    0  0.00000000000E+00  0.00000000000E+00  0.99999998245E-14  0.12500000000E+03  0.12500000000E+03 0.  0.
        -13    1    3    3    0    0 -0.48471374581E+01  0.35478500310E+02 -0.19742749390E+02  0.40890170497E+02  0.10566000000E+00 0. -1.
         23    2    1    0    0    0  0.14197445665E+02 -0.15908344073E+02 -0.20104874645E+02  0.95693876765E+02  0.91095934000E+02 0.  0.
         13    1    3    3    0    0  0.19044583123E+02 -0.51386844383E+02 -0.36212525489E+00  0.54803706268E+02  0.10566000000E+00 0.  1.
         22    1    1    0    0    0 -0.14197445665E+02  0.15908344073E+02  0.20104874645E+02  0.29306123235E+02  0.00000000000E+00 0.  1.
</event>
<event>
 5    1  0.1245581E-004  0.9118800E+02  0.7818608E-02  0.1130116E+00
         25   -1    0    0    0    0  0.00000000000E+00  0.00000000000E+00  0.99999998245E-14  0.12500000000E+03  0.12500000000E+03 0.  0.
        -13    1    3    3    0    0  0.34466306155E+02  0.93267596334E+01  0.15107781985E+02  0.38770748584E+02  0.10566000000E+00 0.  1.
         23    2    1    0    0    0  0.25961537871E+01 -0.32335907946E+02  0.55914147572E+01  0.92081693905E+02  0.85996648053E+02 0.  0.
         13    1    3    3    0    0 -0.31870152368E+02 -0.41662667579E+02 -0.95163672281E+01  0.53310945321E+02  0.10566000000E+00 0. -1.
         22    1    1    0    0    0 -0.25961537871E+01  0.32335907946E+02 -0.55914147572E+01  0.32918306095E+02  0.00000000000E+00 0. -1.
</event>
<event>
 5    1  0.1245581E-004  0.9118800E+02  0.7818608E-02  0.1130116E+00
         25   -1    0    0    0    0  0.00000000000E+00  0.00000000000E+00  0.99999998245E-14  0.12500000000E+03  0.12500000000E+03 0.  0.
        -13    1    3    3    0    0 -0.38170707906E+02  0.14060947598E+02  0.39404720493E+02  0.56634409598E+02  0.10566000000E+00 0. -1.
         23    2    1    0    0    0 -0.25499244084E+02 -0.10628774309E+02  0.15143222326E+02  0.93496040335E+02  0.88028461782E+02 0.  0.
         13    1    3    3    0    0  0.12671463822E+02 -0.24689721907E+02 -0.24261498166E+02  0.36861630737E+02  0.10566000000E+00 0.  1.
         22    1    1    0    0    0  0.25499244084E+02  0.10628774309E+02 -0.15143222326E+02  0.31503959665E+02  0.00000000000E+00 0. -1.
</event>
<event>
 5    1  0.1245581E-004  0.9118800E+02  0.7818608E-02  0.1130116E+00
         25   -1    0    0    0    0  0.00000000000E+00  0.00000000000E+00  0.99999998245E-14  0.12500000000E+03  0.12500000000E+03 0.  0.
        -13    1    3    3    0    0 -0.24015931807E+02  0.18560295779E+02  0.44551165159E+02  0.53907949701E+02  0.10566000000E+00 0. -1.
         23    2    1    0    0    0 -0.77643037987E+01 -0.13965980615E+02  0.25368907025E+02  0.95018097598E+02  0.90163875246E+02 0.  0.
         13    1    3    3    0    0  0.16251628008E+02 -0.32526276393E+02 -0.19182258133E+02  0.41110147896E+02  0.10566000000E+00 0.  1.
         22    1    1    0    0    0  0.77643037987E+01  0.13965980615E+02 -0.25368907025E+02  0.29981902402E+02  0.00000000000E+00 0. -1.
</event>
<event>
 5    1  0.1245581E-004  0.9118800E+02  0.7818608E-02  0.1130116E+00
         25   -1    0    0    0    0  0.00000000000E+00  0.00000000000E+00  0.99999998245E-14  0.12500000000E+03  0.12500000000E+03 0.  0.
        -13    1    3    3    0    0 -0.53330863585E+02  0.38631111137E+01 -0.27552046738E+02  0.60151733821E+02  0.10566000000E+00 0. -1.
         23    2    1    0    0    0 -0.18133760477E+02  0.10734759080E+02 -0.18056215416E+02  0.97249410155E+02  0.93205968365E+02 0.  0.
         13    1    3    3    0    0  0.35197103107E+02  0.68716479663E+01  0.94958313213E+01  0.37097676335E+02  0.10566000000E+00 0.  1.
         22    1    1    0    0    0  0.18133760477E+02 -0.10734759080E+02  0.18056215416E+02  0.27750589845E+02  0.00000000000E+00 0. -1.
</event>
<event>
 5    1  0.1245581E-004  0.9118800E+02  0.7818608E-02  0.1130116E+00
         25   -1    0    0    0    0  0.00000000000E+00  0.00000000000E+00  0.99999998245E-14  0.12500000000E+03  0.12500000000E+03 0.  0.
        -13    1    3    3    0    0  0.56766671682E+01  0.19131122739E+02 -0.23016925303E+02  0.30463329132E+02  0.10566000000E+00 0.  1.
         23    2    1    0    0    0 -0.40345543739E+02 -0.26026161397E+01 -0.14393982396E+02  0.82084696907E+02  0.69972667711E+02 0.  0.
         13    1    3    3    0    0 -0.46022210908E+02 -0.21733738879E+02  0.86229429066E+01  0.51621367774E+02  0.10566000000E+00 0. -1.
         22    1    1    0    0    0  0.40345543739E+02  0.26026161397E+01  0.14393982396E+02  0.42915303093E+02  0.00000000000E+00 0.  1.
</event>
<event>
 5    1  0.1245581E-004  0.9118800E+02  0.7818608E-02  0.1130116E+00
         25   -1    0    0    0    0  0.00000000000E+00  0.00000000000E+00  0.99999998245E-14  0.12500000000E+03  0.12500000000E+03 0.  0.
        -13    1    3    3    0    0  0.12142615758E+02 -0.29614443486E+02  0.16257933080E+02  0.35899720507E+02  0.10566000000E+00 0.  1.
         23    2    1    0    0    0 -0.20000655096E+02  0.56262254324E+01 -0.20266372037E+02  0.95975760950E+02  0.91481912079E+02 0.  0.
         13    1    3    3    0    0 -0.32143270853E+02  0.35240668919E+02 -0.36524305117E+02  0.60076040443E+02  0.10566000000E+00 0. -1.
         22    1    1    0    0    0  0.20000655096E+02 -0.56262254324E+01  0.20266372037E+02  0.29024239050E+02  0.00000000000E+00 0. -1.
</event>
<event>
 5    1  0.1245581E-004  0.9118800E+02  0.7818608E-02  0.1130116E+00
         25   -1    0    0    0    0  0.00000000000E+00  0.00000000000E+00  0.99999998245E-14  0.12500000000E+03  0.12500000000E+03 0.  0.
        -13    1    3    3    0    0  0.23792959908E+02  0.33202620664E+02 -0.20606389672E+02  0.45750993645E+02  0.10566000000E+00 0.  1.
         23    2    1    0    0    0 -0.14022188277E+02  0.21635215357E+02  0.11578128269E+02  0.96737704236E+02  0.92517166294E+02 0.  0.
         13    1    3    3    0    0 -0.37815148185E+02 -0.11567405306E+02  0.32184517941E+02  0.50986710591E+02  0.10566000000E+00 0. -1.
         22    1    1    0    0    0  0.14022188277E+02 -0.21635215357E+02 -0.11578128269E+02  0.28262295764E+02  0.00000000000E+00 0.  1.
</event>
<event>
 5    1  0.1245581E-004  0.9118800E+02  0.7818608E-02  0.1130116E+00
         25   -1    0    0    0    0  0.00000000000E+00  0.00000000000E+00  0.99999998245E-14  0.12500000000E+03  0.12500000000E+03 0.  0.
        -13    1    3    3    0    0  0.27408394590E+02  0.52688163788E+02 -0.13238962313E+02  0.60848533134E+02  0.10566000000E+00 0. -1.
         23    2    1    0    0    0  0.17083802849E+02  0.24032921751E+02  0.29927314986E+01  0.95362286028E+02  0.90639789866E+02 0.  0.
         13    1    3    3    0    0 -0.10324591741E+02 -0.28655242037E+02  0.16231693812E+02  0.34513752894E+02  0.10566000000E+00 0.  1.
         22    1    1    0    0    0 -0.17083802849E+02 -0.24032921751E+02 -0.29927314986E+01  0.29637713972E+02  0.00000000000E+00 0. -1.
</event>
<event>
 5    1  0.1245581E-004  0.9118800E+02  0.7818608E-02  0.1130116E+00
         25   -1    0    0    0    0  0.00000000000E+00  0.00000000000E+00  0.99999998245E-14  0.12500000000E+03  0.12500000000E+03 0.  0.
        -13    1    3    3    0    0  0.13780073621E+02  0.49194885653E+02 -0.33168493142E+02  0.60911306872E+02  0.10566000000E+00 0.  1.
         23    2    1    0    0    0  0.13374118605E+02  0.16686006640E+02 -0.19068244120E+02  0.96348860409E+02  0.91990298957E+02 0.  0.
         13    1    3    3    0    0 -0.40595501670E+00 -0.32508879014E+02  0.14100249022E+02  0.35437553537E+02  0.10566000000E+00 0. -1.
         22    1    1    0    0    0 -0.13374118605E+02 -0.16686006640E+02  0.19068244120E+02  0.28651139591E+02  0.00000000000E+00 0.  1.
</event>
<event>
 5    1  0.1245581E-004  0.9118800E+02  0.7818608E-02  0.1130116E+00
         25   -1    0    0    0    0  0.00000000000E+00  0.00000000000E+00  0.99999998245E-14  0.12500000000E+03  0.12500000000E+03 0.  0.
        -13    1    3    3    0    0 -0.14605077323E+02  0.27693359200E+02 -0.29547870573E+02  0.43050182889E+02  0.10566000000E+00 0. -1.
         23    2    1    0    0    0  0.26554353358E+02  0.19893483006E+02 -0.20781195254E+02  0.85849745537E+02  0.76403117634E+02 0.  0.
         13    1    3    3    0    0  0.41159430681E+02 -0.77998761935E+01  0.87666753193E+01  0.42799562647E+02  0.10566000000E+00 0.  1.
         22    1    1    0    0    0 -0.26554353358E+02 -0.19893483006E+02  0.20781195254E+02  0.39150254463E+02  0.00000000000E+00 0.  1.
</event>
<event>
 5    1  0.1245581E-004  0.9118800E+02  0.7818608E-02  0.1130116E+00
         25   -1    0    0    0    0  0.00000000000E+00  0.00000000000E+00  0.99999998245E-14  0.12500000000E+03  0.12500000000E+03 0.  0.
        -13    1    3    3    0    0  0.50399158712E+02  0.10843083435E+02 -0.93516278618E+01  0.52393814186E+02  0.10566000000E+00 0. -1.
         23    2    1    0    0    0  0.94136597295E+01  0.25713283978E+02 -0.95680493680E+01  0.95994181081E+02  0.91507077706E+02 0.  0.
         13    1    3    3    0    0 -0.40985498983E+02  0.14870200543E+02 -0.21642150621E+00  0.43600366895E+02  0.10566000000E+00 0.  1.
         22    1    1    0    0    0 -0.94136597295E+01 -0.25713283978E+02  0.95680493680E+01  0.29005818919E+02  0.00000000000E+00 0. -1.
</event>
<event>
 5    1  0.1245581E-004  0.9118800E+02  0.7818608E-02  0.1130116E+00
         25   -1    0    0    0    0  0.00000000000E+00  0.00000000000E+00  0.99999998245E-14  0.12500000000E+03  0.12500000000E+03 0.  0.
        -13    1    3    3    0    0  0.82570707983E+01 -0.38034141335E+02  0.14271259366E+02  0.41454253499E+02  0.10566000000E+00 0.  1.
         23    2    1    0    0    0  0.25532031321E+02  0.12827578813E+02  0.60145151060E+01  0.95800585733E+02  0.91242240400E+02 0.  0.
         13    1    3    3    0    0  0.17274960523E+02  0.50861720148E+02 -0.82567442597E+01  0.54346332234E+02  0.10566000000E+00 0. -1.
         22    1    1    0    0    0 -0.25532031321E+02 -0.12827578813E+02 -0.60145151060E+01  0.29199414267E+02  0.00000000000E+00 0.  1.
</event>
<event>
 5    1  0.1245581E-004  0.9118800E+02  0.7818608E-02  0.1130116E+00
         25   -1    0    0    0    0  0.00000000000E+00  0.00000000000E+00  0.99999998245E-14  0.12500000000E+03  0.12500000000E+03 0.  0.
        -13    1    3    3    0    0  0.37235599139E+02  0.21844498701E+02  0.21258815985E+01  0.43222708191E+02  0.10566000000E+00 0.  1.
         23    2    1    0    0    0  0.89371378124E+00  0.30485399913E+02 -0.21735806397E+02  0.87548650066E+02  0.79133826626E+02 0.  0.
         13    1    3    3    0    0 -0.36341885358E+02  0.86409012112E+01 -0.23861687995E+02  0.44325941875E+02  0.10566000000E+00 0. -1.
         22    1    1    0    0    0 -0.89371378124E+00 -0.30485399913E+02  0.21735806397E+02  0.37451349934E+02  0.00000000000E+00 0. -1.
</event>
<event>
 5    1  0.1245581E-004  0.9118800E+02  0.7818608E-02  0.1130116E+00
         25   -1    0    0    0    0  0.00000000000E+00  0.00000000000E+00  0.99999998245E-14  0.12500000000E+03  0.12500000000E+03 0.  0.
        -13    1    3    3    0    0 -0.58221226532E+01 -0.24758659267E+02 -0.47684315151E+02  0.54043439901E+02  0.10566000000E+00 0.  1.
         23    2    1    0    0    0 -0.22454828875E+02  0.31376624200E+00 -0.20208398608E+02  0.94789121771E+02  0.89845870483E+02 0.  0.
         13    1    3    3    0    0 -0.16632706222E+02  0.25072425509E+02  0.27475916543E+02  0.40745681870E+02  0.10566000000E+00 0. -1.
         22    1    1    0    0    0  0.22454828875E+02 -0.31376624200E+00  0.20208398608E+02  0.30210878229E+02  0.00000000000E+00 0.  1.
</event>
<event>
 5    1  0.1245581E-004  0.9118800E+02  0.7818608E-02  0.1130116E+00
         25   -1    0    0    0    0  0.00000000000E+00  0.00000000000E+00  0.99999998245E-14  0.12500000000E+03  0.12500000000E+03 0.  0.
        -13    1    3    3    0    0  0.94281215007E+01 -0.36381909017E+02 -0.96834136091E+01  0.38811241180E+02  0.10566000000E+00 0. -1.
         23    2    1    0    0    0 -0.16879170050E+02  0.12766369792E+02 -0.20430757764E+02  0.95583976441E+02  0.90945005967E+02 0.  0.
         13    1    3    3    0    0 -0.26307291550E+02  0.49148278809E+02 -0.10747344155E+02  0.56772735261E+02  0.10566000000E+00 0.  1.
         22    1    1    0    0    0  0.16879170050E+02 -0.12766369792E+02  0.20430757764E+02  0.29416023559E+02  0.00000000000E+00 0.  1.
</event>
<event>
 5    1  0.1245581E-004  0.9118800E+02  0.7818608E-02  0.1130116E+00
         25   -1    0    0    0    0  0.00000000000E+00  0.00000000000E+00  0.99999998245E-14  0.12500000000E+03  0.12500000000E+03 0.  0.
        -13    1    3    3    0    0  0.12383550517E+01  0.15529334920E+02  0.43111900376E+02  0.45840384862E+02  0.10566000000E+00 0.  1.
         23    2    1    0    0    0 -0.27890343869E+02  0.39063909476E+01  0.31168567954E+01  0.96665463342E+02  0.92419510037E+02 0.  0.
         13    1    3    3    0    0 -0.29128698921E+02 -0.11622943973E+02 -0.39995043580E+02  0.50825078479E+02  0.10566000000E+00 0. -1.
         22    1    1    0    0    0  0.27890343869E+02 -0.39063909476E+01 -0.31168567954E+01  0.28334536658E+02  0.00000000000E+00 0. -1.
</event>
<event>
 5    1  0.1245581E-004  0.9118800E+02  0.7818608E-02  0.1130116E+00
         25   -1    0    0    0    0  0.00000000000E+00  0.00000000000E+00  0.99999998245E-14  0.12500000000E+03  0.12500000000E+03 0.  0.
        -13    1    3    3    0    0  0.12941675512E+02 -0.53291682397E+01  0.59344581810E+02  0.60972760749E+02  0.10566000000E+00 0. -1.
         23    2    1    0    0    0 -0.18419260357E+01 -0.84128536082E+01  0.26790320354E+02  0.96859458747E+02  0.92681522898E+02 0.  0.
         13    1    3    3    0    0 -0.14783601548E+02 -0.30836853685E+01 -0.32554261456E+02  0.35886697997E+02  0.10566000000E+00 0.  1.
         22    1    1    0    0    0  0.18419260357E+01  0.84128536082E+01 -0.26790320354E+02  0.28140541253E+02  0.00000000000E+00 0. -1.
</event>
<event>
 5    1  0.1245581E-004  0.9118800E+02  0.7818608E-02  0.1130116E+00
         25   -1    0    0    0    0  0.00000000000E+00  0.00000000000E+00  0.99999998245E-14  0.12500000000E+03  0.12500000000E+03 0.  0.
        -13    1    3    3    0    0 -0.47801805217E+01 -0.22149067324E+01 -0.60542723139E+02  0.60771608723E+02  0.10566000000E+00 0.  1.
         23    2    1    0    0    0 -0.11173894641E+02  0.41999560608E+01 -0.27768215775E+02  0.94774690082E+02  0.89825789840E+02 0.  0.
         13    1    3    3    0    0 -0.63937141193E+01  0.64148627932E+01  0.32774507364E+02  0.34003081359E+02  0.10566000000E+00 0. -1.
         22    1    1    0    0    0  0.11173894641E+02 -0.41999560608E+01  0.27768215775E+02  0.30225309918E+02  0.00000000000E+00 0.  1.
</event>
<event>
 5    1  0.1245581E-004  0.9118800E+02  0.7818608E-02  0.1130116E+00
         25   -1    0    0    0    0  0.00000000000E+00  0.00000000000E+00  0.99999998245E-14  0.12500000000E+03  0.12500000000E+03 0.  0.
        -13    1    3    3    0    0  0.36187320949E+02 -0.10011781775E+02  0.46877702575E+01  0.37838397506E+02  0.10566000000E+00 0.  1.
         23    2    1    0    0    0 -0.15176476623E+02 -0.21534409027E+02 -0.15748697155E+02  0.94306716094E+02  0.89172187500E+02 0.  0.
         13    1    3    3    0    0 -0.51363797572E+02 -0.11522627252E+02 -0.20436467413E+02  0.56468318588E+02  0.10566000000E+00 0. -1.
         22    1    1    0    0    0  0.15176476623E+02  0.21534409027E+02  0.15748697155E+02  0.30693283906E+02  0.00000000000E+00 0. -1.
</event>
<event>
 5    1  0.1245581E-004  0.9118800E+02  0.7818608E-02  0.1130116E+00
         25   -1    0    0    0    0  0.00000000000E+00  0.00000000000E+00  0.99999998245E-14  0.12500000000E+03  0.12500000000E+03 0.  0.
        -13    1    3    3    0    0 -0.32311793952E+02  0.28275113562E+02 -0.30462506745E+02  0.52645128517E+02  0.10566000000E+00 0. -1.
         23    2    1    0    0    0 -0.49595241678E+01  0.30173802163E+02  0.10339706425E+01  0.94403851350E+02  0.89308246189E+02 0.  0.
         13    1    3    3    0    0  0.27352269784E+02  0.18986886011E+01  0.31496477387E+02  0.41758722833E+02  0.10566000000E+00 0.  1.
         22    1    1    0    0    0  0.49595241678E+01 -0.30173802163E+02 -0.10339706425E+01  0.30596148650E+02  0.00000000000E+00 0. -1.
</event>
<event>
 5    1  0.1245581E-004  0.9118800E+02  0.7818608E-02  0.1130116E+00
         25   -1    0    0    0    0  0.00000000000E+00  0.00000000000E+00  0.99999998245E-14  0.12500000000E+03  0.12500000000E+03 0.  0.
        -13    1    3    3    0    0  0.44442582295E+02 -0.78390854170E+01  0.69473212273E+01  0.45660385647E+02  0.10566000000E+00 0. -1.
         23    2    1    0    0    0  0.55396997202E+01  0.22045670993E+02  0.18069538253E+02  0.95961954350E+02  0.91463044927E+02 0.  0.
         13    1    3    3    0    0 -0.38902882575E+02  0.29884756410E+02  0.11122217025E+02  0.50301568702E+02  0.10566000000E+00 0.  1.
         22    1    1    0    0    0 -0.55396997202E+01 -0.22045670993E+02 -0.18069538253E+02  0.29038045650E+02  0.00000000000E+00 0.  1.
</event>
<event>
 5    1  0.1245581E-004  0.9118800E+02  0.7818608E-02  0.1130116E+00
         25   -1    0    0    0    0  0.00000000000E+00  0.00000000000E+00  0.99999998245E-14  0.12500000000E+03  0.12500000000E+03 0.  0.
        -13    1    3    3    0    0  0.71339622326E+00  0.26500524467E+02  0.18617719584E+02  0.32394712188E+02  0.10566000000E+00 0.  1.
         23    2    1    0    0    0  0.19845553168E+02 -0.22258305754E+02 -0.11759598650E+02  0.92944324746E+02  0.87241510685E+02 0.  0.
         13    1    3    3    0    0  0.19132156944E+02 -0.48758830221E+02 -0.30377318234E+02  0.60549612558E+02  0.10566000000E+00 0. -1.
         22    1    1    0    0    0 -0.19845553168E+02  0.22258305754E+02  0.11759598650E+02  0.32055675254E+02  0.00000000000E+00 0. -1.
</event>
<event>
 5    1  0.1245581E-004  0.9118800E+02  0.7818608E-02  0.1130116E+00
         25   -1    0    0    0    0  0.00000000000E+00  0.00000000000E+00  0.99999998245E-14  0.12500000000E+03  0.12500000000E+03 0.  0.
        -13    1    3    3    0    0 -0.53555516118E+00  0.49947854577E+02  0.12465723043E+02  0.51482816659E+02  0.10566000000E+00 0.  1.
         23    2    1    0    0    0  0.42998881191E+01  0.23269373734E+02 -0.20166486402E+02  0.93909165891E+02  0.88613156318E+02 0.  0.
         13    1    3    3    0    0  0.48354432802E+01 -0.26678480843E+02 -0.32632209445E+02  0.42426349232E+02  0.10566000000E+00 0. -1.
         22    1    1    0    0    0 -0.42998881191E+01 -0.23269373734E+02  0.20166486402E+02  0.31090834109E+02  0.00000000000E+00 0.  1.
</event>
<event>
 5    1  0.1245581E-004  0.9118800E+02  0.7818608E-02  0.1130116E+00
         25   -1    0    0    0    0  0.00000000000E+00  0.00000000000E+00  0.99999998245E-14  0.12500000000E+03  0.12500000000E+03 0.  0.
        -13    1    3    3    0    0  0.56857470277E+02  0.24160638558E+02 -0.30455264892E+00  0.61778736619E+02  0.10566000000E+00 0.  1.
         23    2    1    0    0    0  0.25109499552E+02  0.11722166074E+02 -0.67462620321E+01  0.96479687999E+02  0.92167901135E+02 0.  0.
         13    1    3    3    0    0 -0.31747970725E+02 -0.12438472483E+02 -0.64417093832E+01  0.34700951380E+02  0.10566000000E+00 0. -1.
         22    1    1    0    0    0 -0.25109499552E+02 -0.11722166074E+02  0.67462620321E+01  0.28520312001E+02  0.00000000000E+00 0.  1.
</event>
<event>
 5    1  0.1245581E-004  0.9118800E+02  0.7818608E-02  0.1130116E+00
         25   -1    0    0    0    0  0.00000000000E+00  0.00000000000E+00  0.99999998245E-14  0.12500000000E+03  0.12500000000E+03 0.  0.
        -13    1    3    3    0    0 -0.27916472839E+02  0.32522974178E+02  0.20275902973E+02  0.47415152753E+02  0.10566000000E+00 0.  1.
         23    2    1    0    0    0 -0.13611064649E+02  0.36508656459E+02 -0.13057407081E+02  0.83906947582E+02  0.73155566402E+02 0.  0.
         13    1    3    3    0    0  0.14305408191E+02  0.39856822813E+01 -0.33333310053E+02  0.36491794830E+02  0.10566000000E+00 0. -1.
         22    1    1    0    0    0  0.13611064649E+02 -0.36508656459E+02  0.13057407081E+02  0.41093052418E+02  0.00000000000E+00 0. -1.
</event>
<event>
 5    1  0.1245581E-004  0.9118800E+02  0.7818608E-02  0.1130116E+00
         25   -1    0    0    0    0  0.00000000000E+00  0.00000000000E+00  0.99999998245E-14  0.12500000000E+03  0.12500000000E+03 0.  0.
        -13    1    3    3    0    0 -0.40392979886E+02 -0.96457504899E+01  0.17745419900E+02  0.45161315504E+02  0.10566000000E+00 0.  1.
         23    2    1    0    0    0 -0.15183955209E+02  0.26668695750E+01 -0.24606642214E+02  0.95962928347E+02  0.91464376053E+02 0.  0.
         13    1    3    3    0    0  0.25209024677E+02  0.12312620065E+02 -0.42352062114E+02  0.50801612843E+02  0.10566000000E+00 0. -1.
         22    1    1    0    0    0  0.15183955209E+02 -0.26668695750E+01  0.24606642214E+02  0.29037071653E+02  0.00000000000E+00 0. -1.
</event>
<event>
 5    1  0.1245581E-004  0.9118800E+02  0.7818608E-02  0.1130116E+00
         25   -1    0    0    0    0  0.00000000000E+00  0.00000000000E+00  0.99999998245E-14  0.12500000000E+03  0.12500000000E+03 0.  0.
        -13    1    3    3    0    0 -0.20686923920E+02  0.31443777975E+02  0.12736499802E+01  0.37660235566E+02  0.10566000000E+00 0.  1.
         23    2    1    0    0    0 -0.11517610977E+02 -0.26167626303E+02 -0.35221504138E+01  0.96193653954E+02  0.91779156068E+02 0.  0.
         13    1    3    3    0    0  0.91693129431E+01 -0.57611404278E+02 -0.47958003941E+01  0.58533418388E+02  0.10566000000E+00 0. -1.
         22    1    1    0    0    0  0.11517610977E+02  0.26167626303E+02  0.35221504138E+01  0.28806346046E+02  0.00000000000E+00 0. -1.
</event>
<event>
 5    1  0.1245581E-004  0.9118800E+02  0.7818608E-02  0.1130116E+00
         25   -1    0    0    0    0  0.00000000000E+00  0.00000000000E+00  0.99999998245E-14  0.12500000000E+03  0.12500000000E+03 0.  0.
        -13    1    3    3    0    0 -0.15918167314E+02 -0.76061754195E+01  0.15728493178E+02  0.23635537160E+02  0.10566000000E+00 0. -1.
         23    2    1    0    0    0  0.29435374138E+02 -0.37350158879E+01  0.39980837732E+02  0.75211859042E+02  0.56373440204E+02 0.  0.
         13    1    3    3    0    0  0.45353541453E+02  0.38711595316E+01  0.24252344554E+02  0.51576321881E+02  0.10566000000E+00 0.  1.
         22    1    1    0    0    0 -0.29435374138E+02  0.37350158879E+01 -0.39980837732E+02  0.49788140958E+02  0.00000000000E+00 0.  1.
</event>
<event>
 5    1  0.1245581E-004  0.9118800E+02  0.7818608E-02  0.1130116E+00
         25   -1    0    0    0    0  0.00000000000E+00  0.00000000000E+00  0.99999998245E-14  0.12500000000E+03  0.12500000000E+03 0.  0.
        -13    1    3    3    0    0  0.33000094425E+02 -0.15643967155E+01 -0.47027672242E+02  0.57472312375E+02  0.10566000000E+00 0.  1.
         23    2    1    0    0    0  0.11223665819E+02 -0.17910990360E+02 -0.18480233734E+02  0.96923438798E+02  0.92767772957E+02 0.  0.
         13    1    3    3    0    0 -0.21776428606E+02 -0.16346593645E+02  0.28547438509E+02  0.39451126423E+02  0.10566000000E+00 0. -1.
         22    1    1    0    0    0 -0.11223665819E+02  0.17910990360E+02  0.18480233734E+02  0.28076561202E+02  0.00000000000E+00 0.  1.
</event>
<event>
 5    1  0.1245581E-004  0.9118800E+02  0.7818608E-02  0.1130116E+00
         25   -1    0    0    0    0  0.00000000000E+00  0.00000000000E+00  0.99999998245E-14  0.12500000000E+03  0.12500000000E+03 0.  0.
        -13    1    3    3    0    0  0.35616559476E+02  0.44971521144E+02 -0.24269022226E+02  0.62289434310E+02  0.10566000000E+00 0. -1.
         23    2    1    0    0    0  0.16964203567E+02  0.19550438515E+02 -0.14665353802E+02  0.95249765532E+02  0.90484481448E+02 0.  0.
         13    1    3    3    0    0 -0.18652355909E+02 -0.25421082629E+02  0.96036684239E+01  0.32960331221E+02  0.10566000000E+00 0.  1.
         22    1    1    0    0    0 -0.16964203567E+02 -0.19550438515E+02  0.14665353802E+02  0.29750234468E+02  0.00000000000E+00 0. -1.
</event>
<event>
 5    1  0.1245581E-004  0.9118800E+02  0.7818608E-02  0.1130116E+00
         25   -1    0    0    0    0  0.00000000000E+00  0.00000000000E+00  0.99999998245E-14  0.12500000000E+03  0.12500000000E+03 0.  0.
        -13    1    3    3    0    0  0.40072480778E+02 -0.29871616795E+02  0.19575295693E+02  0.53677933745E+02  0.10566000000E+00 0.  1.
         23    2    1    0    0    0  0.50148993630E+01 -0.87582872065E+01  0.27803487419E+02  0.95421448260E+02  0.90721342941E+02 0.  0.
         13    1    3    3    0    0 -0.35057581415E+02  0.21113329588E+02  0.82281917254E+01  0.41743514515E+02  0.10566000000E+00 0. -1.
         22    1    1    0    0    0 -0.50148993630E+01  0.87582872065E+01 -0.27803487419E+02  0.29578551740E+02  0.00000000000E+00 0. -1.
</event>
<event>
 5    1  0.1245581E-004  0.9118800E+02  0.7818608E-02  0.1130116E+00
         25   -1    0    0    0    0  0.00000000000E+00  0.00000000000E+00  0.99999998245E-14  0.12500000000E+03  0.12500000000E+03 0.  0.
        -13    1    3    3    0    0 -0.23663363222E+02  0.29674993061E+02  0.42060419622E+02  0.56653773352E+02  0.10566000000E+00 0.  1.
         23    2    1    0    0    0 -0.62513595472E+01  0.28549795287E+02  0.83628443634E+01  0.94600863943E+02  0.89583569843E+02 0.  0.
         13    1    3    3    0    0  0.17412003675E+02 -0.11251977738E+01 -0.33697575259E+02  0.37947090592E+02  0.10566000000E+00 0. -1.
         22    1    1    0    0    0  0.62513595472E+01 -0.28549795287E+02 -0.83628443634E+01  0.30399136057E+02  0.00000000000E+00 0.  1.
</event>
<event>
 5    1  0.1245581E-004  0.9118800E+02  0.7818608E-02  0.1130116E+00
         25   -1    0    0    0    0  0.00000000000E+00  0.00000000000E+00  0.99999998245E-14  0.12500000000E+03  0.12500000000E+03 0.  0.
        -13    1    3    3    0    0  0.21557674396E+02 -0.45237081122E+02  0.25754701987E+02  0.56342192647E+02  0.10566000000E+00 0. -1.
         23    2    1    0    0    0 -0.86873714600E+01 -0.18891580683E+02  0.18631882520E+02  0.97080306416E+02  0.92978904081E+02 0.  0.
         13    1    3    3    0    0 -0.30245045856E+02  0.26345500440E+02 -0.71228194671E+01  0.40738113769E+02  0.10566000000E+00 0.  1.
         22    1    1    0    0    0  0.86873714600E+01  0.18891580683E+02 -0.18631882520E+02  0.27919693584E+02  0.00000000000E+00 0. -1.
</event>
<event>
 5    1  0.1245581E-004  0.9118800E+02  0.7818608E-02  0.1130116E+00
         25   -1    0    0    0    0  0.00000000000E+00  0.00000000000E+00  0.99999998245E-14  0.12500000000E+03  0.12500000000E+03 0.  0.
        -13    1    3    3    0    0  0.45339326286E+02 -0.13162230074E+02  0.20389347364E+02  0.51426019276E+02  0.10566000000E+00 0. -1.
         23    2    1    0    0    0  0.26453021459E+02  0.18903833496E+02  0.15567791908E+02  0.88951790474E+02  0.81320032086E+02 0.  0.
         13    1    3    3    0    0 -0.18886304827E+02  0.32066063570E+02 -0.48215554563E+01  0.37525771198E+02  0.10566000000E+00 0.  1.
         22    1    1    0    0    0 -0.26453021459E+02 -0.18903833496E+02 -0.15567791908E+02  0.36048209526E+02  0.00000000000E+00 0. -1.
</event>
<event>
 5    1  0.1245581E-004  0.9118800E+02  0.7818608E-02  0.1130116E+00
         25   -1    0    0    0    0  0.00000000000E+00  0.00000000000E+00  0.99999998245E-14  0.12500000000E+03  0.12500000000E+03 0.  0.
        -13    1    3    3    0    0  0.45940323701E+02  0.10767603121E+02 -0.40119593830E+02  0.61935834472E+02  0.10566000000E+00 0.  1.
         23    2    1    0    0    0  0.22359045452E+02  0.10185104175E+02 -0.15957666934E+02  0.95703065100E+02  0.91108541174E+02 0.  0.
         13    1    3    3    0    0 -0.23581278249E+02 -0.58249894587E+00  0.24161926896E+02  0.33767230627E+02  0.10566000000E+00 0. -1.
         22    1    1    0    0    0 -0.22359045452E+02 -0.10185104175E+02  0.15957666934E+02  0.29296934900E+02  0.00000000000E+00 0.  1.
</event>
<event>
 5    1  0.1245581E-004  0.9118800E+02  0.7818608E-02  0.1130116E+00
         25   -1    0    0    0    0  0.00000000000E+00  0.00000000000E+00  0.99999998245E-14  0.12500000000E+03  0.12500000000E+03 0.  0.
        -13    1    3    3    0    0  0.26763841479E+02 -0.16654369337E+02 -0.27759247651E+02  0.42003073970E+02  0.10566000000E+00 0.  1.
         23    2    1    0    0    0 -0.68699203347E+01 -0.28300076839E+02  0.10298033237E+02  0.94110849105E+02  0.88897200610E+02 0.  0.
         13    1    3    3    0    0 -0.33633761814E+02 -0.11645707502E+02  0.38057280887E+02  0.52107775135E+02  0.10566000000E+00 0. -1.
         22    1    1    0    0    0  0.68699203347E+01  0.28300076839E+02 -0.10298033237E+02  0.30889150895E+02  0.00000000000E+00 0. -1.
</event>
<event>
 5    1  0.1245581E-004  0.9118800E+02  0.7818608E-02  0.1130116E+00
         25   -1    0    0    0    0  0.00000000000E+00  0.00000000000E+00  0.99999998245E-14  0.12500000000E+03  0.12500000000E+03 0.  0.
        -13    1    3    3    0    0 -0.23804165399E+02  0.17886236814E+02 -0.13496618702E+02  0.32691369475E+02  0.10566000000E+00 0.  1.
         23    2    1    0    0    0 -0.39888469565E+01 -0.46942238974E+01  0.34848909650E+02  0.89610832988E+02  0.82326837950E+02 0.  0.
         13    1    3    3    0    0  0.19815318442E+02 -0.22580460711E+02  0.48345528352E+02  0.56919463513E+02  0.10566000000E+00 0. -1.
         22    1    1    0    0    0  0.39888469565E+01  0.46942238974E+01 -0.34848909650E+02  0.35389167012E+02  0.00000000000E+00 0. -1.
</event>
<event>
 5    1  0.1245581E-004  0.9118800E+02  0.7818608E-02  0.1130116E+00
         25   -1    0    0    0    0  0.00000000000E+00  0.00000000000E+00  0.99999998245E-14  0.12500000000E+03  0.12500000000E+03 0.  0.
        -13    1    3    3    0    0  0.27201000518E+02  0.95589840172E+01 -0.52815647072E+02  0.60172853882E+02  0.10566000000E+00 0. -1.
         23    2    1    0    0    0  0.14036380562E+01  0.77035276724E+01 -0.27660649020E+02  0.96252373270E+02  0.91859094910E+02 0.  0.
         13    1    3    3    0    0 -0.25797362462E+02 -0.18554563448E+01  0.25154998053E+02  0.36079519388E+02  0.10566000000E+00 0.  1.
         22    1    1    0    0    0 -0.14036380562E+01 -0.77035276724E+01  0.27660649020E+02  0.28747626730E+02  0.00000000000E+00 0. -1.
</event>
<event>
 5    1  0.1245581E-004  0.9118800E+02  0.7818608E-02  0.1130116E+00
         25   -1    0    0    0    0  0.00000000000E+00  0.00000000000E+00  0.99999998245E-14  0.12500000000E+03  0.12500000000E+03 0.  0.
        -13    1    3    3    0    0 -0.14716708873E+02  0.18929734270E+02 -0.31907741073E+02  0.39912798248E+02  0.10566000000E+00 0. -1.
         23    2    1    0    0    0 -0.17154353256E+01  0.26077697031E+02  0.18838702989E+02  0.92783766032E+02  0.87011157376E+02 0.  0.
         13    1    3    3    0    0  0.13001273548E+02  0.71479627604E+01  0.50746444061E+02  0.52870967784E+02  0.10566000000E+00 0.  1.
         22    1    1    0    0    0  0.17154353256E+01 -0.26077697031E+02 -0.18838702989E+02  0.32216233968E+02  0.00000000000E+00 0.  1.
</event>
<event>
 5    1  0.1245581E-004  0.9118800E+02  0.7818608E-02  0.1130116E+00
         25   -1    0    0    0    0  0.00000000000E+00  0.00000000000E+00  0.99999998245E-14  0.12500000000E+03  0.12500000000E+03 0.  0.
        -13    1    3    3    0    0  0.12538251258E+02 -0.22811004896E+02  0.49449085696E+02  0.55881776361E+02  0.10566000000E+00 0.  1.
         23    2    1    0    0    0  0.22922497167E+02 -0.10133927723E+02  0.11092738172E+02  0.97592223592E+02  0.93664592552E+02 0.  0.
         13    1    3    3    0    0  0.10384245909E+02  0.12677077173E+02 -0.38356347524E+02  0.41710447231E+02  0.10566000000E+00 0. -1.
         22    1    1    0    0    0 -0.22922497167E+02  0.10133927723E+02 -0.11092738172E+02  0.27407776408E+02  0.00000000000E+00 0.  1.
</event>
<event>
 5    1  0.1245581E-004  0.9118800E+02  0.7818608E-02  0.1130116E+00
         25   -1    0    0    0    0  0.00000000000E+00  0.00000000000E+00  0.99999998245E-14  0.12500000000E+03  0.12500000000E+03 0.  0.
        -13    1    3    3    0    0 -0.51855412088E+00  0.34286314392E+02 -0.32289517857E+02  0.47100364971E+02  0.10566000000E+00 0. -1.
         23    2    1    0    0    0 -0.10660202196E+02  0.23277350498E+02  0.14048896845E+02  0.95796464947E+02  0.91236594833E+02 0.  0.
         13    1    3    3    0    0 -0.10141648075E+02 -0.11008963894E+02  0.46338414702E+02  0.48696099976E+02  0.10566000000E+00 0.  1.
         22    1    1    0    0    0  0.10660202196E+02 -0.23277350498E+02 -0.14048896845E+02  0.29203535053E+02  0.00000000000E+00 0. -1.
</event>
<event>
 5    1  0.1245581E-004  0.9118800E+02  0.7818608E-02  0.1130116E+00
         25   -1    0    0    0    0  0.00000000000E+00  0.00000000000E+00  0.99999998245E-14  0.12500000000E+03  0.12500000000E+03 0.  0.
        -13    1    3    3    0    0  0.36571528205E+02  0.16707104836E+01  0.15256974319E+02  0.39661749560E+02  0.10566000000E+00 0. -1.
         23    2    1    0    0    0  0.50529804244E+01 -0.11848863527E+02 -0.27594143827E+02  0.94547332603E+02  0.89508843981E+02 0.  0.
         13    1    3    3    0    0 -0.31518547781E+02 -0.13519574010E+02 -0.42851118146E+02  0.54885583043E+02  0.10566000000E+00 0.  1.
         22    1    1    0    0    0 -0.50529804244E+01  0.11848863527E+02  0.27594143827E+02  0.30452667397E+02  0.00000000000E+00 0.  1.
</event>
<event>
 5    1  0.1245581E-004  0.9118800E+02  0.7818608E-02  0.1130116E+00
         25   -1    0    0    0    0  0.00000000000E+00  0.00000000000E+00  0.99999998245E-14  0.12500000000E+03  0.12500000000E+03 0.  0.
        -13    1    3    3    0    0 -0.18066724841E+02  0.24331724868E+02  0.31827735519E+02  0.43948325268E+02  0.10566000000E+00 0. -1.
         23    2    1    0    0    0  0.71852134607E+00  0.23313939277E+02 -0.16909463994E+02  0.96190522218E+02  0.91774890654E+02 0.  0.
         13    1    3    3    0    0  0.18785246187E+02 -0.10177855914E+01 -0.48737199513E+02  0.52242196950E+02  0.10566000000E+00 0.  1.
         22    1    1    0    0    0 -0.71852134607E+00 -0.23313939277E+02  0.16909463994E+02  0.28809477782E+02  0.00000000000E+00 0. -1.
</event>
<event>
 5    1  0.1245581E-004  0.9118800E+02  0.7818608E-02  0.1130116E+00
         25   -1    0    0    0    0  0.00000000000E+00  0.00000000000E+00  0.99999998245E-14  0.12500000000E+03  0.12500000000E+03 0.  0.
        -13    1    3    3    0    0  0.85977062998E+01  0.16335050442E+02 -0.44346278120E+02  0.48034966157E+02  0.10566000000E+00 0.  1.
         23    2    1    0    0    0 -0.54711764762E+01  0.29491512880E+02 -0.15513135941E+01  0.94965192229E+02  0.90090499262E+02 0.  0.
         13    1    3    3    0    0 -0.14068882776E+02  0.13156462438E+02  0.42794964525E+02  0.46930226072E+02  0.10566000000E+00 0. -1.
         22    1    1    0    0    0  0.54711764762E+01 -0.29491512880E+02  0.15513135941E+01  0.30034807771E+02  0.00000000000E+00 0. -1.
</event>
<event>
 5    1  0.1245581E-004  0.9118800E+02  0.7818608E-02  0.1130116E+00
         25   -1    0    0    0    0  0.00000000000E+00  0.00000000000E+00  0.99999998245E-14  0.12500000000E+03  0.12500000000E+03 0.  0.
        -13    1    3    3    0    0  0.37435477190E+02  0.39933497928E+01  0.80700638542E-01  0.37648100505E+02  0.10566000000E+00 0.  1.
         23    2    1    0    0    0 -0.12214201833E+02 -0.24221541533E+02 -0.10835933286E+02  0.95788919040E+02  0.91226255870E+02 0.  0.
         13    1    3    3    0    0 -0.49649679023E+02 -0.28214891326E+02 -0.10916633925E+02  0.58140818535E+02  0.10566000000E+00 0. -1.
         22    1    1    0    0    0  0.12214201833E+02  0.24221541533E+02  0.10835933286E+02  0.29211080960E+02  0.00000000000E+00 0. -1.
</event>
<event>
 5    1  0.1245581E-004  0.9118800E+02  0.7818608E-02  0.1130116E+00
         25   -1    0    0    0    0  0.00000000000E+00  0.00000000000E+00  0.99999998245E-14  0.12500000000E+03  0.12500000000E+03 0.  0.
        -13    1    3    3    0    0 -0.33974297282E+02  0.32707081636E+02  0.11681027381E+02  0.48584602805E+02  0.10566000000E+00 0.  1.
         23    2    1    0    0    0  0.12702347572E+02  0.24822938113E+02  0.76029743593E+01  0.96097870157E+02  0.91648609041E+02 0.  0.
         13    1    3    3    0    0  0.46676644854E+02 -0.78841435235E+01 -0.40780530219E+01  0.47513267352E+02  0.10566000000E+00 0. -1.
         22    1    1    0    0    0 -0.12702347572E+02 -0.24822938113E+02 -0.76029743593E+01  0.28902129843E+02  0.00000000000E+00 0. -1.
</event>
<event>
 5    1  0.1245581E-004  0.9118800E+02  0.7818608E-02  0.1130116E+00
         25   -1    0    0    0    0  0.00000000000E+00  0.00000000000E+00  0.99999998245E-14  0.12500000000E+03  0.12500000000E+03 0.  0.
        -13    1    3    3    0    0  0.30737374459E+02  0.32190800863E+02 -0.10301482689E+02  0.45685507095E+02  0.10566000000E+00 0. -1.
         23    2    1    0    0    0  0.44757574874E+01 -0.52432989363E+01 -0.29076642934E+02  0.95117300103E+02  0.90301301352E+02 0.  0.
         13    1    3    3    0    0 -0.26261616972E+02 -0.37434099800E+02 -0.18775160245E+02  0.49431793009E+02  0.10566000000E+00 0.  1.
         22    1    1    0    0    0 -0.44757574874E+01  0.52432989363E+01  0.29076642934E+02  0.29882699897E+02  0.00000000000E+00 0.  1.
</event>
<event>
 5    1  0.1245581E-004  0.9118800E+02  0.7818608E-02  0.1130116E+00
         25   -1    0    0    0    0  0.00000000000E+00  0.00000000000E+00  0.99999998245E-14  0.12500000000E+03  0.12500000000E+03 0.  0.
        -13    1    3    3    0    0 -0.79984237669E+01  0.52213275804E+02  0.30390417253E+02  0.60940869519E+02  0.10566000000E+00 0. -1.
         23    2    1    0    0    0 -0.31452081198E+01  0.17539431346E+02  0.21522080148E+02  0.97058562672E+02  0.92949667391E+02 0.  0.
         13    1    3    3    0    0  0.48532156471E+01 -0.34673844458E+02 -0.88683371052E+01  0.36117693153E+02  0.10566000000E+00 0.  1.
         22    1    1    0    0    0  0.31452081198E+01 -0.17539431346E+02 -0.21522080148E+02  0.27941437328E+02  0.00000000000E+00 0. -1.
</event>
<event>
 5    1  0.1245581E-004  0.9118800E+02  0.7818608E-02  0.1130116E+00
         25   -1    0    0    0    0  0.00000000000E+00  0.00000000000E+00  0.99999998245E-14  0.12500000000E+03  0.12500000000E+03 0.  0.
        -13    1    3    3    0    0  0.39244113519E+02  0.60311777956E+01  0.15253449821E+02  0.42534156238E+02  0.10566000000E+00 0. -1.
         23    2    1    0    0    0 -0.13575800722E+02  0.21040284960E+02  0.11124233915E+02  0.97600282180E+02  0.93675346517E+02 0.  0.
         13    1    3    3    0    0 -0.52819914240E+02  0.15009107164E+02 -0.41292159060E+01  0.55066125942E+02  0.10566000000E+00 0.  1.
         22    1    1    0    0    0  0.13575800722E+02 -0.21040284960E+02 -0.11124233915E+02  0.27399717820E+02  0.00000000000E+00 0.  1.
</event>
<event>
 5    1  0.1245581E-004  0.9118800E+02  0.7818608E-02  0.1130116E+00
         25   -1    0    0    0    0  0.00000000000E+00  0.00000000000E+00  0.99999998245E-14  0.12500000000E+03  0.12500000000E+03 0.  0.
        -13    1    3    3    0    0 -0.48301966865E+02 -0.24742841859E+02  0.14386834501E+02  0.56145172520E+02  0.10566000000E+00 0. -1.
         23    2    1    0    0    0 -0.19843402351E+02 -0.18089822631E+02 -0.12063383725E+02  0.95563160384E+02  0.90916390689E+02 0.  0.
         13    1    3    3    0    0  0.28458564514E+02  0.66530192280E+01 -0.26450218226E+02  0.39417987864E+02  0.10566000000E+00 0.  1.
         22    1    1    0    0    0  0.19843402351E+02  0.18089822631E+02  0.12063383725E+02  0.29436839616E+02  0.00000000000E+00 0. -1.
</event>
<event>
 5    1  0.1245581E-004  0.9118800E+02  0.7818608E-02  0.1130116E+00
         25   -1    0    0    0    0  0.00000000000E+00  0.00000000000E+00  0.99999998245E-14  0.12500000000E+03  0.12500000000E+03 0.  0.
        -13    1    3    3    0    0  0.34577472887E+02  0.24097723260E+01  0.11592715867E+02  0.36548746342E+02  0.10566000000E+00 0.  1.
         23    2    1    0    0    0 -0.10740543062E+02 -0.24177714169E+02 -0.14083815799E+02  0.95028763870E+02  0.90178661376E+02 0.  0.
         13    1    3    3    0    0 -0.45318015949E+02 -0.26587486495E+02 -0.25676531666E+02  0.58480017528E+02  0.10566000000E+00 0. -1.
         22    1    1    0    0    0  0.10740543062E+02  0.24177714169E+02  0.14083815799E+02  0.29971236130E+02  0.00000000000E+00 0. -1.
</event>
<event>
 5    1  0.1245581E-004  0.9118800E+02  0.7818608E-02  0.1130116E+00
         25   -1    0    0    0    0  0.00000000000E+00  0.00000000000E+00  0.99999998245E-14  0.12500000000E+03  0.12500000000E+03 0.  0.
        -13    1    3    3    0    0  0.41557387607E+02  0.24893504685E+02 -0.52561109851E+01  0.48727209102E+02  0.10566000000E+00 0.  1.
         23    2    1    0    0    0  0.22582981274E+02 -0.18200451561E+02 -0.18323959509E+01  0.95937908623E+02  0.91430176396E+02 0.  0.
         13    1    3    3    0    0 -0.18974406332E+02 -0.43093956246E+02  0.34237150342E+01  0.47210699521E+02  0.10566000000E+00 0. -1.
         22    1    1    0    0    0 -0.22582981274E+02  0.18200451561E+02  0.18323959509E+01  0.29062091377E+02  0.00000000000E+00 0.  1.
</event>
<event>
 5    1  0.1245581E-004  0.9118800E+02  0.7818608E-02  0.1130116E+00
         25   -1    0    0    0    0  0.00000000000E+00  0.00000000000E+00  0.99999998245E-14  0.12500000000E+03  0.12500000000E+03 0.  0.
        -13    1    3    3    0    0 -0.18868777219E+02  0.57138996579E+01  0.38099470719E+02  0.42898254465E+02  0.10566000000E+00 0. -1.
         23    2    1    0    0    0  0.14869206775E+02  0.26049372655E+02  0.45079551652E+01  0.94668749027E+02  0.89678242940E+02 0.  0.
         13    1    3    3    0    0  0.33737983994E+02  0.20335472997E+02 -0.33591515554E+02  0.51770494562E+02  0.10566000000E+00 0.  1.
         22    1    1    0    0    0 -0.14869206775E+02 -0.26049372655E+02 -0.45079551652E+01  0.30331250973E+02  0.00000000000E+00 0.  1.
</event>
<event>
 5    1  0.1245581E-004  0.9118800E+02  0.7818608E-02  0.1130116E+00
         25   -1    0    0    0    0  0.00000000000E+00  0.00000000000E+00  0.99999998245E-14  0.12500000000E+03  0.12500000000E+03 0.  0.
        -13    1    3    3    0    0 -0.12013753303E+02  0.70375321999E+01 -0.53364311865E+02  0.55150866473E+02  0.10566000000E+00 0. -1.
         23    2    1    0    0    0 -0.16211219704E+02 -0.14716582446E+02 -0.19150649907E+02  0.95911706220E+02  0.91394346406E+02 0.  0.
         13    1    3    3    0    0 -0.41974664015E+01 -0.21754114646E+02  0.34213661958E+02  0.40760839747E+02  0.10566000000E+00 0.  1.
         22    1    1    0    0    0  0.16211219704E+02  0.14716582446E+02  0.19150649907E+02  0.29088293780E+02  0.00000000000E+00 0. -1.
</event>
<event>
 5    1  0.1245581E-004  0.9118800E+02  0.7818608E-02  0.1130116E+00
         25   -1    0    0    0    0  0.00000000000E+00  0.00000000000E+00  0.99999998245E-14  0.12500000000E+03  0.12500000000E+03 0.  0.
        -13    1    3    3    0    0 -0.49050293212E+02 -0.28701599141E+02 -0.57873335295E+00  0.56833609367E+02  0.10566000000E+00 0.  1.
         23    2    1    0    0    0 -0.14466835353E+02 -0.18306377402E+02  0.16140908118E+02  0.96628505615E+02  0.92369510142E+02 0.  0.
         13    1    3    3    0    0  0.34583457858E+02  0.10395221739E+02  0.16719641471E+02  0.39794896248E+02  0.10566000000E+00 0. -1.
         22    1    1    0    0    0  0.14466835353E+02  0.18306377402E+02 -0.16140908118E+02  0.28371494385E+02  0.00000000000E+00 0.  1.
</event>
<event>
 5    1  0.1245581E-004  0.9118800E+02  0.7818608E-02  0.1130116E+00
         25   -1    0    0    0    0  0.00000000000E+00  0.00000000000E+00  0.99999998245E-14  0.12500000000E+03  0.12500000000E+03 0.  0.
        -13    1    3    3    0    0  0.19911691758E+02 -0.29709059578E+02  0.45899777309E+01  0.36058046943E+02  0.10566000000E+00 0.  1.
         23    2    1    0    0    0 -0.17066359114E+02  0.79932235972E+01 -0.22695658782E+02  0.95500081959E+02  0.90829623415E+02 0.  0.
         13    1    3    3    0    0 -0.36978050872E+02  0.37702283175E+02 -0.27285636513E+02  0.59442035017E+02  0.10566000000E+00 0. -1.
         22    1    1    0    0    0  0.17066359114E+02 -0.79932235972E+01  0.22695658782E+02  0.29499918041E+02  0.00000000000E+00 0. -1.
</event>
<event>
 5    1  0.1245581E-004  0.9118800E+02  0.7818608E-02  0.1130116E+00
         25   -1    0    0    0    0  0.00000000000E+00  0.00000000000E+00  0.99999998245E-14  0.12500000000E+03  0.12500000000E+03 0.  0.
        -13    1    3    3    0    0 -0.33811357342E+02  0.47730728374E+01  0.44856640843E+01  0.34440128570E+02  0.10566000000E+00 0. -1.
         23    2    1    0    0    0  0.23279639508E+02 -0.17527257798E+02  0.63278971649E+00  0.95853013803E+02  0.91314037534E+02 0.  0.
         13    1    3    3    0    0  0.57090996849E+02 -0.22300330636E+02 -0.38528743678E+01  0.61412885233E+02  0.10566000000E+00 0.  1.
         22    1    1    0    0    0 -0.23279639508E+02  0.17527257798E+02 -0.63278971649E+00  0.29146986197E+02  0.00000000000E+00 0.  1.
</event>
<event>
 5    1  0.1245581E-004  0.9118800E+02  0.7818608E-02  0.1130116E+00
         25   -1    0    0    0    0  0.00000000000E+00  0.00000000000E+00  0.99999998245E-14  0.12500000000E+03  0.12500000000E+03 0.  0.
        -13    1    3    3    0    0 -0.71183867336E+01 -0.29021793801E+02  0.40717834018E+01  0.30158357536E+02  0.10566000000E+00 0.  1.
         23    2    1    0    0    0 -0.98752774353E+01  0.28705209153E+02 -0.15161993071E+02  0.91067770913E+02  0.84510015549E+02 0.  0.
         13    1    3    3    0    0 -0.27568907018E+01  0.57727002955E+02 -0.19233776473E+02  0.60909413377E+02  0.10566000000E+00 0. -1.
         22    1    1    0    0    0  0.98752774353E+01 -0.28705209153E+02  0.15161993071E+02  0.33932229087E+02  0.00000000000E+00 0. -1.
</event>
<event>
 5    1  0.1245581E-004  0.9118800E+02  0.7818608E-02  0.1130116E+00
         25   -1    0    0    0    0  0.00000000000E+00  0.00000000000E+00  0.99999998245E-14  0.12500000000E+03  0.12500000000E+03 0.  0.
        -13    1    3    3    0    0 -0.24233513587E+02 -0.23777374245E+02 -0.12405844674E+01  0.33973179431E+02  0.10566000000E+00 0.  1.
         23    2    1    0    0    0  0.20162463888E+02  0.18169285665E+02 -0.10788666639E+02  0.95793096373E+02  0.91231979554E+02 0.  0.
         13    1    3    3    0    0  0.44395977475E+02  0.41946659910E+02 -0.95480821717E+01  0.61819916943E+02  0.10566000000E+00 0. -1.
         22    1    1    0    0    0 -0.20162463888E+02 -0.18169285665E+02  0.10788666639E+02  0.29206903627E+02  0.00000000000E+00 0. -1.
</event>
<event>
 5    1  0.1245581E-004  0.9118800E+02  0.7818608E-02  0.1130116E+00
         25   -1    0    0    0    0  0.00000000000E+00  0.00000000000E+00  0.99999998245E-14  0.12500000000E+03  0.12500000000E+03 0.  0.
        -13    1    3    3    0    0 -0.25879480453E+02  0.30569866781E+01 -0.19241011996E+02  0.32393215073E+02  0.10566000000E+00 0.  1.
         23    2    1    0    0    0  0.14878523786E+02 -0.10652091312E+02  0.24953564153E+02  0.94056214141E+02  0.88820344151E+02 0.  0.
         13    1    3    3    0    0  0.40758004239E+02 -0.13709077990E+02  0.44194576150E+02  0.61662999067E+02  0.10566000000E+00 0. -1.
         22    1    1    0    0    0 -0.14878523786E+02  0.10652091312E+02 -0.24953564153E+02  0.30943785859E+02  0.00000000000E+00 0. -1.
</event>
<event>
 5    1  0.1245581E-004  0.9118800E+02  0.7818608E-02  0.1130116E+00
         25   -1    0    0    0    0  0.00000000000E+00  0.00000000000E+00  0.99999998245E-14  0.12500000000E+03  0.12500000000E+03 0.  0.
        -13    1    3    3    0    0  0.17073341075E+02  0.18981372684E+02 -0.55722286318E+02  0.61292543111E+02  0.10566000000E+00 0.  1.
         23    2    1    0    0    0  0.13295108549E+02  0.11970406482E+02 -0.18862804213E+02  0.99002770812E+02  0.95528491577E+02 0.  0.
         13    1    3    3    0    0 -0.37782325262E+01 -0.70109662019E+01  0.36859482106E+02  0.37710227701E+02  0.10566000000E+00 0. -1.
         22    1    1    0    0    0 -0.13295108549E+02 -0.11970406482E+02  0.18862804213E+02  0.25997229188E+02  0.00000000000E+00 0.  1.
</event>
<event>
 5    1  0.1245581E-004  0.9118800E+02  0.7818608E-02  0.1130116E+00
         25   -1    0    0    0    0  0.00000000000E+00  0.00000000000E+00  0.99999998245E-14  0.12500000000E+03  0.12500000000E+03 0.  0.
        -13    1    3    3    0    0 -0.22242435213E+02 -0.15533508610E+02  0.34777243264E+02  0.44107636833E+02  0.10566000000E+00 0. -1.
         23    2    1    0    0    0  0.14071513887E+02 -0.20787609291E+02 -0.62319356732E+01  0.99135560602E+02  0.95702090628E+02 0.  0.
         13    1    3    3    0    0  0.36313949100E+02 -0.52541006812E+01 -0.41009178937E+02  0.55027923769E+02  0.10566000000E+00 0.  1.
         22    1    1    0    0    0 -0.14071513887E+02  0.20787609291E+02  0.62319356732E+01  0.25864439398E+02  0.00000000000E+00 0.  1.
</event>
<event>
 5    1  0.1245581E-004  0.9118800E+02  0.7818608E-02  0.1130116E+00
         25   -1    0    0    0    0  0.00000000000E+00  0.00000000000E+00  0.99999998245E-14  0.12500000000E+03  0.12500000000E+03 0.  0.
        -13    1    3    3    0    0  0.68527576916E+01 -0.60030671008E+02  0.11850967399E+02  0.61571895715E+02  0.10566000000E+00 0.  1.
         23    2    1    0    0    0 -0.43687376133E+01 -0.28408338710E+02  0.61463477157E+01  0.95607872366E+02  0.90977843960E+02 0.  0.
         13    1    3    3    0    0 -0.11221495305E+02  0.31622332298E+02 -0.57046196833E+01  0.34035976651E+02  0.10566000000E+00 0. -1.
         22    1    1    0    0    0  0.43687376133E+01  0.28408338710E+02 -0.61463477157E+01  0.29392127634E+02  0.00000000000E+00 0.  1.
</event>
<event>
 5    1  0.1245581E-004  0.9118800E+02  0.7818608E-02  0.1130116E+00
         25   -1    0    0    0    0  0.00000000000E+00  0.00000000000E+00  0.99999998245E-14  0.12500000000E+03  0.12500000000E+03 0.  0.
        -13    1    3    3    0    0 -0.22240541555E+02 -0.27602717785E+02  0.12873371396E+02  0.37713214831E+02  0.10566000000E+00 0. -1.
         23    2    1    0    0    0 -0.76981118608E+01  0.27635874108E+02 -0.20093199405E+00  0.96311276821E+02  0.91939214731E+02 0.  0.
         13    1    3    3    0    0  0.14542429694E+02  0.55238591894E+02 -0.13074303390E+02  0.58598061990E+02  0.10566000000E+00 0.  1.
         22    1    1    0    0    0  0.76981118608E+01 -0.27635874108E+02  0.20093199405E+00  0.28688723179E+02  0.00000000000E+00 0. -1.
</event>
<event>
 5    1  0.1245581E-004  0.9118800E+02  0.7818608E-02  0.1130116E+00
         25   -1    0    0    0    0  0.00000000000E+00  0.00000000000E+00  0.99999998245E-14  0.12500000000E+03  0.12500000000E+03 0.  0.
        -13    1    3    3    0    0 -0.55909751643E+02  0.12003112205E+01  0.71208396081E+01  0.56374272470E+02  0.10566000000E+00 0.  1.
         23    2    1    0    0    0 -0.23453829300E+02  0.19235058127E+02 -0.19776107789E+01  0.94602952210E+02  0.89586483648E+02 0.  0.
         13    1    3    3    0    0  0.32455922343E+02  0.18034746906E+02 -0.90984503870E+01  0.38228679739E+02  0.10566000000E+00 0. -1.
         22    1    1    0    0    0  0.23453829300E+02 -0.19235058127E+02  0.19776107789E+01  0.30397047790E+02  0.00000000000E+00 0.  1.
</event>
<event>
 5    1  0.1245581E-004  0.9118800E+02  0.7818608E-02  0.1130116E+00
         25   -1    0    0    0    0  0.00000000000E+00  0.00000000000E+00  0.99999998245E-14  0.12500000000E+03  0.12500000000E+03 0.  0.
        -13    1    3    3    0    0 -0.44130187203E+01 -0.36168301452E+02  0.56358274047E+01  0.36869967164E+02  0.10566000000E+00 0. -1.
         23    2    1    0    0    0  0.10947179693E+02  0.20347059435E+02  0.16725865707E+02  0.96476357972E+02  0.92163384774E+02 0.  0.
         13    1    3    3    0    0  0.15360198413E+02  0.56515360887E+02  0.11090038303E+02  0.59606390807E+02  0.10566000000E+00 0.  1.
         22    1    1    0    0    0 -0.10947179693E+02 -0.20347059435E+02 -0.16725865707E+02  0.28523642028E+02  0.00000000000E+00 0.  1.
</event>
<event>
 5    1  0.1245581E-004  0.9118800E+02  0.7818608E-02  0.1130116E+00
         25   -1    0    0    0    0  0.00000000000E+00  0.00000000000E+00  0.99999998245E-14  0.12500000000E+03  0.12500000000E+03 0.  0.
        -13    1    3    3    0    0  0.24478580606E+02  0.19988236736E+02  0.31443053177E+02  0.44580346269E+02  0.10566000000E+00 0.  1.
         23    2    1    0    0    0  0.95262027014E+01  0.23405991822E+02 -0.16435033558E+02  0.94855360026E+02  0.89937978666E+02 0.  0.
         13    1    3    3    0    0 -0.14952377904E+02  0.34177550857E+01 -0.47878086736E+02  0.50275013757E+02  0.10566000000E+00 0. -1.
         22    1    1    0    0    0 -0.95262027014E+01 -0.23405991822E+02  0.16435033558E+02  0.30144639974E+02  0.00000000000E+00 0. -1.
</event>
<event>
 5    1  0.1245581E-004  0.9118800E+02  0.7818608E-02  0.1130116E+00
         25   -1    0    0    0    0  0.00000000000E+00  0.00000000000E+00  0.99999998245E-14  0.12500000000E+03  0.12500000000E+03 0.  0.
        -13    1    3    3    0    0 -0.27750151060E+02  0.83699906873E+01  0.53538624513E+01  0.29475458184E+02  0.10566000000E+00 0. -1.
         23    2    1    0    0    0  0.22535511563E+02 -0.19917001057E+02 -0.15922935754E+02  0.90969482879E+02  0.84364511021E+02 0.  0.
         13    1    3    3    0    0  0.50285662623E+02 -0.28286991744E+02 -0.21276798205E+02  0.61494024695E+02  0.10566000000E+00 0.  1.
         22    1    1    0    0    0 -0.22535511563E+02  0.19917001057E+02  0.15922935754E+02  0.34030517121E+02  0.00000000000E+00 0.  1.
</event>
<event>
 5    1  0.1245581E-004  0.9118800E+02  0.7818608E-02  0.1130116E+00
         25   -1    0    0    0    0  0.00000000000E+00  0.00000000000E+00  0.99999998245E-14  0.12500000000E+03  0.12500000000E+03 0.  0.
        -13    1    3    3    0    0  0.31319480572E+02 -0.20052147086E+02  0.49774901803E+02  0.62133328252E+02  0.10566000000E+00 0. -1.
         23    2    1    0    0    0  0.10465669050E+02 -0.82943565559E+01  0.25428039328E+02  0.96278722811E+02  0.91894943836E+02 0.  0.
         13    1    3    3    0    0 -0.20853811522E+02  0.11757790530E+02 -0.24346862476E+02  0.34145394559E+02  0.10566000000E+00 0.  1.
         22    1    1    0    0    0 -0.10465669050E+02  0.82943565559E+01 -0.25428039328E+02  0.28721277189E+02  0.00000000000E+00 0. -1.
</event>
<event>
 5    1  0.1245581E-004  0.9118800E+02  0.7818608E-02  0.1130116E+00
         25   -1    0    0    0    0  0.00000000000E+00  0.00000000000E+00  0.99999998245E-14  0.12500000000E+03  0.12500000000E+03 0.  0.
        -13    1    3    3    0    0 -0.18778049577E+02 -0.19892824729E+02 -0.24604189109E+02  0.36792892077E+02  0.10566000000E+00 0.  1.
         23    2    1    0    0    0 -0.10167655412E+02  0.24424257198E+02  0.12975840524E+02  0.95533103428E+02  0.90875056297E+02 0.  0.
         13    1    3    3    0    0  0.86103941652E+01  0.44317081928E+02  0.37580029633E+02  0.58740211351E+02  0.10566000000E+00 0. -1.
         22    1    1    0    0    0  0.10167655412E+02 -0.24424257198E+02 -0.12975840524E+02  0.29466896572E+02  0.00000000000E+00 0. -1.
</event>
<event>
 5    1  0.1245581E-004  0.9118800E+02  0.7818608E-02  0.1130116E+00
         25   -1    0    0    0    0  0.00000000000E+00  0.00000000000E+00  0.99999998245E-14  0.12500000000E+03  0.12500000000E+03 0.  0.
        -13    1    3    3    0    0  0.50363339962E+01  0.14938502331E+02  0.54472859196E+02  0.56708262758E+02  0.10566000000E+00 0. -1.
         23    2    1    0    0    0 -0.41277594593E+00 -0.12328735317E+02  0.24352256815E+02  0.97701639052E+02  0.93810499215E+02 0.  0.
         13    1    3    3    0    0 -0.54491099421E+01 -0.27267237648E+02 -0.30120602381E+02  0.40993376294E+02  0.10566000000E+00 0.  1.
         22    1    1    0    0    0  0.41277594593E+00  0.12328735317E+02 -0.24352256815E+02  0.27298360948E+02  0.00000000000E+00 0. -1.
</event>
<event>
 5    1  0.1245581E-004  0.9118800E+02  0.7818608E-02  0.1130116E+00
         25   -1    0    0    0    0  0.00000000000E+00  0.00000000000E+00  0.99999998245E-14  0.12500000000E+03  0.12500000000E+03 0.  0.
        -13    1    3    3    0    0  0.14690772863E+02  0.18976813179E+02  0.30591500941E+02  0.38881735296E+02  0.10566000000E+00 0. -1.
         23    2    1    0    0    0 -0.29700203562E+02 -0.40017332927E+01  0.66634835597E+01  0.94299544399E+02  0.89162133777E+02 0.  0.
         13    1    3    3    0    0 -0.44390976425E+02 -0.22978546472E+02 -0.23928017381E+02  0.55417809103E+02  0.10566000000E+00 0.  1.
         22    1    1    0    0    0  0.29700203562E+02  0.40017332927E+01 -0.66634835597E+01  0.30700455601E+02  0.00000000000E+00 0.  1.
</event>
<event>
 5    1  0.1245581E-004  0.9118800E+02  0.7818608E-02  0.1130116E+00
         25   -1    0    0    0    0  0.00000000000E+00  0.00000000000E+00  0.99999998245E-14  0.12500000000E+03  0.12500000000E+03 0.  0.
        -13    1    3    3    0    0 -0.27140833966E+01 -0.33549716305E+02  0.22284950301E+02  0.40368055276E+02  0.10566000000E+00 0. -1.
         23    2    1    0    0    0  0.13825624326E+02 -0.71411766423E+01 -0.24138913104E+02  0.96280121559E+02  0.91896846463E+02 0.  0.
         13    1    3    3    0    0  0.16539707722E+02  0.26408539662E+02 -0.46423863404E+02  0.55912066283E+02  0.10566000000E+00 0.  1.
         22    1    1    0    0    0 -0.13825624326E+02  0.71411766423E+01  0.24138913104E+02  0.28719878441E+02  0.00000000000E+00 0.  1.
</event>
<event>
 5    1  0.1245581E-004  0.9118800E+02  0.7818608E-02  0.1130116E+00
         25   -1    0    0    0    0  0.00000000000E+00  0.00000000000E+00  0.99999998245E-14  0.12500000000E+03  0.12500000000E+03 0.  0.
        -13    1    3    3    0    0  0.92506886624E+01 -0.16381085807E+02 -0.30277836706E+02  0.35646511366E+02  0.10566000000E+00 0.  1.
         23    2    1    0    0    0 -0.27771779295E+02  0.11875245831E+01  0.12176860981E+02  0.94652712095E+02  0.89655886721E+02 0.  0.
         13    1    3    3    0    0 -0.37022467958E+02  0.17568610390E+02  0.42454697687E+02  0.59006200729E+02  0.10566000000E+00 0. -1.
         22    1    1    0    0    0  0.27771779295E+02 -0.11875245831E+01 -0.12176860981E+02  0.30347287905E+02  0.00000000000E+00 0. -1.
</event>
<event>
 5    1  0.1245581E-004  0.9118800E+02  0.7818608E-02  0.1130116E+00
         25   -1    0    0    0    0  0.00000000000E+00  0.00000000000E+00  0.99999998245E-14  0.12500000000E+03  0.12500000000E+03 0.  0.
        -13    1    3    3    0    0 -0.31724908726E+02  0.24426508103E+02  0.44863256980E+02  0.60131914344E+02  0.10566000000E+00 0. -1.
         23    2    1    0    0    0 -0.19670031310E+02  0.14716379846E+01  0.12309776415E+02  0.10174905496E+03  0.99056871234E+02 0.  0.
         13    1    3    3    0    0  0.12054877416E+02 -0.22954870119E+02 -0.32553480565E+02  0.41617140611E+02  0.10566000000E+00 0.  1.
         22    1    1    0    0    0  0.19670031310E+02 -0.14716379846E+01 -0.12309776415E+02  0.23250945045E+02  0.00000000000E+00 0. -1.
</event>
<event>
 5    1  0.1245581E-004  0.9118800E+02  0.7818608E-02  0.1130116E+00
         25   -1    0    0    0    0  0.00000000000E+00  0.00000000000E+00  0.99999998245E-14  0.12500000000E+03  0.12500000000E+03 0.  0.
        -13    1    3    3    0    0  0.58844265270E+02  0.25714694126E+01 -0.32506205681E+01  0.58990149247E+02  0.10566000000E+00 0. -1.
         23    2    1    0    0    0  0.25220176744E+02 -0.39666243067E+01 -0.15222503367E+02  0.95276002420E+02  0.90520719203E+02 0.  0.
         13    1    3    3    0    0 -0.33624088526E+02 -0.65380937193E+01 -0.11971882798E+02  0.36285853173E+02  0.10566000000E+00 0.  1.
         22    1    1    0    0    0 -0.25220176744E+02  0.39666243067E+01  0.15222503367E+02  0.29723997580E+02  0.00000000000E+00 0. -1.
</event>
<event>
 5    1  0.1245581E-004  0.9118800E+02  0.7818608E-02  0.1130116E+00
         25   -1    0    0    0    0  0.00000000000E+00  0.00000000000E+00  0.99999998245E-14  0.12500000000E+03  0.12500000000E+03 0.  0.
        -13    1    3    3    0    0  0.65479061576E+01  0.13893620000E+02 -0.35225033108E+02  0.38428139082E+02  0.10566000000E+00 0. -1.
         23    2    1    0    0    0  0.24358370048E+02  0.38118094733E+01  0.17354041362E+02  0.94849994454E+02  0.89930521034E+02 0.  0.
         13    1    3    3    0    0  0.17810463890E+02 -0.10081810527E+02  0.52579074470E+02  0.56421855372E+02  0.10566000000E+00 0.  1.
         22    1    1    0    0    0 -0.24358370048E+02 -0.38118094733E+01 -0.17354041362E+02  0.30150005546E+02  0.00000000000E+00 0.  1.
</event>
<event>
 5    1  0.1245581E-004  0.9118800E+02  0.7818608E-02  0.1130116E+00
         25   -1    0    0    0    0  0.00000000000E+00  0.00000000000E+00  0.99999998245E-14  0.12500000000E+03  0.12500000000E+03 0.  0.
        -13    1    3    3    0    0  0.36356832552E+02 -0.35137374640E+01  0.21814275528E+02  0.42544557878E+02  0.10566000000E+00 0.  1.
         23    2    1    0    0    0  0.44822444952E+01 -0.25196075840E+02 -0.14568321148E+02  0.95552271148E+02  0.90901417960E+02 0.  0.
         13    1    3    3    0    0 -0.31874588057E+02 -0.21682338376E+02 -0.36382596677E+02  0.53007713271E+02  0.10566000000E+00 0. -1.
         22    1    1    0    0    0 -0.44822444952E+01  0.25196075840E+02  0.14568321148E+02  0.29447728852E+02  0.00000000000E+00 0. -1.
</event>
<event>
 5    1  0.1245581E-004  0.9118800E+02  0.7818608E-02  0.1130116E+00
         25   -1    0    0    0    0  0.00000000000E+00  0.00000000000E+00  0.99999998245E-14  0.12500000000E+03  0.12500000000E+03 0.  0.
        -13    1    3    3    0    0 -0.24300371593E+01 -0.18201106524E+01 -0.54621400389E+02  0.54705817130E+02  0.10566000000E+00 0. -1.
         23    2    1    0    0    0  0.77068064782E+01  0.18853480237E+02 -0.18843907639E+02  0.97252181378E+02  0.93209684822E+02 0.  0.
         13    1    3    3    0    0  0.10136843637E+02  0.20673590890E+02  0.35777492750E+02  0.42546364248E+02  0.10566000000E+00 0.  1.
         22    1    1    0    0    0 -0.77068064782E+01 -0.18853480237E+02  0.18843907639E+02  0.27747818622E+02  0.00000000000E+00 0. -1.
</event>
<event>
 5    1  0.1245581E-004  0.9118800E+02  0.7818608E-02  0.1130116E+00
         25   -1    0    0    0    0  0.00000000000E+00  0.00000000000E+00  0.99999998245E-14  0.12500000000E+03  0.12500000000E+03 0.  0.
        -13    1    3    3    0    0  0.30483285260E+02  0.38753645235E+01  0.26507740137E+02  0.40582269301E+02  0.10566000000E+00 0.  1.
         23    2    1    0    0    0 -0.20950146718E+02 -0.12038608408E+02  0.17490120814E+02  0.95171472279E+02  0.90376258330E+02 0.  0.
         13    1    3    3    0    0 -0.51433431978E+02 -0.15913972932E+02 -0.90176193230E+01  0.54589202978E+02  0.10566000000E+00 0. -1.
         22    1    1    0    0    0  0.20950146718E+02  0.12038608408E+02 -0.17490120814E+02  0.29828527721E+02  0.00000000000E+00 0. -1.
</event>
<event>
 5    1  0.1245581E-004  0.9118800E+02  0.7818608E-02  0.1130116E+00
         25   -1    0    0    0    0  0.00000000000E+00  0.00000000000E+00  0.99999998245E-14  0.12500000000E+03  0.12500000000E+03 0.  0.
        -13    1    3    3    0    0  0.14087068106E+02 -0.38770566463E+01 -0.29750711392E+02  0.33145030524E+02  0.10566000000E+00 0.  1.
         23    2    1    0    0    0 -0.35903881309E+01  0.82470354681E+01  0.28446944286E+02  0.95164901204E+02  0.90367169376E+02 0.  0.
         13    1    3    3    0    0 -0.17677456237E+02  0.12124092114E+02  0.58197655679E+02  0.62019870680E+02  0.10566000000E+00 0. -1.
         22    1    1    0    0    0  0.35903881309E+01 -0.82470354681E+01 -0.28446944286E+02  0.29835098796E+02  0.00000000000E+00 0. -1.
</event>
<event>
 5    1  0.1245581E-004  0.9118800E+02  0.7818608E-02  0.1130116E+00
         25   -1    0    0    0    0  0.00000000000E+00  0.00000000000E+00  0.99999998245E-14  0.12500000000E+03  0.12500000000E+03 0.  0.
        -13    1    3    3    0    0 -0.35191941583E+01  0.24272676822E+02  0.32220094676E+02  0.40493125745E+02  0.10566000000E+00 0. -1.
         23    2    1    0    0    0  0.15976905935E+02  0.12328817700E+02 -0.19435194656E+02  0.96982361619E+02  0.92847134607E+02 0.  0.
         13    1    3    3    0    0  0.19496100093E+02 -0.11943859121E+02 -0.51655289332E+02  0.56489235874E+02  0.10566000000E+00 0.  1.
         22    1    1    0    0    0 -0.15976905935E+02 -0.12328817700E+02  0.19435194656E+02  0.28017638381E+02  0.00000000000E+00 0.  1.
</event>
<event>
 5    1  0.1245581E-004  0.9118800E+02  0.7818608E-02  0.1130116E+00
         25   -1    0    0    0    0  0.00000000000E+00  0.00000000000E+00  0.99999998245E-14  0.12500000000E+03  0.12500000000E+03 0.  0.
        -13    1    3    3    0    0 -0.13093942978E+01 -0.18421532013E+02  0.32965499805E+02  0.37786276564E+02  0.10566000000E+00 0.  1.
         23    2    1    0    0    0  0.12704965804E+02 -0.99170439528E+01 -0.23455635807E+02  0.96540717367E+02  0.92250633287E+02 0.  0.
         13    1    3    3    0    0  0.14014360102E+02  0.85044880598E+01 -0.56421135613E+02  0.58754440803E+02  0.10566000000E+00 0. -1.
         22    1    1    0    0    0 -0.12704965804E+02  0.99170439528E+01  0.23455635807E+02  0.28459282633E+02  0.00000000000E+00 0. -1.
</event>
<event>
 5    1  0.1245581E-004  0.9118800E+02  0.7818608E-02  0.1130116E+00
         25   -1    0    0    0    0  0.00000000000E+00  0.00000000000E+00  0.99999998245E-14  0.12500000000E+03  0.12500000000E+03 0.  0.
        -13    1    3    3    0    0  0.70807018782E+01  0.20266800292E+02  0.25489279353E+02  0.33325576651E+02  0.10566000000E+00 0.  1.
         23    2    1    0    0    0 -0.12725084638E+02  0.22484764134E+01 -0.28564997302E+02  0.93648086245E+02  0.88244102133E+02 0.  0.
         13    1    3    3    0    0 -0.19805786516E+02 -0.18018323879E+02 -0.54054276655E+02  0.60322509594E+02  0.10566000000E+00 0. -1.
         22    1    1    0    0    0  0.12725084638E+02 -0.22484764134E+01  0.28564997302E+02  0.31351913755E+02  0.00000000000E+00 0. -1.
</event>
<event>
 5    1  0.1245581E-004  0.9118800E+02  0.7818608E-02  0.1130116E+00
         25   -1    0    0    0    0  0.00000000000E+00  0.00000000000E+00  0.99999998245E-14  0.12500000000E+03  0.12500000000E+03 0.  0.
        -13    1    3    3    0    0  0.23496472220E+02  0.90158042466E+01  0.38872439585E+02  0.46308170514E+02  0.10566000000E+00 0. -1.
         23    2    1    0    0    0 -0.20861104483E+02 -0.35469206654E+01  0.19181485812E+02  0.96439612671E+02  0.92113534118E+02 0.  0.
         13    1    3    3    0    0 -0.44357576703E+02 -0.12562724912E+02 -0.19690953773E+02  0.50131442157E+02  0.10566000000E+00 0.  1.
         22    1    1    0    0    0  0.20861104483E+02  0.35469206654E+01 -0.19181485812E+02  0.28560387329E+02  0.00000000000E+00 0. -1.
</event>
<event>
 5    1  0.1245581E-004  0.9118800E+02  0.7818608E-02  0.1130116E+00
         25   -1    0    0    0    0  0.00000000000E+00  0.00000000000E+00  0.99999998245E-14  0.12500000000E+03  0.12500000000E+03 0.  0.
        -13    1    3    3    0    0  0.27628493531E+02 -0.39543435156E+02  0.34039279088E+02  0.59039822185E+02  0.10566000000E+00 0. -1.
         23    2    1    0    0    0  0.21752547068E+02 -0.19658326256E+02  0.41925035672E+01  0.95382434582E+02  0.90667572182E+02 0.  0.
         13    1    3    3    0    0 -0.58759464630E+01  0.19885108900E+02 -0.29846775521E+02  0.36342612397E+02  0.10566000000E+00 0.  1.
         22    1    1    0    0    0 -0.21752547068E+02  0.19658326256E+02 -0.41925035672E+01  0.29617565418E+02  0.00000000000E+00 0. -1.
</event>
<event>
 5    1  0.1245581E-004  0.9118800E+02  0.7818608E-02  0.1130116E+00
         25   -1    0    0    0    0  0.00000000000E+00  0.00000000000E+00  0.99999998245E-14  0.12500000000E+03  0.12500000000E+03 0.  0.
        -13    1    3    3    0    0 -0.72041143387E+01 -0.23220230099E+02 -0.46119797109E+02  0.52135642306E+02  0.10566000000E+00 0.  1.
         23    2    1    0    0    0  0.57851422123E+01  0.12363528513E+02 -0.27397609209E+02  0.94390300588E+02  0.89289277895E+02 0.  0.
         13    1    3    3    0    0  0.12989256551E+02  0.35583758612E+02  0.18722187901E+02  0.42254658282E+02  0.10566000000E+00 0. -1.
         22    1    1    0    0    0 -0.57851422123E+01 -0.12363528513E+02  0.27397609209E+02  0.30609699412E+02  0.00000000000E+00 0.  1.
</event>
<event>
 5    1  0.1245581E-004  0.9118800E+02  0.7818608E-02  0.1130116E+00
         25   -1    0    0    0    0  0.00000000000E+00  0.00000000000E+00  0.99999998245E-14  0.12500000000E+03  0.12500000000E+03 0.  0.
        -13    1    3    3    0    0  0.19018664770E+02  0.13404195362E+02 -0.54385684325E+02  0.59154001441E+02  0.10566000000E+00 0.  1.
         23    2    1    0    0    0  0.12309023938E+02  0.18911644854E+02 -0.19269917711E+02  0.95326912699E+02  0.90590993895E+02 0.  0.
         13    1    3    3    0    0 -0.67096408323E+01  0.55074494916E+01  0.35115766614E+02  0.36172911259E+02  0.10566000000E+00 0. -1.
         22    1    1    0    0    0 -0.12309023938E+02 -0.18911644854E+02  0.19269917711E+02  0.29673087301E+02  0.00000000000E+00 0.  1.
</event>
<event>
 5    1  0.1245581E-004  0.9118800E+02  0.7818608E-02  0.1130116E+00
         25   -1    0    0    0    0  0.00000000000E+00  0.00000000000E+00  0.99999998245E-14  0.12500000000E+03  0.12500000000E+03 0.  0.
        -13    1    3    3    0    0  0.11076132523E+02 -0.52719709402E+02 -0.20635094481E+02  0.57687665575E+02  0.10566000000E+00 0. -1.
         23    2    1    0    0    0  0.20205782205E+01 -0.28898100716E+02  0.69149154613E+01  0.95217471277E+02  0.90439857470E+02 0.  0.
         13    1    3    3    0    0 -0.90555543029E+01  0.23821608687E+02  0.27550009943E+02  0.37529805702E+02  0.10566000000E+00 0.  1.
         22    1    1    0    0    0 -0.20205782205E+01  0.28898100716E+02 -0.69149154613E+01  0.29782528723E+02  0.00000000000E+00 0. -1.
</event>
<event>
 5    1  0.1245581E-004  0.9118800E+02  0.7818608E-02  0.1130116E+00
         25   -1    0    0    0    0  0.00000000000E+00  0.00000000000E+00  0.99999998245E-14  0.12500000000E+03  0.12500000000E+03 0.  0.
        -13    1    3    3    0    0 -0.14917530898E+02 -0.34651478100E+02  0.10206473072E+02  0.39082488651E+02  0.10566000000E+00 0. -1.
         23    2    1    0    0    0 -0.28983835231E+02  0.94898033132E+01 -0.14100440017E+02  0.91400275592E+02  0.85000405281E+02 0.  0.
         13    1    3    3    0    0 -0.14066304333E+02  0.44141281413E+02 -0.24306913090E+02  0.52317786940E+02  0.10566000000E+00 0.  1.
         22    1    1    0    0    0  0.28983835231E+02 -0.94898033132E+01  0.14100440017E+02  0.33599724408E+02  0.00000000000E+00 0.  1.
</event>
<event>
 5    1  0.1245581E-004  0.9118800E+02  0.7818608E-02  0.1130116E+00
         25   -1    0    0    0    0  0.00000000000E+00  0.00000000000E+00  0.99999998245E-14  0.12500000000E+03  0.12500000000E+03 0.  0.
        -13    1    3    3    0    0  0.23722206097E+02 -0.54309055938E+02 -0.12524053595E+02  0.60572928784E+02  0.10566000000E+00 0.  1.
         23    2    1    0    0    0  0.58904523079E+01 -0.36891561948E+02 -0.12823212857E+02  0.85501651182E+02  0.75831476284E+02 0.  0.
         13    1    3    3    0    0 -0.17831753790E+02  0.17417493990E+02 -0.29915926282E+00  0.24928722398E+02  0.10566000000E+00 0. -1.
         22    1    1    0    0    0 -0.58904523079E+01  0.36891561948E+02  0.12823212857E+02  0.39498348818E+02  0.00000000000E+00 0.  1.
</event>
<event>
 5    1  0.1245581E-004  0.9118800E+02  0.7818608E-02  0.1130116E+00
         25   -1    0    0    0    0  0.00000000000E+00  0.00000000000E+00  0.99999998245E-14  0.12500000000E+03  0.12500000000E+03 0.  0.
        -13    1    3    3    0    0 -0.15108471563E+02 -0.26684114748E+02  0.16543613636E+02  0.34842649282E+02  0.10566000000E+00 0. -1.
         23    2    1    0    0    0  0.10137859045E+01  0.14875655628E+02 -0.25074040666E+02  0.95827745930E+02  0.91279441730E+02 0.  0.
         13    1    3    3    0    0  0.16122257467E+02  0.41559770376E+02 -0.41617654302E+02  0.60985096648E+02  0.10566000000E+00 0.  1.
         22    1    1    0    0    0 -0.10137859045E+01 -0.14875655628E+02  0.25074040666E+02  0.29172254070E+02  0.00000000000E+00 0.  1.
</event>
<event>
 5    1  0.1245581E-004  0.9118800E+02  0.7818608E-02  0.1130116E+00
         25   -1    0    0    0    0  0.00000000000E+00  0.00000000000E+00  0.99999998245E-14  0.12500000000E+03  0.12500000000E+03 0.  0.
        -13    1    3    3    0    0  0.21560788671E+02 -0.26206570346E+02 -0.18701006339E+02  0.38747783672E+02  0.10566000000E+00 0. -1.
         23    2    1    0    0    0 -0.18732085790E+02  0.79518801650E+01  0.13469083529E+02  0.10059631898E+03  0.97591391757E+02 0.  0.
         13    1    3    3    0    0 -0.40292874461E+02  0.34158450511E+02  0.32170089868E+02  0.61848535308E+02  0.10566000000E+00 0.  1.
         22    1    1    0    0    0  0.18732085790E+02 -0.79518801650E+01 -0.13469083529E+02  0.24403681019E+02  0.00000000000E+00 0.  1.
</event>
<event>
 5    1  0.1245581E-004  0.9118800E+02  0.7818608E-02  0.1130116E+00
         25   -1    0    0    0    0  0.00000000000E+00  0.00000000000E+00  0.99999998245E-14  0.12500000000E+03  0.12500000000E+03 0.  0.
        -13    1    3    3    0    0 -0.52907372051E+01 -0.31605315133E+02  0.91142797604E+01  0.33316198829E+02  0.10566000000E+00 0.  1.
         23    2    1    0    0    0 -0.50741216657E+01  0.23261155249E+02 -0.18602031378E+02  0.94786366892E+02  0.89842037616E+02 0.  0.
         13    1    3    3    0    0  0.21661553943E+00  0.54866470382E+02 -0.27716311139E+02  0.61470168063E+02  0.10566000000E+00 0. -1.
         22    1    1    0    0    0  0.50741216657E+01 -0.23261155249E+02  0.18602031378E+02  0.30213633108E+02  0.00000000000E+00 0. -1.
</event>
<event>
 5    1  0.1245581E-004  0.9118800E+02  0.7818608E-02  0.1130116E+00
         25   -1    0    0    0    0  0.00000000000E+00  0.00000000000E+00  0.99999998245E-14  0.12500000000E+03  0.12500000000E+03 0.  0.
        -13    1    3    3    0    0 -0.10735422275E+02  0.47507551464E+02 -0.16574993425E+02  0.51448598704E+02  0.10566000000E+00 0. -1.
         23    2    1    0    0    0 -0.60006258452E+01  0.22051016619E+02  0.18883341509E+02  0.95354841356E+02  0.90629522448E+02 0.  0.
         13    1    3    3    0    0  0.47347964302E+01 -0.25456534845E+02  0.35458334934E+02  0.43906242652E+02  0.10566000000E+00 0.  1.
         22    1    1    0    0    0  0.60006258452E+01 -0.22051016619E+02 -0.18883341509E+02  0.29645158644E+02  0.00000000000E+00 0. -1.
</event>
<event>
 5    1  0.1245581E-004  0.9118800E+02  0.7818608E-02  0.1130116E+00
         25   -1    0    0    0    0  0.00000000000E+00  0.00000000000E+00  0.99999998245E-14  0.12500000000E+03  0.12500000000E+03 0.  0.
        -13    1    3    3    0    0 -0.74184350503E+01 -0.33459351199E+02 -0.12197079121E+02  0.36377757825E+02  0.10566000000E+00 0.  1.
         23    2    1    0    0    0  0.64061907355E+01  0.24327551844E+02 -0.14727399991E+02  0.95849264693E+02  0.91308905224E+02 0.  0.
         13    1    3    3    0    0  0.13824625786E+02  0.57786903043E+02 -0.25303208694E+01  0.59471506868E+02  0.10566000000E+00 0. -1.
         22    1    1    0    0    0 -0.64061907355E+01 -0.24327551844E+02  0.14727399991E+02  0.29150735307E+02  0.00000000000E+00 0. -1.
</event>
<event>
 5    1  0.1245581E-004  0.9118800E+02  0.7818608E-02  0.1130116E+00
         25   -1    0    0    0    0  0.00000000000E+00  0.00000000000E+00  0.99999998245E-14  0.12500000000E+03  0.12500000000E+03 0.  0.
        -13    1    3    3    0    0  0.27525823894E+01  0.39334061177E+02  0.20696207818E+01  0.39484675163E+02  0.10566000000E+00 0.  1.
         23    2    1    0    0    0  0.26937486976E+02 -0.67874712526E+01 -0.13874122195E+02  0.93948603296E+02  0.88668770285E+02 0.  0.
         13    1    3    3    0    0  0.24184904587E+02 -0.46121532430E+02 -0.15943742977E+02  0.54463928133E+02  0.10566000000E+00 0. -1.
         22    1    1    0    0    0 -0.26937486976E+02  0.67874712526E+01  0.13874122195E+02  0.31051396704E+02  0.00000000000E+00 0. -1.
</event>
<event>
 5    1  0.1245581E-004  0.9118800E+02  0.7818608E-02  0.1130116E+00
         25   -1    0    0    0    0  0.00000000000E+00  0.00000000000E+00  0.99999998245E-14  0.12500000000E+03  0.12500000000E+03 0.  0.
        -13    1    3    3    0    0 -0.30706680167E+02  0.94379120874E+01 -0.52304764943E+02  0.61382196045E+02  0.10566000000E+00 0.  1.
         23    2    1    0    0    0 -0.13681232513E+02 -0.35398244522E+01 -0.26979835269E+02  0.94543178246E+02  0.89503042191E+02 0.  0.
         13    1    3    3    0    0  0.17025447654E+02 -0.12977736540E+02  0.25324929675E+02  0.33160982201E+02  0.10566000000E+00 0. -1.
         22    1    1    0    0    0  0.13681232513E+02  0.35398244522E+01  0.26979835269E+02  0.30456821754E+02  0.00000000000E+00 0.  1.
</event>
<event>
 5    1  0.1245581E-004  0.9118800E+02  0.7818608E-02  0.1130116E+00
         25   -1    0    0    0    0  0.00000000000E+00  0.00000000000E+00  0.99999998245E-14  0.12500000000E+03  0.12500000000E+03 0.  0.
        -13    1    3    3    0    0 -0.26175259864E+02  0.38464483144E+02 -0.20673946170E+02  0.50912512281E+02  0.10566000000E+00 0.  1.
         23    2    1    0    0    0 -0.15743953947E+02 -0.61071111458E+01 -0.22669506652E+02  0.96732077821E+02  0.92509564129E+02 0.  0.
         13    1    3    3    0    0  0.10431305917E+02 -0.44571594289E+02 -0.19955604824E+01  0.45819565540E+02  0.10566000000E+00 0. -1.
         22    1    1    0    0    0  0.15743953947E+02  0.61071111458E+01  0.22669506652E+02  0.28267922179E+02  0.00000000000E+00 0. -1.
</event>
<event>
 5    1  0.1245581E-004  0.9118800E+02  0.7818608E-02  0.1130116E+00
         25   -1    0    0    0    0  0.00000000000E+00  0.00000000000E+00  0.99999998245E-14  0.12500000000E+03  0.12500000000E+03 0.  0.
        -13    1    3    3    0    0  0.20994468351E+02  0.32600105694E+02  0.44782329527E+02  0.59236836466E+02  0.10566000000E+00 0. -1.
         23    2    1    0    0    0  0.17513101859E+02  0.36617958235E+01  0.24136289281E+02  0.94955400725E+02  0.90076912587E+02 0.  0.
         13    1    3    3    0    0 -0.34813664928E+01 -0.28938309871E+02 -0.20646040246E+02  0.35718564259E+02  0.10566000000E+00 0.  1.
         22    1    1    0    0    0 -0.17513101859E+02 -0.36617958235E+01 -0.24136289281E+02  0.30044599275E+02  0.00000000000E+00 0. -1.
</event>
<event>
 5    1  0.1245581E-004  0.9118800E+02  0.7818608E-02  0.1130116E+00
         25   -1    0    0    0    0  0.00000000000E+00  0.00000000000E+00  0.99999998245E-14  0.12500000000E+03  0.12500000000E+03 0.  0.
        -13    1    3    3    0    0 -0.33477025875E+02  0.74585995029E+01 -0.25462542977E+01  0.34392390771E+02  0.10566000000E+00 0. -1.
         23    2    1    0    0    0  0.80604891681E+01  0.37273217638E+02  0.64959183740E+01  0.86315879302E+02  0.77161971368E+02 0.  0.
         13    1    3    3    0    0  0.41537515043E+02  0.29814618135E+02  0.90421726717E+01  0.51923488530E+02  0.10566000000E+00 0.  1.
         22    1    1    0    0    0 -0.80604891681E+01 -0.37273217638E+02 -0.64959183740E+01  0.38684120698E+02  0.00000000000E+00 0.  1.
</event>
<event>
 5    1  0.1245581E-004  0.9118800E+02  0.7818608E-02  0.1130116E+00
         25   -1    0    0    0    0  0.00000000000E+00  0.00000000000E+00  0.99999998245E-14  0.12500000000E+03  0.12500000000E+03 0.  0.
        -13    1    3    3    0    0  0.29529641137E+01  0.24750725866E+02  0.47175354959E+02  0.53355821683E+02  0.10566000000E+00 0. -1.
         23    2    1    0    0    0 -0.19109230144E+02  0.17521321869E+02  0.99449329060E+01  0.97232013266E+02  0.93182634201E+02 0.  0.
         13    1    3    3    0    0 -0.22062194258E+02 -0.72294039970E+01 -0.37230422053E+02  0.43876191583E+02  0.10566000000E+00 0.  1.
         22    1    1    0    0    0  0.19109230144E+02 -0.17521321869E+02 -0.99449329060E+01  0.27767986734E+02  0.00000000000E+00 0.  1.
</event>
<event>
 5    1  0.1245581E-004  0.9118800E+02  0.7818608E-02  0.1130116E+00
         25   -1    0    0    0    0  0.00000000000E+00  0.00000000000E+00  0.99999998245E-14  0.12500000000E+03  0.12500000000E+03 0.  0.
        -13    1    3    3    0    0  0.15240397873E+02 -0.41696990172E+02 -0.16169391305E+02  0.47247953352E+02  0.10566000000E+00 0. -1.
         23    2    1    0    0    0  0.26629314160E+02 -0.29881297614E+01  0.11150150204E+02  0.95976300345E+02  0.91482649100E+02 0.  0.
         13    1    3    3    0    0  0.11388916287E+02  0.38708860410E+02  0.27319541509E+02  0.48728346994E+02  0.10566000000E+00 0.  1.
         22    1    1    0    0    0 -0.26629314160E+02  0.29881297614E+01 -0.11150150204E+02  0.29023699655E+02  0.00000000000E+00 0.  1.
</event>
<event>
 5    1  0.1245581E-004  0.9118800E+02  0.7818608E-02  0.1130116E+00
         25   -1    0    0    0    0  0.00000000000E+00  0.00000000000E+00  0.99999998245E-14  0.12500000000E+03  0.12500000000E+03 0.  0.
        -13    1    3    3    0    0 -0.28136247863E+02  0.83433950300E+01 -0.52628508321E+02  0.60258042920E+02  0.10566000000E+00 0.  1.
         23    2    1    0    0    0 -0.79491243585E+01  0.47935617208E+01 -0.39090544409E+02  0.84822425730E+02  0.74703456630E+02 0.  0.
         13    1    3    3    0    0  0.20187123504E+02 -0.35498333092E+01  0.13537963912E+02  0.24564382810E+02  0.10566000000E+00 0. -1.
         22    1    1    0    0    0  0.79491243585E+01 -0.47935617208E+01  0.39090544409E+02  0.40177574270E+02  0.00000000000E+00 0.  1.
</event>
<event>
 5    1  0.1245581E-004  0.9118800E+02  0.7818608E-02  0.1130116E+00
         25   -1    0    0    0    0  0.00000000000E+00  0.00000000000E+00  0.99999998245E-14  0.12500000000E+03  0.12500000000E+03 0.  0.
        -13    1    3    3    0    0 -0.58734951022E+02  0.87764176071E+01  0.94838061081E+01  0.60139618555E+02  0.10566000000E+00 0. -1.
         23    2    1    0    0    0 -0.23531569348E+02  0.13082658419E+02  0.11632820841E+02  0.95670608121E+02  0.91063999638E+02 0.  0.
         13    1    3    3    0    0  0.35203381673E+02  0.43062408118E+01  0.21490147327E+01  0.35530989566E+02  0.10566000000E+00 0.  1.
         22    1    1    0    0    0  0.23531569348E+02 -0.13082658419E+02 -0.11632820841E+02  0.29329391879E+02  0.00000000000E+00 0. -1.
</event>
<event>
 5    1  0.1245581E-004  0.9118800E+02  0.7818608E-02  0.1130116E+00
         25   -1    0    0    0    0  0.00000000000E+00  0.00000000000E+00  0.99999998245E-14  0.12500000000E+03  0.12500000000E+03 0.  0.
        -13    1    3    3    0    0  0.53360079000E+02  0.44718597569E+01  0.12498032669E+02  0.54986430555E+02  0.10566000000E+00 0.  1.
         23    2    1    0    0    0  0.14306007945E+02  0.78465934123E+01  0.24126045247E+02  0.95874462224E+02  0.91343393609E+02 0.  0.
         13    1    3    3    0    0 -0.39054071055E+02  0.33747336553E+01  0.11628012578E+02  0.40888031669E+02  0.10566000000E+00 0. -1.
         22    1    1    0    0    0 -0.14306007945E+02 -0.78465934123E+01 -0.24126045247E+02  0.29125537776E+02  0.00000000000E+00 0.  1.
</event>
<event>
 5    1  0.1245581E-004  0.9118800E+02  0.7818608E-02  0.1130116E+00
         25   -1    0    0    0    0  0.00000000000E+00  0.00000000000E+00  0.99999998245E-14  0.12500000000E+03  0.12500000000E+03 0.  0.
        -13    1    3    3    0    0 -0.79992257276E+01  0.25429535196E+02  0.25434603419E+02  0.36845340108E+02  0.10566000000E+00 0.  1.
         23    2    1    0    0    0  0.21785105561E+02 -0.19074161955E+02  0.20019693840E+00  0.96043920200E+02  0.91574996860E+02 0.  0.
         13    1    3    3    0    0  0.29784331289E+02 -0.44503697151E+02 -0.25234406481E+02  0.59198580092E+02  0.10566000000E+00 0. -1.
         22    1    1    0    0    0 -0.21785105561E+02  0.19074161955E+02 -0.20019693840E+00  0.28956079800E+02  0.00000000000E+00 0. -1.
</event>
<event>
 5    1  0.1245581E-004  0.9118800E+02  0.7818608E-02  0.1130116E+00
         25   -1    0    0    0    0  0.00000000000E+00  0.00000000000E+00  0.99999998245E-14  0.12500000000E+03  0.12500000000E+03 0.  0.
        -13    1    3    3    0    0  0.40986411277E+02  0.12989813862E+00  0.32737760807E+02  0.52456409804E+02  0.10566000000E+00 0. -1.
         23    2    1    0    0    0 -0.63840519329E+00 -0.12408959770E+02  0.25644556809E+02  0.96503804856E+02  0.92200603111E+02 0.  0.
         13    1    3    3    0    0 -0.41624816470E+02 -0.12538857909E+02 -0.70932039979E+01  0.44047395052E+02  0.10566000000E+00 0.  1.
         22    1    1    0    0    0  0.63840519329E+00  0.12408959770E+02 -0.25644556809E+02  0.28496195144E+02  0.00000000000E+00 0. -1.
</event>
<event>
 5    1  0.1245581E-004  0.9118800E+02  0.7818608E-02  0.1130116E+00
         25   -1    0    0    0    0  0.00000000000E+00  0.00000000000E+00  0.99999998245E-14  0.12500000000E+03  0.12500000000E+03 0.  0.
        -13    1    3    3    0    0  0.32865162531E+02 -0.38798982648E+02 -0.10908346958E+02  0.52004645562E+02  0.10566000000E+00 0.  1.
         23    2    1    0    0    0  0.17992521403E+02  0.23900531405E+01 -0.21302751971E+02  0.97013388523E+02  0.92888896703E+02 0.  0.
         13    1    3    3    0    0 -0.14872641127E+02  0.41189035788E+02 -0.10394405013E+02  0.45008742960E+02  0.10566000000E+00 0. -1.
         22    1    1    0    0    0 -0.17992521403E+02 -0.23900531405E+01  0.21302751971E+02  0.27986611477E+02  0.00000000000E+00 0.  1.
</event>
<event>
 5    1  0.1245581E-004  0.9118800E+02  0.7818608E-02  0.1130116E+00
         25   -1    0    0    0    0  0.00000000000E+00  0.00000000000E+00  0.99999998245E-14  0.12500000000E+03  0.12500000000E+03 0.  0.
        -13    1    3    3    0    0  0.67570843386E+01 -0.26025231582E+02 -0.27873913256E+02  0.38729021055E+02  0.10566000000E+00 0.  1.
         23    2    1    0    0    0  0.13901466968E+01 -0.79056577238E+01  0.27034748888E+02  0.96798766352E+02  0.92599630603E+02 0.  0.
         13    1    3    3    0    0 -0.53669376418E+01  0.18119573858E+02  0.54908662143E+02  0.58069745297E+02  0.10566000000E+00 0. -1.
         22    1    1    0    0    0 -0.13901466968E+01  0.79056577238E+01 -0.27034748888E+02  0.28201233648E+02  0.00000000000E+00 0. -1.
</event>
<event>
 5    1  0.1245581E-004  0.9118800E+02  0.7818608E-02  0.1130116E+00
         25   -1    0    0    0    0  0.00000000000E+00  0.00000000000E+00  0.99999998245E-14  0.12500000000E+03  0.12500000000E+03 0.  0.
        -13    1    3    3    0    0  0.16774981764E+02 -0.24465650002E+02 -0.15674849904E+02  0.33551156861E+02  0.10566000000E+00 0. -1.
         23    2    1    0    0    0 -0.98961652454E+01  0.24211915970E+02  0.12738752349E+02  0.95906585403E+02  0.91387342399E+02 0.  0.
         13    1    3    3    0    0 -0.26671147009E+02  0.48677565971E+02  0.28413602253E+02  0.62355428542E+02  0.10566000000E+00 0.  1.
         22    1    1    0    0    0  0.98961652454E+01 -0.24211915970E+02 -0.12738752349E+02  0.29093414597E+02  0.00000000000E+00 0.  1.
</event>
<event>
 5    1  0.1245581E-004  0.9118800E+02  0.7818608E-02  0.1130116E+00
         25   -1    0    0    0    0  0.00000000000E+00  0.00000000000E+00  0.99999998245E-14  0.12500000000E+03  0.12500000000E+03 0.  0.
        -13    1    3    3    0    0  0.22916358411E+02 -0.25305361551E+02  0.16019540078E+02  0.37711505332E+02  0.10566000000E+00 0.  1.
         23    2    1    0    0    0 -0.20513975387E+02 -0.24461261903E+02 -0.13612385320E+02  0.90294473723E+02  0.83358373489E+02 0.  0.
         13    1    3    3    0    0 -0.43430333798E+02  0.84409964796E+00 -0.29631925398E+02  0.52582968391E+02  0.10566000000E+00 0. -1.
         22    1    1    0    0    0  0.20513975387E+02  0.24461261903E+02  0.13612385320E+02  0.34705526277E+02  0.00000000000E+00 0. -1.
</event>
<event>
 5    1  0.1245581E-004  0.9118800E+02  0.7818608E-02  0.1130116E+00
         25   -1    0    0    0    0  0.00000000000E+00  0.00000000000E+00  0.99999998245E-14  0.12500000000E+03  0.12500000000E+03 0.  0.
        -13    1    3    3    0    0 -0.15733797098E+02 -0.12222812840E+02  0.44052561886E+02  0.48348618363E+02  0.10566000000E+00 0.  1.
         23    2    1    0    0    0  0.91662022328E+01  0.19796619748E+02  0.19341229810E+02  0.95845093254E+02  0.91303194432E+02 0.  0.
         13    1    3    3    0    0  0.24899999331E+02  0.32019432588E+02 -0.24711332077E+02  0.47496474890E+02  0.10566000000E+00 0. -1.
         22    1    1    0    0    0 -0.91662022328E+01 -0.19796619748E+02 -0.19341229810E+02  0.29154906746E+02  0.00000000000E+00 0. -1.
</event>
<event>
 5    1  0.1245581E-004  0.9118800E+02  0.7818608E-02  0.1130116E+00
         25   -1    0    0    0    0  0.00000000000E+00  0.00000000000E+00  0.99999998245E-14  0.12500000000E+03  0.12500000000E+03 0.  0.
        -13    1    3    3    0    0 -0.11688177552E+01  0.39903219297E+02 -0.15305508762E+02  0.42753980022E+02  0.10566000000E+00 0.  1.
         23    2    1    0    0    0 -0.14855401902E+02  0.43909630566E+01  0.23335875769E+02  0.96990597648E+02  0.92858222102E+02 0.  0.
         13    1    3    3    0    0 -0.13686584147E+02 -0.35512256241E+02  0.38641384531E+02  0.54236617625E+02  0.10566000000E+00 0. -1.
         22    1    1    0    0    0  0.14855401902E+02 -0.43909630566E+01 -0.23335875769E+02  0.28009402352E+02  0.00000000000E+00 0. -1.
</event>
<event>
 5    1  0.1245581E-004  0.9118800E+02  0.7818608E-02  0.1130116E+00
         25   -1    0    0    0    0  0.00000000000E+00  0.00000000000E+00  0.99999998245E-14  0.12500000000E+03  0.12500000000E+03 0.  0.
        -13    1    3    3    0    0  0.22875813217E+01  0.10305353857E+02 -0.32474429922E+02  0.34147226962E+02  0.10566000000E+00 0.  1.
         23    2    1    0    0    0 -0.17029094200E+02 -0.12560075784E+00  0.24476042514E+02  0.95182513822E+02  0.90391528671E+02 0.  0.
         13    1    3    3    0    0 -0.19316675521E+02 -0.10430954615E+02  0.56950472436E+02  0.61035286860E+02  0.10566000000E+00 0. -1.
         22    1    1    0    0    0  0.17029094200E+02  0.12560075784E+00 -0.24476042514E+02  0.29817486178E+02  0.00000000000E+00 0. -1.
</event>
<event>
 5    1  0.1245581E-004  0.9118800E+02  0.7818608E-02  0.1130116E+00
         25   -1    0    0    0    0  0.00000000000E+00  0.00000000000E+00  0.99999998245E-14  0.12500000000E+03  0.12500000000E+03 0.  0.
        -13    1    3    3    0    0  0.25295744546E+02  0.48307724813E+02 -0.89352847464E+01  0.55257229810E+02  0.10566000000E+00 0. -1.
         23    2    1    0    0    0  0.57029730507E+01  0.13257873252E+02 -0.23036659046E+02  0.97815762568E+02  0.93962442720E+02 0.  0.
         13    1    3    3    0    0 -0.19592771496E+02 -0.35049851561E+02 -0.14101374299E+02  0.42558532757E+02  0.10566000000E+00 0.  1.
         22    1    1    0    0    0 -0.57029730507E+01 -0.13257873252E+02  0.23036659046E+02  0.27184237432E+02  0.00000000000E+00 0. -1.
</event>
<event>
 5    1  0.1245581E-004  0.9118800E+02  0.7818608E-02  0.1130116E+00
         25   -1    0    0    0    0  0.00000000000E+00  0.00000000000E+00  0.99999998245E-14  0.12500000000E+03  0.12500000000E+03 0.  0.
        -13    1    3    3    0    0 -0.43364001869E+02 -0.26475529475E+00 -0.73192445838E+01  0.43978281671E+02  0.10566000000E+00 0.  1.
         23    2    1    0    0    0 -0.52208612209E+01 -0.22532112284E+02  0.18715142607E+02  0.95247520462E+02  0.90481379938E+02 0.  0.
         13    1    3    3    0    0  0.38143140648E+02 -0.22267356990E+02  0.26034387191E+02  0.51269238791E+02  0.10566000000E+00 0. -1.
         22    1    1    0    0    0  0.52208612209E+01  0.22532112284E+02 -0.18715142607E+02  0.29752479538E+02  0.00000000000E+00 0. -1.
</event>
<event>
 5    1  0.1245581E-004  0.9118800E+02  0.7818608E-02  0.1130116E+00
         25   -1    0    0    0    0  0.00000000000E+00  0.00000000000E+00  0.99999998245E-14  0.12500000000E+03  0.12500000000E+03 0.  0.
        -13    1    3    3    0    0 -0.13791202692E+02  0.87902622288E+01 -0.51078038893E+02  0.53632482722E+02  0.10566000000E+00 0.  1.
         23    2    1    0    0    0  0.13468259032E+02 -0.88949498863E+01 -0.24742015753E+02  0.95458817249E+02  0.90772817034E+02 0.  0.
         13    1    3    3    0    0  0.27259461724E+02 -0.17685212115E+02  0.26336023140E+02  0.41826334526E+02  0.10566000000E+00 0. -1.
         22    1    1    0    0    0 -0.13468259032E+02  0.88949498863E+01  0.24742015753E+02  0.29541182751E+02  0.00000000000E+00 0. -1.
</event>
<event>
 5    1  0.1245581E-004  0.9118800E+02  0.7818608E-02  0.1130116E+00
         25   -1    0    0    0    0  0.00000000000E+00  0.00000000000E+00  0.99999998245E-14  0.12500000000E+03  0.12500000000E+03 0.  0.
        -13    1    3    3    0    0 -0.19171006407E+02 -0.22439946971E+02  0.50947553644E+02  0.58879054791E+02  0.10566000000E+00 0. -1.
         23    2    1    0    0    0 -0.13809293177E+02  0.36847790847E+01  0.25643114540E+02  0.95642828844E+02  0.91025860122E+02 0.  0.
         13    1    3    3    0    0  0.53617132303E+01  0.26124726056E+02 -0.25304439103E+02  0.36763774053E+02  0.10566000000E+00 0.  1.
         22    1    1    0    0    0  0.13809293177E+02 -0.36847790847E+01 -0.25643114540E+02  0.29357171156E+02  0.00000000000E+00 0. -1.
</event>
<event>
 5    1  0.1245581E-004  0.9118800E+02  0.7818608E-02  0.1130116E+00
         25   -1    0    0    0    0  0.00000000000E+00  0.00000000000E+00  0.99999998245E-14  0.12500000000E+03  0.12500000000E+03 0.  0.
        -13    1    3    3    0    0 -0.42495158269E+02 -0.13034721964E+02  0.17451375255E+01  0.44483695013E+02  0.10566000000E+00 0.  1.
         23    2    1    0    0    0 -0.21024279917E+00  0.11376528651E+02  0.24225102173E+02  0.98235748068E+02  0.94519506013E+02 0.  0.
         13    1    3    3    0    0  0.42284915470E+02  0.24411250616E+02  0.22479964648E+02  0.53752053054E+02  0.10566000000E+00 0. -1.
         22    1    1    0    0    0  0.21024279917E+00 -0.11376528651E+02 -0.24225102173E+02  0.26764251932E+02  0.00000000000E+00 0. -1.
</event>
<event>
 5    1  0.1245581E-004  0.9118800E+02  0.7818608E-02  0.1130116E+00
         25   -1    0    0    0    0  0.00000000000E+00  0.00000000000E+00  0.99999998245E-14  0.12500000000E+03  0.12500000000E+03 0.  0.
        -13    1    3    3    0    0  0.54568372741E+02  0.58301326184E-01  0.28901590671E+02  0.61749686719E+02  0.10566000000E+00 0. -1.
         23    2    1    0    0    0  0.26094929775E+02 -0.66820918000E+01  0.12353233439E+02  0.95365592849E+02  0.90644350140E+02 0.  0.
         13    1    3    3    0    0 -0.28473442966E+02 -0.67403931262E+01 -0.16548357232E+02  0.33615906130E+02  0.10566000000E+00 0.  1.
         22    1    1    0    0    0 -0.26094929775E+02  0.66820918000E+01 -0.12353233439E+02  0.29634407151E+02  0.00000000000E+00 0. -1.
</event>
<event>
 5    1  0.1245581E-004  0.9118800E+02  0.7818608E-02  0.1130116E+00
         25   -1    0    0    0    0  0.00000000000E+00  0.00000000000E+00  0.99999998245E-14  0.12500000000E+03  0.12500000000E+03 0.  0.
        -13    1    3    3    0    0  0.11809334856E+02  0.46024947775E+02  0.17028778144E+02  0.50475208335E+02  0.10566000000E+00 0.  1.
         23    2    1    0    0    0  0.29729843729E+02  0.10417345448E+02  0.14220275709E+02  0.90437000484E+02  0.83571826120E+02 0.  0.
         13    1    3    3    0    0  0.17920508873E+02 -0.35607602327E+02 -0.28085024350E+01  0.39961792148E+02  0.10566000000E+00 0. -1.
         22    1    1    0    0    0 -0.29729843729E+02 -0.10417345448E+02 -0.14220275709E+02  0.34562999516E+02  0.00000000000E+00 0. -1.
</event>
<event>
 5    1  0.1245581E-004  0.9118800E+02  0.7818608E-02  0.1130116E+00
         25   -1    0    0    0    0  0.00000000000E+00  0.00000000000E+00  0.99999998245E-14  0.12500000000E+03  0.12500000000E+03 0.  0.
        -13    1    3    3    0    0 -0.33253715827E+01  0.15992085140E+02 -0.31474596023E+02  0.35460770468E+02  0.10566000000E+00 0. -1.
         23    2    1    0    0    0 -0.15354616834E+02 -0.14506975872E+02  0.19620339790E+02  0.96169905644E+02  0.91746805999E+02 0.  0.
         13    1    3    3    0    0 -0.12029245252E+02 -0.30499061013E+02  0.51094935814E+02  0.60709135176E+02  0.10566000000E+00 0.  1.
         22    1    1    0    0    0  0.15354616834E+02  0.14506975872E+02 -0.19620339790E+02  0.28830094356E+02  0.00000000000E+00 0.  1.
</event>
<event>
 5    1  0.1245581E-004  0.9118800E+02  0.7818608E-02  0.1130116E+00
         25   -1    0    0    0    0  0.00000000000E+00  0.00000000000E+00  0.99999998245E-14  0.12500000000E+03  0.12500000000E+03 0.  0.
        -13    1    3    3    0    0  0.11822377003E+01  0.33220738517E+02  0.17576244637E+02  0.37602535728E+02  0.10566000000E+00 0.  1.
         23    2    1    0    0    0 -0.21950475318E+02 -0.18387960160E+02  0.18435078385E+01  0.96306116214E+02  0.91932198133E+02 0.  0.
         13    1    3    3    0    0 -0.23132713018E+02 -0.51608698677E+02 -0.15732736799E+02  0.58703580487E+02  0.10566000000E+00 0. -1.
         22    1    1    0    0    0  0.21950475318E+02  0.18387960160E+02 -0.18435078385E+01  0.28693883786E+02  0.00000000000E+00 0. -1.
</event>
<event>
 5    1  0.1245581E-004  0.9118800E+02  0.7818608E-02  0.1130116E+00
         25   -1    0    0    0    0  0.00000000000E+00  0.00000000000E+00  0.99999998245E-14  0.12500000000E+03  0.12500000000E+03 0.  0.
        -13    1    3    3    0    0 -0.14034794030E+02 -0.40688357215E+02  0.12436490875E+01  0.43058979127E+02  0.10566000000E+00 0. -1.
         23    2    1    0    0    0  0.28200062718E+02 -0.11636449249E+02  0.29624531582E+01  0.94349932836E+02  0.89232747402E+02 0.  0.
         13    1    3    3    0    0  0.42234856748E+02  0.29051907966E+02  0.17188040707E+01  0.51290953709E+02  0.10566000000E+00 0.  1.
         22    1    1    0    0    0 -0.28200062718E+02  0.11636449249E+02 -0.29624531582E+01  0.30650067164E+02  0.00000000000E+00 0. -1.
</event>
<event>
 5    1  0.1245581E-004  0.9118800E+02  0.7818608E-02  0.1130116E+00
         25   -1    0    0    0    0  0.00000000000E+00  0.00000000000E+00  0.99999998245E-14  0.12500000000E+03  0.12500000000E+03 0.  0.
        -13    1    3    3    0    0  0.62817524085E+01 -0.32136766677E+02  0.81886880808E+01  0.33753488150E+02  0.10566000000E+00 0. -1.
         23    2    1    0    0    0  0.49985162464E+01  0.25678131751E+02 -0.13556489161E+02  0.95535953888E+02  0.90878977063E+02 0.  0.
         13    1    3    3    0    0 -0.12832361622E+01  0.57814898429E+02 -0.21745177242E+02  0.61782465738E+02  0.10566000000E+00 0.  1.
         22    1    1    0    0    0 -0.49985162464E+01 -0.25678131751E+02  0.13556489161E+02  0.29464046112E+02  0.00000000000E+00 0.  1.
</event>
<event>
 4    1  0.1245581E-004  0.9118800E+02  0.7818608E-02  0.1130116E+00
         25   -1    0    0    0    0  0.00000000000E+00  0.00000000000E+00  0.99999998245E-14  0.12500000000E+03  0.12500000000E+03 0.  0.
        -13    1    1    0    0    0  0.82815974946E+01 -0.15538086056E+02 -0.40913080426E+01  0.18076696072E+02  0.10566000000E+00 0.  1.
         13    1    1    0    0    0  0.16074419623E+02 -0.14793356637E+02  0.45276598832E+02  0.50271382839E+02  0.10566000000E+00 0. -1.
         22    1    1    0    0    0 -0.24356017117E+02  0.30331442693E+02 -0.41185290789E+02  0.56651921089E+02  0.00000000000E+00 0. -1.
</event>
<event>
 5    1  0.1245581E-004  0.9118800E+02  0.7818608E-02  0.1130116E+00
         25   -1    0    0    0    0  0.00000000000E+00  0.00000000000E+00  0.99999998245E-14  0.12500000000E+03  0.12500000000E+03 0.  0.
        -13    1    3    3    0    0 -0.15327117327E+02 -0.33853750408E+02  0.37360468518E+02  0.52695471477E+02  0.10566000000E+00 0.  1.
         23    2    1    0    0    0 -0.29121811211E+02 -0.45060183982E+01  0.18354231087E+02  0.90283118101E+02  0.83341343433E+02 0.  0.
         13    1    3    3    0    0 -0.13794693884E+02  0.29347732009E+02 -0.19006237431E+02  0.37587646624E+02  0.10566000000E+00 0. -1.
         22    1    1    0    0    0  0.29121811211E+02  0.45060183982E+01 -0.18354231087E+02  0.34716881899E+02  0.00000000000E+00 0.  1.
</event>
<event>
 5    1  0.1245581E-004  0.9118800E+02  0.7818608E-02  0.1130116E+00
         25   -1    0    0    0    0  0.00000000000E+00  0.00000000000E+00  0.99999998245E-14  0.12500000000E+03  0.12500000000E+03 0.  0.
        -13    1    3    3    0    0  0.12058009840E+02 -0.24846142516E+02  0.21663361675E+02  0.35100410287E+02  0.10566000000E+00 0. -1.
         23    2    1    0    0    0  0.21296543137E+02  0.15743032727E+02 -0.18302341080E+02  0.92807430701E+02  0.87045147339E+02 0.  0.
         13    1    3    3    0    0  0.92385332967E+01  0.40589175243E+02 -0.39965702755E+02  0.57707020414E+02  0.10566000000E+00 0.  1.
         22    1    1    0    0    0 -0.21296543137E+02 -0.15743032727E+02  0.18302341080E+02  0.32192569299E+02  0.00000000000E+00 0.  1.
</event>
<event>
 5    1  0.1245581E-004  0.9118800E+02  0.7818608E-02  0.1130116E+00
         25   -1    0    0    0    0  0.00000000000E+00  0.00000000000E+00  0.99999998245E-14  0.12500000000E+03  0.12500000000E+03 0.  0.
        -13    1    3    3    0    0 -0.38502703475E+02  0.25828788263E+02  0.32286550914E+02  0.56497938122E+02  0.10566000000E+00 0. -1.
         23    2    1    0    0    0 -0.13066928969E+02  0.25750909032E+02  0.19921234461E+01  0.96054836250E+02  0.91589896073E+02 0.  0.
         13    1    3    3    0    0  0.25435774506E+02 -0.77879231170E-01 -0.30294427468E+02  0.39556898128E+02  0.10566000000E+00 0.  1.
         22    1    1    0    0    0  0.13066928969E+02 -0.25750909032E+02 -0.19921234461E+01  0.28945163750E+02  0.00000000000E+00 0. -1.
</event>
<event>
 5    1  0.1245581E-004  0.9118800E+02  0.7818608E-02  0.1130116E+00
         25   -1    0    0    0    0  0.00000000000E+00  0.00000000000E+00  0.99999998245E-14  0.12500000000E+03  0.12500000000E+03 0.  0.
        -13    1    3    3    0    0 -0.13691984307E+02 -0.31185043083E+02 -0.42026041266E+02  0.54094146216E+02  0.10566000000E+00 0. -1.
         23    2    1    0    0    0 -0.13485526717E+02 -0.25679526988E+02 -0.49347013588E+00  0.95990673052E+02  0.91502285562E+02 0.  0.
         13    1    3    3    0    0  0.20645758990E+00  0.55055160947E+01  0.41532571130E+02  0.41896526836E+02  0.10566000000E+00 0.  1.
         22    1    1    0    0    0  0.13485526717E+02  0.25679526988E+02  0.49347013588E+00  0.29009326948E+02  0.00000000000E+00 0. -1.
</event>
<event>
 5    1  0.1245581E-004  0.9118800E+02  0.7818608E-02  0.1130116E+00
         25   -1    0    0    0    0  0.00000000000E+00  0.00000000000E+00  0.99999998245E-14  0.12500000000E+03  0.12500000000E+03 0.  0.
        -13    1    3    3    0    0 -0.84070941930E+01  0.35260947278E+02 -0.49714831615E+02  0.61527142646E+02  0.10566000000E+00 0. -1.
         23    2    1    0    0    0  0.13771529968E+01  0.21395141522E+02 -0.20365717922E+02  0.95429557027E+02  0.90732514882E+02 0.  0.
         13    1    3    3    0    0  0.97842471898E+01 -0.13865805756E+02  0.29349113692E+02  0.33902414382E+02  0.10566000000E+00 0.  1.
         22    1    1    0    0    0 -0.13771529968E+01 -0.21395141522E+02  0.20365717922E+02  0.29570442973E+02  0.00000000000E+00 0. -1.
</event>
<event>
 5    1  0.1245581E-004  0.9118800E+02  0.7818608E-02  0.1130116E+00
         25   -1    0    0    0    0  0.00000000000E+00  0.00000000000E+00  0.99999998245E-14  0.12500000000E+03  0.12500000000E+03 0.  0.
        -13    1    3    3    0    0 -0.16249060916E+02  0.52003468292E+02  0.29926728897E+02  0.62161185329E+02  0.10566000000E+00 0.  1.
         23    2    1    0    0    0 -0.11666122123E+02  0.23458963431E+02  0.11959066058E+02  0.96199989034E+02  0.91787783820E+02 0.  0.
         13    1    3    3    0    0  0.45829387929E+01 -0.28544504861E+02 -0.17967662839E+02  0.34038803705E+02  0.10566000000E+00 0. -1.
         22    1    1    0    0    0  0.11666122123E+02 -0.23458963431E+02 -0.11959066058E+02  0.28800010966E+02  0.00000000000E+00 0.  1.
</event>
<event>
 5    1  0.1245581E-004  0.9118800E+02  0.7818608E-02  0.1130116E+00
         25   -1    0    0    0    0  0.00000000000E+00  0.00000000000E+00  0.99999998245E-14  0.12500000000E+03  0.12500000000E+03 0.  0.
        -13    1    3    3    0    0  0.41164047397E+02  0.31075349174E+02  0.54400516635E+01  0.51862910162E+02  0.10566000000E+00 0. -1.
         23    2    1    0    0    0  0.23259918714E+02  0.93518388741E+00 -0.19292226649E+02  0.94766105170E+02  0.89813842433E+02 0.  0.
         13    1    3    3    0    0 -0.17904128683E+02 -0.30140165286E+02 -0.24732278313E+02  0.42903195008E+02  0.10566000000E+00 0.  1.
         22    1    1    0    0    0 -0.23259918714E+02 -0.93518388741E+00  0.19292226649E+02  0.30233894830E+02  0.00000000000E+00 0. -1.
</event>
<event>
 5    1  0.1245581E-004  0.9118800E+02  0.7818608E-02  0.1130116E+00
         25   -1    0    0    0    0  0.00000000000E+00  0.00000000000E+00  0.99999998245E-14  0.12500000000E+03  0.12500000000E+03 0.  0.
        -13    1    3    3    0    0  0.96424621738E+01  0.40434303734E+02 -0.10483901059E+02  0.42869958487E+02  0.10566000000E+00 0.  1.
         23    2    1    0    0    0 -0.20063485733E+02 -0.61988525100E+01  0.98809119675E+01  0.10179220705E+03  0.99111309965E+02 0.  0.
         13    1    3    3    0    0 -0.29705947907E+02 -0.46633156244E+02  0.20364813027E+02  0.58922248565E+02  0.10566000000E+00 0. -1.
         22    1    1    0    0    0  0.20063485733E+02  0.61988525100E+01 -0.98809119675E+01  0.23207792948E+02  0.00000000000E+00 0.  1.
</event>
<event>
 5    1  0.1245581E-004  0.9118800E+02  0.7818608E-02  0.1130116E+00
         25   -1    0    0    0    0  0.00000000000E+00  0.00000000000E+00  0.99999998245E-14  0.12500000000E+03  0.12500000000E+03 0.  0.
        -13    1    3    3    0    0  0.14915416442E+02  0.14360880152E+02  0.30237497003E+02  0.36647263410E+02  0.10566000000E+00 0. -1.
         23    2    1    0    0    0 -0.95047977648E+01 -0.27424644527E+02 -0.36736578063E+01  0.95743409808E+02  0.91163876903E+02 0.  0.
         13    1    3    3    0    0 -0.24420214207E+02 -0.41785524679E+02 -0.33911154809E+02  0.59096146398E+02  0.10566000000E+00 0.  1.
         22    1    1    0    0    0  0.95047977648E+01  0.27424644527E+02  0.36736578063E+01  0.29256590192E+02  0.00000000000E+00 0.  1.
</event>
<event>
 5    1  0.1245581E-004  0.9118800E+02  0.7818608E-02  0.1130116E+00
         25   -1    0    0    0    0  0.00000000000E+00  0.00000000000E+00  0.99999998245E-14  0.12500000000E+03  0.12500000000E+03 0.  0.
        -13    1    3    3    0    0  0.27894371768E+01  0.44964763697E+02 -0.15987982572E+02  0.47804159703E+02  0.10566000000E+00 0.  1.
         23    2    1    0    0    0 -0.11838639489E+02  0.18059335689E+02  0.20351392239E+02  0.95327248922E+02  0.90591457823E+02 0.  0.
         13    1    3    3    0    0 -0.14628076666E+02 -0.26905428009E+02  0.36339374811E+02  0.47523089219E+02  0.10566000000E+00 0. -1.
         22    1    1    0    0    0  0.11838639489E+02 -0.18059335689E+02 -0.20351392239E+02  0.29672751078E+02  0.00000000000E+00 0.  1.
</event>
<event>
 5    1  0.1245581E-004  0.9118800E+02  0.7818608E-02  0.1130116E+00
         25   -1    0    0    0    0  0.00000000000E+00  0.00000000000E+00  0.99999998245E-14  0.12500000000E+03  0.12500000000E+03 0.  0.
        -13    1    3    3    0    0  0.21135521339E+02  0.12319118949E+01 -0.55725019995E+02  0.59611382191E+02  0.10566000000E+00 0. -1.
         23    2    1    0    0    0  0.85111667664E+01 -0.12619149223E+02 -0.21103363718E+02  0.98980106706E+02  0.95498830760E+02 0.  0.
         13    1    3    3    0    0 -0.12624354573E+02 -0.13851061118E+02  0.34621656278E+02  0.39368724515E+02  0.10566000000E+00 0.  1.
         22    1    1    0    0    0 -0.85111667664E+01  0.12619149223E+02  0.21103363718E+02  0.26019893294E+02  0.00000000000E+00 0. -1.
</event>
<event>
 5    1  0.1245581E-004  0.9118800E+02  0.7818608E-02  0.1130116E+00
         25   -1    0    0    0    0  0.00000000000E+00  0.00000000000E+00  0.99999998245E-14  0.12500000000E+03  0.12500000000E+03 0.  0.
        -13    1    3    3    0    0 -0.16230682656E+02 -0.30809476835E+01 -0.51153576863E+02  0.53755249865E+02  0.10566000000E+00 0.  1.
         23    2    1    0    0    0  0.33968625062E+01 -0.21701801438E+02 -0.28330963613E+02  0.89151006154E+02  0.81625679407E+02 0.  0.
         13    1    3    3    0    0  0.19627545163E+02 -0.18620853754E+02  0.22822613251E+02  0.35395756289E+02  0.10566000000E+00 0. -1.
         22    1    1    0    0    0 -0.33968625062E+01  0.21701801438E+02  0.28330963613E+02  0.35848993846E+02  0.00000000000E+00 0.  1.
</event>
<event>
 5    1  0.1245581E-004  0.9118800E+02  0.7818608E-02  0.1130116E+00
         25   -1    0    0    0    0  0.00000000000E+00  0.00000000000E+00  0.99999998245E-14  0.12500000000E+03  0.12500000000E+03 0.  0.
        -13    1    3    3    0    0  0.52162418204E+02  0.19419947389E+02  0.22304513699E+02  0.59962944598E+02  0.10566000000E+00 0.  1.
         23    2    1    0    0    0  0.28253783871E+02  0.91990311031E+01 -0.15452221495E+01  0.95246240779E+02  0.90479612039E+02 0.  0.
         13    1    3    3    0    0 -0.23908634332E+02 -0.10220916286E+02 -0.23849735848E+02  0.35283296182E+02  0.10566000000E+00 0. -1.
         22    1    1    0    0    0 -0.28253783871E+02 -0.91990311031E+01  0.15452221495E+01  0.29753759221E+02  0.00000000000E+00 0.  1.
</event>
<event>
 5    1  0.1245581E-004  0.9118800E+02  0.7818608E-02  0.1130116E+00
         25   -1    0    0    0    0  0.00000000000E+00  0.00000000000E+00  0.99999998245E-14  0.12500000000E+03  0.12500000000E+03 0.  0.
        -13    1    3    3    0    0  0.10572149572E+02  0.33103359871E+02  0.51072831861E+02  0.61774170165E+02  0.10566000000E+00 0. -1.
         23    2    1    0    0    0  0.82562042701E+01  0.19701446858E+02  0.19813017550E+02  0.95864667812E+02  0.91329989342E+02 0.  0.
         13    1    3    3    0    0 -0.23159453018E+01 -0.13401913014E+02 -0.31259814310E+02  0.34090497647E+02  0.10566000000E+00 0.  1.
         22    1    1    0    0    0 -0.82562042701E+01 -0.19701446858E+02 -0.19813017550E+02  0.29135332188E+02  0.00000000000E+00 0. -1.
</event>
<event>
 5    1  0.1245581E-004  0.9118800E+02  0.7818608E-02  0.1130116E+00
         25   -1    0    0    0    0  0.00000000000E+00  0.00000000000E+00  0.99999998245E-14  0.12500000000E+03  0.12500000000E+03 0.  0.
        -13    1    3    3    0    0 -0.14515328506E+02  0.43850396171E+02 -0.41098810402E+01  0.46372990977E+02  0.10566000000E+00 0. -1.
         23    2    1    0    0    0 -0.17366814019E+02  0.14681181352E+01 -0.25641012331E+02  0.93996401605E+02  0.88736127937E+02 0.  0.
         13    1    3    3    0    0 -0.28514855132E+01 -0.42382278036E+02 -0.21531131291E+02  0.47623410628E+02  0.10566000000E+00 0.  1.
         22    1    1    0    0    0  0.17366814019E+02 -0.14681181352E+01  0.25641012331E+02  0.31003598395E+02  0.00000000000E+00 0. -1.
</event>
<event>
 5    1  0.1245581E-004  0.9118800E+02  0.7818608E-02  0.1130116E+00
         25   -1    0    0    0    0  0.00000000000E+00  0.00000000000E+00  0.99999998245E-14  0.12500000000E+03  0.12500000000E+03 0.  0.
        -13    1    3    3    0    0 -0.25645683484E+02 -0.13052525289E+02 -0.34376293707E+02  0.44830907094E+02  0.10566000000E+00 0.  1.
         23    2    1    0    0    0  0.43744415450E+00 -0.29100173702E+02  0.57757376333E+01  0.95328960044E+02  0.90593818835E+02 0.  0.
         13    1    3    3    0    0  0.26083127638E+02 -0.16047648413E+02  0.40152031341E+02  0.50498052950E+02  0.10566000000E+00 0. -1.
         22    1    1    0    0    0 -0.43744415450E+00  0.29100173702E+02 -0.57757376333E+01  0.29671039956E+02  0.00000000000E+00 0. -1.
</event>
<event>
 5    1  0.1245581E-004  0.9118800E+02  0.7818608E-02  0.1130116E+00
         25   -1    0    0    0    0  0.00000000000E+00  0.00000000000E+00  0.99999998245E-14  0.12500000000E+03  0.12500000000E+03 0.  0.
        -13    1    3    3    0    0 -0.94735274271E+01  0.23554180919E+02  0.12256850938E+02  0.28191997439E+02  0.10566000000E+00 0. -1.
         23    2    1    0    0    0 -0.25132500158E+01 -0.33669419897E+02 -0.96899572490E+01  0.89873919471E+02  0.82725327850E+02 0.  0.
         13    1    3    3    0    0  0.69602774113E+01 -0.57223600816E+02 -0.21946808187E+02  0.61681922032E+02  0.10566000000E+00 0.  1.
         22    1    1    0    0    0  0.25132500158E+01  0.33669419897E+02  0.96899572490E+01  0.35126080529E+02  0.00000000000E+00 0.  1.
</event>
<event>
 5    1  0.1245581E-004  0.9118800E+02  0.7818608E-02  0.1130116E+00
         25   -1    0    0    0    0  0.00000000000E+00  0.00000000000E+00  0.99999998245E-14  0.12500000000E+03  0.12500000000E+03 0.  0.
        -13    1    3    3    0    0 -0.25795398978E+02  0.10384082847E+01  0.24233010715E+02  0.35408062253E+02  0.10566000000E+00 0. -1.
         23    2    1    0    0    0 -0.12911937783E+01  0.40733338633E+01 -0.29841953982E+02  0.94853666100E+02  0.89935624338E+02 0.  0.
         13    1    3    3    0    0  0.24504205200E+02  0.30349255786E+01 -0.54074964697E+02  0.59445603847E+02  0.10566000000E+00 0.  1.
         22    1    1    0    0    0  0.12911937783E+01 -0.40733338633E+01  0.29841953982E+02  0.30146333900E+02  0.00000000000E+00 0.  1.
</event>
<event>
 5    1  0.1245581E-004  0.9118800E+02  0.7818608E-02  0.1130116E+00
         25   -1    0    0    0    0  0.00000000000E+00  0.00000000000E+00  0.99999998245E-14  0.12500000000E+03  0.12500000000E+03 0.  0.
        -13    1    3    3    0    0 -0.25952035416E+02  0.25461311669E+02 -0.13636920313E+01  0.36382102112E+02  0.10566000000E+00 0.  1.
         23    2    1    0    0    0  0.28123871756E+02  0.18798500607E+01 -0.78737678787E+01  0.95734282524E+02  0.91151361103E+02 0.  0.
         13    1    3    3    0    0  0.54075907172E+02 -0.23581461608E+02 -0.65100758473E+01  0.59352180411E+02  0.10566000000E+00 0. -1.
         22    1    1    0    0    0 -0.28123871756E+02 -0.18798500607E+01  0.78737678787E+01  0.29265717476E+02  0.00000000000E+00 0. -1.
</event>
<event>
 5    1  0.1245581E-004  0.9118800E+02  0.7818608E-02  0.1130116E+00
         25   -1    0    0    0    0  0.00000000000E+00  0.00000000000E+00  0.99999998245E-14  0.12500000000E+03  0.12500000000E+03 0.  0.
        -13    1    3    3    0    0 -0.28227021878E+02  0.21651193092E+02  0.20369975556E+02  0.40993731162E+02  0.10566000000E+00 0.  1.
         23    2    1    0    0    0  0.13393476774E+02 -0.15763975343E+02  0.18902397605E+02  0.96978779935E+02  0.92842312464E+02 0.  0.
         13    1    3    3    0    0  0.41620498652E+02 -0.37415168435E+02 -0.14675779511E+01  0.55985048773E+02  0.10566000000E+00 0. -1.
         22    1    1    0    0    0 -0.13393476774E+02  0.15763975343E+02 -0.18902397605E+02  0.28021220065E+02  0.00000000000E+00 0. -1.
</event>
<event>
 5    1  0.1245581E-004  0.9118800E+02  0.7818608E-02  0.1130116E+00
         25   -1    0    0    0    0  0.00000000000E+00  0.00000000000E+00  0.99999998245E-14  0.12500000000E+03  0.12500000000E+03 0.  0.
        -13    1    3    3    0    0  0.25889163294E+02 -0.47602246762E+02  0.20130720761E+02  0.57805533949E+02  0.10566000000E+00 0.  1.
         23    2    1    0    0    0  0.26048689966E+02 -0.14687941328E+02  0.29064391100E+01  0.94954746503E+02  0.90076004718E+02 0.  0.
         13    1    3    3    0    0  0.15952667201E+00  0.32914305434E+02 -0.17224281651E+02  0.37149212554E+02  0.10566000000E+00 0. -1.
         22    1    1    0    0    0 -0.26048689966E+02  0.14687941328E+02 -0.29064391100E+01  0.30045253497E+02  0.00000000000E+00 0.  1.
</event>
<event>
 5    1  0.1245581E-004  0.9118800E+02  0.7818608E-02  0.1130116E+00
         25   -1    0    0    0    0  0.00000000000E+00  0.00000000000E+00  0.99999998245E-14  0.12500000000E+03  0.12500000000E+03 0.  0.
        -13    1    3    3    0    0 -0.36439626486E+02  0.20822054649E+02 -0.40582894324E+02  0.58381390990E+02  0.10566000000E+00 0.  1.
         23    2    1    0    0    0 -0.24702536587E+02  0.13223022039E+02 -0.50991063313E+01  0.96520805645E+02  0.92223648873E+02 0.  0.
         13    1    3    3    0    0  0.11737089898E+02 -0.75990326093E+01  0.35483787993E+02  0.38139414655E+02  0.10566000000E+00 0. -1.
         22    1    1    0    0    0  0.24702536587E+02 -0.13223022039E+02  0.50991063313E+01  0.28479194355E+02  0.00000000000E+00 0.  1.
</event>
<event>
 5    1  0.1245581E-004  0.9118800E+02  0.7818608E-02  0.1130116E+00
         25   -1    0    0    0    0  0.00000000000E+00  0.00000000000E+00  0.99999998245E-14  0.12500000000E+03  0.12500000000E+03 0.  0.
        -13    1    3    3    0    0  0.47912584890E+01 -0.25257275999E+01 -0.43539427417E+02  0.43875145147E+02  0.10566000000E+00 0. -1.
         23    2    1    0    0    0  0.24200036463E+02 -0.29691625298E+01  0.83109518769E+01  0.99240931460E+02  0.95839620538E+02 0.  0.
         13    1    3    3    0    0  0.19408777974E+02 -0.44343492992E+00  0.51850379294E+02  0.55365786313E+02  0.10566000000E+00 0.  1.
         22    1    1    0    0    0 -0.24200036463E+02  0.29691625298E+01 -0.83109518769E+01  0.25759068540E+02  0.00000000000E+00 0.  1.
</event>
<event>
 5    1  0.1245581E-004  0.9118800E+02  0.7818608E-02  0.1130116E+00
         25   -1    0    0    0    0  0.00000000000E+00  0.00000000000E+00  0.99999998245E-14  0.12500000000E+03  0.12500000000E+03 0.  0.
        -13    1    3    3    0    0 -0.48153221661E+02  0.42525357466E+01 -0.19538588718E+02  0.52140046315E+02  0.10566000000E+00 0.  1.
         23    2    1    0    0    0 -0.68836598962E+01  0.18755301321E+02 -0.21140010397E+02  0.95913127689E+02  0.91396290528E+02 0.  0.
         13    1    3    3    0    0  0.41269561765E+02  0.14502765575E+02 -0.16014216787E+01  0.43773081374E+02  0.10566000000E+00 0. -1.
         22    1    1    0    0    0  0.68836598962E+01 -0.18755301321E+02  0.21140010397E+02  0.29086872311E+02  0.00000000000E+00 0.  1.
</event>
<event>
 5    1  0.1245581E-004  0.9118800E+02  0.7818608E-02  0.1130116E+00
         25   -1    0    0    0    0  0.00000000000E+00  0.00000000000E+00  0.99999998245E-14  0.12500000000E+03  0.12500000000E+03 0.  0.
        -13    1    3    3    0    0 -0.28329682050E+02 -0.16273316940E+02  0.24758790695E+02  0.40992689715E+02  0.10566000000E+00 0. -1.
         23    2    1    0    0    0  0.10968132360E+02 -0.20308624940E+02 -0.15343024307E+02  0.97284506692E+02  0.93253025007E+02 0.  0.
         13    1    3    3    0    0  0.39297814411E+02 -0.40353079995E+01 -0.40101815003E+02  0.56291816978E+02  0.10566000000E+00 0.  1.
         22    1    1    0    0    0 -0.10968132360E+02  0.20308624940E+02  0.15343024307E+02  0.27715493308E+02  0.00000000000E+00 0.  1.
</event>
<event>
 5    1  0.1245581E-004  0.9118800E+02  0.7818608E-02  0.1130116E+00
         25   -1    0    0    0    0  0.00000000000E+00  0.00000000000E+00  0.99999998245E-14  0.12500000000E+03  0.12500000000E+03 0.  0.
        -13    1    3    3    0    0  0.35648734642E+02 -0.23059417383E+02  0.35305906212E+02  0.55218540266E+02  0.10566000000E+00 0.  1.
         23    2    1    0    0    0  0.14113232187E+02  0.96963110388E+01  0.23040033290E+02  0.96293817660E+02  0.91915474296E+02 0.  0.
         13    1    3    3    0    0 -0.21535502455E+02  0.32755728422E+02 -0.12265872922E+02  0.41075277394E+02  0.10566000000E+00 0. -1.
         22    1    1    0    0    0 -0.14113232187E+02 -0.96963110388E+01 -0.23040033290E+02  0.28706182340E+02  0.00000000000E+00 0.  1.
</event>
<event>
 5    1  0.1245581E-004  0.9118800E+02  0.7818608E-02  0.1130116E+00
         25   -1    0    0    0    0  0.00000000000E+00  0.00000000000E+00  0.99999998245E-14  0.12500000000E+03  0.12500000000E+03 0.  0.
        -13    1    3    3    0    0  0.35956384458E+02 -0.18205865831E+02  0.40660129132E+01  0.40507514846E+02  0.10566000000E+00 0.  1.
         23    2    1    0    0    0 -0.16044754673E+02 -0.22070143810E+02 -0.12172368917E+02  0.95122048843E+02  0.90307874578E+02 0.  0.
         13    1    3    3    0    0 -0.52001139131E+02 -0.38642779787E+01 -0.16238381830E+02  0.54614533997E+02  0.10566000000E+00 0. -1.
         22    1    1    0    0    0  0.16044754673E+02  0.22070143810E+02  0.12172368917E+02  0.29877951157E+02  0.00000000000E+00 0. -1.
</event>
<event>
 5    1  0.1245581E-004  0.9118800E+02  0.7818608E-02  0.1130116E+00
         25   -1    0    0    0    0  0.00000000000E+00  0.00000000000E+00  0.99999998245E-14  0.12500000000E+03  0.12500000000E+03 0.  0.
        -13    1    3    3    0    0 -0.55512675182E+02 -0.23378745995E+02 -0.31380663750E+01  0.60316510963E+02  0.10566000000E+00 0.  1.
         23    2    1    0    0    0 -0.25289643258E+02 -0.73132074399E+01 -0.12580129440E+02  0.95822804866E+02  0.91272675081E+02 0.  0.
         13    1    3    3    0    0  0.30223031924E+02  0.16065538555E+02 -0.94420630651E+01  0.35506293902E+02  0.10566000000E+00 0. -1.
         22    1    1    0    0    0  0.25289643258E+02  0.73132074399E+01  0.12580129440E+02  0.29177195134E+02  0.00000000000E+00 0.  1.
</event>
<event>
 5    1  0.1245581E-004  0.9118800E+02  0.7818608E-02  0.1130116E+00
         25   -1    0    0    0    0  0.00000000000E+00  0.00000000000E+00  0.99999998245E-14  0.12500000000E+03  0.12500000000E+03 0.  0.
        -13    1    3    3    0    0 -0.37964810970E+02  0.23313805325E+02  0.54328767273E+01  0.44881930711E+02  0.10566000000E+00 0.  1.
         23    2    1    0    0    0  0.21360761207E+00  0.18919578764E+02  0.29300789742E+02  0.90121175932E+02  0.83098098553E+02 0.  0.
         13    1    3    3    0    0  0.38178418582E+02 -0.43942265616E+01  0.23867913015E+02  0.45239245222E+02  0.10566000000E+00 0. -1.
         22    1    1    0    0    0 -0.21360761207E+00 -0.18919578764E+02 -0.29300789742E+02  0.34878824068E+02  0.00000000000E+00 0. -1.
</event>
<event>
 5    1  0.1245581E-004  0.9118800E+02  0.7818608E-02  0.1130116E+00
         25   -1    0    0    0    0  0.00000000000E+00  0.00000000000E+00  0.99999998245E-14  0.12500000000E+03  0.12500000000E+03 0.  0.
        -13    1    3    3    0    0 -0.58208709583E+01 -0.49882994933E+02  0.24152243603E+02  0.55727351967E+02  0.10566000000E+00 0.  1.
         23    2    1    0    0    0  0.13181336017E+02 -0.25586453725E+02 -0.19741585301E+01  0.96150190030E+02  0.91719940621E+02 0.  0.
         13    1    3    3    0    0  0.19002206976E+02  0.24296541208E+02 -0.26126402133E+02  0.40422838063E+02  0.10566000000E+00 0. -1.
         22    1    1    0    0    0 -0.13181336017E+02  0.25586453725E+02  0.19741585301E+01  0.28849809970E+02  0.00000000000E+00 0.  1.
</event>
<event>
 5    1  0.1245581E-004  0.9118800E+02  0.7818608E-02  0.1130116E+00
         25   -1    0    0    0    0  0.00000000000E+00  0.00000000000E+00  0.99999998245E-14  0.12500000000E+03  0.12500000000E+03 0.  0.
        -13    1    3    3    0    0 -0.51953385093E+02  0.19592551920E+02 -0.10476418677E+02  0.56504768168E+02  0.10566000000E+00 0.  1.
         23    2    1    0    0    0 -0.16544269494E+02  0.25845926691E+02  0.11384376679E+01  0.94291355941E+02  0.89150653308E+02 0.  0.
         13    1    3    3    0    0  0.35409115599E+02  0.62533747717E+01  0.11614856345E+02  0.37786587773E+02  0.10566000000E+00 0. -1.
         22    1    1    0    0    0  0.16544269494E+02 -0.25845926691E+02 -0.11384376679E+01  0.30708644059E+02  0.00000000000E+00 0.  1.
</event>
<event>
 5    1  0.1245581E-004  0.9118800E+02  0.7818608E-02  0.1130116E+00
         25   -1    0    0    0    0  0.00000000000E+00  0.00000000000E+00  0.99999998245E-14  0.12500000000E+03  0.12500000000E+03 0.  0.
        -13    1    3    3    0    0 -0.40270400742E+02 -0.18269548035E+02 -0.33077148841E+02  0.55223097530E+02  0.10566000000E+00 0.  1.
         23    2    1    0    0    0 -0.17506908629E+02 -0.22614583303E+02  0.94144733672E+00  0.96385361250E+02  0.92039884357E+02 0.  0.
         13    1    3    3    0    0  0.22763492113E+02 -0.43450352673E+01  0.34018596177E+02  0.41162263720E+02  0.10566000000E+00 0. -1.
         22    1    1    0    0    0  0.17506908629E+02  0.22614583303E+02 -0.94144733672E+00  0.28614638750E+02  0.00000000000E+00 0.  1.
</event>
<event>
 5    1  0.1245581E-004  0.9118800E+02  0.7818608E-02  0.1130116E+00
         25   -1    0    0    0    0  0.00000000000E+00  0.00000000000E+00  0.99999998245E-14  0.12500000000E+03  0.12500000000E+03 0.  0.
        -13    1    3    3    0    0  0.12533807958E+02 -0.45793647301E+02  0.67337193457E+01  0.47953191920E+02  0.10566000000E+00 0. -1.
         23    2    1    0    0    0 -0.87455937903E+01 -0.71949522589E+01  0.26442169622E+02  0.96234724353E+02  0.91835075478E+02 0.  0.
         13    1    3    3    0    0 -0.21279401748E+02  0.38598695042E+02  0.19708450276E+02  0.48281532433E+02  0.10566000000E+00 0.  1.
         22    1    1    0    0    0  0.87455937903E+01  0.71949522589E+01 -0.26442169622E+02  0.28765275647E+02  0.00000000000E+00 0.  1.
</event>
<event>
 5    1  0.1245581E-004  0.9118800E+02  0.7818608E-02  0.1130116E+00
         25   -1    0    0    0    0  0.00000000000E+00  0.00000000000E+00  0.99999998245E-14  0.12500000000E+03  0.12500000000E+03 0.  0.
        -13    1    3    3    0    0  0.11912807409E+02 -0.53622148963E+02 -0.55653167528E+01  0.55210811934E+02  0.10566000000E+00 0.  1.
         23    2    1    0    0    0  0.21407807944E+02 -0.16048647539E+02 -0.13896436815E+02  0.94850965440E+02  0.89931870657E+02 0.  0.
         13    1    3    3    0    0  0.94950005343E+01  0.37573501424E+02 -0.83311200618E+01  0.39640153506E+02  0.10566000000E+00 0. -1.
         22    1    1    0    0    0 -0.21407807944E+02  0.16048647539E+02  0.13896436815E+02  0.30149034560E+02  0.00000000000E+00 0.  1.
</event>
<event>
 5    1  0.1245581E-004  0.9118800E+02  0.7818608E-02  0.1130116E+00
         25   -1    0    0    0    0  0.00000000000E+00  0.00000000000E+00  0.99999998245E-14  0.12500000000E+03  0.12500000000E+03 0.  0.
        -13    1    3    3    0    0 -0.25663739965E+02  0.58449391717E+01 -0.25772871303E+02  0.36838063496E+02  0.10566000000E+00 0. -1.
         23    2    1    0    0    0  0.67696311982E+01 -0.25955177882E+02  0.11712727042E+02  0.95730781695E+02  0.91146560131E+02 0.  0.
         13    1    3    3    0    0  0.32433371163E+02 -0.31800117054E+02  0.37485598345E+02  0.58892718199E+02  0.10566000000E+00 0.  1.
         22    1    1    0    0    0 -0.67696311982E+01  0.25955177882E+02 -0.11712727042E+02  0.29269218305E+02  0.00000000000E+00 0.  1.
</event>
<event>
 5    1  0.1245581E-004  0.9118800E+02  0.7818608E-02  0.1130116E+00
         25   -1    0    0    0    0  0.00000000000E+00  0.00000000000E+00  0.99999998245E-14  0.12500000000E+03  0.12500000000E+03 0.  0.
        -13    1    3    3    0    0  0.13555306492E+02  0.41136986453E+02 -0.41070982859E+02  0.59689486391E+02  0.10566000000E+00 0.  1.
         23    2    1    0    0    0  0.99516310657E+01  0.26083509949E+02 -0.83930475337E+01  0.95848195612E+02  0.91307441663E+02 0.  0.
         13    1    3    3    0    0 -0.36036754264E+01 -0.15053476504E+02  0.32677935325E+02  0.36158709222E+02  0.10566000000E+00 0. -1.
         22    1    1    0    0    0 -0.99516310657E+01 -0.26083509949E+02  0.83930475337E+01  0.29151804388E+02  0.00000000000E+00 0.  1.
</event>
<event>
 5    1  0.1245581E-004  0.9118800E+02  0.7818608E-02  0.1130116E+00
         25   -1    0    0    0    0  0.00000000000E+00  0.00000000000E+00  0.99999998245E-14  0.12500000000E+03  0.12500000000E+03 0.  0.
        -13    1    3    3    0    0 -0.24349651795E+02 -0.38180360404E+02  0.37669399624E+02  0.58903652648E+02  0.10566000000E+00 0. -1.
         23    2    1    0    0    0 -0.14925226888E+02 -0.25064197518E+02  0.49237302922E+01  0.95415890839E+02  0.90713685350E+02 0.  0.
         13    1    3    3    0    0  0.94244249062E+01  0.13116162887E+02 -0.32745669332E+02  0.36512238191E+02  0.10566000000E+00 0.  1.
         22    1    1    0    0    0  0.14925226888E+02  0.25064197518E+02 -0.49237302922E+01  0.29584109161E+02  0.00000000000E+00 0.  1.
</event>
<event>
 5    1  0.1245581E-004  0.9118800E+02  0.7818608E-02  0.1130116E+00
         25   -1    0    0    0    0  0.00000000000E+00  0.00000000000E+00  0.99999998245E-14  0.12500000000E+03  0.12500000000E+03 0.  0.
        -13    1    3    3    0    0  0.10765355236E+02  0.29683669660E+02  0.36742694698E+01  0.31788748607E+02  0.10566000000E+00 0.  1.
         23    2    1    0    0    0  0.26038898195E+01 -0.25558691835E+02  0.22633039088E+02  0.90761404397E+02  0.84055642875E+02 0.  0.
         13    1    3    3    0    0 -0.81614654162E+01 -0.55242361496E+02  0.18958769619E+02  0.58972655789E+02  0.10566000000E+00 0. -1.
         22    1    1    0    0    0 -0.26038898195E+01  0.25558691835E+02 -0.22633039088E+02  0.34238595603E+02  0.00000000000E+00 0. -1.
</event>
<event>
 5    1  0.1245581E-004  0.9118800E+02  0.7818608E-02  0.1130116E+00
         25   -1    0    0    0    0  0.00000000000E+00  0.00000000000E+00  0.99999998245E-14  0.12500000000E+03  0.12500000000E+03 0.  0.
        -13    1    3    3    0    0  0.79342018681E+01  0.39255669692E+01  0.58629363704E+02  0.59293971765E+02  0.10566000000E+00 0.  1.
         23    2    1    0    0    0  0.55077253668E+01 -0.12175381703E+02  0.27519959697E+02  0.94407139068E+02  0.89312847715E+02 0.  0.
         13    1    3    3    0    0 -0.24264765014E+01 -0.16100948672E+02 -0.31109404007E+02  0.35113167303E+02  0.10566000000E+00 0. -1.
         22    1    1    0    0    0 -0.55077253668E+01  0.12175381703E+02 -0.27519959697E+02  0.30592860932E+02  0.00000000000E+00 0.  1.
</event>
<event>
 5    1  0.1245581E-004  0.9118800E+02  0.7818608E-02  0.1130116E+00
         25   -1    0    0    0    0  0.00000000000E+00  0.00000000000E+00  0.99999998245E-14  0.12500000000E+03  0.12500000000E+03 0.  0.
        -13    1    3    3    0    0  0.42509884269E+02  0.18423817218E+02  0.37129960145E+02  0.59373162336E+02  0.10566000000E+00 0.  1.
         23    2    1    0    0    0  0.14501482985E+02  0.20783883311E+02  0.12515721185E+02  0.96735073129E+02  0.92513611335E+02 0.  0.
         13    1    3    3    0    0 -0.28008401284E+02  0.23600660932E+01 -0.24614238960E+02  0.37361910792E+02  0.10566000000E+00 0. -1.
         22    1    1    0    0    0 -0.14501482985E+02 -0.20783883311E+02 -0.12515721185E+02  0.28264926871E+02  0.00000000000E+00 0.  1.
</event>
<event>
 5    1  0.1245581E-004  0.9118800E+02  0.7818608E-02  0.1130116E+00
         25   -1    0    0    0    0  0.00000000000E+00  0.00000000000E+00  0.99999998245E-14  0.12500000000E+03  0.12500000000E+03 0.  0.
        -13    1    3    3    0    0  0.16619149709E+02 -0.29255579955E+02 -0.18806530497E+01  0.33699156005E+02  0.10566000000E+00 0.  1.
         23    2    1    0    0    0  0.17273654235E+02  0.22532573958E+02  0.20357574407E+02  0.90063960506E+02  0.83011987848E+02 0.  0.
         13    1    3    3    0    0  0.65450452559E+00  0.51788153913E+02  0.22238227457E+02  0.56364804500E+02  0.10566000000E+00 0. -1.
         22    1    1    0    0    0 -0.17273654235E+02 -0.22532573958E+02 -0.20357574407E+02  0.34936039494E+02  0.00000000000E+00 0. -1.
</event>
<event>
 5    1  0.1245581E-004  0.9118800E+02  0.7818608E-02  0.1130116E+00
         25   -1    0    0    0    0  0.00000000000E+00  0.00000000000E+00  0.99999998245E-14  0.12500000000E+03  0.12500000000E+03 0.  0.
        -13    1    3    3    0    0  0.55651487548E+01  0.30753781908E+02 -0.12991890944E+02  0.33846216578E+02  0.10566000000E+00 0. -1.
         23    2    1    0    0    0 -0.10099826082E+02 -0.17001877659E+02  0.22251355651E+02  0.95231003390E+02  0.90458558730E+02 0.  0.
         13    1    3    3    0    0 -0.15664974837E+02 -0.47755659568E+02  0.35243246595E+02  0.61384786812E+02  0.10566000000E+00 0.  1.
         22    1    1    0    0    0  0.10099826082E+02  0.17001877659E+02 -0.22251355651E+02  0.29768996610E+02  0.00000000000E+00 0.  1.
</event>
<event>
 5    1  0.1245581E-004  0.9118800E+02  0.7818608E-02  0.1130116E+00
         25   -1    0    0    0    0  0.00000000000E+00  0.00000000000E+00  0.99999998245E-14  0.12500000000E+03  0.12500000000E+03 0.  0.
        -13    1    3    3    0    0  0.45913295679E+02  0.12713069551E+02 -0.24124224813E+02  0.53400770073E+02  0.10566000000E+00 0. -1.
         23    2    1    0    0    0  0.10447048127E+02 -0.84089890286E+01 -0.27074914650E+02  0.94785716716E+02  0.89841133002E+02 0.  0.
         13    1    3    3    0    0 -0.35466247553E+02 -0.21122058580E+02 -0.29506898372E+01  0.41384946643E+02  0.10566000000E+00 0.  1.
         22    1    1    0    0    0 -0.10447048127E+02  0.84089890286E+01  0.27074914650E+02  0.30214283284E+02  0.00000000000E+00 0. -1.
</event>
<event>
 5    1  0.1245581E-004  0.9118800E+02  0.7818608E-02  0.1130116E+00
         25   -1    0    0    0    0  0.00000000000E+00  0.00000000000E+00  0.99999998245E-14  0.12500000000E+03  0.12500000000E+03 0.  0.
        -13    1    3    3    0    0  0.36697984567E+02  0.39413393314E+02  0.28459843143E+02  0.60910848620E+02  0.10566000000E+00 0. -1.
         23    2    1    0    0    0  0.28469372132E+02  0.18966256210E+02  0.10883494362E+02  0.89101887602E+02  0.81550425508E+02 0.  0.
         13    1    3    3    0    0 -0.82286124351E+01 -0.20447137104E+02 -0.17576348781E+02  0.28191038982E+02  0.10566000000E+00 0.  1.
         22    1    1    0    0    0 -0.28469372132E+02 -0.18966256210E+02 -0.10883494362E+02  0.35898112398E+02  0.00000000000E+00 0. -1.
</event>
<event>
 5    1  0.1245581E-004  0.9118800E+02  0.7818608E-02  0.1130116E+00
         25   -1    0    0    0    0  0.00000000000E+00  0.00000000000E+00  0.99999998245E-14  0.12500000000E+03  0.12500000000E+03 0.  0.
        -13    1    3    3    0    0 -0.24417759367E+02 -0.16731336424E+02 -0.16263698052E+02  0.33774008193E+02  0.10566000000E+00 0. -1.
         23    2    1    0    0    0  0.16502088825E+02  0.24699690445E+02  0.30818691933E+01  0.95135446405E+02  0.90326416963E+02 0.  0.
         13    1    3    3    0    0  0.40919848192E+02  0.41431026869E+02  0.19345567246E+02  0.61361438213E+02  0.10566000000E+00 0.  1.
         22    1    1    0    0    0 -0.16502088825E+02 -0.24699690445E+02 -0.30818691933E+01  0.29864553595E+02  0.00000000000E+00 0.  1.
</event>
<event>
 5    1  0.1245581E-004  0.9118800E+02  0.7818608E-02  0.1130116E+00
         25   -1    0    0    0    0  0.00000000000E+00  0.00000000000E+00  0.99999998245E-14  0.12500000000E+03  0.12500000000E+03 0.  0.
        -13    1    3    3    0    0 -0.56800702544E+01  0.24259742535E+02 -0.54990859328E+02  0.60372212810E+02  0.10566000000E+00 0.  1.
         23    2    1    0    0    0 -0.12494877424E+02  0.54125152969E+01 -0.26502135212E+02  0.95204355109E+02  0.90421727351E+02 0.  0.
         13    1    3    3    0    0 -0.68148071696E+01 -0.18847227238E+02  0.28488724116E+02  0.34832142299E+02  0.10566000000E+00 0. -1.
         22    1    1    0    0    0  0.12494877424E+02 -0.54125152969E+01  0.26502135212E+02  0.29795644891E+02  0.00000000000E+00 0.  1.
</event>
<event>
 5    1  0.1245581E-004  0.9118800E+02  0.7818608E-02  0.1130116E+00
         25   -1    0    0    0    0  0.00000000000E+00  0.00000000000E+00  0.99999998245E-14  0.12500000000E+03  0.12500000000E+03 0.  0.
        -13    1    3    3    0    0  0.20712439292E+02  0.14930852782E+02 -0.56819247383E+02  0.62292644376E+02  0.10566000000E+00 0. -1.
         23    2    1    0    0    0  0.63494548749E+01  0.77766436711E+01 -0.27641806023E+02  0.95591477354E+02  0.90955315065E+02 0.  0.
         13    1    3    3    0    0 -0.14362984417E+02 -0.71542091105E+01  0.29177441360E+02  0.33298832978E+02  0.10566000000E+00 0.  1.
         22    1    1    0    0    0 -0.63494548749E+01 -0.77766436711E+01  0.27641806023E+02  0.29408522646E+02  0.00000000000E+00 0. -1.
</event>
<event>
 5    1  0.1245581E-004  0.9118800E+02  0.7818608E-02  0.1130116E+00
         25   -1    0    0    0    0  0.00000000000E+00  0.00000000000E+00  0.99999998245E-14  0.12500000000E+03  0.12500000000E+03 0.  0.
        -13    1    3    3    0    0 -0.25787476502E+02 -0.56156558092E+01 -0.26967785068E+02  0.37733302665E+02  0.10566000000E+00 0.  1.
         23    2    1    0    0    0 -0.14376433170E+02  0.34199222677E+02  0.13014844883E+01  0.87879082389E+02  0.79654068303E+02 0.  0.
         13    1    3    3    0    0  0.11411043332E+02  0.39814878486E+02  0.28269269557E+02  0.50145779724E+02  0.10566000000E+00 0. -1.
         22    1    1    0    0    0  0.14376433170E+02 -0.34199222677E+02 -0.13014844883E+01  0.37120917611E+02  0.00000000000E+00 0. -1.
</event>
<event>
 5    1  0.1245581E-004  0.9118800E+02  0.7818608E-02  0.1130116E+00
         25   -1    0    0    0    0  0.00000000000E+00  0.00000000000E+00  0.99999998245E-14  0.12500000000E+03  0.12500000000E+03 0.  0.
        -13    1    3    3    0    0  0.48543314531E+01 -0.42462314182E+02 -0.35091364173E+02  0.55299436372E+02  0.10566000000E+00 0.  1.
         23    2    1    0    0    0  0.19676539688E+02 -0.23606480470E+02 -0.48647044237E+01  0.93885735049E+02  0.88580098003E+02 0.  0.
         13    1    3    3    0    0  0.14822208235E+02  0.18855833712E+02  0.30226659750E+02  0.38586298677E+02  0.10566000000E+00 0. -1.
         22    1    1    0    0    0 -0.19676539688E+02  0.23606480470E+02  0.48647044237E+01  0.31114264951E+02  0.00000000000E+00 0.  1.
</event>
<event>
 5    1  0.1245581E-004  0.9118800E+02  0.7818608E-02  0.1130116E+00
         25   -1    0    0    0    0  0.00000000000E+00  0.00000000000E+00  0.99999998245E-14  0.12500000000E+03  0.12500000000E+03 0.  0.
        -13    1    3    3    0    0  0.23432847972E+02 -0.31272221412E+02  0.28843981109E+02  0.48569914622E+02  0.10566000000E+00 0.  1.
         23    2    1    0    0    0  0.17746366267E+02 -0.30582206997E+02 -0.10332414734E+02  0.88163011867E+02  0.80098395531E+02 0.  0.
         13    1    3    3    0    0 -0.56864817058E+01  0.69001441461E+00 -0.39176395843E+02  0.39593097244E+02  0.10566000000E+00 0. -1.
         22    1    1    0    0    0 -0.17746366267E+02  0.30582206997E+02  0.10332414734E+02  0.36836988133E+02  0.00000000000E+00 0.  1.
</event>
<event>
 5    1  0.1245581E-004  0.9118800E+02  0.7818608E-02  0.1130116E+00
         25   -1    0    0    0    0  0.00000000000E+00  0.00000000000E+00  0.99999998245E-14  0.12500000000E+03  0.12500000000E+03 0.  0.
        -13    1    3    3    0    0  0.27347333339E+02 -0.43207774791E+01  0.19153190847E+02  0.33666030987E+02  0.10566000000E+00 0. -1.
         23    2    1    0    0    0 -0.12884500965E+02  0.25676858830E+02 -0.13209379313E+02  0.93380399334E+02  0.87864098660E+02 0.  0.
         13    1    3    3    0    0 -0.40231834304E+02  0.29997636309E+02 -0.32362570160E+02  0.59714368346E+02  0.10566000000E+00 0.  1.
         22    1    1    0    0    0  0.12884500965E+02 -0.25676858830E+02  0.13209379313E+02  0.31619600666E+02  0.00000000000E+00 0.  1.
</event>
<event>
 5    1  0.1245581E-004  0.9118800E+02  0.7818608E-02  0.1130116E+00
         25   -1    0    0    0    0  0.00000000000E+00  0.00000000000E+00  0.99999998245E-14  0.12500000000E+03  0.12500000000E+03 0.  0.
        -13    1    3    3    0    0  0.43559114297E+02  0.10030356943E+02  0.21041333722E+02  0.49403981495E+02  0.10566000000E+00 0. -1.
         23    2    1    0    0    0  0.18090234239E+02  0.12279083933E+02 -0.18410927181E+02  0.96416880563E+02  0.92082681004E+02 0.  0.
         13    1    3    3    0    0 -0.25468880058E+02  0.22487269903E+01 -0.39452260903E+02  0.47012899069E+02  0.10566000000E+00 0.  1.
         22    1    1    0    0    0 -0.18090234239E+02 -0.12279083933E+02  0.18410927181E+02  0.28583119437E+02  0.00000000000E+00 0. -1.
</event>
<event>
 5    1  0.1245581E-004  0.9118800E+02  0.7818608E-02  0.1130116E+00
         25   -1    0    0    0    0  0.00000000000E+00  0.00000000000E+00  0.99999998245E-14  0.12500000000E+03  0.12500000000E+03 0.  0.
        -13    1    3    3    0    0  0.12821076332E+02 -0.34052021950E+02 -0.33132844505E+02  0.49210941326E+02  0.10566000000E+00 0. -1.
         23    2    1    0    0    0 -0.20498065264E+02 -0.21577792291E+02 -0.44576831441E+01  0.94906101304E+02  0.90008473634E+02 0.  0.
         13    1    3    3    0    0 -0.33319141596E+02  0.12474229659E+02  0.28675161361E+02  0.45695159978E+02  0.10566000000E+00 0.  1.
         22    1    1    0    0    0  0.20498065264E+02  0.21577792291E+02  0.44576831441E+01  0.30093898696E+02  0.00000000000E+00 0.  1.
</event>
<event>
 5    1  0.1245581E-004  0.9118800E+02  0.7818608E-02  0.1130116E+00
         25   -1    0    0    0    0  0.00000000000E+00  0.00000000000E+00  0.99999998245E-14  0.12500000000E+03  0.12500000000E+03 0.  0.
        -13    1    3    3    0    0 -0.13531890278E+02 -0.71578732550E+01 -0.29182163935E+02  0.32953862596E+02  0.10566000000E+00 0.  1.
         23    2    1    0    0    0 -0.91050906980E+00  0.13631391943E+02  0.27312522885E+02  0.94461208612E+02  0.89388490048E+02 0.  0.
         13    1    3    3    0    0  0.12621381208E+02  0.20789265198E+02  0.56494686820E+02  0.61507346016E+02  0.10566000000E+00 0. -1.
         22    1    1    0    0    0  0.91050906980E+00 -0.13631391943E+02 -0.27312522885E+02  0.30538791388E+02  0.00000000000E+00 0. -1.
</event>
<event>
 5    1  0.1245581E-004  0.9118800E+02  0.7818608E-02  0.1130116E+00
         25   -1    0    0    0    0  0.00000000000E+00  0.00000000000E+00  0.99999998245E-14  0.12500000000E+03  0.12500000000E+03 0.  0.
        -13    1    3    3    0    0  0.39740813454E+02 -0.44915432676E+02  0.13969099532E+02  0.61578204360E+02  0.10566000000E+00 0.  1.
         23    2    1    0    0    0  0.14445517522E+02 -0.15025683575E+02  0.12358692379E+02  0.10076817339E+03  0.97811263914E+02 0.  0.
         13    1    3    3    0    0 -0.25295295932E+02  0.29889749102E+02 -0.16104071526E+01  0.39189969034E+02  0.10566000000E+00 0. -1.
         22    1    1    0    0    0 -0.14445517522E+02  0.15025683575E+02 -0.12358692379E+02  0.24231826606E+02  0.00000000000E+00 0.  1.
</event>
<event>
 5    1  0.1245581E-004  0.9118800E+02  0.7818608E-02  0.1130116E+00
         25   -1    0    0    0    0  0.00000000000E+00  0.00000000000E+00  0.99999998245E-14  0.12500000000E+03  0.12500000000E+03 0.  0.
        -13    1    3    3    0    0 -0.23022090131E+02 -0.40832357990E+02 -0.25607326800E+02  0.53413897470E+02  0.10566000000E+00 0. -1.
         23    2    1    0    0    0  0.10474981778E+02 -0.15688547392E+02 -0.22822567834E+02  0.95390451455E+02  0.90678624073E+02 0.  0.
         13    1    3    3    0    0  0.33497071909E+02  0.25143810598E+02  0.27847589663E+01  0.41976553985E+02  0.10566000000E+00 0.  1.
         22    1    1    0    0    0 -0.10474981778E+02  0.15688547392E+02  0.22822567834E+02  0.29609548545E+02  0.00000000000E+00 0. -1.
</event>
<event>
 5    1  0.1245581E-004  0.9118800E+02  0.7818608E-02  0.1130116E+00
         25   -1    0    0    0    0  0.00000000000E+00  0.00000000000E+00  0.99999998245E-14  0.12500000000E+03  0.12500000000E+03 0.  0.
        -13    1    3    3    0    0  0.99771207378E+00  0.51820090855E+02  0.29302132141E+02  0.59539426917E+02  0.10566000000E+00 0.  1.
         23    2    1    0    0    0  0.90057220001E+01  0.27605647697E+02  0.36136798389E+01  0.95738532240E+02  0.91157188745E+02 0.  0.
         13    1    3    3    0    0  0.80080099263E+01 -0.24214443158E+02 -0.25688452302E+02  0.36199105322E+02  0.10566000000E+00 0. -1.
         22    1    1    0    0    0 -0.90057220001E+01 -0.27605647697E+02 -0.36136798389E+01  0.29261467760E+02  0.00000000000E+00 0.  1.
</event>
<event>
 5    1  0.1245581E-004  0.9118800E+02  0.7818608E-02  0.1130116E+00
         25   -1    0    0    0    0  0.00000000000E+00  0.00000000000E+00  0.99999998245E-14  0.12500000000E+03  0.12500000000E+03 0.  0.
        -13    1    3    3    0    0  0.28858351851E+02 -0.20629860681E+02  0.21839393718E+02  0.41657723237E+02  0.10566000000E+00 0.  1.
         23    2    1    0    0    0 -0.23450110936E+02 -0.14954288694E+02  0.72862762987E+01  0.96248856100E+02  0.91854308690E+02 0.  0.
         13    1    3    3    0    0 -0.52308462787E+02  0.56755719873E+01 -0.14553117420E+02  0.54591132863E+02  0.10566000000E+00 0. -1.
         22    1    1    0    0    0  0.23450110936E+02  0.14954288694E+02 -0.72862762987E+01  0.28751143900E+02  0.00000000000E+00 0. -1.
</event>
<event>
 5    1  0.1245581E-004  0.9118800E+02  0.7818608E-02  0.1130116E+00
         25   -1    0    0    0    0  0.00000000000E+00  0.00000000000E+00  0.99999998245E-14  0.12500000000E+03  0.12500000000E+03 0.  0.
        -13    1    3    3    0    0  0.42177082526E+02  0.22624366087E+02 -0.24683343362E+02  0.53852082920E+02  0.10566000000E+00 0. -1.
         23    2    1    0    0    0  0.39216555164E+01  0.27413606729E+02 -0.14558921545E+02  0.93713462761E+02  0.88336661077E+02 0.  0.
         13    1    3    3    0    0 -0.38255427010E+02  0.47892406415E+01  0.10124421817E+02  0.39861379841E+02  0.10566000000E+00 0.  1.
         22    1    1    0    0    0 -0.39216555164E+01 -0.27413606729E+02  0.14558921545E+02  0.31286537239E+02  0.00000000000E+00 0. -1.
</event>
<event>
 5    1  0.1245581E-004  0.9118800E+02  0.7818608E-02  0.1130116E+00
         25   -1    0    0    0    0  0.00000000000E+00  0.00000000000E+00  0.99999998245E-14  0.12500000000E+03  0.12500000000E+03 0.  0.
        -13    1    3    3    0    0  0.13980887806E+01  0.34095754741E+02  0.12923819543E+02  0.36489881052E+02  0.10566000000E+00 0. -1.
         23    2    1    0    0    0  0.16567516753E+02 -0.20925224739E+02 -0.77741727109E+01  0.97200981976E+02  0.93140997923E+02 0.  0.
         13    1    3    3    0    0  0.15169427972E+02 -0.55020979481E+02 -0.20697992254E+02  0.60711100924E+02  0.10566000000E+00 0.  1.
         22    1    1    0    0    0 -0.16567516753E+02  0.20925224739E+02  0.77741727109E+01  0.27799018024E+02  0.00000000000E+00 0.  1.
</event>
<event>
 5    1  0.1245581E-004  0.9118800E+02  0.7818608E-02  0.1130116E+00
         25   -1    0    0    0    0  0.00000000000E+00  0.00000000000E+00  0.99999998245E-14  0.12500000000E+03  0.12500000000E+03 0.  0.
        -13    1    3    3    0    0 -0.17483232697E+02  0.34819059605E+02 -0.19520321595E+02  0.43578486167E+02  0.10566000000E+00 0.  1.
         23    2    1    0    0    0 -0.76962207284E+01 -0.16901785897E+02 -0.21918112154E+02  0.96271863610E+02  0.91885613142E+02 0.  0.
         13    1    3    3    0    0  0.97870119690E+01 -0.51720845503E+02 -0.23977905591E+01  0.52693377444E+02  0.10566000000E+00 0. -1.
         22    1    1    0    0    0  0.76962207284E+01  0.16901785897E+02  0.21918112154E+02  0.28728136390E+02  0.00000000000E+00 0. -1.
</event>
<event>
 5    1  0.1245581E-004  0.9118800E+02  0.7818608E-02  0.1130116E+00
         25   -1    0    0    0    0  0.00000000000E+00  0.00000000000E+00  0.99999998245E-14  0.12500000000E+03  0.12500000000E+03 0.  0.
        -13    1    3    3    0    0 -0.36990904678E+02 -0.29510492402E+02  0.40718507322E+01  0.47495129467E+02  0.10566000000E+00 0. -1.
         23    2    1    0    0    0  0.11102903077E+01 -0.12124257483E+02 -0.24120611795E+02  0.97980853502E+02  0.94181810216E+02 0.  0.
         13    1    3    3    0    0  0.38101194985E+02  0.17386234919E+02 -0.28192462527E+02  0.50485724035E+02  0.10566000000E+00 0.  1.
         22    1    1    0    0    0 -0.11102903077E+01  0.12124257483E+02  0.24120611795E+02  0.27019146498E+02  0.00000000000E+00 0.  1.
</event>
<event>
 5    1  0.1245581E-004  0.9118800E+02  0.7818608E-02  0.1130116E+00
         25   -1    0    0    0    0  0.00000000000E+00  0.00000000000E+00  0.99999998245E-14  0.12500000000E+03  0.12500000000E+03 0.  0.
        -13    1    3    3    0    0 -0.43035131505E+02 -0.40730147218E+02 -0.14864233797E+02  0.61089475743E+02  0.10566000000E+00 0. -1.
         23    2    1    0    0    0 -0.15409608859E+02 -0.25574590860E+02 -0.21609942245E+01  0.95063640187E+02  0.90226991786E+02 0.  0.
         13    1    3    3    0    0  0.27625522646E+02  0.15155556359E+02  0.12703239573E+02  0.33974164444E+02  0.10566000000E+00 0.  1.
         22    1    1    0    0    0  0.15409608859E+02  0.25574590860E+02  0.21609942245E+01  0.29936359813E+02  0.00000000000E+00 0. -1.
</event>
<event>
 5    1  0.1245581E-004  0.9118800E+02  0.7818608E-02  0.1130116E+00
         25   -1    0    0    0    0  0.00000000000E+00  0.00000000000E+00  0.99999998245E-14  0.12500000000E+03  0.12500000000E+03 0.  0.
        -13    1    3    3    0    0 -0.37588024111E+02 -0.27946695549E+02 -0.32908941056E+02  0.57244099382E+02  0.10566000000E+00 0.  1.
         23    2    1    0    0    0 -0.10487834713E+01 -0.11118365981E+02 -0.24118172286E+02  0.98421733629E+02  0.94765148696E+02 0.  0.
         13    1    3    3    0    0  0.36539240640E+02  0.16828329568E+02  0.87907687697E+01  0.41177634247E+02  0.10566000000E+00 0. -1.
         22    1    1    0    0    0  0.10487834713E+01  0.11118365981E+02  0.24118172286E+02  0.26578266371E+02  0.00000000000E+00 0.  1.
</event>
<event>
 5    1  0.1245581E-004  0.9118800E+02  0.7818608E-02  0.1130116E+00
         25   -1    0    0    0    0  0.00000000000E+00  0.00000000000E+00  0.99999998245E-14  0.12500000000E+03  0.12500000000E+03 0.  0.
        -13    1    3    3    0    0  0.13925983782E+02  0.11788351332E+02  0.24859990782E+02  0.30837129522E+02  0.10566000000E+00 0.  1.
         23    2    1    0    0    0 -0.27582896974E+02  0.67431786108E+00 -0.18419138835E+02  0.91825678824E+02  0.85623709953E+02 0.  0.
         13    1    3    3    0    0 -0.41508880756E+02 -0.11114033471E+02 -0.43279129617E+02  0.60988549302E+02  0.10566000000E+00 0. -1.
         22    1    1    0    0    0  0.27582896974E+02 -0.67431786108E+00  0.18419138835E+02  0.33174321176E+02  0.00000000000E+00 0. -1.
</event>
<event>
 5    1  0.1245581E-004  0.9118800E+02  0.7818608E-02  0.1130116E+00
         25   -1    0    0    0    0  0.00000000000E+00  0.00000000000E+00  0.99999998245E-14  0.12500000000E+03  0.12500000000E+03 0.  0.
        -13    1    3    3    0    0  0.97068885105E+01  0.29264977756E+02  0.54124789269E+02  0.62290983176E+02  0.10566000000E+00 0.  1.
         23    2    1    0    0    0  0.53677522112E+01  0.18249113999E+02  0.26194547433E+02  0.92627214504E+02  0.86785964453E+02 0.  0.
         13    1    3    3    0    0 -0.43391362993E+01 -0.11015863756E+02 -0.27930241836E+02  0.30336231328E+02  0.10566000000E+00 0. -1.
         22    1    1    0    0    0 -0.53677522112E+01 -0.18249113999E+02 -0.26194547433E+02  0.32372785496E+02  0.00000000000E+00 0.  1.
</event>
<event>
 5    1  0.1245581E-004  0.9118800E+02  0.7818608E-02  0.1130116E+00
         25   -1    0    0    0    0  0.00000000000E+00  0.00000000000E+00  0.99999998245E-14  0.12500000000E+03  0.12500000000E+03 0.  0.
        -13    1    3    3    0    0  0.12127973591E+02  0.22701501996E+02 -0.24586136852E+02  0.35594033568E+02  0.10566000000E+00 0.  1.
         23    2    1    0    0    0 -0.33599596707E+01  0.33735759812E+01  0.29519332939E+02  0.95099141132E+02  0.90276161211E+02 0.  0.
         13    1    3    3    0    0 -0.15487933262E+02 -0.19327926015E+02  0.54105469792E+02  0.59505107564E+02  0.10566000000E+00 0. -1.
         22    1    1    0    0    0  0.33599596707E+01 -0.33735759812E+01 -0.29519332939E+02  0.29900858868E+02  0.00000000000E+00 0. -1.
</event>
<event>
 5    1  0.1245581E-004  0.9118800E+02  0.7818608E-02  0.1130116E+00
         25   -1    0    0    0    0  0.00000000000E+00  0.00000000000E+00  0.99999998245E-14  0.12500000000E+03  0.12500000000E+03 0.  0.
        -13    1    3    3    0    0 -0.34381837683E+02 -0.44207365094E+01 -0.23852535332E+02  0.42078596453E+02  0.10566000000E+00 0.  1.
         23    2    1    0    0    0 -0.35271700305E+01 -0.22313558527E+02  0.17306734057E+02  0.96541980633E+02  0.92252345002E+02 0.  0.
         13    1    3    3    0    0  0.30854667652E+02 -0.17892822018E+02  0.41159269388E+02  0.54463384180E+02  0.10566000000E+00 0. -1.
         22    1    1    0    0    0  0.35271700305E+01  0.22313558527E+02 -0.17306734057E+02  0.28458019367E+02  0.00000000000E+00 0.  1.
</event>
<event>
 5    1  0.1245581E-004  0.9118800E+02  0.7818608E-02  0.1130116E+00
         25   -1    0    0    0    0  0.00000000000E+00  0.00000000000E+00  0.99999998245E-14  0.12500000000E+03  0.12500000000E+03 0.  0.
        -13    1    3    3    0    0 -0.19721376477E+02 -0.41637345074E+01  0.57856464031E+02  0.61267046358E+02  0.10566000000E+00 0. -1.
         23    2    1    0    0    0 -0.16788842156E+02 -0.56975822731E+01  0.24659918112E+02  0.94628315390E+02  0.89621865901E+02 0.  0.
         13    1    3    3    0    0  0.29325343208E+01 -0.15338477657E+01 -0.33196545919E+02  0.33361269033E+02  0.10566000000E+00 0.  1.
         22    1    1    0    0    0  0.16788842156E+02  0.56975822731E+01 -0.24659918112E+02  0.30371684610E+02  0.00000000000E+00 0. -1.
</event>
<event>
 5    1  0.1245581E-004  0.9118800E+02  0.7818608E-02  0.1130116E+00
         25   -1    0    0    0    0  0.00000000000E+00  0.00000000000E+00  0.99999998245E-14  0.12500000000E+03  0.12500000000E+03 0.  0.
        -13    1    3    3    0    0 -0.44979639367E+02  0.42246165817E+02 -0.98830981952E+01  0.62494746002E+02  0.10566000000E+00 0.  1.
         23    2    1    0    0    0 -0.20537848221E+02  0.20012404039E+02 -0.48111965151E+01  0.95923426322E+02  0.91410374578E+02 0.  0.
         13    1    3    3    0    0  0.24441791147E+02 -0.22233761778E+02  0.50719016801E+01  0.33428680320E+02  0.10566000000E+00 0. -1.
         22    1    1    0    0    0  0.20537848221E+02 -0.20012404039E+02  0.48111965151E+01  0.29076573678E+02  0.00000000000E+00 0.  1.
</event>
<event>
 5    1  0.1245581E-004  0.9118800E+02  0.7818608E-02  0.1130116E+00
         25   -1    0    0    0    0  0.00000000000E+00  0.00000000000E+00  0.99999998245E-14  0.12500000000E+03  0.12500000000E+03 0.  0.
        -13    1    3    3    0    0  0.34016206474E+02  0.45194793301E+02 -0.15616971712E+02  0.58681961571E+02  0.10566000000E+00 0.  1.
         23    2    1    0    0    0  0.52214858744E+01  0.14889247223E+02 -0.18620267318E+02  0.10059369031E+03  0.97588024767E+02 0.  0.
         13    1    3    3    0    0 -0.28794720599E+02 -0.30305546078E+02 -0.30032956058E+01  0.41911728740E+02  0.10566000000E+00 0. -1.
         22    1    1    0    0    0 -0.52214858744E+01 -0.14889247223E+02  0.18620267318E+02  0.24406309688E+02  0.00000000000E+00 0.  1.
</event>
<event>
 5    1  0.1245581E-004  0.9118800E+02  0.7818608E-02  0.1130116E+00
         25   -1    0    0    0    0  0.00000000000E+00  0.00000000000E+00  0.99999998245E-14  0.12500000000E+03  0.12500000000E+03 0.  0.
        -13    1    3    3    0    0  0.19226644767E+02  0.37069660697E+02  0.37053658650E+02  0.55828383431E+02  0.10566000000E+00 0.  1.
         23    2    1    0    0    0  0.22820981727E+02  0.84089917129E+01  0.31434721948E+02  0.85255187853E+02  0.75424113938E+02 0.  0.
         13    1    3    3    0    0  0.35943369599E+01 -0.28660668984E+02 -0.56189367016E+01  0.29426804422E+02  0.10566000000E+00 0. -1.
         22    1    1    0    0    0 -0.22820981727E+02 -0.84089917129E+01 -0.31434721948E+02  0.39744812147E+02  0.00000000000E+00 0.  1.
</event>
<event>
 5    1  0.1245581E-004  0.9118800E+02  0.7818608E-02  0.1130116E+00
         25   -1    0    0    0    0  0.00000000000E+00  0.00000000000E+00  0.99999998245E-14  0.12500000000E+03  0.12500000000E+03 0.  0.
        -13    1    3    3    0    0  0.22138779388E+02  0.15610026814E+02 -0.38333039792E+02  0.46938593861E+02  0.10566000000E+00 0.  1.
         23    2    1    0    0    0 -0.19337613960E+02  0.17933721898E+02 -0.12982571031E+02  0.95604271648E+02  0.90972896579E+02 0.  0.
         13    1    3    3    0    0 -0.41476393348E+02  0.23236950843E+01  0.25350468761E+02  0.48665677787E+02  0.10566000000E+00 0. -1.
         22    1    1    0    0    0  0.19337613960E+02 -0.17933721898E+02  0.12982571031E+02  0.29395728352E+02  0.00000000000E+00 0.  1.
</event>
<event>
 5    1  0.1245581E-004  0.9118800E+02  0.7818608E-02  0.1130116E+00
         25   -1    0    0    0    0  0.00000000000E+00  0.00000000000E+00  0.99999998245E-14  0.12500000000E+03  0.12500000000E+03 0.  0.
        -13    1    3    3    0    0 -0.50754177672E+01  0.21430848944E+02  0.51986094362E+02  0.56458890558E+02  0.10566000000E+00 0.  1.
         23    2    1    0    0    0 -0.20957020214E+02  0.56031835683E+01  0.20194867336E+02  0.95361764070E+02  0.90639070039E+02 0.  0.
         13    1    3    3    0    0 -0.15881602447E+02 -0.15827665376E+02 -0.31791227027E+02  0.38902873511E+02  0.10566000000E+00 0. -1.
         22    1    1    0    0    0  0.20957020214E+02 -0.56031835683E+01 -0.20194867336E+02  0.29638235930E+02  0.00000000000E+00 0.  1.
</event>
<event>
 5    1  0.1245581E-004  0.9118800E+02  0.7818608E-02  0.1130116E+00
         25   -1    0    0    0    0  0.00000000000E+00  0.00000000000E+00  0.99999998245E-14  0.12500000000E+03  0.12500000000E+03 0.  0.
        -13    1    3    3    0    0  0.74137476364E+01 -0.43026624345E+02  0.36468915200E+02  0.56888021555E+02  0.10566000000E+00 0.  1.
         23    2    1    0    0    0 -0.90805306970E+01 -0.28092029725E+02  0.55844365163E+01  0.94953301296E+02  0.90073999156E+02 0.  0.
         13    1    3    3    0    0 -0.16494278333E+02  0.14934594620E+02 -0.30884478684E+02  0.38065279741E+02  0.10566000000E+00 0. -1.
         22    1    1    0    0    0  0.90805306970E+01  0.28092029725E+02 -0.55844365163E+01  0.30046698704E+02  0.00000000000E+00 0. -1.
</event>
<event>
 5    1  0.1245581E-004  0.9118800E+02  0.7818608E-02  0.1130116E+00
         25   -1    0    0    0    0  0.00000000000E+00  0.00000000000E+00  0.99999998245E-14  0.12500000000E+03  0.12500000000E+03 0.  0.
        -13    1    3    3    0    0 -0.27201845208E+02  0.23933072822E+02  0.24486217635E+02  0.43730062606E+02  0.10566000000E+00 0. -1.
         23    2    1    0    0    0 -0.14722557260E+02 -0.23839008279E+02  0.68958013230E+01  0.96145120276E+02  0.91713031075E+02 0.  0.
         13    1    3    3    0    0  0.12479287948E+02 -0.47772081101E+02 -0.17590416313E+02  0.52415057670E+02  0.10566000000E+00 0.  1.
         22    1    1    0    0    0  0.14722557260E+02  0.23839008279E+02 -0.68958013230E+01  0.28854879724E+02  0.00000000000E+00 0. -1.
</event>
<event>
 5    1  0.1245581E-004  0.9118800E+02  0.7818608E-02  0.1130116E+00
         25   -1    0    0    0    0  0.00000000000E+00  0.00000000000E+00  0.99999998245E-14  0.12500000000E+03  0.12500000000E+03 0.  0.
        -13    1    3    3    0    0 -0.42818672769E+01 -0.20137631069E+02 -0.27551513199E+02  0.34394121823E+02  0.10566000000E+00 0.  1.
         23    2    1    0    0    0 -0.13608671901E+02  0.15459889918E+02  0.21178458783E+02  0.95457974619E+02  0.90771656671E+02 0.  0.
         13    1    3    3    0    0 -0.93268046244E+01  0.35597520986E+02  0.48729971982E+02  0.61063852796E+02  0.10566000000E+00 0. -1.
         22    1    1    0    0    0  0.13608671901E+02 -0.15459889918E+02 -0.21178458783E+02  0.29542025381E+02  0.00000000000E+00 0. -1.
</event>
<event>
 5    1  0.1245581E-004  0.9118800E+02  0.7818608E-02  0.1130116E+00
         25   -1    0    0    0    0  0.00000000000E+00  0.00000000000E+00  0.99999998245E-14  0.12500000000E+03  0.12500000000E+03 0.  0.
        -13    1    3    3    0    0 -0.20076191341E+02 -0.13653843900E+02 -0.49860161007E+02  0.55457440724E+02  0.10566000000E+00 0.  1.
         23    2    1    0    0    0 -0.27943678219E+02  0.17510166388E+01 -0.17987914905E+02  0.91721173483E+02  0.85471008949E+02 0.  0.
         13    1    3    3    0    0 -0.78674868780E+01  0.15404860539E+02  0.31872246102E+02  0.36263732759E+02  0.10566000000E+00 0. -1.
         22    1    1    0    0    0  0.27943678219E+02 -0.17510166388E+01  0.17987914905E+02  0.33278826517E+02  0.00000000000E+00 0.  1.
</event>
<event>
 5    1  0.1245581E-004  0.9118800E+02  0.7818608E-02  0.1130116E+00
         25   -1    0    0    0    0  0.00000000000E+00  0.00000000000E+00  0.99999998245E-14  0.12500000000E+03  0.12500000000E+03 0.  0.
        -13    1    3    3    0    0  0.42800936307E+02  0.16541352985E+02  0.23192376730E+02  0.51414336617E+02  0.10566000000E+00 0. -1.
         23    2    1    0    0    0  0.23000055596E+02  0.82206810110E+01 -0.15785336487E+02  0.95918063997E+02  0.91403041520E+02 0.  0.
         13    1    3    3    0    0 -0.19800880711E+02 -0.83206719745E+01 -0.38977713217E+02  0.44503727380E+02  0.10566000000E+00 0.  1.
         22    1    1    0    0    0 -0.23000055596E+02 -0.82206810110E+01  0.15785336487E+02  0.29081936003E+02  0.00000000000E+00 0. -1.
</event>
<event>
 5    1  0.1245581E-004  0.9118800E+02  0.7818608E-02  0.1130116E+00
         25   -1    0    0    0    0  0.00000000000E+00  0.00000000000E+00  0.99999998245E-14  0.12500000000E+03  0.12500000000E+03 0.  0.
        -13    1    3    3    0    0  0.10516148384E+02 -0.27988424820E+01 -0.35376057694E+02  0.37012153653E+02  0.10566000000E+00 0. -1.
         23    2    1    0    0    0  0.13941584529E+02 -0.10478972264E+02  0.23080741088E+02  0.96070823585E+02  0.91611712658E+02 0.  0.
         13    1    3    3    0    0  0.34254361448E+01 -0.76801297820E+01  0.58456798782E+02  0.59058669931E+02  0.10566000000E+00 0.  1.
         22    1    1    0    0    0 -0.13941584529E+02  0.10478972264E+02 -0.23080741088E+02  0.28929176415E+02  0.00000000000E+00 0.  1.
</event>
<event>
 5    1  0.1245581E-004  0.9118800E+02  0.7818608E-02  0.1130116E+00
         25   -1    0    0    0    0  0.00000000000E+00  0.00000000000E+00  0.99999998245E-14  0.12500000000E+03  0.12500000000E+03 0.  0.
        -13    1    3    3    0    0  0.35983336719E+02  0.31054659365E+02  0.16988243068E+02  0.50475775936E+02  0.10566000000E+00 0. -1.
         23    2    1    0    0    0  0.25004387629E+02 -0.12204047288E+02  0.45517241197E+01  0.96806448195E+02  0.92609999724E+02 0.  0.
         13    1    3    3    0    0 -0.10978949091E+02 -0.43258706653E+02 -0.12436518949E+02  0.46330672260E+02  0.10566000000E+00 0.  1.
         22    1    1    0    0    0 -0.25004387629E+02  0.12204047288E+02 -0.45517241197E+01  0.28193551805E+02  0.00000000000E+00 0. -1.
</event>
<event>
 5    1  0.1245581E-004  0.9118800E+02  0.7818608E-02  0.1130116E+00
         25   -1    0    0    0    0  0.00000000000E+00  0.00000000000E+00  0.99999998245E-14  0.12500000000E+03  0.12500000000E+03 0.  0.
        -13    1    3    3    0    0  0.21510488783E+02 -0.32700062369E+02  0.38008074036E+02  0.54558409641E+02  0.10566000000E+00 0. -1.
         23    2    1    0    0    0  0.27255140090E+02 -0.97626561495E+01  0.43025941178E+01  0.95731169607E+02  0.91147092119E+02 0.  0.
         13    1    3    3    0    0  0.57446513066E+01  0.22937406219E+02 -0.33705479918E+02  0.41172759966E+02  0.10566000000E+00 0.  1.
         22    1    1    0    0    0 -0.27255140090E+02  0.97626561495E+01 -0.43025941178E+01  0.29268830393E+02  0.00000000000E+00 0. -1.
</event>
<event>
 5    1  0.1245581E-004  0.9118800E+02  0.7818608E-02  0.1130116E+00
         25   -1    0    0    0    0  0.00000000000E+00  0.00000000000E+00  0.99999998245E-14  0.12500000000E+03  0.12500000000E+03 0.  0.
        -13    1    3    3    0    0  0.37580220329E+02  0.28410395315E+01  0.21334349359E+02  0.43307159826E+02  0.10566000000E+00 0.  1.
         23    2    1    0    0    0 -0.52385676716E+01 -0.25462092485E+02  0.14901731376E+02  0.95036316265E+02  0.90189129424E+02 0.  0.
         13    1    3    3    0    0 -0.42818788000E+02 -0.28303132016E+02 -0.64326179826E+01  0.51729156439E+02  0.10566000000E+00 0. -1.
         22    1    1    0    0    0  0.52385676716E+01  0.25462092485E+02 -0.14901731376E+02  0.29963683735E+02  0.00000000000E+00 0. -1.
</event>
<event>
 5    1  0.1245581E-004  0.9118800E+02  0.7818608E-02  0.1130116E+00
         25   -1    0    0    0    0  0.00000000000E+00  0.00000000000E+00  0.99999998245E-14  0.12500000000E+03  0.12500000000E+03 0.  0.
        -13    1    3    3    0    0 -0.44554014632E+02  0.16925849579E+02 -0.11757425530E+02  0.49089640688E+02  0.10566000000E+00 0. -1.
         23    2    1    0    0    0 -0.34317191778E+02 -0.16329098505E+02  0.29847929690E+01  0.86878902185E+02  0.78068723227E+02 0.  0.
         13    1    3    3    0    0  0.10236822853E+02 -0.33254948084E+02  0.14742218499E+02  0.37789261497E+02  0.10566000000E+00 0.  1.
         22    1    1    0    0    0  0.34317191778E+02  0.16329098505E+02 -0.29847929690E+01  0.38121097815E+02  0.00000000000E+00 0. -1.
</event>
<event>
 5    1  0.1245581E-004  0.9118800E+02  0.7818608E-02  0.1130116E+00
         25   -1    0    0    0    0  0.00000000000E+00  0.00000000000E+00  0.99999998245E-14  0.12500000000E+03  0.12500000000E+03 0.  0.
        -13    1    3    3    0    0 -0.36526461339E+02 -0.26385303226E+02 -0.53252662575E+01  0.45373298635E+02  0.10566000000E+00 0.  1.
         23    2    1    0    0    0  0.28295654492E+01 -0.72113097467E+01 -0.28888939146E+02  0.95090465836E+02  0.90264148248E+02 0.  0.
         13    1    3    3    0    0  0.39356026788E+02  0.19173993479E+02 -0.23563672889E+02  0.49717167201E+02  0.10566000000E+00 0. -1.
         22    1    1    0    0    0 -0.28295654492E+01  0.72113097467E+01  0.28888939146E+02  0.29909534164E+02  0.00000000000E+00 0. -1.
</event>
<event>
 5    1  0.1245581E-004  0.9118800E+02  0.7818608E-02  0.1130116E+00
         25   -1    0    0    0    0  0.00000000000E+00  0.00000000000E+00  0.99999998245E-14  0.12500000000E+03  0.12500000000E+03 0.  0.
        -13    1    3    3    0    0  0.30648430663E+02  0.72910957951E+01 -0.52941167735E+02  0.61605720393E+02  0.10566000000E+00 0. -1.
         23    2    1    0    0    0  0.78879982195E+01  0.47782634240E+01 -0.28258597168E+02  0.95274579378E+02  0.90518754104E+02 0.  0.
         13    1    3    3    0    0 -0.22760432443E+02 -0.25128323711E+01  0.24682570567E+02  0.33668858985E+02  0.10566000000E+00 0.  1.
         22    1    1    0    0    0 -0.78879982195E+01 -0.47782634240E+01  0.28258597168E+02  0.29725420622E+02  0.00000000000E+00 0. -1.
</event>
<event>
 5    1  0.1245581E-004  0.9118800E+02  0.7818608E-02  0.1130116E+00
         25   -1    0    0    0    0  0.00000000000E+00  0.00000000000E+00  0.99999998245E-14  0.12500000000E+03  0.12500000000E+03 0.  0.
        -13    1    3    3    0    0  0.16856499922E+02 -0.34106705941E+02  0.53654675583E+00  0.38048758537E+02  0.10566000000E+00 0.  1.
         23    2    1    0    0    0 -0.13678675230E+02  0.15806505992E+02 -0.15797562877E+02  0.98798572929E+02  0.95260921852E+02 0.  0.
         13    1    3    3    0    0 -0.30535175153E+02  0.49913211933E+02 -0.16334109633E+02  0.60749814391E+02  0.10566000000E+00 0. -1.
         22    1    1    0    0    0  0.13678675230E+02 -0.15806505992E+02  0.15797562877E+02  0.26201427071E+02  0.00000000000E+00 0. -1.
</event>
<event>
 5    1  0.1245581E-004  0.9118800E+02  0.7818608E-02  0.1130116E+00
         25   -1    0    0    0    0  0.00000000000E+00  0.00000000000E+00  0.99999998245E-14  0.12500000000E+03  0.12500000000E+03 0.  0.
        -13    1    3    3    0    0  0.25410120882E+02  0.25229531601E+02  0.34567512183E+02  0.49770750152E+02  0.10566000000E+00 0.  1.
         23    2    1    0    0    0 -0.59379727065E+01 -0.84836875125E+01  0.26553316745E+02  0.96498928023E+02  0.92193991159E+02 0.  0.
         13    1    3    3    0    0 -0.31348093589E+02 -0.33713219114E+02 -0.80141954387E+01  0.46728177872E+02  0.10566000000E+00 0. -1.
         22    1    1    0    0    0  0.59379727065E+01  0.84836875125E+01 -0.26553316745E+02  0.28501071977E+02  0.00000000000E+00 0. -1.
</event>
<event>
 5    1  0.1245581E-004  0.9118800E+02  0.7818608E-02  0.1130116E+00
         25   -1    0    0    0    0  0.00000000000E+00  0.00000000000E+00  0.99999998245E-14  0.12500000000E+03  0.12500000000E+03 0.  0.
        -13    1    3    3    0    0  0.30019060581E+02 -0.23871979146E+02  0.17468519235E+02  0.42144699724E+02  0.10566000000E+00 0.  1.
         23    2    1    0    0    0  0.13138785412E+02  0.27047484940E+01 -0.25956311086E+02  0.95782309610E+02  0.91217199050E+02 0.  0.
         13    1    3    3    0    0 -0.16880275169E+02  0.26576727640E+02 -0.43424830321E+02  0.53637609886E+02  0.10566000000E+00 0. -1.
         22    1    1    0    0    0 -0.13138785412E+02 -0.27047484940E+01  0.25956311086E+02  0.29217690390E+02  0.00000000000E+00 0. -1.
</event>
<event>
 5    1  0.1245581E-004  0.9118800E+02  0.7818608E-02  0.1130116E+00
         25   -1    0    0    0    0  0.00000000000E+00  0.00000000000E+00  0.99999998245E-14  0.12500000000E+03  0.12500000000E+03 0.  0.
        -13    1    3    3    0    0  0.90612016391E+01  0.12978107246E+02 -0.12818170327E+02  0.20367947796E+02  0.10566000000E+00 0.  1.
         23    2    1    0    0    0  0.38294366440E+02 -0.25647532379E+02  0.15371987895E+02  0.76414483331E+02  0.58979834118E+02 0.  0.
         13    1    3    3    0    0  0.29233164801E+02 -0.38625639626E+02  0.28190158222E+02  0.56046535534E+02  0.10566000000E+00 0. -1.
         22    1    1    0    0    0 -0.38294366440E+02  0.25647532379E+02 -0.15371987895E+02  0.48585516669E+02  0.00000000000E+00 0. -1.
</event>
<event>
 5    1  0.1245581E-004  0.9118800E+02  0.7818608E-02  0.1130116E+00
         25   -1    0    0    0    0  0.00000000000E+00  0.00000000000E+00  0.99999998245E-14  0.12500000000E+03  0.12500000000E+03 0.  0.
        -13    1    3    3    0    0  0.27934581330E+02 -0.23400311371E+02 -0.15213279625E+02  0.39488864852E+02  0.10566000000E+00 0.  1.
         23    2    1    0    0    0 -0.75381998482E+01 -0.10126146315E+02  0.26387302208E+02  0.95748452793E+02  0.91170791366E+02 0.  0.
         13    1    3    3    0    0 -0.35472781178E+02  0.13274165056E+02  0.41600581833E+02  0.56259587941E+02  0.10566000000E+00 0. -1.
         22    1    1    0    0    0  0.75381998482E+01  0.10126146315E+02 -0.26387302208E+02  0.29251547207E+02  0.00000000000E+00 0. -1.
</event>
<event>
 5    1  0.1245581E-004  0.9118800E+02  0.7818608E-02  0.1130116E+00
         25   -1    0    0    0    0  0.00000000000E+00  0.00000000000E+00  0.99999998245E-14  0.12500000000E+03  0.12500000000E+03 0.  0.
        -13    1    3    3    0    0 -0.96489905949E+01 -0.66229146528E+01 -0.38058933832E+02  0.39817830509E+02  0.10566000000E+00 0.  1.
         23    2    1    0    0    0 -0.99111322493E+01  0.28195667737E+02  0.44679407832E+01  0.94780987501E+02  0.89834552791E+02 0.  0.
         13    1    3    3    0    0 -0.26214165437E+00  0.34818582390E+02  0.42526874615E+02  0.54963156991E+02  0.10566000000E+00 0. -1.
         22    1    1    0    0    0  0.99111322493E+01 -0.28195667737E+02 -0.44679407832E+01  0.30219012499E+02  0.00000000000E+00 0. -1.
</event>
<event>
 5    1  0.1245581E-004  0.9118800E+02  0.7818608E-02  0.1130116E+00
         25   -1    0    0    0    0  0.00000000000E+00  0.00000000000E+00  0.99999998245E-14  0.12500000000E+03  0.12500000000E+03 0.  0.
        -13    1    3    3    0    0 -0.19559094067E+02 -0.11799718522E+02 -0.28781157607E+02  0.36744492310E+02  0.10566000000E+00 0.  1.
         23    2    1    0    0    0  0.36257364769E+01 -0.12820736948E+02  0.25749238854E+02  0.96007922419E+02  0.91525846649E+02 0.  0.
         13    1    3    3    0    0  0.23184830544E+02 -0.10210184268E+01  0.54530396461E+02  0.59263430109E+02  0.10566000000E+00 0. -1.
         22    1    1    0    0    0 -0.36257364769E+01  0.12820736948E+02 -0.25749238854E+02  0.28992077581E+02  0.00000000000E+00 0. -1.
</event>
<event>
 5    1  0.1245581E-004  0.9118800E+02  0.7818608E-02  0.1130116E+00
         25   -1    0    0    0    0  0.00000000000E+00  0.00000000000E+00  0.99999998245E-14  0.12500000000E+03  0.12500000000E+03 0.  0.
        -13    1    3    3    0    0  0.22100797627E+02 -0.60692869554E+01 -0.56394993697E+02  0.60874362240E+02  0.10566000000E+00 0.  1.
         23    2    1    0    0    0  0.17381880063E+01 -0.83447551738E+01 -0.26854059378E+02  0.96825601310E+02  0.92635847961E+02 0.  0.
         13    1    3    3    0    0 -0.20362609621E+02 -0.22754682185E+01  0.29540934319E+02  0.35951239070E+02  0.10566000000E+00 0. -1.
         22    1    1    0    0    0 -0.17381880063E+01  0.83447551738E+01  0.26854059378E+02  0.28174398690E+02  0.00000000000E+00 0.  1.
</event>
<event>
 5    1  0.1245581E-004  0.9118800E+02  0.7818608E-02  0.1130116E+00
         25   -1    0    0    0    0  0.00000000000E+00  0.00000000000E+00  0.99999998245E-14  0.12500000000E+03  0.12500000000E+03 0.  0.
        -13    1    3    3    0    0 -0.13018495489E+02 -0.30800762886E+02 -0.16747138858E+02  0.37398476481E+02  0.10566000000E+00 0.  1.
         23    2    1    0    0    0  0.29939202756E+01  0.34174123028E+01  0.28383710641E+02  0.96254960511E+02  0.91862615507E+02 0.  0.
         13    1    3    3    0    0  0.16012415765E+02  0.34218175189E+02  0.45130849499E+02  0.58856484030E+02  0.10566000000E+00 0. -1.
         22    1    1    0    0    0 -0.29939202756E+01 -0.34174123028E+01 -0.28383710641E+02  0.28745039489E+02  0.00000000000E+00 0. -1.
</event>
<event>
 5    1  0.1245581E-004  0.9118800E+02  0.7818608E-02  0.1130116E+00
         25   -1    0    0    0    0  0.00000000000E+00  0.00000000000E+00  0.99999998245E-14  0.12500000000E+03  0.12500000000E+03 0.  0.
        -13    1    3    3    0    0 -0.32462758603E+02  0.87234526504E+00 -0.22368162049E+02  0.39432696077E+02  0.10566000000E+00 0.  1.
         23    2    1    0    0    0  0.27468578741E+01  0.25569800600E+02  0.13967150583E+02  0.95734982892E+02  0.91152321545E+02 0.  0.
         13    1    3    3    0    0  0.35209616477E+02  0.24697455335E+02  0.36335312632E+02  0.56302286815E+02  0.10566000000E+00 0. -1.
         22    1    1    0    0    0 -0.27468578741E+01 -0.25569800600E+02 -0.13967150583E+02  0.29265017108E+02  0.00000000000E+00 0. -1.
</event>
<event>
 5    1  0.1245581E-004  0.9118800E+02  0.7818608E-02  0.1130116E+00
         25   -1    0    0    0    0  0.00000000000E+00  0.00000000000E+00  0.99999998245E-14  0.12500000000E+03  0.12500000000E+03 0.  0.
        -13    1    3    3    0    0 -0.47871508614E-01 -0.53661537646E+02 -0.31219594578E+02  0.62082502880E+02  0.10566000000E+00 0.  1.
         23    2    1    0    0    0 -0.15428233065E+01 -0.27357579177E+02 -0.10290115087E+02  0.95730495209E+02  0.91146167238E+02 0.  0.
         13    1    3    3    0    0 -0.14949517978E+01  0.26303958469E+02  0.20929479491E+02  0.33647992329E+02  0.10566000000E+00 0. -1.
         22    1    1    0    0    0  0.15428233065E+01  0.27357579177E+02  0.10290115087E+02  0.29269504791E+02  0.00000000000E+00 0.  1.
</event>
<event>
 5    1  0.1245581E-004  0.9118800E+02  0.7818608E-02  0.1130116E+00
         25   -1    0    0    0    0  0.00000000000E+00  0.00000000000E+00  0.99999998245E-14  0.12500000000E+03  0.12500000000E+03 0.  0.
        -13    1    3    3    0    0 -0.40624624959E+02 -0.11992416020E+02 -0.98116729026E+01  0.43479400689E+02  0.10566000000E+00 0. -1.
         23    2    1    0    0    0 -0.73164298165E+01  0.27955757526E+02 -0.43320383169E+01  0.95779783025E+02  0.91213736664E+02 0.  0.
         13    1    3    3    0    0  0.33308195143E+02  0.39948173546E+02  0.54796345857E+01  0.52300382336E+02  0.10566000000E+00 0.  1.
         22    1    1    0    0    0  0.73164298165E+01 -0.27955757526E+02  0.43320383169E+01  0.29220216975E+02  0.00000000000E+00 0.  1.
</event>
<event>
 5    1  0.1245581E-004  0.9118800E+02  0.7818608E-02  0.1130116E+00
         25   -1    0    0    0    0  0.00000000000E+00  0.00000000000E+00  0.99999998245E-14  0.12500000000E+03  0.12500000000E+03 0.  0.
        -13    1    3    3    0    0 -0.24589792638E+02 -0.96589501517E+01 -0.30960440211E+02  0.40700285529E+02  0.10566000000E+00 0.  1.
         23    2    1    0    0    0 -0.58565079940E+01  0.28895339666E+02  0.29686673483E+01  0.95368052273E+02  0.90647741661E+02 0.  0.
         13    1    3    3    0    0  0.18733284644E+02  0.38554289817E+02  0.33929107560E+02  0.54667766744E+02  0.10566000000E+00 0. -1.
         22    1    1    0    0    0  0.58565079940E+01 -0.28895339666E+02 -0.29686673483E+01  0.29631947727E+02  0.00000000000E+00 0. -1.
</event>
<event>
 5    1  0.1245581E-004  0.9118800E+02  0.7818608E-02  0.1130116E+00
         25   -1    0    0    0    0  0.00000000000E+00  0.00000000000E+00  0.99999998245E-14  0.12500000000E+03  0.12500000000E+03 0.  0.
        -13    1    3    3    0    0 -0.35423317508E+01  0.11361809364E+02 -0.39039971580E+02  0.40813837987E+02  0.10566000000E+00 0. -1.
         23    2    1    0    0    0  0.23333831247E+02  0.14141894135E+02  0.92841519494E+01  0.96178890933E+02  0.91759047147E+02 0.  0.
         13    1    3    3    0    0  0.26876162998E+02  0.27800847712E+01  0.48324123529E+02  0.55365052946E+02  0.10566000000E+00 0.  1.
         22    1    1    0    0    0 -0.23333831247E+02 -0.14141894135E+02 -0.92841519494E+01  0.28821109067E+02  0.00000000000E+00 0.  1.
</event>
<event>
 5    1  0.1245581E-004  0.9118800E+02  0.7818608E-02  0.1130116E+00
         25   -1    0    0    0    0  0.00000000000E+00  0.00000000000E+00  0.99999998245E-14  0.12500000000E+03  0.12500000000E+03 0.  0.
        -13    1    3    3    0    0  0.42084415164E+02  0.19675107150E+02  0.22177262765E+02  0.51478636237E+02  0.10566000000E+00 0. -1.
         23    2    1    0    0    0  0.13167002083E+01 -0.28142576909E+01  0.26573706094E+02  0.98245269552E+02  0.94532097131E+02 0.  0.
         13    1    3    3    0    0 -0.40767714955E+02 -0.22489364841E+02  0.43964433290E+01  0.46766633315E+02  0.10566000000E+00 0.  1.
         22    1    1    0    0    0 -0.13167002083E+01  0.28142576909E+01 -0.26573706094E+02  0.26754730448E+02  0.00000000000E+00 0. -1.
</event>
<event>
 5    1  0.1245581E-004  0.9118800E+02  0.7818608E-02  0.1130116E+00
         25   -1    0    0    0    0  0.00000000000E+00  0.00000000000E+00  0.99999998245E-14  0.12500000000E+03  0.12500000000E+03 0.  0.
        -13    1    3    3    0    0 -0.22988716813E+02 -0.32320875033E+02  0.17822002885E+02  0.43482812863E+02  0.10566000000E+00 0.  1.
         23    2    1    0    0    0 -0.50468600641E+01  0.18440812170E+02  0.19954829522E+02  0.97364342395E+02  0.93359978571E+02 0.  0.
         13    1    3    3    0    0  0.17941856749E+02  0.50761687203E+02  0.21328266367E+01  0.53881529532E+02  0.10566000000E+00 0. -1.
         22    1    1    0    0    0  0.50468600641E+01 -0.18440812170E+02 -0.19954829522E+02  0.27635657605E+02  0.00000000000E+00 0. -1.
</event>
<event>
 5    1  0.1245581E-004  0.9118800E+02  0.7818608E-02  0.1130116E+00
         25   -1    0    0    0    0  0.00000000000E+00  0.00000000000E+00  0.99999998245E-14  0.12500000000E+03  0.12500000000E+03 0.  0.
        -13    1    3    3    0    0  0.19113663815E+02  0.54778698769E+01 -0.34176845090E+02  0.39539943186E+02  0.10566000000E+00 0. -1.
         23    2    1    0    0    0  0.33293889142E+02  0.85343573132E+01  0.12506355666E+02  0.88425046261E+02  0.80506282769E+02 0.  0.
         13    1    3    3    0    0  0.14180225327E+02  0.30564874363E+01  0.46683200756E+02  0.48885103075E+02  0.10566000000E+00 0.  1.
         22    1    1    0    0    0 -0.33293889142E+02 -0.85343573132E+01 -0.12506355666E+02  0.36574953739E+02  0.00000000000E+00 0.  1.
</event>
<event>
 5    1  0.1245581E-004  0.9118800E+02  0.7818608E-02  0.1130116E+00
         25   -1    0    0    0    0  0.00000000000E+00  0.00000000000E+00  0.99999998245E-14  0.12500000000E+03  0.12500000000E+03 0.  0.
        -13    1    3    3    0    0 -0.36270025731E+02  0.14241856199E+02  0.28266785688E+02  0.48139044150E+02  0.10566000000E+00 0.  1.
         23    2    1    0    0    0  0.10871041108E+02  0.16086701718E+02  0.21881713428E+02  0.95746438003E+02  0.91168028940E+02 0.  0.
         13    1    3    3    0    0  0.47141066839E+02  0.18448455192E+01 -0.63850722604E+01  0.47607393853E+02  0.10566000000E+00 0. -1.
         22    1    1    0    0    0 -0.10871041108E+02 -0.16086701718E+02 -0.21881713428E+02  0.29253561997E+02  0.00000000000E+00 0.  1.
</event>
<event>
 5    1  0.1245581E-004  0.9118800E+02  0.7818608E-02  0.1130116E+00
         25   -1    0    0    0    0  0.00000000000E+00  0.00000000000E+00  0.99999998245E-14  0.12500000000E+03  0.12500000000E+03 0.  0.
        -13    1    3    3    0    0  0.63176496934E+00  0.15037099248E+02  0.29036290187E+02  0.32705210481E+02  0.10566000000E+00 0. -1.
         23    2    1    0    0    0  0.33277501613E+01 -0.35367922994E+02  0.34163910257E+01  0.89311968032E+02  0.81871802277E+02 0.  0.
         13    1    3    3    0    0  0.26959851920E+01 -0.50405022242E+02 -0.25619899161E+02  0.56606757551E+02  0.10566000000E+00 0.  1.
         22    1    1    0    0    0 -0.33277501613E+01  0.35367922994E+02 -0.34163910257E+01  0.35688031968E+02  0.00000000000E+00 0.  1.
</event>
<event>
 5    1  0.1245581E-004  0.9118800E+02  0.7818608E-02  0.1130116E+00
         25   -1    0    0    0    0  0.00000000000E+00  0.00000000000E+00  0.99999998245E-14  0.12500000000E+03  0.12500000000E+03 0.  0.
        -13    1    3    3    0    0  0.10017899524E+01  0.23040774827E+02 -0.54482330752E+02  0.59162626851E+02  0.10566000000E+00 0. -1.
         23    2    1    0    0    0 -0.91539640781E+01 -0.14292581936E+01 -0.22328870976E+02  0.10082529594E+03  0.97884237674E+02 0.  0.
         13    1    3    3    0    0 -0.10155754030E+02 -0.24470033021E+02  0.32153459776E+02  0.41662669089E+02  0.10566000000E+00 0.  1.
         22    1    1    0    0    0  0.91539640781E+01  0.14292581936E+01  0.22328870976E+02  0.24174704060E+02  0.00000000000E+00 0. -1.
</event>
<event>
 5    1  0.1245581E-004  0.9118800E+02  0.7818608E-02  0.1130116E+00
         25   -1    0    0    0    0  0.00000000000E+00  0.00000000000E+00  0.99999998245E-14  0.12500000000E+03  0.12500000000E+03 0.  0.
        -13    1    3    3    0    0  0.40847720996E+02 -0.24684242784E+02 -0.16065617387E+02  0.50358349640E+02  0.10566000000E+00 0. -1.
         23    2    1    0    0    0  0.17581969509E+02  0.13049143747E+02 -0.20622902034E+02  0.94921604220E+02  0.90030000861E+02 0.  0.
         13    1    3    3    0    0 -0.23265751487E+02  0.37733386531E+02 -0.45572846477E+01  0.44563254580E+02  0.10566000000E+00 0.  1.
         22    1    1    0    0    0 -0.17581969509E+02 -0.13049143747E+02  0.20622902034E+02  0.30078395780E+02  0.00000000000E+00 0.  1.
</event>
<event>
 5    1  0.1245581E-004  0.9118800E+02  0.7818608E-02  0.1130116E+00
         25   -1    0    0    0    0  0.00000000000E+00  0.00000000000E+00  0.99999998245E-14  0.12500000000E+03  0.12500000000E+03 0.  0.
        -13    1    3    3    0    0 -0.92258271610E+01  0.58588041814E+02  0.92515277089E+01  0.60027297618E+02  0.10566000000E+00 0.  1.
         23    2    1    0    0    0 -0.12099523486E+02  0.26082299606E+02 -0.53103209094E+01  0.95761594957E+02  0.91188808190E+02 0.  0.
         13    1    3    3    0    0 -0.28736963252E+01 -0.32505742208E+02 -0.14561848618E+02  0.35734297338E+02  0.10566000000E+00 0. -1.
         22    1    1    0    0    0  0.12099523486E+02 -0.26082299606E+02  0.53103209094E+01  0.29238405043E+02  0.00000000000E+00 0.  1.
</event>
<event>
 5    1  0.1245581E-004  0.9118800E+02  0.7818608E-02  0.1130116E+00
         25   -1    0    0    0    0  0.00000000000E+00  0.00000000000E+00  0.99999998245E-14  0.12500000000E+03  0.12500000000E+03 0.  0.
        -13    1    3    3    0    0 -0.23157068824E+02 -0.20755280966E+02  0.37870719541E+02  0.49002388586E+02  0.10566000000E+00 0. -1.
         23    2    1    0    0    0 -0.31199884088E+02  0.11033994467E+02  0.18553308730E+02  0.87060481475E+02  0.78358920161E+02 0.  0.
         13    1    3    3    0    0 -0.80428152649E+01  0.31789275433E+02 -0.19317410811E+02  0.38058092890E+02  0.10566000000E+00 0.  1.
         22    1    1    0    0    0  0.31199884088E+02 -0.11033994467E+02 -0.18553308730E+02  0.37939518525E+02  0.00000000000E+00 0. -1.
</event>
<event>
 5    1  0.1245581E-004  0.9118800E+02  0.7818608E-02  0.1130116E+00
         25   -1    0    0    0    0  0.00000000000E+00  0.00000000000E+00  0.99999998245E-14  0.12500000000E+03  0.12500000000E+03 0.  0.
        -13    1    3    3    0    0  0.52363201198E+01  0.21539030196E+02  0.23860412077E+02  0.32568071768E+02  0.10566000000E+00 0. -1.
         23    2    1    0    0    0 -0.29769948391E+00 -0.20371894247E+02 -0.22050560509E+02  0.94977842866E+02  0.90108050232E+02 0.  0.
         13    1    3    3    0    0 -0.55340196037E+01 -0.41910924443E+02 -0.45910972586E+02  0.62409771098E+02  0.10566000000E+00 0.  1.
         22    1    1    0    0    0  0.29769948391E+00  0.20371894247E+02  0.22050560509E+02  0.30022157134E+02  0.00000000000E+00 0.  1.
</event>
<event>
 5    1  0.1245581E-004  0.9118800E+02  0.7818608E-02  0.1130116E+00
         25   -1    0    0    0    0  0.00000000000E+00  0.00000000000E+00  0.99999998245E-14  0.12500000000E+03  0.12500000000E+03 0.  0.
        -13    1    3    3    0    0 -0.59552480870E+00 -0.44196149975E+02  0.40766614868E+02  0.60129712907E+02  0.10566000000E+00 0.  1.
         23    2    1    0    0    0  0.78962369933E+01 -0.26509885346E+02  0.12239686734E+02  0.94752115594E+02  0.89794370082E+02 0.  0.
         13    1    3    3    0    0  0.84917618020E+01  0.17686264630E+02 -0.28526928133E+02  0.34622402687E+02  0.10566000000E+00 0. -1.
         22    1    1    0    0    0 -0.78962369933E+01  0.26509885346E+02 -0.12239686734E+02  0.30247884406E+02  0.00000000000E+00 0.  1.
</event>
<event>
 5    1  0.1245581E-004  0.9118800E+02  0.7818608E-02  0.1130116E+00
         25   -1    0    0    0    0  0.00000000000E+00  0.00000000000E+00  0.99999998245E-14  0.12500000000E+03  0.12500000000E+03 0.  0.
        -13    1    3    3    0    0  0.12248166478E+02 -0.17156924580E+02 -0.34813431074E+02  0.40698449482E+02  0.10566000000E+00 0. -1.
         23    2    1    0    0    0 -0.28573224567E+01  0.28213202539E+02 -0.18121475461E+02  0.91346813493E+02  0.84921748530E+02 0.  0.
         13    1    3    3    0    0 -0.15105488934E+02  0.45370127120E+02  0.16691955612E+02  0.50648364011E+02  0.10566000000E+00 0.  1.
         22    1    1    0    0    0  0.28573224567E+01 -0.28213202539E+02  0.18121475461E+02  0.33653186507E+02  0.00000000000E+00 0.  1.
</event>
<event>
 5    1  0.1245581E-004  0.9118800E+02  0.7818608E-02  0.1130116E+00
         25   -1    0    0    0    0  0.00000000000E+00  0.00000000000E+00  0.99999998245E-14  0.12500000000E+03  0.12500000000E+03 0.  0.
        -13    1    3    3    0    0 -0.16230081470E+02 -0.53233435822E+02  0.12070312198E+02  0.56946622679E+02  0.10566000000E+00 0. -1.
         23    2    1    0    0    0 -0.17534844830E+02 -0.13982455939E+02 -0.81733464466E+01  0.10112986281E+03  0.98272405601E+02 0.  0.
         13    1    3    3    0    0 -0.13047633601E+01  0.39250979883E+02 -0.20243658645E+02  0.44183240132E+02  0.10566000000E+00 0.  1.
         22    1    1    0    0    0  0.17534844830E+02  0.13982455939E+02  0.81733464466E+01  0.23870137190E+02  0.00000000000E+00 0. -1.
</event>
<event>
 5    1  0.1245581E-004  0.9118800E+02  0.7818608E-02  0.1130116E+00
         25   -1    0    0    0    0  0.00000000000E+00  0.00000000000E+00  0.99999998245E-14  0.12500000000E+03  0.12500000000E+03 0.  0.
        -13    1    3    3    0    0 -0.38103133080E+02 -0.76199197487E+01  0.96836574655E+00  0.38869793205E+02  0.10566000000E+00 0. -1.
         23    2    1    0    0    0  0.80754508734E+01  0.23204095904E+02 -0.14455900389E+02  0.96493579151E+02  0.92186738676E+02 0.  0.
         13    1    3    3    0    0  0.46178583954E+02  0.30824015653E+02 -0.15424266136E+02  0.57623785947E+02  0.10566000000E+00 0.  1.
         22    1    1    0    0    0 -0.80754508734E+01 -0.23204095904E+02  0.14455900389E+02  0.28506420849E+02  0.00000000000E+00 0.  1.
</event>
<event>
 5    1  0.1245581E-004  0.9118800E+02  0.7818608E-02  0.1130116E+00
         25   -1    0    0    0    0  0.00000000000E+00  0.00000000000E+00  0.99999998245E-14  0.12500000000E+03  0.12500000000E+03 0.  0.
        -13    1    3    3    0    0 -0.35164746739E+02  0.76814843563E+01  0.23330907404E+02  0.42894137356E+02  0.10566000000E+00 0. -1.
         23    2    1    0    0    0 -0.14839984724E+02  0.27468792186E+01 -0.25135898155E+02  0.95681339251E+02  0.91078728652E+02 0.  0.
         13    1    3    3    0    0  0.20324762015E+02 -0.49346051376E+01 -0.48466805559E+02  0.52787201896E+02  0.10566000000E+00 0.  1.
         22    1    1    0    0    0  0.14839984724E+02 -0.27468792186E+01  0.25135898155E+02  0.29318660749E+02  0.00000000000E+00 0.  1.
</event>
<event>
 5    1  0.1245581E-004  0.9118800E+02  0.7818608E-02  0.1130116E+00
         25   -1    0    0    0    0  0.00000000000E+00  0.00000000000E+00  0.99999998245E-14  0.12500000000E+03  0.12500000000E+03 0.  0.
        -13    1    3    3    0    0 -0.37959551608E+02 -0.38354573282E+01  0.42180279865E+02  0.56875526061E+02  0.10566000000E+00 0. -1.
         23    2    1    0    0    0 -0.22011553588E+02 -0.12944610269E+02  0.41220112136E+01  0.99133759399E+02  0.95699737982E+02 0.  0.
         13    1    3    3    0    0  0.15947998020E+02 -0.91091529404E+01 -0.38058268651E+02  0.42258233339E+02  0.10566000000E+00 0.  1.
         22    1    1    0    0    0  0.22011553588E+02  0.12944610269E+02 -0.41220112136E+01  0.25866240601E+02  0.00000000000E+00 0. -1.
</event>
<event>
 5    1  0.1245581E-004  0.9118800E+02  0.7818608E-02  0.1130116E+00
         25   -1    0    0    0    0  0.00000000000E+00  0.00000000000E+00  0.99999998245E-14  0.12500000000E+03  0.12500000000E+03 0.  0.
        -13    1    3    3    0    0  0.21121615558E+00  0.30021560117E+02 -0.30610911592E+02  0.42876307637E+02  0.10566000000E+00 0.  1.
         23    2    1    0    0    0 -0.19049452374E+02  0.15133528810E+02  0.16291380698E+02  0.95720068049E+02  0.91131866064E+02 0.  0.
         13    1    3    3    0    0 -0.19260668530E+02 -0.14888031307E+02  0.46902292290E+02  0.52843760412E+02  0.10566000000E+00 0. -1.
         22    1    1    0    0    0  0.19049452374E+02 -0.15133528810E+02 -0.16291380698E+02  0.29279931951E+02  0.00000000000E+00 0. -1.
</event>
<event>
 5    1  0.1245581E-004  0.9118800E+02  0.7818608E-02  0.1130116E+00
         25   -1    0    0    0    0  0.00000000000E+00  0.00000000000E+00  0.99999998245E-14  0.12500000000E+03  0.12500000000E+03 0.  0.
        -13    1    3    3    0    0 -0.30054314760E+02 -0.42344305655E+01 -0.24570944724E+02  0.39050412629E+02  0.10566000000E+00 0. -1.
         23    2    1    0    0    0 -0.56962382023E+01 -0.25148016774E+02  0.18855997857E+02  0.93056009446E+02  0.87401386497E+02 0.  0.
         13    1    3    3    0    0  0.24358076557E+02 -0.20913586208E+02  0.43426942581E+02  0.54005596817E+02  0.10566000000E+00 0.  1.
         22    1    1    0    0    0  0.56962382023E+01  0.25148016774E+02 -0.18855997857E+02  0.31943990554E+02  0.00000000000E+00 0.  1.
</event>
<event>
 5    1  0.1245581E-004  0.9118800E+02  0.7818608E-02  0.1130116E+00
         25   -1    0    0    0    0  0.00000000000E+00  0.00000000000E+00  0.99999998245E-14  0.12500000000E+03  0.12500000000E+03 0.  0.
        -13    1    3    3    0    0 -0.35307496909E+02  0.52792327858E+01  0.36494896820E+02  0.51052701150E+02  0.10566000000E+00 0. -1.
         23    2    1    0    0    0  0.55200488754E+01  0.16403006992E+02  0.24440792807E+02  0.95052012905E+02  0.90210881973E+02 0.  0.
         13    1    3    3    0    0  0.40827545784E+02  0.11123774206E+02 -0.12054104013E+02  0.43999311755E+02  0.10566000000E+00 0.  1.
         22    1    1    0    0    0 -0.55200488754E+01 -0.16403006992E+02 -0.24440792807E+02  0.29947987095E+02  0.00000000000E+00 0.  1.
</event>
<event>
 5    1  0.1245581E-004  0.9118800E+02  0.7818608E-02  0.1130116E+00
         25   -1    0    0    0    0  0.00000000000E+00  0.00000000000E+00  0.99999998245E-14  0.12500000000E+03  0.12500000000E+03 0.  0.
        -13    1    3    3    0    0  0.25822207389E+02  0.14910790108E+01  0.32640106954E+02  0.41646097741E+02  0.10566000000E+00 0.  1.
         23    2    1    0    0    0 -0.19552631457E+02 -0.18654427782E+02  0.10442484334E+02  0.96028659820E+02  0.91554164051E+02 0.  0.
         13    1    3    3    0    0 -0.45374838846E+02 -0.20145506793E+02 -0.22197622620E+02  0.54382562079E+02  0.10566000000E+00 0. -1.
         22    1    1    0    0    0  0.19552631457E+02  0.18654427782E+02 -0.10442484334E+02  0.28971340180E+02  0.00000000000E+00 0. -1.
</event>
<event>
 5    1  0.1245581E-004  0.9118800E+02  0.7818608E-02  0.1130116E+00
         25   -1    0    0    0    0  0.00000000000E+00  0.00000000000E+00  0.99999998245E-14  0.12500000000E+03  0.12500000000E+03 0.  0.
        -13    1    3    3    0    0  0.19599612272E+02  0.50837470480E+02 -0.15531996960E+02  0.56655514291E+02  0.10566000000E+00 0. -1.
         23    2    1    0    0    0  0.11669389770E+02  0.14240207723E+02 -0.23706449460E+02  0.94984105551E+02  0.90116737556E+02 0.  0.
         13    1    3    3    0    0 -0.79302225020E+01 -0.36597262757E+02 -0.81744525000E+01  0.38328591259E+02  0.10566000000E+00 0.  1.
         22    1    1    0    0    0 -0.11669389770E+02 -0.14240207723E+02  0.23706449460E+02  0.30015894449E+02  0.00000000000E+00 0. -1.
</event>
<event>
 5    1  0.1245581E-004  0.9118800E+02  0.7818608E-02  0.1130116E+00
         25   -1    0    0    0    0  0.00000000000E+00  0.00000000000E+00  0.99999998245E-14  0.12500000000E+03  0.12500000000E+03 0.  0.
        -13    1    3    3    0    0 -0.36696642864E+02 -0.13384076801E+02  0.18501044604E+02  0.43221255474E+02  0.10566000000E+00 0.  1.
         23    2    1    0    0    0  0.15706392784E+02 -0.14624538715E+02  0.20005710338E+02  0.95660668838E+02  0.91050355351E+02 0.  0.
         13    1    3    3    0    0  0.52403035648E+02 -0.12404619140E+01  0.15046657334E+01  0.52439413364E+02  0.10566000000E+00 0. -1.
         22    1    1    0    0    0 -0.15706392784E+02  0.14624538715E+02 -0.20005710338E+02  0.29339331162E+02  0.00000000000E+00 0. -1.
</event>
<event>
 5    1  0.1245581E-004  0.9118800E+02  0.7818608E-02  0.1130116E+00
         25   -1    0    0    0    0  0.00000000000E+00  0.00000000000E+00  0.99999998245E-14  0.12500000000E+03  0.12500000000E+03 0.  0.
        -13    1    3    3    0    0  0.43770739937E+02  0.10947619470E+02  0.12044944420E+02  0.46699249424E+02  0.10566000000E+00 0. -1.
         23    2    1    0    0    0  0.15319722767E+02 -0.20287149407E+02  0.23399473168E+02  0.90448622585E+02  0.83589207713E+02 0.  0.
         13    1    3    3    0    0 -0.28451017170E+02 -0.31234768877E+02  0.11354528749E+02  0.43749373160E+02  0.10566000000E+00 0.  1.
         22    1    1    0    0    0 -0.15319722767E+02  0.20287149407E+02 -0.23399473168E+02  0.34551377415E+02  0.00000000000E+00 0. -1.
</event>
<event>
 5    1  0.1245581E-004  0.9118800E+02  0.7818608E-02  0.1130116E+00
         25   -1    0    0    0    0  0.00000000000E+00  0.00000000000E+00  0.99999998245E-14  0.12500000000E+03  0.12500000000E+03 0.  0.
        -13    1    3    3    0    0 -0.37010060386E+02  0.19705898081E+02  0.28428871558E+02  0.50658453303E+02  0.10566000000E+00 0. -1.
         23    2    1    0    0    0 -0.92576878020E+01 -0.16239364383E+02  0.21356869137E+02  0.96618005737E+02  0.92355299979E+02 0.  0.
         13    1    3    3    0    0  0.27752372584E+02 -0.35945262465E+02 -0.70720024207E+01  0.45959552434E+02  0.10566000000E+00 0.  1.
         22    1    1    0    0    0  0.92576878020E+01  0.16239364383E+02 -0.21356869137E+02  0.28381994263E+02  0.00000000000E+00 0. -1.
</event>
<event>
 5    1  0.1245581E-004  0.9118800E+02  0.7818608E-02  0.1130116E+00
         25   -1    0    0    0    0  0.00000000000E+00  0.00000000000E+00  0.99999998245E-14  0.12500000000E+03  0.12500000000E+03 0.  0.
        -13    1    3    3    0    0 -0.24518943666E+02 -0.33347743863E+01  0.31593329025E+02  0.40130398972E+02  0.10566000000E+00 0. -1.
         23    2    1    0    0    0 -0.16514623662E+02  0.12334886452E+02 -0.20990937732E+02  0.95580589990E+02  0.90940351316E+02 0.  0.
         13    1    3    3    0    0  0.80043200044E+01  0.15669660838E+02 -0.52584266757E+02  0.55450191018E+02  0.10566000000E+00 0.  1.
         22    1    1    0    0    0  0.16514623662E+02 -0.12334886452E+02  0.20990937732E+02  0.29419410010E+02  0.00000000000E+00 0.  1.
</event>
<event>
 5    1  0.1245581E-004  0.9118800E+02  0.7818608E-02  0.1130116E+00
         25   -1    0    0    0    0  0.00000000000E+00  0.00000000000E+00  0.99999998245E-14  0.12500000000E+03  0.12500000000E+03 0.  0.
        -13    1    3    3    0    0  0.43595747118E+01  0.44534275443E+01 -0.27726718790E+02  0.28418673570E+02  0.10566000000E+00 0. -1.
         23    2    1    0    0    0  0.16583697627E+02 -0.15290579859E+02  0.28149097112E+02  0.88927953653E+02  0.81283383377E+02 0.  0.
         13    1    3    3    0    0  0.12224122915E+02 -0.19744007403E+02  0.55875815903E+02  0.60509280083E+02  0.10566000000E+00 0.  1.
         22    1    1    0    0    0 -0.16583697627E+02  0.15290579859E+02 -0.28149097112E+02  0.36072046347E+02  0.00000000000E+00 0.  1.
</event>
<event>
 5    1  0.1245581E-004  0.9118800E+02  0.7818608E-02  0.1130116E+00
         25   -1    0    0    0    0  0.00000000000E+00  0.00000000000E+00  0.99999998245E-14  0.12500000000E+03  0.12500000000E+03 0.  0.
        -13    1    3    3    0    0  0.45101174301E+02  0.43034623706E+02 -0.12300761250E+01  0.62350773950E+02  0.10566000000E+00 0.  1.
         23    2    1    0    0    0  0.18828474504E+02  0.21126073291E+02  0.14465008468E+01  0.96664248916E+02  0.92417867476E+02 0.  0.
         13    1    3    3    0    0 -0.26272699797E+02 -0.21908550415E+02  0.26765769718E+01  0.34313474966E+02  0.10566000000E+00 0. -1.
         22    1    1    0    0    0 -0.18828474504E+02 -0.21126073291E+02 -0.14465008468E+01  0.28335751084E+02  0.00000000000E+00 0.  1.
</event>
<event>
 5    1  0.1245581E-004  0.9118800E+02  0.7818608E-02  0.1130116E+00
         25   -1    0    0    0    0  0.00000000000E+00  0.00000000000E+00  0.99999998245E-14  0.12500000000E+03  0.12500000000E+03 0.  0.
        -13    1    3    3    0    0 -0.10175605828E+02  0.22801087014E+02 -0.46483563122E+02  0.52765190491E+02  0.10566000000E+00 0. -1.
         23    2    1    0    0    0  0.34592794206E+01 -0.12800646119E+02 -0.25441849857E+02  0.96310090985E+02  0.91937602461E+02 0.  0.
         13    1    3    3    0    0  0.13634885249E+02 -0.35601733133E+02  0.21041713266E+02  0.43544900494E+02  0.10566000000E+00 0.  1.
         22    1    1    0    0    0 -0.34592794206E+01  0.12800646119E+02  0.25441849857E+02  0.28689909015E+02  0.00000000000E+00 0. -1.
</event>
<event>
 5    1  0.1245581E-004  0.9118800E+02  0.7818608E-02  0.1130116E+00
         25   -1    0    0    0    0  0.00000000000E+00  0.00000000000E+00  0.99999998245E-14  0.12500000000E+03  0.12500000000E+03 0.  0.
        -13    1    3    3    0    0  0.28116483546E+02 -0.19177079055E+02  0.11334685528E+01  0.34052796112E+02  0.10566000000E+00 0.  1.
         23    2    1    0    0    0 -0.26204713431E+02 -0.78255483270E+01 -0.17429526459E+02  0.92569850368E+02  0.86703302082E+02 0.  0.
         13    1    3    3    0    0 -0.54321196977E+02  0.11351530728E+02 -0.18562995011E+02  0.58517054255E+02  0.10566000000E+00 0. -1.
         22    1    1    0    0    0  0.26204713431E+02  0.78255483270E+01  0.17429526459E+02  0.32430149632E+02  0.00000000000E+00 0. -1.
</event>
<event>
 5    1  0.1245581E-004  0.9118800E+02  0.7818608E-02  0.1130116E+00
         25   -1    0    0    0    0  0.00000000000E+00  0.00000000000E+00  0.99999998245E-14  0.12500000000E+03  0.12500000000E+03 0.  0.
        -13    1    3    3    0    0 -0.42277518604E+02 -0.25864120297E+02  0.15545537284E+02  0.51942431513E+02  0.10566000000E+00 0.  1.
         23    2    1    0    0    0 -0.62491338615E+01 -0.35750038911E+01  0.27990637933E+02  0.96098302148E+02  0.91649198234E+02 0.  0.
         13    1    3    3    0    0  0.36028384743E+02  0.22289116406E+02  0.12445100649E+02  0.44155870634E+02  0.10566000000E+00 0. -1.
         22    1    1    0    0    0  0.62491338615E+01  0.35750038911E+01 -0.27990637933E+02  0.28901697852E+02  0.00000000000E+00 0.  1.
</event>
<event>
 5    1  0.1245581E-004  0.9118800E+02  0.7818608E-02  0.1130116E+00
         25   -1    0    0    0    0  0.00000000000E+00  0.00000000000E+00  0.99999998245E-14  0.12500000000E+03  0.12500000000E+03 0.  0.
        -13    1    3    3    0    0 -0.54644322493E+02  0.26792921736E+02  0.39092167671E+01  0.60984881533E+02  0.10566000000E+00 0.  1.
         23    2    1    0    0    0 -0.21553925175E+02  0.18180814344E+02  0.86510639415E+01  0.95505007070E+02  0.90836401114E+02 0.  0.
         13    1    3    3    0    0  0.33090397318E+02 -0.86121073917E+01  0.47418471744E+01  0.34520125537E+02  0.10566000000E+00 0. -1.
         22    1    1    0    0    0  0.21553925175E+02 -0.18180814344E+02 -0.86510639415E+01  0.29494992930E+02  0.00000000000E+00 0.  1.
</event>
<event>
 5    1  0.1245581E-004  0.9118800E+02  0.7818608E-02  0.1130116E+00
         25   -1    0    0    0    0  0.00000000000E+00  0.00000000000E+00  0.99999998245E-14  0.12500000000E+03  0.12500000000E+03 0.  0.
        -13    1    3    3    0    0  0.37452598905E+01 -0.75843089795E+01  0.36459680155E+02  0.37428173284E+02  0.10566000000E+00 0.  1.
         23    2    1    0    0    0 -0.61189577995E+01 -0.21337534694E+02 -0.19228878493E+02  0.95631959557E+02  0.91010932801E+02 0.  0.
         13    1    3    3    0    0 -0.98642176901E+01 -0.13753225714E+02 -0.55688558648E+02  0.58203786273E+02  0.10566000000E+00 0. -1.
         22    1    1    0    0    0  0.61189577995E+01  0.21337534694E+02  0.19228878493E+02  0.29368040443E+02  0.00000000000E+00 0.  1.
</event>
<event>
 5    1  0.1245581E-004  0.9118800E+02  0.7818608E-02  0.1130116E+00
         25   -1    0    0    0    0  0.00000000000E+00  0.00000000000E+00  0.99999998245E-14  0.12500000000E+03  0.12500000000E+03 0.  0.
        -13    1    3    3    0    0  0.16600517691E+01 -0.58907758936E+01 -0.55016664284E+02  0.55356133585E+02  0.10566000000E+00 0.  1.
         23    2    1    0    0    0  0.14072521101E+02  0.13589184144E+02 -0.23726425484E+02  0.94248657882E+02  0.89090765349E+02 0.  0.
         13    1    3    3    0    0  0.12412469332E+02  0.19479960038E+02  0.31290238800E+02  0.38892524297E+02  0.10566000000E+00 0. -1.
         22    1    1    0    0    0 -0.14072521101E+02 -0.13589184144E+02  0.23726425484E+02  0.30751342118E+02  0.00000000000E+00 0. -1.
</event>
<event>
 5    1  0.1245581E-004  0.9118800E+02  0.7818608E-02  0.1130116E+00
         25   -1    0    0    0    0  0.00000000000E+00  0.00000000000E+00  0.99999998245E-14  0.12500000000E+03  0.12500000000E+03 0.  0.
        -13    1    3    3    0    0  0.97110195280E+01 -0.31582821107E+02 -0.34940429348E+02  0.48089741696E+02  0.10566000000E+00 0.  1.
         23    2    1    0    0    0 -0.12263766482E+02  0.91735312581E+01 -0.25360976821E+02  0.95373444524E+02  0.90655177078E+02 0.  0.
         13    1    3    3    0    0 -0.21974786010E+02  0.40756352365E+02  0.95794525270E+01  0.47283702828E+02  0.10566000000E+00 0. -1.
         22    1    1    0    0    0  0.12263766482E+02 -0.91735312581E+01  0.25360976821E+02  0.29626555476E+02  0.00000000000E+00 0. -1.
</event>
<event>
 5    1  0.1245581E-004  0.9118800E+02  0.7818608E-02  0.1130116E+00
         25   -1    0    0    0    0  0.00000000000E+00  0.00000000000E+00  0.99999998245E-14  0.12500000000E+03  0.12500000000E+03 0.  0.
        -13    1    3    3    0    0  0.30936228489E+02 -0.48404949691E+02  0.92278368722E+01  0.58182931561E+02  0.10566000000E+00 0.  1.
         23    2    1    0    0    0  0.82349552713E+01 -0.20197613074E+02  0.19417486937E+02  0.95797314145E+02  0.91237758282E+02 0.  0.
         13    1    3    3    0    0 -0.22701273217E+02  0.28207336617E+02  0.10189650065E+02  0.37614382584E+02  0.10566000000E+00 0. -1.
         22    1    1    0    0    0 -0.82349552713E+01  0.20197613074E+02 -0.19417486937E+02  0.29202685855E+02  0.00000000000E+00 0.  1.
</event>
<event>
 5    1  0.1245581E-004  0.9118800E+02  0.7818608E-02  0.1130116E+00
         25   -1    0    0    0    0  0.00000000000E+00  0.00000000000E+00  0.99999998245E-14  0.12500000000E+03  0.12500000000E+03 0.  0.
        -13    1    3    3    0    0 -0.38323542691E+02  0.15983009665E+02  0.20556869791E+02  0.46332996687E+02  0.10566000000E+00 0. -1.
         23    2    1    0    0    0  0.77860117805E+01  0.23431456346E+02  0.20290697917E+02  0.93041158533E+02  0.87380144388E+02 0.  0.
         13    1    3    3    0    0  0.46109554472E+02  0.74484466808E+01 -0.26617187410E+00  0.46708161846E+02  0.10566000000E+00 0.  1.
         22    1    1    0    0    0 -0.77860117805E+01 -0.23431456346E+02 -0.20290697917E+02  0.31958841467E+02  0.00000000000E+00 0. -1.
</event>
<event>
 5    1  0.1245581E-004  0.9118800E+02  0.7818608E-02  0.1130116E+00
         25   -1    0    0    0    0  0.00000000000E+00  0.00000000000E+00  0.99999998245E-14  0.12500000000E+03  0.12500000000E+03 0.  0.
        -13    1    3    3    0    0  0.88145418186E+01 -0.31540136037E+02  0.21214340055E+02  0.39019683708E+02  0.10566000000E+00 0.  1.
         23    2    1    0    0    0  0.18175269227E+02  0.21060379572E+02  0.16504149563E+02  0.92653949979E+02  0.86824463688E+02 0.  0.
         13    1    3    3    0    0  0.93607274087E+01  0.52600515608E+02 -0.47101904923E+01  0.53634266271E+02  0.10566000000E+00 0. -1.
         22    1    1    0    0    0 -0.18175269227E+02 -0.21060379572E+02 -0.16504149563E+02  0.32346050021E+02  0.00000000000E+00 0.  1.
</event>
<event>
 5    1  0.1245581E-004  0.9118800E+02  0.7818608E-02  0.1130116E+00
         25   -1    0    0    0    0  0.00000000000E+00  0.00000000000E+00  0.99999998245E-14  0.12500000000E+03  0.12500000000E+03 0.  0.
        -13    1    3    3    0    0 -0.25608941467E+02 -0.40599177495E+02 -0.36183149957E+01  0.48137453857E+02  0.10566000000E+00 0.  1.
         23    2    1    0    0    0 -0.32421865800E+02 -0.26662477913E+01  0.12816023768E+02  0.90035207358E+02  0.82968679871E+02 0.  0.
         13    1    3    3    0    0 -0.68129243328E+01  0.37932929704E+02  0.16434338764E+02  0.41897753502E+02  0.10566000000E+00 0. -1.
         22    1    1    0    0    0  0.32421865800E+02  0.26662477913E+01 -0.12816023768E+02  0.34964792642E+02  0.00000000000E+00 0. -1.
</event>
<event>
 5    1  0.1245581E-004  0.9118800E+02  0.7818608E-02  0.1130116E+00
         25   -1    0    0    0    0  0.00000000000E+00  0.00000000000E+00  0.99999998245E-14  0.12500000000E+03  0.12500000000E+03 0.  0.
        -13    1    3    3    0    0  0.42504032149E+02  0.29367367569E+01  0.43722501748E+01  0.42829252939E+02  0.10566000000E+00 0.  1.
         23    2    1    0    0    0 -0.71897523950E+01  0.19954059866E+02  0.18096173430E+02  0.97119387786E+02  0.93031429885E+02 0.  0.
         13    1    3    3    0    0 -0.49693784544E+02  0.17017323109E+02  0.13723923256E+02  0.54290134847E+02  0.10566000000E+00 0. -1.
         22    1    1    0    0    0  0.71897523950E+01 -0.19954059866E+02 -0.18096173430E+02  0.27880612214E+02  0.00000000000E+00 0. -1.
</event>
<event>
 5    1  0.1245581E-004  0.9118800E+02  0.7818608E-02  0.1130116E+00
         25   -1    0    0    0    0  0.00000000000E+00  0.00000000000E+00  0.99999998245E-14  0.12500000000E+03  0.12500000000E+03 0.  0.
        -13    1    3    3    0    0 -0.36758962014E+02  0.14761950592E+02  0.36134936946E+02  0.53617919633E+02  0.10566000000E+00 0.  1.
         23    2    1    0    0    0 -0.25125657033E+01  0.25479051973E+02  0.13336297707E+02  0.96132164744E+02  0.91695371672E+02 0.  0.
         13    1    3    3    0    0  0.34246396310E+02  0.10717101380E+02 -0.22798639239E+02  0.42514245112E+02  0.10566000000E+00 0. -1.
         22    1    1    0    0    0  0.25125657033E+01 -0.25479051973E+02 -0.13336297707E+02  0.28867835256E+02  0.00000000000E+00 0. -1.
</event>
<event>
 5    1  0.1245581E-004  0.9118800E+02  0.7818608E-02  0.1130116E+00
         25   -1    0    0    0    0  0.00000000000E+00  0.00000000000E+00  0.99999998245E-14  0.12500000000E+03  0.12500000000E+03 0.  0.
        -13    1    3    3    0    0  0.19489644868E+02  0.37182625165E+02  0.14610208830E+02  0.44450683204E+02  0.10566000000E+00 0. -1.
         23    2    1    0    0    0 -0.16629772997E+02  0.14925599761E+01  0.23673168374E+02  0.96031120386E+02  0.91557523429E+02 0.  0.
         13    1    3    3    0    0 -0.36119417866E+02 -0.35690065189E+02  0.90629595447E+01  0.51580437182E+02  0.10566000000E+00 0.  1.
         22    1    1    0    0    0  0.16629772997E+02 -0.14925599761E+01 -0.23673168374E+02  0.28968879614E+02  0.00000000000E+00 0.  1.
</event>
<event>
 5    1  0.1245581E-004  0.9118800E+02  0.7818608E-02  0.1130116E+00
         25   -1    0    0    0    0  0.00000000000E+00  0.00000000000E+00  0.99999998245E-14  0.12500000000E+03  0.12500000000E+03 0.  0.
        -13    1    3    3    0    0 -0.20591944316E+02 -0.42939841605E+02  0.42592285929E+01  0.47812240692E+02  0.10566000000E+00 0. -1.
         23    2    1    0    0    0  0.30132345510E+01 -0.13194562828E+02 -0.25548872931E+02  0.96087701947E+02  0.91634739519E+02 0.  0.
         13    1    3    3    0    0  0.23605178867E+02  0.29745278777E+02 -0.29808101524E+02  0.48275461254E+02  0.10566000000E+00 0.  1.
         22    1    1    0    0    0 -0.30132345510E+01  0.13194562828E+02  0.25548872931E+02  0.28912298053E+02  0.00000000000E+00 0. -1.
</event>
<event>
 5    1  0.1245581E-004  0.9118800E+02  0.7818608E-02  0.1130116E+00
         25   -1    0    0    0    0  0.00000000000E+00  0.00000000000E+00  0.99999998245E-14  0.12500000000E+03  0.12500000000E+03 0.  0.
        -13    1    3    3    0    0  0.43954632407E+02  0.74087155491E+01  0.12551892994E+01  0.44592437031E+02  0.10566000000E+00 0. -1.
         23    2    1    0    0    0  0.48584705168E+01 -0.16188990702E+02 -0.23123074210E+02  0.96357990352E+02  0.92002704243E+02 0.  0.
         13    1    3    3    0    0 -0.39096161890E+02 -0.23597706251E+02 -0.24378263510E+02  0.51765553321E+02  0.10566000000E+00 0.  1.
         22    1    1    0    0    0 -0.48584705168E+01  0.16188990702E+02  0.23123074210E+02  0.28642009648E+02  0.00000000000E+00 0. -1.
</event>
<event>
 5    1  0.1245581E-004  0.9118800E+02  0.7818608E-02  0.1130116E+00
         25   -1    0    0    0    0  0.00000000000E+00  0.00000000000E+00  0.99999998245E-14  0.12500000000E+03  0.12500000000E+03 0.  0.
        -13    1    3    3    0    0  0.41178257562E+02 -0.41121023368E+01 -0.29259794689E+02  0.50682393696E+02  0.10566000000E+00 0. -1.
         23    2    1    0    0    0  0.21889771594E+02  0.15157520417E+02  0.83145127430E+01  0.97106566225E+02  0.93014200831E+02 0.  0.
         13    1    3    3    0    0 -0.19288485967E+02  0.19269622753E+02  0.37574307432E+02  0.46424172529E+02  0.10566000000E+00 0.  1.
         22    1    1    0    0    0 -0.21889771594E+02 -0.15157520417E+02 -0.83145127430E+01  0.27893433775E+02  0.00000000000E+00 0. -1.
</event>
<event>
 5    1  0.1245581E-004  0.9118800E+02  0.7818608E-02  0.1130116E+00
         25   -1    0    0    0    0  0.00000000000E+00  0.00000000000E+00  0.99999998245E-14  0.12500000000E+03  0.12500000000E+03 0.  0.
        -13    1    3    3    0    0  0.45944733708E+01  0.20714849987E+02 -0.45836282649E+02  0.50509307723E+02  0.10566000000E+00 0.  1.
         23    2    1    0    0    0  0.11491228718E+02 -0.14779835229E+02 -0.29205431989E+02  0.90309235746E+02  0.83380506934E+02 0.  0.
         13    1    3    3    0    0  0.68967553470E+01 -0.35494685216E+02  0.16630850660E+02  0.39799928023E+02  0.10566000000E+00 0. -1.
         22    1    1    0    0    0 -0.11491228718E+02  0.14779835229E+02  0.29205431989E+02  0.34690764254E+02  0.00000000000E+00 0.  1.
</event>
<event>
 5    1  0.1245581E-004  0.9118800E+02  0.7818608E-02  0.1130116E+00
         25   -1    0    0    0    0  0.00000000000E+00  0.00000000000E+00  0.99999998245E-14  0.12500000000E+03  0.12500000000E+03 0.  0.
        -13    1    3    3    0    0 -0.31066718789E+02 -0.37270321153E+02  0.30573025279E+02  0.57349271084E+02  0.10566000000E+00 0. -1.
         23    2    1    0    0    0 -0.27770498293E+02 -0.83578728287E+01  0.61174238379E+01  0.95360879095E+02  0.90637849564E+02 0.  0.
         13    1    3    3    0    0  0.32962204964E+01  0.28912448324E+02 -0.24455601441E+02  0.38011608010E+02  0.10566000000E+00 0.  1.
         22    1    1    0    0    0  0.27770498293E+02  0.83578728287E+01 -0.61174238379E+01  0.29639120905E+02  0.00000000000E+00 0. -1.
</event>
<event>
 5    1  0.1245581E-004  0.9118800E+02  0.7818608E-02  0.1130116E+00
         25   -1    0    0    0    0  0.00000000000E+00  0.00000000000E+00  0.99999998245E-14  0.12500000000E+03  0.12500000000E+03 0.  0.
        -13    1    3    3    0    0  0.15333283713E+01  0.13389524309E+02 -0.54587703804E+02  0.56226853262E+02  0.10566000000E+00 0. -1.
         23    2    1    0    0    0  0.14612683945E+02 -0.80532036848E+01 -0.23074188951E+02  0.96525400487E+02  0.92229876514E+02 0.  0.
         13    1    3    3    0    0  0.13079355573E+02 -0.21442727994E+02  0.31513514853E+02  0.40298547225E+02  0.10566000000E+00 0.  1.
         22    1    1    0    0    0 -0.14612683945E+02  0.80532036848E+01  0.23074188951E+02  0.28474599513E+02  0.00000000000E+00 0. -1.
</event>
<event>
 5    1  0.1245581E-004  0.9118800E+02  0.7818608E-02  0.1130116E+00
         25   -1    0    0    0    0  0.00000000000E+00  0.00000000000E+00  0.99999998245E-14  0.12500000000E+03  0.12500000000E+03 0.  0.
        -13    1    3    3    0    0 -0.38952436108E+02  0.63941774305E+01 -0.14765600381E+01  0.39501508545E+02  0.10566000000E+00 0.  1.
         23    2    1    0    0    0  0.16791205454E+02  0.21743576675E+02 -0.31747927023E+01  0.97344855525E+02  0.93333883887E+02 0.  0.
         13    1    3    3    0    0  0.55743641561E+02  0.15349399245E+02 -0.16982326642E+01  0.57843346981E+02  0.10566000000E+00 0. -1.
         22    1    1    0    0    0 -0.16791205454E+02 -0.21743576675E+02  0.31747927023E+01  0.27655144475E+02  0.00000000000E+00 0.  1.
</event>
<event>
 5    1  0.1245581E-004  0.9118800E+02  0.7818608E-02  0.1130116E+00
         25   -1    0    0    0    0  0.00000000000E+00  0.00000000000E+00  0.99999998245E-14  0.12500000000E+03  0.12500000000E+03 0.  0.
        -13    1    3    3    0    0  0.30488076180E+02  0.15621602739E+02  0.33605383967E+01  0.34421819296E+02  0.10566000000E+00 0.  1.
         23    2    1    0    0    0 -0.23711600801E+02 -0.12434940846E+02  0.11245082514E+02  0.95960033624E+02  0.91460419888E+02 0.  0.
         13    1    3    3    0    0 -0.54199676981E+02 -0.28056543585E+02  0.78845441174E+01  0.61538214328E+02  0.10566000000E+00 0. -1.
         22    1    1    0    0    0  0.23711600801E+02  0.12434940846E+02 -0.11245082514E+02  0.29039966376E+02  0.00000000000E+00 0. -1.
</event>
<event>
 5    1  0.1245581E-004  0.9118800E+02  0.7818608E-02  0.1130116E+00
         25   -1    0    0    0    0  0.00000000000E+00  0.00000000000E+00  0.99999998245E-14  0.12500000000E+03  0.12500000000E+03 0.  0.
        -13    1    3    3    0    0 -0.16540483763E+02  0.37001337605E+02 -0.18676236122E+02  0.44626220403E+02  0.10566000000E+00 0.  1.
         23    2    1    0    0    0  0.23636984819E+02  0.16530700250E+02  0.52645184831E+01  0.95679593166E+02  0.91076332224E+02 0.  0.
         13    1    3    3    0    0  0.40177468582E+02 -0.20470637355E+02  0.23940754605E+02  0.51053372763E+02  0.10566000000E+00 0. -1.
         22    1    1    0    0    0 -0.23636984819E+02 -0.16530700250E+02 -0.52645184831E+01  0.29320406834E+02  0.00000000000E+00 0. -1.
</event>
<event>
 5    1  0.1245581E-004  0.9118800E+02  0.7818608E-02  0.1130116E+00
         25   -1    0    0    0    0  0.00000000000E+00  0.00000000000E+00  0.99999998245E-14  0.12500000000E+03  0.12500000000E+03 0.  0.
        -13    1    3    3    0    0  0.31421372982E+02 -0.13508674813E+02  0.46963469365E+02  0.58097896641E+02  0.10566000000E+00 0. -1.
         23    2    1    0    0    0  0.15223080524E+02 -0.20217334368E+02  0.12480608503E+02  0.96782126618E+02  0.92577165946E+02 0.  0.
         13    1    3    3    0    0 -0.16198292459E+02 -0.67086595555E+01 -0.34482860863E+02  0.38684229977E+02  0.10566000000E+00 0.  1.
         22    1    1    0    0    0 -0.15223080524E+02  0.20217334368E+02 -0.12480608503E+02  0.28217873382E+02  0.00000000000E+00 0. -1.
</event>
<event>
 5    1  0.1245581E-004  0.9118800E+02  0.7818608E-02  0.1130116E+00
         25   -1    0    0    0    0  0.00000000000E+00  0.00000000000E+00  0.99999998245E-14  0.12500000000E+03  0.12500000000E+03 0.  0.
        -13    1    3    3    0    0 -0.32545229209E+02 -0.74599217963E+01  0.52241930782E+02  0.62000587685E+02  0.10566000000E+00 0.  1.
         23    2    1    0    0    0 -0.18318258400E+02 -0.84269276692E+00  0.19951938713E+02  0.97901133228E+02  0.94075944358E+02 0.  0.
         13    1    3    3    0    0  0.14226970808E+02  0.66172290294E+01 -0.32289992069E+02  0.35900545542E+02  0.10566000000E+00 0. -1.
         22    1    1    0    0    0  0.18318258400E+02  0.84269276692E+00 -0.19951938713E+02  0.27098866772E+02  0.00000000000E+00 0.  1.
</event>
<event>
 5    1  0.1245581E-004  0.9118800E+02  0.7818608E-02  0.1130116E+00
         25   -1    0    0    0    0  0.00000000000E+00  0.00000000000E+00  0.99999998245E-14  0.12500000000E+03  0.12500000000E+03 0.  0.
        -13    1    3    3    0    0  0.10712246628E+02  0.35095197848E+02 -0.10497770515E+02  0.38165946728E+02  0.10566000000E+00 0.  1.
         23    2    1    0    0    0  0.23728622924E+01 -0.19765961171E+02  0.15810264315E+02  0.99577801941E+02  0.96277985465E+02 0.  0.
         13    1    3    3    0    0 -0.83393843358E+01 -0.54861159019E+02  0.26308034830E+02  0.61411855213E+02  0.10566000000E+00 0. -1.
         22    1    1    0    0    0 -0.23728622924E+01  0.19765961171E+02 -0.15810264315E+02  0.25422198059E+02  0.00000000000E+00 0. -1.
</event>
<event>
 5    1  0.1245581E-004  0.9118800E+02  0.7818608E-02  0.1130116E+00
         25   -1    0    0    0    0  0.00000000000E+00  0.00000000000E+00  0.99999998245E-14  0.12500000000E+03  0.12500000000E+03 0.  0.
        -13    1    3    3    0    0  0.45619852080E+02 -0.19544234031E+02  0.17314801728E+02  0.52563880285E+02  0.10566000000E+00 0.  1.
         23    2    1    0    0    0  0.18819648822E+02 -0.15827983222E+02 -0.16136289341E+02  0.95587688490E+02  0.90950107876E+02 0.  0.
         13    1    3    3    0    0 -0.26800203259E+02  0.37162508091E+01 -0.33451091068E+02  0.43023808205E+02  0.10566000000E+00 0. -1.
         22    1    1    0    0    0 -0.18819648822E+02  0.15827983222E+02  0.16136289341E+02  0.29412311510E+02  0.00000000000E+00 0.  1.
</event>
<event>
 5    1  0.1245581E-004  0.9118800E+02  0.7818608E-02  0.1130116E+00
         25   -1    0    0    0    0  0.00000000000E+00  0.00000000000E+00  0.99999998245E-14  0.12500000000E+03  0.12500000000E+03 0.  0.
        -13    1    3    3    0    0  0.30088070451E+02  0.63876002909E+01  0.67802625629E+01  0.31497246632E+02  0.10566000000E+00 0.  1.
         23    2    1    0    0    0 -0.29890825152E+02 -0.30438136650E+01 -0.78397368410E+01  0.93948627991E+02  0.88668805099E+02 0.  0.
         13    1    3    3    0    0 -0.59978895603E+02 -0.94314139559E+01 -0.14619999404E+02  0.62451381359E+02  0.10566000000E+00 0. -1.
         22    1    1    0    0    0  0.29890825152E+02  0.30438136650E+01  0.78397368410E+01  0.31051372009E+02  0.00000000000E+00 0. -1.
</event>
<event>
 5    1  0.1245581E-004  0.9118800E+02  0.7818608E-02  0.1130116E+00
         25   -1    0    0    0    0  0.00000000000E+00  0.00000000000E+00  0.99999998245E-14  0.12500000000E+03  0.12500000000E+03 0.  0.
        -13    1    3    3    0    0 -0.16673692823E+02  0.32106800230E+02  0.19017777969E+02  0.40872309652E+02  0.10566000000E+00 0.  1.
         23    2    1    0    0    0 -0.23718613229E+02 -0.14298513163E+02 -0.94134335188E+01  0.95748797926E+02  0.91171264560E+02 0.  0.
         13    1    3    3    0    0 -0.70449204059E+01 -0.46405313393E+02 -0.28431211488E+02  0.54876488274E+02  0.10566000000E+00 0. -1.
         22    1    1    0    0    0  0.23718613229E+02  0.14298513163E+02  0.94134335188E+01  0.29251202074E+02  0.00000000000E+00 0. -1.
</event>
<event>
 5    1  0.1245581E-004  0.9118800E+02  0.7818608E-02  0.1130116E+00
         25   -1    0    0    0    0  0.00000000000E+00  0.00000000000E+00  0.99999998245E-14  0.12500000000E+03  0.12500000000E+03 0.  0.
        -13    1    3    3    0    0  0.23074363570E+02 -0.12081418015E+01  0.50365177932E+02  0.55412527220E+02  0.10566000000E+00 0.  1.
         23    2    1    0    0    0 -0.55706602275E+01 -0.14714736978E+02  0.22167018052E+02  0.97816688410E+02  0.93963674377E+02 0.  0.
         13    1    3    3    0    0 -0.28645023797E+02 -0.13506595176E+02 -0.28198159880E+02  0.42404161190E+02  0.10566000000E+00 0. -1.
         22    1    1    0    0    0  0.55706602275E+01  0.14714736978E+02 -0.22167018052E+02  0.27183311590E+02  0.00000000000E+00 0.  1.
</event>
<event>
 5    1  0.1245581E-004  0.9118800E+02  0.7818608E-02  0.1130116E+00
         25   -1    0    0    0    0  0.00000000000E+00  0.00000000000E+00  0.99999998245E-14  0.12500000000E+03  0.12500000000E+03 0.  0.
        -13    1    3    3    0    0 -0.16575879149E+02  0.12379185644E+02  0.26832487267E+02  0.33882112445E+02  0.10566000000E+00 0.  1.
         23    2    1    0    0    0  0.13929132856E+02 -0.21297378152E+02 -0.14843857281E+02  0.95539192862E+02  0.90883432018E+02 0.  0.
         13    1    3    3    0    0  0.30505012005E+02 -0.33676563796E+02 -0.41676344548E+02  0.61657080416E+02  0.10566000000E+00 0. -1.
         22    1    1    0    0    0 -0.13929132856E+02  0.21297378152E+02  0.14843857281E+02  0.29460807138E+02  0.00000000000E+00 0. -1.
</event>
<event>
 5    1  0.1245581E-004  0.9118800E+02  0.7818608E-02  0.1130116E+00
         25   -1    0    0    0    0  0.00000000000E+00  0.00000000000E+00  0.99999998245E-14  0.12500000000E+03  0.12500000000E+03 0.  0.
        -13    1    3    3    0    0  0.26275758017E+02  0.25733266998E+02  0.19949799830E+02  0.41840436984E+02  0.10566000000E+00 0. -1.
         23    2    1    0    0    0 -0.23871954762E+02  0.68050622914E+01  0.15741616456E+02  0.95606504366E+02  0.90975964361E+02 0.  0.
         13    1    3    3    0    0 -0.50147712779E+02 -0.18928204707E+02 -0.42081833737E+01  0.53766067382E+02  0.10566000000E+00 0.  1.
         22    1    1    0    0    0  0.23871954762E+02 -0.68050622914E+01 -0.15741616456E+02  0.29393495634E+02  0.00000000000E+00 0. -1.
</event>
<event>
 5    1  0.1245581E-004  0.9118800E+02  0.7818608E-02  0.1130116E+00
         25   -1    0    0    0    0  0.00000000000E+00  0.00000000000E+00  0.99999998245E-14  0.12500000000E+03  0.12500000000E+03 0.  0.
        -13    1    3    3    0    0 -0.38937442131E+02 -0.95997436062E+01  0.20478434661E+02  0.45029511737E+02  0.10566000000E+00 0. -1.
         23    2    1    0    0    0 -0.18614743985E+01 -0.27599378131E+02 -0.92338565789E+01  0.95837440657E+02  0.91292716928E+02 0.  0.
         13    1    3    3    0    0  0.37075967733E+02 -0.17999634525E+02 -0.29712291240E+02  0.50807928920E+02  0.10566000000E+00 0.  1.
         22    1    1    0    0    0  0.18614743985E+01  0.27599378131E+02  0.92338565789E+01  0.29162559343E+02  0.00000000000E+00 0. -1.
</event>
<event>
 5    1  0.1245581E-004  0.9118800E+02  0.7818608E-02  0.1130116E+00
         25   -1    0    0    0    0  0.00000000000E+00  0.00000000000E+00  0.99999998245E-14  0.12500000000E+03  0.12500000000E+03 0.  0.
        -13    1    3    3    0    0 -0.15941317326E+02 -0.20797267627E+02 -0.23261484315E+02  0.35039402897E+02  0.10566000000E+00 0.  1.
         23    2    1    0    0    0 -0.19974896005E+02  0.10230288713E+02  0.24269551353E+02  0.91944495157E+02  0.85796991726E+02 0.  0.
         13    1    3    3    0    0 -0.40335786797E+01  0.31027556340E+02  0.47531035668E+02  0.56905092260E+02  0.10566000000E+00 0. -1.
         22    1    1    0    0    0  0.19974896005E+02 -0.10230288713E+02 -0.24269551353E+02  0.33055504843E+02  0.00000000000E+00 0. -1.
</event>
<event>
 5    1  0.1245581E-004  0.9118800E+02  0.7818608E-02  0.1130116E+00
         25   -1    0    0    0    0  0.00000000000E+00  0.00000000000E+00  0.99999998245E-14  0.12500000000E+03  0.12500000000E+03 0.  0.
        -13    1    3    3    0    0 -0.26593862879E+01 -0.44853077667E+02  0.41100478872E+02  0.60894428638E+02  0.10566000000E+00 0.  1.
         23    2    1    0    0    0  0.39058586285E+01 -0.14654670424E+02  0.25046660190E+02  0.95719455546E+02  0.91131025927E+02 0.  0.
         13    1    3    3    0    0  0.65652449164E+01  0.30198407243E+02 -0.16053818682E+02  0.34825026908E+02  0.10566000000E+00 0. -1.
         22    1    1    0    0    0 -0.39058586285E+01  0.14654670424E+02 -0.25046660190E+02  0.29280544454E+02  0.00000000000E+00 0.  1.
</event>
<event>
 5    1  0.1245581E-004  0.9118800E+02  0.7818608E-02  0.1130116E+00
         25   -1    0    0    0    0  0.00000000000E+00  0.00000000000E+00  0.99999998245E-14  0.12500000000E+03  0.12500000000E+03 0.  0.
        -13    1    3    3    0    0  0.43741234096E+02  0.54435202990E+01 -0.23047651922E+02  0.49740656375E+02  0.10566000000E+00 0.  1.
         23    2    1    0    0    0  0.70125176481E+00  0.21870989302E+02 -0.19058750111E+02  0.95981594067E+02  0.91489882046E+02 0.  0.
         13    1    3    3    0    0 -0.43039982332E+02  0.16427469003E+02  0.39889018104E+01  0.46240937692E+02  0.10566000000E+00 0. -1.
         22    1    1    0    0    0 -0.70125176481E+00 -0.21870989302E+02  0.19058750111E+02  0.29018405933E+02  0.00000000000E+00 0.  1.
</event>
<event>
 5    1  0.1245581E-004  0.9118800E+02  0.7818608E-02  0.1130116E+00
         25   -1    0    0    0    0  0.00000000000E+00  0.00000000000E+00  0.99999998245E-14  0.12500000000E+03  0.12500000000E+03 0.  0.
        -13    1    3    3    0    0  0.43935351348E+02  0.11024711817E+01 -0.67407671814E+01  0.44463239277E+02  0.10566000000E+00 0.  1.
         23    2    1    0    0    0 -0.56094530190E+01  0.18698206689E+02 -0.18240507110E+02  0.98282870735E+02  0.94581804189E+02 0.  0.
         13    1    3    3    0    0 -0.49544804367E+02  0.17595735507E+02 -0.11499739928E+02  0.53819631458E+02  0.10566000000E+00 0. -1.
         22    1    1    0    0    0  0.56094530190E+01 -0.18698206689E+02  0.18240507110E+02  0.26717129265E+02  0.00000000000E+00 0. -1.
</event>
<event>
 5    1  0.1245581E-004  0.9118800E+02  0.7818608E-02  0.1130116E+00
         25   -1    0    0    0    0  0.00000000000E+00  0.00000000000E+00  0.99999998245E-14  0.12500000000E+03  0.12500000000E+03 0.  0.
        -13    1    3    3    0    0  0.80464050883E+01  0.52428738683E+02  0.23859830319E+02  0.58162014594E+02  0.10566000000E+00 0.  1.
         23    2    1    0    0    0 -0.44028185544E+01  0.17922363660E+02  0.23847279841E+02  0.94845585958E+02  0.89924393185E+02 0.  0.
         13    1    3    3    0    0 -0.12449223643E+02 -0.34506375023E+02 -0.12550478206E-01  0.36683571365E+02  0.10566000000E+00 0. -1.
         22    1    1    0    0    0  0.44028185544E+01 -0.17922363660E+02 -0.23847279841E+02  0.30154414042E+02  0.00000000000E+00 0.  1.
</event>
<event>
 5    1  0.1245581E-004  0.9118800E+02  0.7818608E-02  0.1130116E+00
         25   -1    0    0    0    0  0.00000000000E+00  0.00000000000E+00  0.99999998245E-14  0.12500000000E+03  0.12500000000E+03 0.  0.
        -13    1    3    3    0    0  0.61758082636E+02 -0.72125992017E+01 -0.62720454695E+01  0.62493456269E+02  0.10566000000E+00 0. -1.
         23    2    1    0    0    0  0.30363051752E+02 -0.36935703839E+01 -0.37087483057E+01  0.94189089791E+02  0.89007148296E+02 0.  0.
         13    1    3    3    0    0 -0.31395030883E+02  0.35190288178E+01  0.25632971638E+01  0.31695633522E+02  0.10566000000E+00 0.  1.
         22    1    1    0    0    0 -0.30363051752E+02  0.36935703839E+01  0.37087483057E+01  0.30810910209E+02  0.00000000000E+00 0. -1.
</event>
<event>
 5    1  0.1245581E-004  0.9118800E+02  0.7818608E-02  0.1130116E+00
         25   -1    0    0    0    0  0.00000000000E+00  0.00000000000E+00  0.99999998245E-14  0.12500000000E+03  0.12500000000E+03 0.  0.
        -13    1    3    3    0    0  0.52728412478E+02 -0.92609493676E+01  0.23337082411E+02  0.58401038048E+02  0.10566000000E+00 0.  1.
         23    2    1    0    0    0  0.21157810945E+02 -0.14388191105E+02  0.23312944581E+02  0.90385459813E+02  0.83494700151E+02 0.  0.
         13    1    3    3    0    0 -0.31570601533E+02 -0.51272417378E+01 -0.24137829354E-01  0.31984421765E+02  0.10566000000E+00 0. -1.
         22    1    1    0    0    0 -0.21157810945E+02  0.14388191105E+02 -0.23312944581E+02  0.34614540187E+02  0.00000000000E+00 0.  1.
</event>
<event>
 5    1  0.1245581E-004  0.9118800E+02  0.7818608E-02  0.1130116E+00
         25   -1    0    0    0    0  0.00000000000E+00  0.00000000000E+00  0.99999998245E-14  0.12500000000E+03  0.12500000000E+03 0.  0.
        -13    1    3    3    0    0  0.94584629955E+01 -0.22474199077E+01  0.54932287191E+02  0.55786026553E+02  0.10566000000E+00 0.  1.
         23    2    1    0    0    0  0.85282991005E+01  0.18580748454E+02  0.20437574984E+02  0.96092032761E+02  0.91640647042E+02 0.  0.
         13    1    3    3    0    0 -0.93016389500E+00  0.20828168362E+02 -0.34494712207E+02  0.40306006208E+02  0.10566000000E+00 0. -1.
         22    1    1    0    0    0 -0.85282991005E+01 -0.18580748454E+02 -0.20437574984E+02  0.28907967239E+02  0.00000000000E+00 0. -1.
</event>
<event>
 5    1  0.1245581E-004  0.9118800E+02  0.7818608E-02  0.1130116E+00
         25   -1    0    0    0    0  0.00000000000E+00  0.00000000000E+00  0.99999998245E-14  0.12500000000E+03  0.12500000000E+03 0.  0.
        -13    1    3    3    0    0  0.83604683760E+01 -0.35720378177E+02  0.42394403687E+02  0.56063709087E+02  0.10566000000E+00 0.  1.
         23    2    1    0    0    0  0.21602281201E+02 -0.17974915032E+02  0.10269842254E+02  0.95079676081E+02  0.90249205094E+02 0.  0.
         13    1    3    3    0    0  0.13241812825E+02  0.17745463145E+02 -0.32124561433E+02  0.39015966994E+02  0.10566000000E+00 0. -1.
         22    1    1    0    0    0 -0.21602281201E+02  0.17974915032E+02 -0.10269842254E+02  0.29920323919E+02  0.00000000000E+00 0.  1.
</event>
<event>
 5    1  0.1245581E-004  0.9118800E+02  0.7818608E-02  0.1130116E+00
         25   -1    0    0    0    0  0.00000000000E+00  0.00000000000E+00  0.99999998245E-14  0.12500000000E+03  0.12500000000E+03 0.  0.
        -13    1    3    3    0    0 -0.21792107235E+02  0.26724793850E+02 -0.27811567743E+02  0.44301298045E+02  0.10566000000E+00 0.  1.
         23    2    1    0    0    0 -0.24863818169E+02 -0.15827553181E+02  0.53139006335E+00  0.95521138607E+02  0.90858597016E+02 0.  0.
         13    1    3    3    0    0 -0.30717109338E+01 -0.42552347032E+02  0.28342957806E+02  0.51219840562E+02  0.10566000000E+00 0. -1.
         22    1    1    0    0    0  0.24863818169E+02  0.15827553181E+02 -0.53139006335E+00  0.29478861393E+02  0.00000000000E+00 0.  1.
</event>
<event>
 5    1  0.1245581E-004  0.9118800E+02  0.7818608E-02  0.1130116E+00
         25   -1    0    0    0    0  0.00000000000E+00  0.00000000000E+00  0.99999998245E-14  0.12500000000E+03  0.12500000000E+03 0.  0.
        -13    1    3    3    0    0 -0.31703271536E+02  0.17490291554E+02 -0.24272202468E+01  0.36289258560E+02  0.10566000000E+00 0.  1.
         23    2    1    0    0    0  0.71784773582E+01 -0.21042645677E+02  0.19662616918E+02  0.95319333257E+02  0.90580534963E+02 0.  0.
         13    1    3    3    0    0  0.38881748894E+02 -0.38532937231E+02  0.22089837165E+02  0.59030074696E+02  0.10566000000E+00 0. -1.
         22    1    1    0    0    0 -0.71784773582E+01  0.21042645677E+02 -0.19662616918E+02  0.29680666743E+02  0.00000000000E+00 0. -1.
</event>
<event>
 5    1  0.1245581E-004  0.9118800E+02  0.7818608E-02  0.1130116E+00
         25   -1    0    0    0    0  0.00000000000E+00  0.00000000000E+00  0.99999998245E-14  0.12500000000E+03  0.12500000000E+03 0.  0.
        -13    1    3    3    0    0 -0.50707393269E+02 -0.12748419822E+02 -0.25059831394E+02  0.57980757615E+02  0.10566000000E+00 0.  1.
         23    2    1    0    0    0 -0.20244969514E+02  0.67063064723E+01 -0.22164204742E+02  0.94241500216E+02  0.89080722123E+02 0.  0.
         13    1    3    3    0    0  0.30462423755E+02  0.19454726294E+02  0.28956266526E+01  0.36260742601E+02  0.10566000000E+00 0. -1.
         22    1    1    0    0    0  0.20244969514E+02 -0.67063064723E+01  0.22164204742E+02  0.30758499784E+02  0.00000000000E+00 0.  1.
</event>
<event>
 5    1  0.1245581E-004  0.9118800E+02  0.7818608E-02  0.1130116E+00
         25   -1    0    0    0    0  0.00000000000E+00  0.00000000000E+00  0.99999998245E-14  0.12500000000E+03  0.12500000000E+03 0.  0.
        -13    1    3    3    0    0  0.30384170510E+02  0.33262689548E+02  0.32123063283E+02  0.55330883711E+02  0.10566000000E+00 0.  1.
         23    2    1    0    0    0  0.20212308806E+01  0.26870273096E+02  0.83716364629E+00  0.98040812447E+02  0.94261355346E+02 0.  0.
         13    1    3    3    0    0 -0.28362939630E+02 -0.63924164514E+01 -0.31285899636E+02  0.42709928736E+02  0.10566000000E+00 0. -1.
         22    1    1    0    0    0 -0.20212308806E+01 -0.26870273096E+02 -0.83716364629E+00  0.26959187553E+02  0.00000000000E+00 0.  1.
</event>
<event>
 5    1  0.1245581E-004  0.9118800E+02  0.7818608E-02  0.1130116E+00
         25   -1    0    0    0    0  0.00000000000E+00  0.00000000000E+00  0.99999998245E-14  0.12500000000E+03  0.12500000000E+03 0.  0.
        -13    1    3    3    0    0 -0.19877442088E+02  0.12210707834E+02 -0.37145016776E+02  0.43863168206E+02  0.10566000000E+00 0.  1.
         23    2    1    0    0    0 -0.14077879409E+02  0.26231962283E+02  0.10160810135E+02  0.93542972225E+02  0.88095079637E+02 0.  0.
         13    1    3    3    0    0  0.57995626793E+01  0.14021254449E+02  0.47305826911E+02  0.49679804019E+02  0.10566000000E+00 0. -1.
         22    1    1    0    0    0  0.14077879409E+02 -0.26231962283E+02 -0.10160810135E+02  0.31457027775E+02  0.00000000000E+00 0. -1.
</event>
<event>
 5    1  0.1245581E-004  0.9118800E+02  0.7818608E-02  0.1130116E+00
         25   -1    0    0    0    0  0.00000000000E+00  0.00000000000E+00  0.99999998245E-14  0.12500000000E+03  0.12500000000E+03 0.  0.
        -13    1    3    3    0    0 -0.17866032774E+02 -0.81372787923E+01  0.30060617014E+02  0.35903513651E+02  0.10566000000E+00 0.  1.
         23    2    1    0    0    0 -0.22506885795E+01 -0.50465276758E+01 -0.28181504082E+02  0.96281883541E+02  0.91899243115E+02 0.  0.
         13    1    3    3    0    0  0.15615344194E+02  0.30907511165E+01 -0.58242121095E+02  0.60378369889E+02  0.10566000000E+00 0. -1.
         22    1    1    0    0    0  0.22506885795E+01  0.50465276758E+01  0.28181504082E+02  0.28718116459E+02  0.00000000000E+00 0. -1.
</event>
<event>
 5    1  0.1245581E-004  0.9118800E+02  0.7818608E-02  0.1130116E+00
         25   -1    0    0    0    0  0.00000000000E+00  0.00000000000E+00  0.99999998245E-14  0.12500000000E+03  0.12500000000E+03 0.  0.
        -13    1    3    3    0    0  0.37085821951E+02  0.61055350499E+01 -0.41724432292E+02  0.56156701845E+02  0.10566000000E+00 0.  1.
         23    2    1    0    0    0  0.32290294818E+02 -0.35840328863E+01 -0.80433889117E+01  0.91530543232E+02  0.85191759039E+02 0.  0.
         13    1    3    3    0    0 -0.47955271339E+01 -0.96895679363E+01  0.33681043380E+02  0.35373841387E+02  0.10566000000E+00 0. -1.
         22    1    1    0    0    0 -0.32290294818E+02  0.35840328863E+01  0.80433889117E+01  0.33469456768E+02  0.00000000000E+00 0.  1.
</event>
<event>
 5    1  0.1245581E-004  0.9118800E+02  0.7818608E-02  0.1130116E+00
         25   -1    0    0    0    0  0.00000000000E+00  0.00000000000E+00  0.99999998245E-14  0.12500000000E+03  0.12500000000E+03 0.  0.
        -13    1    3    3    0    0  0.30552277995E+02  0.41129266456E+02  0.20076314726E+02  0.55028427443E+02  0.10566000000E+00 0.  1.
         23    2    1    0    0    0  0.21544943654E+02  0.16953400620E+02 -0.11036513366E+02  0.95446539680E+02  0.90755908457E+02 0.  0.
         13    1    3    3    0    0 -0.90073343407E+01 -0.24175865836E+02 -0.31112828092E+02  0.40418112237E+02  0.10566000000E+00 0. -1.
         22    1    1    0    0    0 -0.21544943654E+02 -0.16953400620E+02  0.11036513366E+02  0.29553460320E+02  0.00000000000E+00 0.  1.
</event>
<event>
 5    1  0.1245581E-004  0.9118800E+02  0.7818608E-02  0.1130116E+00
         25   -1    0    0    0    0  0.00000000000E+00  0.00000000000E+00  0.99999998245E-14  0.12500000000E+03  0.12500000000E+03 0.  0.
        -13    1    3    3    0    0 -0.94476726204E+01  0.23047440634E+02  0.37120009855E+02  0.44702900727E+02  0.10566000000E+00 0. -1.
         23    2    1    0    0    0 -0.36907785446E+00  0.25944123223E+02 -0.13179929565E+02  0.95897692675E+02  0.91375178078E+02 0.  0.
         13    1    3    3    0    0  0.90785947660E+01  0.28966825888E+01 -0.50299939420E+02  0.51194791949E+02  0.10566000000E+00 0.  1.
         22    1    1    0    0    0  0.36907785446E+00 -0.25944123223E+02  0.13179929565E+02  0.29102307325E+02  0.00000000000E+00 0. -1.
</event>
<event>
 5    1  0.1245581E-004  0.9118800E+02  0.7818608E-02  0.1130116E+00
         25   -1    0    0    0    0  0.00000000000E+00  0.00000000000E+00  0.99999998245E-14  0.12500000000E+03  0.12500000000E+03 0.  0.
        -13    1    3    3    0    0 -0.25246167026E+02 -0.16269230446E+02 -0.38158036777E+02  0.48560310373E+02  0.10566000000E+00 0.  1.
         23    2    1    0    0    0 -0.31400661807E+02 -0.20617569928E+02 -0.20272923070E-01  0.87435573176E+02  0.78955008036E+02 0.  0.
         13    1    3    3    0    0 -0.61544947810E+01 -0.43483394815E+01  0.38137763853E+02  0.38875262803E+02  0.10566000000E+00 0. -1.
         22    1    1    0    0    0  0.31400661807E+02  0.20617569928E+02  0.20272923070E-01  0.37564426824E+02  0.00000000000E+00 0.  1.
</event>
<event>
 5    1  0.1245581E-004  0.9118800E+02  0.7818608E-02  0.1130116E+00
         25   -1    0    0    0    0  0.00000000000E+00  0.00000000000E+00  0.99999998245E-14  0.12500000000E+03  0.12500000000E+03 0.  0.
        -13    1    3    3    0    0 -0.28585599123E+02  0.39438838287E+02 -0.94383729249E+01  0.49615042983E+02  0.10566000000E+00 0. -1.
         23    2    1    0    0    0 -0.18431033836E+02 -0.27827467274E+01 -0.23265042834E+02  0.95188778864E+02  0.90400192013E+02 0.  0.
         13    1    3    3    0    0  0.10154565288E+02 -0.42221585015E+02 -0.13826669909E+02  0.45573735881E+02  0.10566000000E+00 0.  1.
         22    1    1    0    0    0  0.18431033836E+02  0.27827467274E+01  0.23265042834E+02  0.29811221136E+02  0.00000000000E+00 0.  1.
</event>
<event>
 5    1  0.1245581E-004  0.9118800E+02  0.7818608E-02  0.1130116E+00
         25   -1    0    0    0    0  0.00000000000E+00  0.00000000000E+00  0.99999998245E-14  0.12500000000E+03  0.12500000000E+03 0.  0.
        -13    1    3    3    0    0  0.22046458473E+02 -0.39974082790E+02  0.49675291030E+01  0.45920160447E+02  0.10566000000E+00 0. -1.
         23    2    1    0    0    0  0.43377568537E+02 -0.14635207999E+02  0.37915717436E+01  0.79063317690E+02  0.64349276783E+02 0.  0.
         13    1    3    3    0    0  0.21331110065E+02  0.25338874791E+02 -0.11759573594E+01  0.33143157243E+02  0.10566000000E+00 0.  1.
         22    1    1    0    0    0 -0.43377568537E+02  0.14635207999E+02 -0.37915717436E+01  0.45936682310E+02  0.00000000000E+00 0.  1.
</event>
<event>
 5    1  0.1245581E-004  0.9118800E+02  0.7818608E-02  0.1130116E+00
         25   -1    0    0    0    0  0.00000000000E+00  0.00000000000E+00  0.99999998245E-14  0.12500000000E+03  0.12500000000E+03 0.  0.
        -13    1    3    3    0    0 -0.12644386404E+01  0.52178048571E+02 -0.12168511452E+02  0.53593202860E+02  0.10566000000E+00 0. -1.
         23    2    1    0    0    0  0.91288979470E+01  0.16471906417E+02 -0.25675495149E+02  0.93158336572E+02  0.87547610721E+02 0.  0.
         13    1    3    3    0    0  0.10393336587E+02 -0.35706142155E+02 -0.13506983697E+02  0.39565133712E+02  0.10566000000E+00 0.  1.
         22    1    1    0    0    0 -0.91288979470E+01 -0.16471906417E+02  0.25675495149E+02  0.31841663428E+02  0.00000000000E+00 0. -1.
</event>
<event>
 5    1  0.1245581E-004  0.9118800E+02  0.7818608E-02  0.1130116E+00
         25   -1    0    0    0    0  0.00000000000E+00  0.00000000000E+00  0.99999998245E-14  0.12500000000E+03  0.12500000000E+03 0.  0.
        -13    1    3    3    0    0 -0.44394479967E+01  0.27423030976E+02 -0.28199838571E+02  0.39585014663E+02  0.10566000000E+00 0. -1.
         23    2    1    0    0    0 -0.20154428306E+02 -0.40924019622E+01  0.17995287193E+02  0.97672740801E+02  0.93771985157E+02 0.  0.
         13    1    3    3    0    0 -0.15714980309E+02 -0.31515432938E+02  0.46195125765E+02  0.58087726138E+02  0.10566000000E+00 0.  1.
         22    1    1    0    0    0  0.20154428306E+02  0.40924019622E+01 -0.17995287193E+02  0.27327259199E+02  0.00000000000E+00 0.  1.
</event>
<event>
 5    1  0.1245581E-004  0.9118800E+02  0.7818608E-02  0.1130116E+00
         25   -1    0    0    0    0  0.00000000000E+00  0.00000000000E+00  0.99999998245E-14  0.12500000000E+03  0.12500000000E+03 0.  0.
        -13    1    3    3    0    0 -0.20123918881E+02 -0.69891258146E+01  0.50078676350E+02  0.54421548855E+02  0.10566000000E+00 0.  1.
         23    2    1    0    0    0  0.10821153701E+02 -0.39758990608E+01  0.33319754547E+02  0.89742218110E+02  0.82526083922E+02 0.  0.
         13    1    3    3    0    0  0.30945072582E+02  0.30132267538E+01 -0.16758921803E+02  0.35320669255E+02  0.10566000000E+00 0. -1.
         22    1    1    0    0    0 -0.10821153701E+02  0.39758990608E+01 -0.33319754547E+02  0.35257781890E+02  0.00000000000E+00 0.  1.
</event>
<event>
 5    1  0.1245581E-004  0.9118800E+02  0.7818608E-02  0.1130116E+00
         25   -1    0    0    0    0  0.00000000000E+00  0.00000000000E+00  0.99999998245E-14  0.12500000000E+03  0.12500000000E+03 0.  0.
        -13    1    3    3    0    0 -0.22304599240E+02  0.31791493805E+02 -0.11377234772E+02  0.40467849717E+02  0.10566000000E+00 0.  1.
         23    2    1    0    0    0 -0.65021464750E+01 -0.20550072779E+02 -0.19732257517E+02  0.95777656036E+02  0.91210821776E+02 0.  0.
         13    1    3    3    0    0  0.15802452765E+02 -0.52341566585E+02 -0.83550227445E+01  0.55309806319E+02  0.10566000000E+00 0. -1.
         22    1    1    0    0    0  0.65021464750E+01  0.20550072779E+02  0.19732257517E+02  0.29222343964E+02  0.00000000000E+00 0. -1.
</event>
<event>
 5    1  0.1245581E-004  0.9118800E+02  0.7818608E-02  0.1130116E+00
         25   -1    0    0    0    0  0.00000000000E+00  0.00000000000E+00  0.99999998245E-14  0.12500000000E+03  0.12500000000E+03 0.  0.
        -13    1    3    3    0    0  0.17734517264E+01  0.25458814210E+02 -0.23242469316E+02  0.34518399383E+02  0.10566000000E+00 0.  1.
         23    2    1    0    0    0  0.36606236385E+02  0.26924538471E+02  0.48612962737E+01  0.79299020627E+02  0.64805517950E+02 0.  0.
         13    1    3    3    0    0  0.34832784659E+02  0.14657242604E+01  0.28103765589E+02  0.44780621244E+02  0.10566000000E+00 0. -1.
         22    1    1    0    0    0 -0.36606236385E+02 -0.26924538471E+02 -0.48612962737E+01  0.45700979373E+02  0.00000000000E+00 0.  1.
</event>
<event>
 5    1  0.1245581E-004  0.9118800E+02  0.7818608E-02  0.1130116E+00
         25   -1    0    0    0    0  0.00000000000E+00  0.00000000000E+00  0.99999998245E-14  0.12500000000E+03  0.12500000000E+03 0.  0.
        -13    1    3    3    0    0  0.53567023556E+02  0.92398333947E+01 -0.15051477469E+02  0.56403534214E+02  0.10566000000E+00 0.  1.
         23    2    1    0    0    0  0.24750674317E+02  0.13492459508E+02  0.10268491053E+02  0.94998595846E+02  0.90136834654E+02 0.  0.
         13    1    3    3    0    0 -0.28816349239E+02  0.42526261129E+01  0.25319968522E+02  0.38595061632E+02  0.10566000000E+00 0. -1.
         22    1    1    0    0    0 -0.24750674317E+02 -0.13492459508E+02 -0.10268491053E+02  0.30001404154E+02  0.00000000000E+00 0.  1.
</event>
<event>
 5    1  0.1245581E-004  0.9118800E+02  0.7818608E-02  0.1130116E+00
         25   -1    0    0    0    0  0.00000000000E+00  0.00000000000E+00  0.99999998245E-14  0.12500000000E+03  0.12500000000E+03 0.  0.
        -13    1    3    3    0    0 -0.32189697588E+02  0.65091540267E+01  0.14035945839E+02  0.35715048041E+02  0.10566000000E+00 0.  1.
         23    2    1    0    0    0  0.24474426268E+02 -0.12393265956E+02  0.10738148284E+02  0.95539884407E+02  0.90884383157E+02 0.  0.
         13    1    3    3    0    0  0.56664123855E+02 -0.18902419982E+02 -0.32977975557E+01  0.59824836366E+02  0.10566000000E+00 0. -1.
         22    1    1    0    0    0 -0.24474426268E+02  0.12393265956E+02 -0.10738148284E+02  0.29460115593E+02  0.00000000000E+00 0. -1.
</event>
<event>
 5    1  0.1245581E-004  0.9118800E+02  0.7818608E-02  0.1130116E+00
         25   -1    0    0    0    0  0.00000000000E+00  0.00000000000E+00  0.99999998245E-14  0.12500000000E+03  0.12500000000E+03 0.  0.
        -13    1    3    3    0    0  0.29585365418E+01  0.43940031241E+02 -0.83763153845E+01  0.44829154658E+02  0.10566000000E+00 0. -1.
         23    2    1    0    0    0  0.29599765718E+02  0.15273859627E+01 -0.36276907781E+01  0.95139672159E+02  0.90332264666E+02 0.  0.
         13    1    3    3    0    0  0.26641229176E+02 -0.42412645278E+02  0.47486246064E+01  0.50310517500E+02  0.10566000000E+00 0.  1.
         22    1    1    0    0    0 -0.29599765718E+02 -0.15273859627E+01  0.36276907781E+01  0.29860327841E+02  0.00000000000E+00 0.  1.
</event>
<event>
 5    1  0.1245581E-004  0.9118800E+02  0.7818608E-02  0.1130116E+00
         25   -1    0    0    0    0  0.00000000000E+00  0.00000000000E+00  0.99999998245E-14  0.12500000000E+03  0.12500000000E+03 0.  0.
        -13    1    3    3    0    0 -0.71539456543E+01  0.53480540409E+02 -0.20265220827E+02  0.57637118943E+02  0.10566000000E+00 0. -1.
         23    2    1    0    0    0  0.75376642954E+01  0.31191252971E+02  0.26261611439E+01  0.92803612512E+02  0.87039664108E+02 0.  0.
         13    1    3    3    0    0  0.14691609950E+02 -0.22289287438E+02  0.22891381971E+02  0.35166493570E+02  0.10566000000E+00 0.  1.
         22    1    1    0    0    0 -0.75376642954E+01 -0.31191252971E+02 -0.26261611439E+01  0.32196387488E+02  0.00000000000E+00 0. -1.
</event>
<event>
 5    1  0.1245581E-004  0.9118800E+02  0.7818608E-02  0.1130116E+00
         25   -1    0    0    0    0  0.00000000000E+00  0.00000000000E+00  0.99999998245E-14  0.12500000000E+03  0.12500000000E+03 0.  0.
        -13    1    3    3    0    0 -0.41577871809E+02 -0.90228135513E+01  0.42597599774E+02  0.60205458715E+02  0.10566000000E+00 0. -1.
         23    2    1    0    0    0 -0.21300133547E+02  0.68332407469E+01  0.25353823946E+02  0.91188681527E+02  0.84688667375E+02 0.  0.
         13    1    3    3    0    0  0.20277738262E+02  0.15856054298E+02 -0.17243775828E+02  0.30983222812E+02  0.10566000000E+00 0.  1.
         22    1    1    0    0    0  0.21300133547E+02 -0.68332407469E+01 -0.25353823946E+02  0.33811318473E+02  0.00000000000E+00 0. -1.
</event>
<event>
 5    1  0.1245581E-004  0.9118800E+02  0.7818608E-02  0.1130116E+00
         25   -1    0    0    0    0  0.00000000000E+00  0.00000000000E+00  0.99999998245E-14  0.12500000000E+03  0.12500000000E+03 0.  0.
        -13    1    3    3    0    0  0.37652151788E+02 -0.47744506685E+02 -0.10631971242E+02  0.61727404201E+02  0.10566000000E+00 0.  1.
         23    2    1    0    0    0  0.11664226675E+02 -0.22742678483E+02  0.39435465053E+00  0.99437544638E+02  0.96095713534E+02 0.  0.
         13    1    3    3    0    0 -0.25987925112E+02  0.25001828202E+02  0.11026325893E+02  0.37710140438E+02  0.10566000000E+00 0. -1.
         22    1    1    0    0    0 -0.11664226675E+02  0.22742678483E+02 -0.39435465053E+00  0.25562455362E+02  0.00000000000E+00 0.  1.
</event>
<event>
 5    1  0.1245581E-004  0.9118800E+02  0.7818608E-02  0.1130116E+00
         25   -1    0    0    0    0  0.00000000000E+00  0.00000000000E+00  0.99999998245E-14  0.12500000000E+03  0.12500000000E+03 0.  0.
        -13    1    3    3    0    0  0.27822827979E+01  0.28700945808E+02  0.11653893063E+02  0.31101604064E+02  0.10566000000E+00 0.  1.
         23    2    1    0    0    0 -0.25532733958E+02 -0.17001428212E+02 -0.14709252198E+02  0.90980429679E+02  0.84380728959E+02 0.  0.
         13    1    3    3    0    0 -0.28315016756E+02 -0.45702374019E+02 -0.26363145261E+02  0.59878825614E+02  0.10566000000E+00 0. -1.
         22    1    1    0    0    0  0.25532733958E+02  0.17001428212E+02  0.14709252198E+02  0.34019570321E+02  0.00000000000E+00 0. -1.
</event>
<event>
 5    1  0.1245581E-004  0.9118800E+02  0.7818608E-02  0.1130116E+00
         25   -1    0    0    0    0  0.00000000000E+00  0.00000000000E+00  0.99999998245E-14  0.12500000000E+03  0.12500000000E+03 0.  0.
        -13    1    3    3    0    0 -0.11347351635E+02 -0.18071803198E+02 -0.52571979488E+02  0.56737788565E+02  0.10566000000E+00 0. -1.
         23    2    1    0    0    0  0.11018163246E+02  0.69521557496E+00 -0.28013924366E+02  0.94889151384E+02  0.89984931216E+02 0.  0.
         13    1    3    3    0    0  0.22365514881E+02  0.18767018773E+02  0.24558055122E+02  0.38151362819E+02  0.10566000000E+00 0.  1.
         22    1    1    0    0    0 -0.11018163246E+02 -0.69521557496E+00  0.28013924366E+02  0.30110848616E+02  0.00000000000E+00 0. -1.
</event>
<event>
 5    1  0.1245581E-004  0.9118800E+02  0.7818608E-02  0.1130116E+00
         25   -1    0    0    0    0  0.00000000000E+00  0.00000000000E+00  0.99999998245E-14  0.12500000000E+03  0.12500000000E+03 0.  0.
        -13    1    3    3    0    0 -0.11941771795E+02 -0.31279218357E+02 -0.48713946904E+02  0.59110533762E+02  0.10566000000E+00 0.  1.
         23    2    1    0    0    0 -0.19462122141E+02 -0.12496478049E+02 -0.18953129560E+02  0.95097537192E+02  0.90273940304E+02 0.  0.
         13    1    3    3    0    0 -0.75203503464E+01  0.18782740308E+02  0.29760817344E+02  0.35987003429E+02  0.10566000000E+00 0. -1.
         22    1    1    0    0    0  0.19462122141E+02  0.12496478049E+02  0.18953129560E+02  0.29902462808E+02  0.00000000000E+00 0.  1.
</event>
<event>
 5    1  0.1245581E-004  0.9118800E+02  0.7818608E-02  0.1130116E+00
         25   -1    0    0    0    0  0.00000000000E+00  0.00000000000E+00  0.99999998245E-14  0.12500000000E+03  0.12500000000E+03 0.  0.
        -13    1    3    3    0    0  0.33685111564E+02  0.86346569314E+01 -0.41287008842E+02  0.53980295521E+02  0.10566000000E+00 0.  1.
         23    2    1    0    0    0  0.24136085886E+02  0.16829198362E+02 -0.16913307478E+01  0.95527416823E+02  0.90867233950E+02 0.  0.
         13    1    3    3    0    0 -0.95490256774E+01  0.81945414305E+01  0.39595678095E+02  0.41547121302E+02  0.10566000000E+00 0. -1.
         22    1    1    0    0    0 -0.24136085886E+02 -0.16829198362E+02  0.16913307478E+01  0.29472583177E+02  0.00000000000E+00 0. -1.
</event>
<event>
 5    1  0.1245581E-004  0.9118800E+02  0.7818608E-02  0.1130116E+00
         25   -1    0    0    0    0  0.00000000000E+00  0.00000000000E+00  0.99999998245E-14  0.12500000000E+03  0.12500000000E+03 0.  0.
        -13    1    3    3    0    0 -0.22419108464E+02  0.16144141667E+02 -0.20389856004E+02  0.34336673199E+02  0.10566000000E+00 0. -1.
         23    2    1    0    0    0 -0.97315808015E+01 -0.16274728673E+02  0.26300043749E+02  0.92576817561E+02  0.86713346091E+02 0.  0.
         13    1    3    3    0    0  0.12687527663E+02 -0.32418870340E+02  0.46689899753E+02  0.58240144362E+02  0.10566000000E+00 0.  1.
         22    1    1    0    0    0  0.97315808015E+01  0.16274728673E+02 -0.26300043749E+02  0.32423182439E+02  0.00000000000E+00 0.  1.
</event>
<event>
 5    1  0.1245581E-004  0.9118800E+02  0.7818608E-02  0.1130116E+00
         25   -1    0    0    0    0  0.00000000000E+00  0.00000000000E+00  0.99999998245E-14  0.12500000000E+03  0.12500000000E+03 0.  0.
        -13    1    3    3    0    0 -0.48315291428E+02  0.14555705322E+02  0.89563410252E+01  0.51249030740E+02  0.10566000000E+00 0. -1.
         23    2    1    0    0    0 -0.51292717068E+01  0.27522871108E+02  0.14038215096E+01  0.96968079319E+02  0.92827904370E+02 0.  0.
         13    1    3    3    0    0  0.43186019721E+02  0.12967165785E+02 -0.75525195157E+01  0.45719048579E+02  0.10566000000E+00 0.  1.
         22    1    1    0    0    0  0.51292717068E+01 -0.27522871108E+02 -0.14038215096E+01  0.28031920681E+02  0.00000000000E+00 0. -1.
</event>
<event>
 5    1  0.1245581E-004  0.9118800E+02  0.7818608E-02  0.1130116E+00
         25   -1    0    0    0    0  0.00000000000E+00  0.00000000000E+00  0.99999998245E-14  0.12500000000E+03  0.12500000000E+03 0.  0.
        -13    1    3    3    0    0  0.93802854098E+01 -0.41299354344E+02  0.41648387811E+02  0.59398870317E+02  0.10566000000E+00 0.  1.
         23    2    1    0    0    0 -0.10545416452E+01 -0.27163868840E+02  0.91959581103E+01  0.96302378600E+02  0.91927115968E+02 0.  0.
         13    1    3    3    0    0 -0.10434827055E+02  0.14135485504E+02 -0.32452429701E+02  0.36903508284E+02  0.10566000000E+00 0. -1.
         22    1    1    0    0    0  0.10545416452E+01  0.27163868840E+02 -0.91959581103E+01  0.28697621400E+02  0.00000000000E+00 0.  1.
</event>
<event>
 5    1  0.1245581E-004  0.9118800E+02  0.7818608E-02  0.1130116E+00
         25   -1    0    0    0    0  0.00000000000E+00  0.00000000000E+00  0.99999998245E-14  0.12500000000E+03  0.12500000000E+03 0.  0.
        -13    1    3    3    0    0 -0.23514063797E+02  0.30798327885E+02  0.15096085232E+02  0.41585468016E+02  0.10566000000E+00 0. -1.
         23    2    1    0    0    0  0.19947818582E+02 -0.17411223160E+01  0.20739954183E+02  0.96171322045E+02  0.91748735748E+02 0.  0.
         13    1    3    3    0    0  0.43461882379E+02 -0.32539450201E+02  0.56438689508E+01  0.54585854029E+02  0.10566000000E+00 0.  1.
         22    1    1    0    0    0 -0.19947818582E+02  0.17411223160E+01 -0.20739954183E+02  0.28828677955E+02  0.00000000000E+00 0. -1.
</event>
<event>
 5    1  0.1245581E-004  0.9118800E+02  0.7818608E-02  0.1130116E+00
         25   -1    0    0    0    0  0.00000000000E+00  0.00000000000E+00  0.99999998245E-14  0.12500000000E+03  0.12500000000E+03 0.  0.
        -13    1    3    3    0    0  0.30993524413E+02 -0.17587319647E+02  0.22656852084E+00  0.35636706712E+02  0.10566000000E+00 0.  1.
         23    2    1    0    0    0 -0.90321017787E+01  0.27263837503E+02 -0.44673444846E+01  0.95933647207E+02  0.91424350158E+02 0.  0.
         13    1    3    3    0    0 -0.40025626192E+02  0.44851157150E+02 -0.46939130055E+01  0.60296940495E+02  0.10566000000E+00 0. -1.
         22    1    1    0    0    0  0.90321017787E+01 -0.27263837503E+02  0.44673444846E+01  0.29066352793E+02  0.00000000000E+00 0. -1.
</event>
<event>
 5    1  0.1245581E-004  0.9118800E+02  0.7818608E-02  0.1130116E+00
         25   -1    0    0    0    0  0.00000000000E+00  0.00000000000E+00  0.99999998245E-14  0.12500000000E+03  0.12500000000E+03 0.  0.
        -13    1    3    3    0    0  0.32428234931E+02 -0.65691921787E+01  0.24213289676E+02  0.41000478870E+02  0.10566000000E+00 0. -1.
         23    2    1    0    0    0  0.12963509001E+02  0.26750353415E+00 -0.26362003405E+02  0.95621787881E+02  0.90996961324E+02 0.  0.
         13    1    3    3    0    0 -0.19464725930E+02  0.68366957128E+01 -0.50575293081E+02  0.54621309011E+02  0.10566000000E+00 0.  1.
         22    1    1    0    0    0 -0.12963509001E+02 -0.26750353415E+00  0.26362003405E+02  0.29378212119E+02  0.00000000000E+00 0.  1.
</event>
<event>
 5    1  0.1245581E-004  0.9118800E+02  0.7818608E-02  0.1130116E+00
         25   -1    0    0    0    0  0.00000000000E+00  0.00000000000E+00  0.99999998245E-14  0.12500000000E+03  0.12500000000E+03 0.  0.
        -13    1    3    3    0    0  0.25509520702E+02 -0.29666936349E+02 -0.27657893701E+02  0.47914851630E+02  0.10566000000E+00 0.  1.
         23    2    1    0    0    0  0.18355781130E+00 -0.27278282739E+02  0.12134760135E+02  0.95143831354E+02  0.90338019895E+02 0.  0.
         13    1    3    3    0    0 -0.25325962891E+02  0.23886536094E+01  0.39792653836E+02  0.47228979724E+02  0.10566000000E+00 0. -1.
         22    1    1    0    0    0 -0.18355781130E+00  0.27278282739E+02 -0.12134760135E+02  0.29856168646E+02  0.00000000000E+00 0.  1.
</event>
<event>
 5    1  0.1245581E-004  0.9118800E+02  0.7818608E-02  0.1130116E+00
         25   -1    0    0    0    0  0.00000000000E+00  0.00000000000E+00  0.99999998245E-14  0.12500000000E+03  0.12500000000E+03 0.  0.
        -13    1    3    3    0    0 -0.15401081461E+02  0.42857293542E+02  0.13560100981E+02  0.47516612069E+02  0.10566000000E+00 0. -1.
         23    2    1    0    0    0 -0.33910822365E+01  0.23416600918E+02 -0.23882348734E+02  0.91381504817E+02  0.84972796849E+02 0.  0.
         13    1    3    3    0    0  0.12009999224E+02 -0.19440692624E+02 -0.37442449715E+02  0.43864892748E+02  0.10566000000E+00 0.  1.
         22    1    1    0    0    0  0.33910822365E+01 -0.23416600918E+02  0.23882348734E+02  0.33618495183E+02  0.00000000000E+00 0. -1.
</event>
<event>
 5    1  0.1245581E-004  0.9118800E+02  0.7818608E-02  0.1130116E+00
         25   -1    0    0    0    0  0.00000000000E+00  0.00000000000E+00  0.99999998245E-14  0.12500000000E+03  0.12500000000E+03 0.  0.
        -13    1    3    3    0    0  0.26553069582E+02 -0.32420308832E+02  0.34396124401E+02  0.54214817779E+02  0.10566000000E+00 0.  1.
         23    2    1    0    0    0  0.18769078768E+02  0.67022757424E+01  0.20379124482E+02  0.96495482243E+02  0.92189319125E+02 0.  0.
         13    1    3    3    0    0 -0.77839908140E+01  0.39122584574E+02 -0.14016999919E+02  0.42280664464E+02  0.10566000000E+00 0. -1.
         22    1    1    0    0    0 -0.18769078768E+02 -0.67022757424E+01 -0.20379124482E+02  0.28504517757E+02  0.00000000000E+00 0.  1.
</event>
<event>
 5    1  0.1245581E-004  0.9118800E+02  0.7818608E-02  0.1130116E+00
         25   -1    0    0    0    0  0.00000000000E+00  0.00000000000E+00  0.99999998245E-14  0.12500000000E+03  0.12500000000E+03 0.  0.
        -13    1    3    3    0    0  0.35386749966E+02 -0.17089551427E+02 -0.24440952356E+01  0.39373336241E+02  0.10566000000E+00 0.  1.
         23    2    1    0    0    0 -0.20456758230E+01 -0.40320254197E+02 -0.82017131566E+01  0.83803206596E+02  0.72978090199E+02 0.  0.
         13    1    3    3    0    0 -0.37432425789E+02 -0.23230702769E+02 -0.57576179210E+01  0.44429870355E+02  0.10566000000E+00 0. -1.
         22    1    1    0    0    0  0.20456758230E+01  0.40320254197E+02  0.82017131566E+01  0.41196793404E+02  0.00000000000E+00 0.  1.
</event>
<event>
 5    1  0.1245581E-004  0.9118800E+02  0.7818608E-02  0.1130116E+00
         25   -1    0    0    0    0  0.00000000000E+00  0.00000000000E+00  0.99999998245E-14  0.12500000000E+03  0.12500000000E+03 0.  0.
        -13    1    3    3    0    0  0.47347201582E+02 -0.22640512121E+02 -0.19531402879E+02  0.55998545956E+02  0.10566000000E+00 0. -1.
         23    2    1    0    0    0  0.22964211247E+02  0.10321973973E+02 -0.72175103017E+01  0.98808577743E+02  0.95274049120E+02 0.  0.
         13    1    3    3    0    0 -0.24382990334E+02  0.32962486094E+02  0.12313892578E+02  0.42810031787E+02  0.10566000000E+00 0.  1.
         22    1    1    0    0    0 -0.22964211247E+02 -0.10321973973E+02  0.72175103017E+01  0.26191422257E+02  0.00000000000E+00 0. -1.
</event>
<event>
 5    1  0.1245581E-004  0.9118800E+02  0.7818608E-02  0.1130116E+00
         25   -1    0    0    0    0  0.00000000000E+00  0.00000000000E+00  0.99999998245E-14  0.12500000000E+03  0.12500000000E+03 0.  0.
        -13    1    3    3    0    0 -0.26020143229E+02 -0.27531187593E+02 -0.49173061099E+02  0.62072661018E+02  0.10566000000E+00 0.  1.
         23    2    1    0    0    0 -0.16529359974E+02 -0.10116990771E+02 -0.22653748319E+02  0.95187828722E+02  0.90398878203E+02 0.  0.
         13    1    3    3    0    0  0.94907832551E+01  0.17414196822E+02  0.26519312780E+02  0.33115167704E+02  0.10566000000E+00 0. -1.
         22    1    1    0    0    0  0.16529359974E+02  0.10116990771E+02  0.22653748319E+02  0.29812171278E+02  0.00000000000E+00 0.  1.
</event>
<event>
 5    1  0.1245581E-004  0.9118800E+02  0.7818608E-02  0.1130116E+00
         25   -1    0    0    0    0  0.00000000000E+00  0.00000000000E+00  0.99999998245E-14  0.12500000000E+03  0.12500000000E+03 0.  0.
        -13    1    3    3    0    0 -0.20824945721E+02  0.12496822948E+02  0.33275543499E+02  0.41196139470E+02  0.10566000000E+00 0.  1.
         23    2    1    0    0    0  0.18298566934E+02 -0.18966779679E+02  0.76855124746E+01  0.97547433905E+02  0.93604799430E+02 0.  0.
         13    1    3    3    0    0  0.39123512654E+02 -0.31463602627E+02 -0.25590031024E+02  0.56351294435E+02  0.10566000000E+00 0. -1.
         22    1    1    0    0    0 -0.18298566934E+02  0.18966779679E+02 -0.76855124746E+01  0.27452566095E+02  0.00000000000E+00 0. -1.
</event>
<event>
 5    1  0.1245581E-004  0.9118800E+02  0.7818608E-02  0.1130116E+00
         25   -1    0    0    0    0  0.00000000000E+00  0.00000000000E+00  0.99999998245E-14  0.12500000000E+03  0.12500000000E+03 0.  0.
        -13    1    3    3    0    0 -0.32758549251E+02  0.71810707185E+01  0.33539618497E+02  0.47430027394E+02  0.10566000000E+00 0.  1.
         23    2    1    0    0    0 -0.61434147311E+01  0.29291327946E+02  0.80706438591E+00  0.95060481127E+02  0.90222615135E+02 0.  0.
         13    1    3    3    0    0  0.26615134520E+02  0.22110257228E+02 -0.32732554111E+02  0.47630453733E+02  0.10566000000E+00 0. -1.
         22    1    1    0    0    0  0.61434147311E+01 -0.29291327946E+02 -0.80706438591E+00  0.29939518873E+02  0.00000000000E+00 0.  1.
</event>
<event>
 5    1  0.1245581E-004  0.9118800E+02  0.7818608E-02  0.1130116E+00
         25   -1    0    0    0    0  0.00000000000E+00  0.00000000000E+00  0.99999998245E-14  0.12500000000E+03  0.12500000000E+03 0.  0.
        -13    1    3    3    0    0  0.28054152767E+02 -0.39415654245E+02  0.64578741008E+01  0.48809267450E+02  0.10566000000E+00 0. -1.
         23    2    1    0    0    0  0.22187070447E+02 -0.46305208871E+00 -0.19061853093E+02  0.95745346428E+02  0.91166532275E+02 0.  0.
         13    1    3    3    0    0 -0.58670823208E+01  0.38952602157E+02 -0.25519727194E+02  0.46936078978E+02  0.10566000000E+00 0.  1.
         22    1    1    0    0    0 -0.22187070447E+02  0.46305208871E+00  0.19061853093E+02  0.29254653572E+02  0.00000000000E+00 0. -1.
</event>
<event>
 5    1  0.1245581E-004  0.9118800E+02  0.7818608E-02  0.1130116E+00
         25   -1    0    0    0    0  0.00000000000E+00  0.00000000000E+00  0.99999998245E-14  0.12500000000E+03  0.12500000000E+03 0.  0.
        -13    1    3    3    0    0  0.11741736126E+02  0.33677635043E+02 -0.84325318000E+00  0.35675954217E+02  0.10566000000E+00 0.  1.
         23    2    1    0    0    0  0.13202183297E+01 -0.22276943134E+02  0.18731177892E+02  0.95864760220E+02  0.91330115816E+02 0.  0.
         13    1    3    3    0    0 -0.10421517796E+02 -0.55954578177E+02  0.19574431072E+02  0.60188806002E+02  0.10566000000E+00 0. -1.
         22    1    1    0    0    0 -0.13202183297E+01  0.22276943134E+02 -0.18731177892E+02  0.29135239780E+02  0.00000000000E+00 0. -1.
</event>
<event>
 5    1  0.1245581E-004  0.9118800E+02  0.7818608E-02  0.1130116E+00
         25   -1    0    0    0    0  0.00000000000E+00  0.00000000000E+00  0.99999998245E-14  0.12500000000E+03  0.12500000000E+03 0.  0.
        -13    1    3    3    0    0  0.24662069721E+02 -0.14778336687E+02  0.25112761327E+02  0.38174322045E+02  0.10566000000E+00 0.  1.
         23    2    1    0    0    0 -0.10778685137E+02  0.26525732897E+02  0.10198307606E+02  0.94605921020E+02  0.89590625933E+02 0.  0.
         13    1    3    3    0    0 -0.35440754858E+02  0.41304069583E+02 -0.14914453721E+02  0.56431598975E+02  0.10566000000E+00 0. -1.
         22    1    1    0    0    0  0.10778685137E+02 -0.26525732897E+02 -0.10198307606E+02  0.30394078980E+02  0.00000000000E+00 0. -1.
</event>
<event>
 5    1  0.1245581E-004  0.9118800E+02  0.7818608E-02  0.1130116E+00
         25   -1    0    0    0    0  0.00000000000E+00  0.00000000000E+00  0.99999998245E-14  0.12500000000E+03  0.12500000000E+03 0.  0.
        -13    1    3    3    0    0  0.13165558420E+02 -0.52184769486E+02 -0.21221419516E+02  0.57852760566E+02  0.10566000000E+00 0.  1.
         23    2    1    0    0    0  0.10409769700E+01 -0.29085211729E+02  0.57024511479E+01  0.95342772829E+02  0.90612875504E+02 0.  0.
         13    1    3    3    0    0 -0.12124581450E+02  0.23099557756E+02  0.26923870664E+02  0.37490012263E+02  0.10566000000E+00 0. -1.
         22    1    1    0    0    0 -0.10409769700E+01  0.29085211729E+02 -0.57024511479E+01  0.29657227171E+02  0.00000000000E+00 0.  1.
</event>
<event>
 5    1  0.1245581E-004  0.9118800E+02  0.7818608E-02  0.1130116E+00
         25   -1    0    0    0    0  0.00000000000E+00  0.00000000000E+00  0.99999998245E-14  0.12500000000E+03  0.12500000000E+03 0.  0.
        -13    1    3    3    0    0 -0.10296640974E+02 -0.33137440187E+02 -0.15025736773E+02  0.37813948314E+02  0.10566000000E+00 0.  1.
         23    2    1    0    0    0 -0.15054771313E+02  0.82737058761E+01  0.24380187770E+02  0.95175615616E+02  0.90381988825E+02 0.  0.
         13    1    3    3    0    0 -0.47581303383E+01  0.41411146063E+02  0.39405924543E+02  0.57361667302E+02  0.10566000000E+00 0. -1.
         22    1    1    0    0    0  0.15054771313E+02 -0.82737058761E+01 -0.24380187770E+02  0.29824384384E+02  0.00000000000E+00 0. -1.
</event>
<event>
 5    1  0.1245581E-004  0.9118800E+02  0.7818608E-02  0.1130116E+00
         25   -1    0    0    0    0  0.00000000000E+00  0.00000000000E+00  0.99999998245E-14  0.12500000000E+03  0.12500000000E+03 0.  0.
        -13    1    3    3    0    0 -0.35868043902E+02 -0.34446886101E+02  0.14128081031E+01  0.49750494733E+02  0.10566000000E+00 0. -1.
         23    2    1    0    0    0  0.57989756844E+01 -0.26528987095E+02 -0.13455346317E+02  0.94693868280E+02  0.89713249134E+02 0.  0.
         13    1    3    3    0    0  0.41667019587E+02  0.79178990061E+01 -0.14868154420E+02  0.44943373547E+02  0.10566000000E+00 0.  1.
         22    1    1    0    0    0 -0.57989756844E+01  0.26528987095E+02  0.13455346317E+02  0.30306131720E+02  0.00000000000E+00 0.  1.
</event>
<event>
 5    1  0.1245581E-004  0.9118800E+02  0.7818608E-02  0.1130116E+00
         25   -1    0    0    0    0  0.00000000000E+00  0.00000000000E+00  0.99999998245E-14  0.12500000000E+03  0.12500000000E+03 0.  0.
        -13    1    3    3    0    0  0.64001051810E+01  0.18518842936E+02  0.33040106550E+02  0.38413131803E+02  0.10566000000E+00 0. -1.
         23    2    1    0    0    0 -0.15167360796E+02 -0.25089511361E+02  0.31463044207E+01  0.95513873680E+02  0.90848601640E+02 0.  0.
         13    1    3    3    0    0 -0.21567465977E+02 -0.43608354297E+02 -0.29893802129E+02  0.57100741877E+02  0.10566000000E+00 0.  1.
         22    1    1    0    0    0  0.15167360796E+02  0.25089511361E+02 -0.31463044207E+01  0.29486126320E+02  0.00000000000E+00 0.  1.
</event>
<event>
 5    1  0.1245581E-004  0.9118800E+02  0.7818608E-02  0.1130116E+00
         25   -1    0    0    0    0  0.00000000000E+00  0.00000000000E+00  0.99999998245E-14  0.12500000000E+03  0.12500000000E+03 0.  0.
        -13    1    3    3    0    0 -0.35901468644E+02 -0.17565620300E+02  0.32236224449E+02  0.51348337831E+02  0.10566000000E+00 0.  1.
         23    2    1    0    0    0  0.14530514437E+01  0.61009427421E+01  0.28602309936E+02  0.95718179796E+02  0.91129276025E+02 0.  0.
         13    1    3    3    0    0  0.37354520088E+02  0.23666563042E+02 -0.36339145132E+01  0.44369841964E+02  0.10566000000E+00 0. -1.
         22    1    1    0    0    0 -0.14530514437E+01 -0.61009427421E+01 -0.28602309936E+02  0.29281820204E+02  0.00000000000E+00 0. -1.
</event>
<event>
 5    1  0.1245581E-004  0.9118800E+02  0.7818608E-02  0.1130116E+00
         25   -1    0    0    0    0  0.00000000000E+00  0.00000000000E+00  0.99999998245E-14  0.12500000000E+03  0.12500000000E+03 0.  0.
        -13    1    3    3    0    0 -0.13670674424E+01  0.56282531843E+02 -0.23038888561E+02  0.60830862350E+02  0.10566000000E+00 0. -1.
         23    2    1    0    0    0 -0.42455024077E+00  0.21388799279E+02 -0.19736700833E+02  0.95893328303E+02  0.91369207482E+02 0.  0.
         13    1    3    3    0    0  0.94251720159E+00 -0.34893732564E+02  0.33021877279E+01  0.35062465954E+02  0.10566000000E+00 0.  1.
         22    1    1    0    0    0  0.42455024077E+00 -0.21388799279E+02  0.19736700833E+02  0.29106671697E+02  0.00000000000E+00 0. -1.
</event>
<event>
 5    1  0.1245581E-004  0.9118800E+02  0.7818608E-02  0.1130116E+00
         25   -1    0    0    0    0  0.00000000000E+00  0.00000000000E+00  0.99999998245E-14  0.12500000000E+03  0.12500000000E+03 0.  0.
        -13    1    3    3    0    0 -0.62263003036E+01 -0.18360396475E+02 -0.47784715268E+02  0.51568024506E+02  0.10566000000E+00 0.  1.
         23    2    1    0    0    0  0.18581213244E+02  0.70284341062E+01 -0.21427080504E+02  0.95780483397E+02  0.91214696454E+02 0.  0.
         13    1    3    3    0    0  0.24807513548E+02  0.25388830581E+02  0.26357634765E+02  0.44212458890E+02  0.10566000000E+00 0. -1.
         22    1    1    0    0    0 -0.18581213244E+02 -0.70284341062E+01  0.21427080504E+02  0.29219516603E+02  0.00000000000E+00 0.  1.
</event>
<event>
 5    1  0.1245581E-004  0.9118800E+02  0.7818608E-02  0.1130116E+00
         25   -1    0    0    0    0  0.00000000000E+00  0.00000000000E+00  0.99999998245E-14  0.12500000000E+03  0.12500000000E+03 0.  0.
        -13    1    3    3    0    0  0.66911779150E+01  0.27713984499E+02 -0.39582799721E+02  0.48781615354E+02  0.10566000000E+00 0. -1.
         23    2    1    0    0    0 -0.21514333729E+02  0.10179488934E+02  0.94607242348E+00  0.10118018464E+03  0.98336392856E+02 0.  0.
         13    1    3    3    0    0 -0.28205511644E+02 -0.17534495566E+02  0.40528872145E+02  0.52398569286E+02  0.10566000000E+00 0.  1.
         22    1    1    0    0    0  0.21514333729E+02 -0.10179488934E+02 -0.94607242348E+00  0.23819815360E+02  0.00000000000E+00 0. -1.
</event>
<event>
 5    1  0.1245581E-004  0.9118800E+02  0.7818608E-02  0.1130116E+00
         25   -1    0    0    0    0  0.00000000000E+00  0.00000000000E+00  0.99999998245E-14  0.12500000000E+03  0.12500000000E+03 0.  0.
        -13    1    3    3    0    0 -0.41196728228E+02  0.27431660953E+02  0.22674815874E+02  0.54441022018E+02  0.10566000000E+00 0. -1.
         23    2    1    0    0    0 -0.11403505734E+02  0.92740010843E+00  0.28076774221E+02  0.94681601879E+02  0.89696156382E+02 0.  0.
         13    1    3    3    0    0  0.29793222494E+02 -0.26504260845E+02  0.54019583468E+01  0.40240579861E+02  0.10566000000E+00 0.  1.
         22    1    1    0    0    0  0.11403505734E+02 -0.92740010843E+00 -0.28076774221E+02  0.30318398121E+02  0.00000000000E+00 0.  1.
</event>
<event>
 5    1  0.1245581E-004  0.9118800E+02  0.7818608E-02  0.1130116E+00
         25   -1    0    0    0    0  0.00000000000E+00  0.00000000000E+00  0.99999998245E-14  0.12500000000E+03  0.12500000000E+03 0.  0.
        -13    1    3    3    0    0  0.12378741214E+02 -0.41377973838E+02  0.29883330965E+01  0.43293316479E+02  0.10566000000E+00 0.  1.
         23    2    1    0    0    0 -0.24320290832E+00  0.20669936855E+01  0.29297671708E+02  0.95628497178E+02  0.91006177232E+02 0.  0.
         13    1    3    3    0    0 -0.12621944122E+02  0.43444967524E+02  0.26309338611E+02  0.52335180699E+02  0.10566000000E+00 0. -1.
         22    1    1    0    0    0  0.24320290832E+00 -0.20669936855E+01 -0.29297671708E+02  0.29371502822E+02  0.00000000000E+00 0. -1.
</event>
<event>
 5    1  0.1245581E-004  0.9118800E+02  0.7818608E-02  0.1130116E+00
         25   -1    0    0    0    0  0.00000000000E+00  0.00000000000E+00  0.99999998245E-14  0.12500000000E+03  0.12500000000E+03 0.  0.
        -13    1    3    3    0    0 -0.15669243618E+02 -0.45364006349E+01  0.60125958331E+02  0.62299648117E+02  0.10566000000E+00 0.  1.
         23    2    1    0    0    0 -0.65513442996E+01 -0.55595732053E+01  0.27834826995E+02  0.95869147624E+02  0.91336120489E+02 0.  0.
         13    1    3    3    0    0  0.91178993186E+01 -0.10231725704E+01 -0.32291131336E+02  0.33569499506E+02  0.10566000000E+00 0. -1.
         22    1    1    0    0    0  0.65513442996E+01  0.55595732053E+01 -0.27834826995E+02  0.29130852376E+02  0.00000000000E+00 0.  1.
</event>
<event>
 5    1  0.1245581E-004  0.9118800E+02  0.7818608E-02  0.1130116E+00
         25   -1    0    0    0    0  0.00000000000E+00  0.00000000000E+00  0.99999998245E-14  0.12500000000E+03  0.12500000000E+03 0.  0.
        -13    1    3    3    0    0  0.59070165122E+01  0.31201976821E+02  0.23203487750E+02  0.39330258191E+02  0.10566000000E+00 0.  1.
         23    2    1    0    0    0 -0.96938187844E+01  0.24807762500E+01 -0.25285481956E+02  0.97806618982E+02  0.93950278049E+02 0.  0.
         13    1    3    3    0    0 -0.15600835297E+02 -0.28721200571E+02 -0.48488969706E+02  0.58476360791E+02  0.10566000000E+00 0. -1.
         22    1    1    0    0    0  0.96938187844E+01 -0.24807762500E+01  0.25285481956E+02  0.27193381018E+02  0.00000000000E+00 0. -1.
</event>
<event>
 5    1  0.1245581E-004  0.9118800E+02  0.7818608E-02  0.1130116E+00
         25   -1    0    0    0    0  0.00000000000E+00  0.00000000000E+00  0.99999998245E-14  0.12500000000E+03  0.12500000000E+03 0.  0.
        -13    1    3    3    0    0 -0.45876048940E+02 -0.14541311325E+02 -0.34316991228E+02  0.59107771506E+02  0.10566000000E+00 0.  1.
         23    2    1    0    0    0 -0.17724826714E+02 -0.20681682144E+02 -0.19450330505E+02  0.91530359800E+02  0.85191489892E+02 0.  0.
         13    1    3    3    0    0  0.28151222226E+02 -0.61403708186E+01  0.14866660723E+02  0.32422588294E+02  0.10566000000E+00 0. -1.
         22    1    1    0    0    0  0.17724826714E+02  0.20681682144E+02  0.19450330505E+02  0.33469640200E+02  0.00000000000E+00 0.  1.
</event>
<event>
 5    1  0.1245581E-004  0.9118800E+02  0.7818608E-02  0.1130116E+00
         25   -1    0    0    0    0  0.00000000000E+00  0.00000000000E+00  0.99999998245E-14  0.12500000000E+03  0.12500000000E+03 0.  0.
        -13    1    3    3    0    0  0.29470919080E+02 -0.15384753875E+02 -0.58477756631E+01  0.33755493886E+02  0.10566000000E+00 0. -1.
         23    2    1    0    0    0 -0.21580569139E+02  0.17020794641E+02  0.91071208386E+01  0.96045413756E+02  0.91577035544E+02 0.  0.
         13    1    3    3    0    0 -0.51051488219E+02  0.32405548516E+02  0.14954896502E+02  0.62289919870E+02  0.10566000000E+00 0.  1.
         22    1    1    0    0    0  0.21580569139E+02 -0.17020794641E+02 -0.91071208386E+01  0.28954586244E+02  0.00000000000E+00 0.  1.
</event>
<event>
 5    1  0.1245581E-004  0.9118800E+02  0.7818608E-02  0.1130116E+00
         25   -1    0    0    0    0  0.00000000000E+00  0.00000000000E+00  0.99999998245E-14  0.12500000000E+03  0.12500000000E+03 0.  0.
        -13    1    3    3    0    0 -0.12954514578E+02 -0.40864039691E+02 -0.72157402094E+01  0.43471453376E+02  0.10566000000E+00 0.  1.
         23    2    1    0    0    0 -0.28168803141E+01  0.72654525797E+01 -0.27307447753E+02  0.96602494499E+02  0.92334303619E+02 0.  0.
         13    1    3    3    0    0  0.10137634264E+02  0.48129492271E+02 -0.20091707544E+02  0.53131041123E+02  0.10566000000E+00 0. -1.
         22    1    1    0    0    0  0.28168803141E+01 -0.72654525797E+01  0.27307447753E+02  0.28397505501E+02  0.00000000000E+00 0. -1.
</event>
<event>
 5    1  0.1245581E-004  0.9118800E+02  0.7818608E-02  0.1130116E+00
         25   -1    0    0    0    0  0.00000000000E+00  0.00000000000E+00  0.99999998245E-14  0.12500000000E+03  0.12500000000E+03 0.  0.
        -13    1    3    3    0    0 -0.17984130047E+02 -0.47635033868E+02  0.12964454082E+01  0.50933459728E+02  0.10566000000E+00 0.  1.
         23    2    1    0    0    0  0.18837217630E+02 -0.21194375199E+02  0.40905131750E+01  0.96350835856E+02  0.91992983232E+02 0.  0.
         13    1    3    3    0    0  0.36821347676E+02  0.26440658669E+02  0.27940677668E+01  0.45417376127E+02  0.10566000000E+00 0. -1.
         22    1    1    0    0    0 -0.18837217630E+02  0.21194375199E+02 -0.40905131750E+01  0.28649164144E+02  0.00000000000E+00 0.  1.
</event>
<event>
 5    1  0.1245581E-004  0.9118800E+02  0.7818608E-02  0.1130116E+00
         25   -1    0    0    0    0  0.00000000000E+00  0.00000000000E+00  0.99999998245E-14  0.12500000000E+03  0.12500000000E+03 0.  0.
        -13    1    3    3    0    0 -0.14112853864E+02 -0.34112549091E+02 -0.51423197837E+01  0.37273224525E+02  0.10566000000E+00 0.  1.
         23    2    1    0    0    0  0.19061822470E+02  0.42718494618E+01 -0.26297259248E+02  0.92241068124E+02  0.86227994474E+02 0.  0.
         13    1    3    3    0    0  0.33174676334E+02  0.38384398553E+02 -0.21154939464E+02  0.54967843599E+02  0.10566000000E+00 0. -1.
         22    1    1    0    0    0 -0.19061822470E+02 -0.42718494618E+01  0.26297259248E+02  0.32758931876E+02  0.00000000000E+00 0. -1.
</event>
<event>
 5    1  0.1245581E-004  0.9118800E+02  0.7818608E-02  0.1130116E+00
         25   -1    0    0    0    0  0.00000000000E+00  0.00000000000E+00  0.99999998245E-14  0.12500000000E+03  0.12500000000E+03 0.  0.
        -13    1    3    3    0    0  0.13083935276E+02  0.42915003124E+02 -0.83942432531E+01  0.45643853248E+02  0.10566000000E+00 0. -1.
         23    2    1    0    0    0  0.23763881129E+02 -0.21885954708E+01 -0.20488896000E+02  0.93546751268E+02  0.88100441640E+02 0.  0.
         13    1    3    3    0    0  0.10679945853E+02 -0.45103598595E+02 -0.12094652747E+02  0.47902898021E+02  0.10566000000E+00 0.  1.
         22    1    1    0    0    0 -0.23763881129E+02  0.21885954708E+01  0.20488896000E+02  0.31453248732E+02  0.00000000000E+00 0.  1.
</event>
<event>
 5    1  0.1245581E-004  0.9118800E+02  0.7818608E-02  0.1130116E+00
         25   -1    0    0    0    0  0.00000000000E+00  0.00000000000E+00  0.99999998245E-14  0.12500000000E+03  0.12500000000E+03 0.  0.
        -13    1    3    3    0    0  0.10948722742E+01 -0.23873417425E+02  0.27051212831E+02  0.36095956623E+02  0.10566000000E+00 0.  1.
         23    2    1    0    0    0 -0.43547134171E+01 -0.47159949001E+01 -0.28852591127E+02  0.95441986677E+02  0.90749637295E+02 0.  0.
         13    1    3    3    0    0 -0.54495856913E+01  0.19157422525E+02 -0.55903803959E+02  0.59346030054E+02  0.10566000000E+00 0. -1.
         22    1    1    0    0    0  0.43547134171E+01  0.47159949001E+01  0.28852591127E+02  0.29558013323E+02  0.00000000000E+00 0. -1.
</event>
<event>
 5    1  0.1245581E-004  0.9118800E+02  0.7818608E-02  0.1130116E+00
         25   -1    0    0    0    0  0.00000000000E+00  0.00000000000E+00  0.99999998245E-14  0.12500000000E+03  0.12500000000E+03 0.  0.
        -13    1    3    3    0    0 -0.47081209993E+02 -0.21610562343E+02  0.33173556694E+02  0.61515467705E+02  0.10566000000E+00 0. -1.
         23    2    1    0    0    0 -0.31424392690E+02 -0.12178540208E+02  0.12640735980E+02  0.89005590661E+02  0.81402688317E+02 0.  0.
         13    1    3    3    0    0  0.15656817303E+02  0.94320221354E+01 -0.20532820714E+02  0.27490122956E+02  0.10566000000E+00 0.  1.
         22    1    1    0    0    0  0.31424392690E+02  0.12178540208E+02 -0.12640735980E+02  0.35994409339E+02  0.00000000000E+00 0. -1.
</event>
<event>
 5    1  0.1245581E-004  0.9118800E+02  0.7818608E-02  0.1130116E+00
         25   -1    0    0    0    0  0.00000000000E+00  0.00000000000E+00  0.99999998245E-14  0.12500000000E+03  0.12500000000E+03 0.  0.
        -13    1    3    3    0    0  0.56436730362E+01  0.48575512577E+02 -0.21871286061E+02  0.53570474942E+02  0.10566000000E+00 0.  1.
         23    2    1    0    0    0  0.70468653208E+01  0.60051532004E+01 -0.26985870012E+02  0.96470062109E+02  0.92154845381E+02 0.  0.
         13    1    3    3    0    0  0.14031922846E+01 -0.42570359377E+02 -0.51145839510E+01  0.42899587167E+02  0.10566000000E+00 0. -1.
         22    1    1    0    0    0 -0.70468653208E+01 -0.60051532004E+01  0.26985870012E+02  0.28529937891E+02  0.00000000000E+00 0.  1.
</event>
<event>
 5    1  0.1245581E-004  0.9118800E+02  0.7818608E-02  0.1130116E+00
         25   -1    0    0    0    0  0.00000000000E+00  0.00000000000E+00  0.99999998245E-14  0.12500000000E+03  0.12500000000E+03 0.  0.
        -13    1    3    3    0    0  0.17787682520E+02  0.27116717029E+02  0.15749739290E+02  0.36052509533E+02  0.10566000000E+00 0. -1.
         23    2    1    0    0    0 -0.52888284772E+01 -0.42601924351E+01 -0.28905538628E+02  0.95307389647E+02  0.90564051431E+02 0.  0.
         13    1    3    3    0    0 -0.23076510997E+02 -0.31376909464E+02 -0.44655277918E+02  0.59254880114E+02  0.10566000000E+00 0.  1.
         22    1    1    0    0    0  0.52888284772E+01  0.42601924351E+01  0.28905538628E+02  0.29692610353E+02  0.00000000000E+00 0.  1.
</event>
<event>
 5    1  0.1245581E-004  0.9118800E+02  0.7818608E-02  0.1130116E+00
         25   -1    0    0    0    0  0.00000000000E+00  0.00000000000E+00  0.99999998245E-14  0.12500000000E+03  0.12500000000E+03 0.  0.
        -13    1    3    3    0    0 -0.82789890323E+01 -0.12142698473E+02  0.41241010387E+02  0.43781490237E+02  0.10566000000E+00 0.  1.
         23    2    1    0    0    0 -0.90063439362E+01  0.24643566052E+02  0.39011717704E+00  0.98759348898E+02  0.95209438736E+02 0.  0.
         13    1    3    3    0    0 -0.72735490392E+00  0.36786264525E+02 -0.40850893210E+02  0.54977858661E+02  0.10566000000E+00 0. -1.
         22    1    1    0    0    0  0.90063439362E+01 -0.24643566052E+02 -0.39011717704E+00  0.26240651102E+02  0.00000000000E+00 0. -1.
</event>
<event>
 5    1  0.1245581E-004  0.9118800E+02  0.7818608E-02  0.1130116E+00
         25   -1    0    0    0    0  0.00000000000E+00  0.00000000000E+00  0.99999998245E-14  0.12500000000E+03  0.12500000000E+03 0.  0.
        -13    1    3    3    0    0 -0.85326449386E+01 -0.20486590911E+02  0.46133810184E+02  0.51194199310E+02  0.10566000000E+00 0. -1.
         23    2    1    0    0    0 -0.25018392452E+02 -0.14446790140E+02  0.53200613564E+01  0.95624282833E+02  0.91000388506E+02 0.  0.
         13    1    3    3    0    0 -0.16485747514E+02  0.60398007718E+01 -0.40813748828E+02  0.44430083523E+02  0.10566000000E+00 0.  1.
         22    1    1    0    0    0  0.25018392452E+02  0.14446790140E+02 -0.53200613564E+01  0.29375717167E+02  0.00000000000E+00 0. -1.
</event>
<event>
 5    1  0.1245581E-004  0.9118800E+02  0.7818608E-02  0.1130116E+00
         25   -1    0    0    0    0  0.00000000000E+00  0.00000000000E+00  0.99999998245E-14  0.12500000000E+03  0.12500000000E+03 0.  0.
        -13    1    3    3    0    0 -0.13402992485E+02 -0.24792707613E+02 -0.25705346204E+02  0.38145701538E+02  0.10566000000E+00 0. -1.
         23    2    1    0    0    0  0.12095610304E+02 -0.13691936184E+02  0.23841276468E+02  0.94963699150E+02  0.90088427601E+02 0.  0.
         13    1    3    3    0    0  0.25498602789E+02  0.11100771429E+02  0.49546622672E+02  0.56817997613E+02  0.10566000000E+00 0.  1.
         22    1    1    0    0    0 -0.12095610304E+02  0.13691936184E+02 -0.23841276468E+02  0.30036300850E+02  0.00000000000E+00 0.  1.
</event>
<event>
 5    1  0.1245581E-004  0.9118800E+02  0.7818608E-02  0.1130116E+00
         25   -1    0    0    0    0  0.00000000000E+00  0.00000000000E+00  0.99999998245E-14  0.12500000000E+03  0.12500000000E+03 0.  0.
        -13    1    3    3    0    0 -0.41212684590E+02 -0.91756991873E+01 -0.39317008824E+02  0.57693302675E+02  0.10566000000E+00 0.  1.
         23    2    1    0    0    0 -0.37106736556E+01 -0.64460497780E+01 -0.26588732391E+02  0.97390556926E+02  0.93395070702E+02 0.  0.
         13    1    3    3    0    0  0.37502010935E+02  0.27296494093E+01  0.12728276433E+02  0.39697254250E+02  0.10566000000E+00 0. -1.
         22    1    1    0    0    0  0.37106736556E+01  0.64460497780E+01  0.26588732391E+02  0.27609443074E+02  0.00000000000E+00 0.  1.
</event>
<event>
 5    1  0.1245581E-004  0.9118800E+02  0.7818608E-02  0.1130116E+00
         25   -1    0    0    0    0  0.00000000000E+00  0.00000000000E+00  0.99999998245E-14  0.12500000000E+03  0.12500000000E+03 0.  0.
        -13    1    3    3    0    0  0.33310364708E+02 -0.64489685921E+01  0.36286998925E+02  0.49678235153E+02  0.10566000000E+00 0. -1.
         23    2    1    0    0    0  0.58509494812E+01 -0.27092692525E+02  0.36861007564E+01  0.97038688570E+02  0.92922936580E+02 0.  0.
         13    1    3    3    0    0 -0.27459415227E+02 -0.20643723933E+02 -0.32600898169E+02  0.47360453417E+02  0.10566000000E+00 0.  1.
         22    1    1    0    0    0 -0.58509494812E+01  0.27092692525E+02 -0.36861007564E+01  0.27961311430E+02  0.00000000000E+00 0. -1.
</event>
<event>
 5    1  0.1245581E-004  0.9118800E+02  0.7818608E-02  0.1130116E+00
         25   -1    0    0    0    0  0.00000000000E+00  0.00000000000E+00  0.99999998245E-14  0.12500000000E+03  0.12500000000E+03 0.  0.
        -13    1    3    3    0    0 -0.19377885915E+02 -0.37348271018E+01  0.35217313587E+02  0.40369812191E+02  0.10566000000E+00 0. -1.
         23    2    1    0    0    0 -0.18337063877E+02 -0.65194196421E+01 -0.20828356279E+02  0.96494366006E+02  0.92187805601E+02 0.  0.
         13    1    3    3    0    0  0.10408220382E+01 -0.27845925403E+01 -0.56045669866E+02  0.56124553815E+02  0.10566000000E+00 0.  1.
         22    1    1    0    0    0  0.18337063877E+02  0.65194196421E+01  0.20828356279E+02  0.28505633994E+02  0.00000000000E+00 0.  1.
</event>
<event>
 5    1  0.1245581E-004  0.9118800E+02  0.7818608E-02  0.1130116E+00
         25   -1    0    0    0    0  0.00000000000E+00  0.00000000000E+00  0.99999998245E-14  0.12500000000E+03  0.12500000000E+03 0.  0.
        -13    1    3    3    0    0 -0.49856971603E+01  0.34653982843E+02  0.13351610065E+02  0.37470419780E+02  0.10566000000E+00 0.  1.
         23    2    1    0    0    0  0.61894149429E+01 -0.23168326783E+02  0.15575796149E+02  0.96404796749E+02  0.92066276059E+02 0.  0.
         13    1    3    3    0    0  0.11175112103E+02 -0.57822309626E+02  0.22241860842E+01  0.58934376970E+02  0.10566000000E+00 0. -1.
         22    1    1    0    0    0 -0.61894149429E+01  0.23168326783E+02 -0.15575796149E+02  0.28595203251E+02  0.00000000000E+00 0. -1.
</event>
<event>
 5    1  0.1245581E-004  0.9118800E+02  0.7818608E-02  0.1130116E+00
         25   -1    0    0    0    0  0.00000000000E+00  0.00000000000E+00  0.99999998245E-14  0.12500000000E+03  0.12500000000E+03 0.  0.
        -13    1    3    3    0    0 -0.24732612641E+02 -0.23496553977E+02 -0.90770888946E+01  0.35301485574E+02  0.10566000000E+00 0.  1.
         23    2    1    0    0    0  0.39038094034E+01  0.26242289563E+02 -0.17366528701E+02  0.93290477637E+02  0.87736078151E+02 0.  0.
         13    1    3    3    0    0  0.28636422044E+02  0.49738843540E+02 -0.82894398062E+01  0.57988992064E+02  0.10566000000E+00 0. -1.
         22    1    1    0    0    0 -0.39038094034E+01 -0.26242289563E+02  0.17366528701E+02  0.31709522363E+02  0.00000000000E+00 0. -1.
</event>
<event>
 5    1  0.1245581E-004  0.9118800E+02  0.7818608E-02  0.1130116E+00
         25   -1    0    0    0    0  0.00000000000E+00  0.00000000000E+00  0.99999998245E-14  0.12500000000E+03  0.12500000000E+03 0.  0.
        -13    1    3    3    0    0 -0.17928963896E+02 -0.43361719344E+01 -0.27080587445E+02  0.32766133642E+02  0.10566000000E+00 0. -1.
         23    2    1    0    0    0  0.29941791096E+02  0.44343031271E+01  0.90820564226E+01  0.93398454988E+02  0.87889781812E+02 0.  0.
         13    1    3    3    0    0  0.47870754992E+02  0.87704750615E+01  0.36162643868E+02  0.60632321346E+02  0.10566000000E+00 0.  1.
         22    1    1    0    0    0 -0.29941791096E+02 -0.44343031271E+01 -0.90820564226E+01  0.31601545012E+02  0.00000000000E+00 0.  1.
</event>
<event>
 5    1  0.1245581E-004  0.9118800E+02  0.7818608E-02  0.1130116E+00
         25   -1    0    0    0    0  0.00000000000E+00  0.00000000000E+00  0.99999998245E-14  0.12500000000E+03  0.12500000000E+03 0.  0.
        -13    1    3    3    0    0  0.13929707176E+02 -0.23319398188E+02  0.47560012377E+02  0.54770402730E+02  0.10566000000E+00 0. -1.
         23    2    1    0    0    0  0.11387900519E+02 -0.24381776058E+02  0.47442148126E+01  0.97674867683E+02  0.93774820292E+02 0.  0.
         13    1    3    3    0    0 -0.25418066570E+01 -0.10623778693E+01 -0.42815797564E+02  0.42904464953E+02  0.10566000000E+00 0.  1.
         22    1    1    0    0    0 -0.11387900519E+02  0.24381776058E+02 -0.47442148126E+01  0.27325132317E+02  0.00000000000E+00 0. -1.
</event>
<event>
 5    1  0.1245581E-004  0.9118800E+02  0.7818608E-02  0.1130116E+00
         25   -1    0    0    0    0  0.00000000000E+00  0.00000000000E+00  0.99999998245E-14  0.12500000000E+03  0.12500000000E+03 0.  0.
        -13    1    3    3    0    0 -0.64409211172E+01  0.34846168419E+02 -0.17257283570E+02  0.39415300565E+02  0.10566000000E+00 0.  1.
         23    2    1    0    0    0 -0.16377414827E+02 -0.99375444467E+00  0.24613579701E+02  0.95418999847E+02  0.90717969344E+02 0.  0.
         13    1    3    3    0    0 -0.99364937099E+01 -0.35839922864E+02  0.41870863272E+02  0.56003699282E+02  0.10566000000E+00 0. -1.
         22    1    1    0    0    0  0.16377414827E+02  0.99375444467E+00 -0.24613579701E+02  0.29581000153E+02  0.00000000000E+00 0. -1.
</event>
<event>
 5    1  0.1245581E-004  0.9118800E+02  0.7818608E-02  0.1130116E+00
         25   -1    0    0    0    0  0.00000000000E+00  0.00000000000E+00  0.99999998245E-14  0.12500000000E+03  0.12500000000E+03 0.  0.
        -13    1    3    3    0    0 -0.12061843464E+02  0.36357308008E+02 -0.27799682836E+01  0.38406787174E+02  0.10566000000E+00 0.  1.
         23    2    1    0    0    0  0.26887394333E+02 -0.29315043266E+01 -0.13519095248E+02  0.94762744371E+02  0.89809164860E+02 0.  0.
         13    1    3    3    0    0  0.38949237797E+02 -0.39288812334E+02 -0.10739126965E+02  0.56355957197E+02  0.10566000000E+00 0. -1.
         22    1    1    0    0    0 -0.26887394333E+02  0.29315043266E+01  0.13519095248E+02  0.30237255629E+02  0.00000000000E+00 0. -1.
</event>
<event>
 5    1  0.1245581E-004  0.9118800E+02  0.7818608E-02  0.1130116E+00
         25   -1    0    0    0    0  0.00000000000E+00  0.00000000000E+00  0.99999998245E-14  0.12500000000E+03  0.12500000000E+03 0.  0.
        -13    1    3    3    0    0 -0.10895575448E+02  0.26541930441E+02  0.83937173854E+00  0.28703716568E+02  0.10566000000E+00 0.  1.
         23    2    1    0    0    0  0.39067565540E+02 -0.35057481743E+00 -0.43894052850E+01  0.85685060618E+02  0.76133206647E+02 0.  0.
         13    1    3    3    0    0  0.49963140988E+02 -0.26892505259E+02 -0.52287770236E+01  0.56981344049E+02  0.10566000000E+00 0. -1.
         22    1    1    0    0    0 -0.39067565540E+02  0.35057481743E+00  0.43894052850E+01  0.39314939382E+02  0.00000000000E+00 0. -1.
</event>
<event>
 5    1  0.1245581E-004  0.9118800E+02  0.7818608E-02  0.1130116E+00
         25   -1    0    0    0    0  0.00000000000E+00  0.00000000000E+00  0.99999998245E-14  0.12500000000E+03  0.12500000000E+03 0.  0.
        -13    1    3    3    0    0 -0.53393317669E+02 -0.19239612285E+02 -0.21653302441E+02  0.60744429566E+02  0.10566000000E+00 0. -1.
         23    2    1    0    0    0 -0.24948759247E+02  0.91790449486E+00 -0.13773974745E+02  0.96486748399E+02  0.92177476097E+02 0.  0.
         13    1    3    3    0    0  0.28444558423E+02  0.20157516780E+02  0.78793276961E+01  0.35742318833E+02  0.10566000000E+00 0.  1.
         22    1    1    0    0    0  0.24948759247E+02 -0.91790449486E+00  0.13773974745E+02  0.28513251601E+02  0.00000000000E+00 0. -1.
</event>
<event>
 5    1  0.1245581E-004  0.9118800E+02  0.7818608E-02  0.1130116E+00
         25   -1    0    0    0    0  0.00000000000E+00  0.00000000000E+00  0.99999998245E-14  0.12500000000E+03  0.12500000000E+03 0.  0.
        -13    1    3    3    0    0 -0.18160092900E+02  0.51019170339E+02  0.10335036345E+02  0.55132285065E+02  0.10566000000E+00 0.  1.
         23    2    1    0    0    0 -0.18568880359E+02  0.17552653716E+02 -0.13385047461E+02  0.96154576346E+02  0.91725918292E+02 0.  0.
         13    1    3    3    0    0 -0.40878745926E+00 -0.33466516624E+02 -0.23720083806E+02  0.41022291281E+02  0.10566000000E+00 0. -1.
         22    1    1    0    0    0  0.18568880359E+02 -0.17552653716E+02  0.13385047461E+02  0.28845423654E+02  0.00000000000E+00 0.  1.
</event>
<event>
 5    1  0.1245581E-004  0.9118800E+02  0.7818608E-02  0.1130116E+00
         25   -1    0    0    0    0  0.00000000000E+00  0.00000000000E+00  0.99999998245E-14  0.12500000000E+03  0.12500000000E+03 0.  0.
        -13    1    3    3    0    0  0.29105885595E+02  0.21813422661E+02 -0.28552844917E+01  0.36484815992E+02  0.10566000000E+00 0. -1.
         23    2    1    0    0    0 -0.62936919822E+01 -0.21852325184E+02 -0.19429146741E+02  0.95089693787E+02  0.90263079089E+02 0.  0.
         13    1    3    3    0    0 -0.35399577577E+02 -0.43665747844E+02 -0.16573862249E+02  0.58604877795E+02  0.10566000000E+00 0.  1.
         22    1    1    0    0    0  0.62936919822E+01  0.21852325184E+02  0.19429146741E+02  0.29910306213E+02  0.00000000000E+00 0.  1.
</event>
<event>
 5    1  0.1245581E-004  0.9118800E+02  0.7818608E-02  0.1130116E+00
         25   -1    0    0    0    0  0.00000000000E+00  0.00000000000E+00  0.99999998245E-14  0.12500000000E+03  0.12500000000E+03 0.  0.
        -13    1    3    3    0    0 -0.93940914783E+01 -0.75701073489E+01 -0.28516185541E+02  0.30963518564E+02  0.10566000000E+00 0. -1.
         23    2    1    0    0    0  0.81091108087E+01  0.83483492838E+01  0.29321444682E+02  0.93453213600E+02  0.87967627001E+02 0.  0.
         13    1    3    3    0    0  0.17503202287E+02  0.15918456633E+02  0.57837630224E+02  0.62489695037E+02  0.10566000000E+00 0.  1.
         22    1    1    0    0    0 -0.81091108087E+01 -0.83483492838E+01 -0.29321444682E+02  0.31546786400E+02  0.00000000000E+00 0.  1.
</event>
<event>
 5    1  0.1245581E-004  0.9118800E+02  0.7818608E-02  0.1130116E+00
         25   -1    0    0    0    0  0.00000000000E+00  0.00000000000E+00  0.99999998245E-14  0.12500000000E+03  0.12500000000E+03 0.  0.
        -13    1    3    3    0    0  0.44598663366E+02  0.40090491070E+02  0.63932640947E+01  0.60308981405E+02  0.10566000000E+00 0.  1.
         23    2    1    0    0    0  0.27133450031E+02  0.13858229633E+02 -0.55876866460E+01  0.94024253339E+02  0.88775353194E+02 0.  0.
         13    1    3    3    0    0 -0.17465213335E+02 -0.26232261437E+02 -0.11980950741E+02  0.33715271934E+02  0.10566000000E+00 0. -1.
         22    1    1    0    0    0 -0.27133450031E+02 -0.13858229633E+02  0.55876866460E+01  0.30975746661E+02  0.00000000000E+00 0.  1.
</event>
<event>
 5    1  0.1245581E-004  0.9118800E+02  0.7818608E-02  0.1130116E+00
         25   -1    0    0    0    0  0.00000000000E+00  0.00000000000E+00  0.99999998245E-14  0.12500000000E+03  0.12500000000E+03 0.  0.
        -13    1    3    3    0    0 -0.64367877701E+00 -0.23332168715E+02 -0.22851986038E+02  0.32665407532E+02  0.10566000000E+00 0.  1.
         23    2    1    0    0    0 -0.16807073893E+02  0.14845518227E+02  0.21889983005E+02  0.93662506478E+02  0.88264526393E+02 0.  0.
         13    1    3    3    0    0 -0.16163395116E+02  0.38177686942E+02  0.44741969043E+02  0.60997098946E+02  0.10566000000E+00 0. -1.
         22    1    1    0    0    0  0.16807073893E+02 -0.14845518227E+02 -0.21889983005E+02  0.31337493522E+02  0.00000000000E+00 0. -1.
</event>
<event>
 5    1  0.1245581E-004  0.9118800E+02  0.7818608E-02  0.1130116E+00
         25   -1    0    0    0    0  0.00000000000E+00  0.00000000000E+00  0.99999998245E-14  0.12500000000E+03  0.12500000000E+03 0.  0.
        -13    1    3    3    0    0 -0.93175999499E+01  0.53188745451E+02 -0.24876442077E+02  0.59453417445E+02  0.10566000000E+00 0. -1.
         23    2    1    0    0    0 -0.43360355920E+01  0.35778556301E+02 -0.16275691186E+01  0.88922925883E+02  0.81275651155E+02 0.  0.
         13    1    3    3    0    0  0.49815643579E+01 -0.17410189150E+02  0.23248872958E+02  0.29469508438E+02  0.10566000000E+00 0.  1.
         22    1    1    0    0    0  0.43360355920E+01 -0.35778556301E+02  0.16275691186E+01  0.36077074117E+02  0.00000000000E+00 0. -1.
</event>
<event>
 5    1  0.1245581E-004  0.9118800E+02  0.7818608E-02  0.1130116E+00
         25   -1    0    0    0    0  0.00000000000E+00  0.00000000000E+00  0.99999998245E-14  0.12500000000E+03  0.12500000000E+03 0.  0.
        -13    1    3    3    0    0  0.21241263629E+02 -0.21232835372E+02 -0.45106448984E+02  0.54190658627E+02  0.10566000000E+00 0.  1.
         23    2    1    0    0    0 -0.73005010407E+01  0.26273721694E+01 -0.29437180626E+02  0.94557463917E+02  0.89522991344E+02 0.  0.
         13    1    3    3    0    0 -0.28541764669E+02  0.23860207542E+02  0.15669268357E+02  0.40366805289E+02  0.10566000000E+00 0. -1.
         22    1    1    0    0    0  0.73005010407E+01 -0.26273721694E+01  0.29437180626E+02  0.30442536083E+02  0.00000000000E+00 0.  1.
</event>
<event>
 5    1  0.1245581E-004  0.9118800E+02  0.7818608E-02  0.1130116E+00
         25   -1    0    0    0    0  0.00000000000E+00  0.00000000000E+00  0.99999998245E-14  0.12500000000E+03  0.12500000000E+03 0.  0.
        -13    1    3    3    0    0 -0.32383764401E+02 -0.58800626976E+01 -0.90642859039E+00  0.32925918528E+02  0.10566000000E+00 0.  1.
         23    2    1    0    0    0  0.23045841479E+02 -0.16095801618E+01 -0.22674551439E+02  0.92629691989E+02  0.86789532763E+02 0.  0.
         13    1    3    3    0    0  0.55429605879E+02  0.42704825358E+01 -0.21768122849E+02  0.59703773461E+02  0.10566000000E+00 0. -1.
         22    1    1    0    0    0 -0.23045841479E+02  0.16095801618E+01  0.22674551439E+02  0.32370308011E+02  0.00000000000E+00 0. -1.
</event>
<event>
 5    1  0.1245581E-004  0.9118800E+02  0.7818608E-02  0.1130116E+00
         25   -1    0    0    0    0  0.00000000000E+00  0.00000000000E+00  0.99999998245E-14  0.12500000000E+03  0.12500000000E+03 0.  0.
        -13    1    3    3    0    0  0.14476098357E+01 -0.49250752831E+02  0.21254723787E+02  0.53661034988E+02  0.10566000000E+00 0.  1.
         23    2    1    0    0    0  0.13732311761E+02 -0.13144216659E+02  0.26739034533E+02  0.92192641288E+02  0.86157764143E+02 0.  0.
         13    1    3    3    0    0  0.12284701926E+02  0.36106536172E+02  0.54843107459E+01  0.38531606301E+02  0.10566000000E+00 0. -1.
         22    1    1    0    0    0 -0.13732311761E+02  0.13144216659E+02 -0.26739034533E+02  0.32807358712E+02  0.00000000000E+00 0.  1.
</event>
<event>
 5    1  0.1245581E-004  0.9118800E+02  0.7818608E-02  0.1130116E+00
         25   -1    0    0    0    0  0.00000000000E+00  0.00000000000E+00  0.99999998245E-14  0.12500000000E+03  0.12500000000E+03 0.  0.
        -13    1    3    3    0    0 -0.16108798058E+02 -0.38941151673E+02  0.62972700206E+01  0.42609546375E+02  0.10566000000E+00 0. -1.
         23    2    1    0    0    0  0.26318596853E+02 -0.95443171491E+01 -0.74587453366E+01  0.96027678516E+02  0.91552824255E+02 0.  0.
         13    1    3    3    0    0  0.42427394911E+02  0.29396834524E+02 -0.13756015357E+02  0.53418132142E+02  0.10566000000E+00 0.  1.
         22    1    1    0    0    0 -0.26318596853E+02  0.95443171491E+01  0.74587453366E+01  0.28972321484E+02  0.00000000000E+00 0.  1.
</event>
<event>
 5    1  0.1245581E-004  0.9118800E+02  0.7818608E-02  0.1130116E+00
         25   -1    0    0    0    0  0.00000000000E+00  0.00000000000E+00  0.99999998245E-14  0.12500000000E+03  0.12500000000E+03 0.  0.
        -13    1    3    3    0    0 -0.69525089892E+01  0.11914133870E-01 -0.44477949308E+02  0.45018181459E+02  0.10566000000E+00 0.  1.
         23    2    1    0    0    0 -0.14170159185E+02 -0.24440380955E+02  0.52799112463E+00  0.96743949193E+02  0.92525603475E+02 0.  0.
         13    1    3    3    0    0 -0.72176501955E+01 -0.24452295089E+02  0.45005940432E+02  0.51725767734E+02  0.10566000000E+00 0. -1.
         22    1    1    0    0    0  0.14170159185E+02  0.24440380955E+02 -0.52799112463E+00  0.28256050807E+02  0.00000000000E+00 0. -1.
</event>
<event>
 5    1  0.1245581E-004  0.9118800E+02  0.7818608E-02  0.1130116E+00
         25   -1    0    0    0    0  0.00000000000E+00  0.00000000000E+00  0.99999998245E-14  0.12500000000E+03  0.12500000000E+03 0.  0.
        -13    1    3    3    0    0 -0.23780111268E+02 -0.25451015222E+02 -0.23668959583E+02  0.42112690244E+02  0.10566000000E+00 0. -1.
         23    2    1    0    0    0  0.25399625511E+02 -0.89337945295E+01 -0.13098229555E+02  0.95058101626E+02  0.90219318366E+02 0.  0.
         13    1    3    3    0    0  0.49179736779E+02  0.16517220693E+02  0.10570730028E+02  0.52945411382E+02  0.10566000000E+00 0.  1.
         22    1    1    0    0    0 -0.25399625511E+02  0.89337945295E+01  0.13098229555E+02  0.29941898374E+02  0.00000000000E+00 0.  1.
</event>
<event>
 5    1  0.1245581E-004  0.9118800E+02  0.7818608E-02  0.1130116E+00
         25   -1    0    0    0    0  0.00000000000E+00  0.00000000000E+00  0.99999998245E-14  0.12500000000E+03  0.12500000000E+03 0.  0.
        -13    1    3    3    0    0  0.30688433092E+02  0.22518970070E+02 -0.14481377382E+02  0.40725979344E+02  0.10566000000E+00 0.  1.
         23    2    1    0    0    0 -0.61075488015E+01  0.13776595622E+02  0.25259399999E+02  0.95586839211E+02  0.90948940636E+02 0.  0.
         13    1    3    3    0    0 -0.36795981894E+02 -0.87423744480E+01  0.39740777381E+02  0.54860859867E+02  0.10566000000E+00 0. -1.
         22    1    1    0    0    0  0.61075488015E+01 -0.13776595622E+02 -0.25259399999E+02  0.29413160789E+02  0.00000000000E+00 0. -1.
</event>
<event>
 5    1  0.1245581E-004  0.9118800E+02  0.7818608E-02  0.1130116E+00
         25   -1    0    0    0    0  0.00000000000E+00  0.00000000000E+00  0.99999998245E-14  0.12500000000E+03  0.12500000000E+03 0.  0.
        -13    1    3    3    0    0  0.43894313012E+02  0.20138442110E+02 -0.20686234735E+02  0.52537596414E+02  0.10566000000E+00 0.  1.
         23    2    1    0    0    0  0.38784342427E+01  0.92277607959E+01 -0.28543681401E+02  0.94752098099E+02  0.89794345728E+02 0.  0.
         13    1    3    3    0    0 -0.40015878769E+02 -0.10910681314E+02 -0.78574466667E+01  0.42214501685E+02  0.10566000000E+00 0. -1.
         22    1    1    0    0    0 -0.38784342427E+01 -0.92277607959E+01  0.28543681401E+02  0.30247901901E+02  0.00000000000E+00 0. -1.
</event>
<event>
 5    1  0.1245581E-004  0.9118800E+02  0.7818608E-02  0.1130116E+00
         25   -1    0    0    0    0  0.00000000000E+00  0.00000000000E+00  0.99999998245E-14  0.12500000000E+03  0.12500000000E+03 0.  0.
        -13    1    3    3    0    0 -0.81112197707E+01 -0.14675841446E+02 -0.33085089559E+02  0.37091866001E+02  0.10566000000E+00 0. -1.
         23    2    1    0    0    0 -0.22807388542E+02  0.43558522572E+01  0.19348147269E+02  0.94775817236E+02  0.89827358355E+02 0.  0.
         13    1    3    3    0    0 -0.14696168772E+02  0.19031693703E+02  0.52433236828E+02  0.57683951235E+02  0.10566000000E+00 0.  1.
         22    1    1    0    0    0  0.22807388542E+02 -0.43558522572E+01 -0.19348147269E+02  0.30224182764E+02  0.00000000000E+00 0.  1.
</event>
<event>
 5    1  0.1245581E-004  0.9118800E+02  0.7818608E-02  0.1130116E+00
         25   -1    0    0    0    0  0.00000000000E+00  0.00000000000E+00  0.99999998245E-14  0.12500000000E+03  0.12500000000E+03 0.  0.
        -13    1    3    3    0    0  0.23768887851E+02  0.53285559822E+02 -0.18836808973E+02  0.61311886706E+02  0.10566000000E+00 0. -1.
         23    2    1    0    0    0  0.15298355733E+02  0.25527775694E+02 -0.13205689790E+01  0.95209885492E+02  0.90429372291E+02 0.  0.
         13    1    3    3    0    0 -0.84705321175E+01 -0.27757784128E+02  0.17516239994E+02  0.33897998785E+02  0.10566000000E+00 0.  1.
         22    1    1    0    0    0 -0.15298355733E+02 -0.25527775694E+02  0.13205689790E+01  0.29790114508E+02  0.00000000000E+00 0. -1.
</event>
<event>
 5    1  0.1245581E-004  0.9118800E+02  0.7818608E-02  0.1130116E+00
         25   -1    0    0    0    0  0.00000000000E+00  0.00000000000E+00  0.99999998245E-14  0.12500000000E+03  0.12500000000E+03 0.  0.
        -13    1    3    3    0    0 -0.60395197378E+02 -0.28436645766E+01  0.11898033430E+02  0.61621754747E+02  0.10566000000E+00 0. -1.
         23    2    1    0    0    0 -0.28802587834E+02  0.34754147302E+01  0.11356750145E+02  0.93844850388E+02  0.88522384723E+02 0.  0.
         13    1    3    3    0    0  0.31592609544E+02  0.63190793069E+01 -0.54128328491E+00  0.32223095641E+02  0.10566000000E+00 0.  1.
         22    1    1    0    0    0  0.28802587834E+02 -0.34754147302E+01 -0.11356750145E+02  0.31155149612E+02  0.00000000000E+00 0. -1.
</event>
<event>
 5    1  0.1245581E-004  0.9118800E+02  0.7818608E-02  0.1130116E+00
         25   -1    0    0    0    0  0.00000000000E+00  0.00000000000E+00  0.99999998245E-14  0.12500000000E+03  0.12500000000E+03 0.  0.
        -13    1    3    3    0    0  0.16687999801E+02 -0.51349276541E+02 -0.21923298434E+02  0.58274177102E+02  0.10566000000E+00 0. -1.
         23    2    1    0    0    0 -0.51143243753E+00 -0.44321598847E+02 -0.13577935674E+02  0.78642411359E+02  0.63526394827E+02 0.  0.
         13    1    3    3    0    0 -0.17199432238E+02  0.70276776949E+01  0.83453627594E+01  0.20368234257E+02  0.10566000000E+00 0.  1.
         22    1    1    0    0    0  0.51143243753E+00  0.44321598847E+02  0.13577935674E+02  0.46357588641E+02  0.00000000000E+00 0. -1.
</event>
<event>
 5    1  0.1245581E-004  0.9118800E+02  0.7818608E-02  0.1130116E+00
         25   -1    0    0    0    0  0.00000000000E+00  0.00000000000E+00  0.99999998245E-14  0.12500000000E+03  0.12500000000E+03 0.  0.
        -13    1    3    3    0    0 -0.38539041466E+02 -0.11567560211E+02 -0.12514423822E+02  0.42138914723E+02  0.10566000000E+00 0.  1.
         23    2    1    0    0    0 -0.41257875575E+01  0.28438124629E+02 -0.83598376415E+01  0.95072822707E+02  0.90239712304E+02 0.  0.
         13    1    3    3    0    0  0.34413253909E+02  0.40005684840E+02  0.41545861804E+01  0.52933907984E+02  0.10566000000E+00 0. -1.
         22    1    1    0    0    0  0.41257875575E+01 -0.28438124629E+02  0.83598376415E+01  0.29927177293E+02  0.00000000000E+00 0. -1.
</event>
<event>
 5    1  0.1245581E-004  0.9118800E+02  0.7818608E-02  0.1130116E+00
         25   -1    0    0    0    0  0.00000000000E+00  0.00000000000E+00  0.99999998245E-14  0.12500000000E+03  0.12500000000E+03 0.  0.
        -13    1    3    3    0    0  0.27592291821E+00 -0.34980813418E+02  0.52547229969E+01  0.35374520755E+02  0.10566000000E+00 0.  1.
         23    2    1    0    0    0 -0.23273815070E+02  0.19041303292E+02 -0.25513492059E+01  0.94821347251E+02  0.89890693694E+02 0.  0.
         13    1    3    3    0    0 -0.23549737988E+02  0.54022116710E+02 -0.78060722028E+01  0.59446826496E+02  0.10566000000E+00 0. -1.
         22    1    1    0    0    0  0.23273815070E+02 -0.19041303292E+02  0.25513492059E+01  0.30178652749E+02  0.00000000000E+00 0. -1.
</event>
<event>
 5    1  0.1245581E-004  0.9118800E+02  0.7818608E-02  0.1130116E+00
         25   -1    0    0    0    0  0.00000000000E+00  0.00000000000E+00  0.99999998245E-14  0.12500000000E+03  0.12500000000E+03 0.  0.
        -13    1    3    3    0    0 -0.42897873553E+02 -0.33804504287E+01  0.44414213192E+02  0.61840831964E+02  0.10566000000E+00 0.  1.
         23    2    1    0    0    0 -0.11557661342E+02  0.47802496221E+01  0.13042961678E+02  0.10692932842E+03  0.10539132841E+03 0.  0.
         13    1    3    3    0    0  0.31340212211E+02  0.81607000507E+01 -0.31371251514E+02  0.45088496452E+02  0.10566000000E+00 0. -1.
         22    1    1    0    0    0  0.11557661342E+02 -0.47802496221E+01 -0.13042961678E+02  0.18070671584E+02  0.00000000000E+00 0.  1.
</event>
<event>
 5    1  0.1245581E-004  0.9118800E+02  0.7818608E-02  0.1130116E+00
         25   -1    0    0    0    0  0.00000000000E+00  0.00000000000E+00  0.99999998245E-14  0.12500000000E+03  0.12500000000E+03 0.  0.
        -13    1    3    3    0    0 -0.27968014164E+02  0.22138889575E+02 -0.28331561501E+02  0.45552483895E+02  0.10566000000E+00 0. -1.
         23    2    1    0    0    0 -0.27555397313E+02 -0.79602767870E+01  0.10297461603E+02  0.94525360657E+02  0.89478154677E+02 0.  0.
         13    1    3    3    0    0  0.41261685101E+00 -0.30099166362E+02  0.38629023104E+02  0.48972876762E+02  0.10566000000E+00 0.  1.
         22    1    1    0    0    0  0.27555397313E+02  0.79602767870E+01 -0.10297461603E+02  0.30474639343E+02  0.00000000000E+00 0.  1.
</event>
<event>
 5    1  0.1245581E-004  0.9118800E+02  0.7818608E-02  0.1130116E+00
         25   -1    0    0    0    0  0.00000000000E+00  0.00000000000E+00  0.99999998245E-14  0.12500000000E+03  0.12500000000E+03 0.  0.
        -13    1    3    3    0    0  0.33472375618E+02  0.44064494186E+02  0.12254118349E+02  0.56676751476E+02  0.10566000000E+00 0.  1.
         23    2    1    0    0    0  0.17582226970E+02  0.22943053910E+02 -0.13065671088E+02  0.93278868417E+02  0.87719536616E+02 0.  0.
         13    1    3    3    0    0 -0.15890148648E+02 -0.21121440276E+02 -0.25319789437E+02  0.36602116941E+02  0.10566000000E+00 0. -1.
         22    1    1    0    0    0 -0.17582226970E+02 -0.22943053910E+02  0.13065671088E+02  0.31721131583E+02  0.00000000000E+00 0.  1.
</event>
<event>
 5    1  0.1245581E-004  0.9118800E+02  0.7818608E-02  0.1130116E+00
         25   -1    0    0    0    0  0.00000000000E+00  0.00000000000E+00  0.99999998245E-14  0.12500000000E+03  0.12500000000E+03 0.  0.
        -13    1    3    3    0    0 -0.14458416157E+02  0.41793478680E+02  0.41748700325E+02  0.60816986121E+02  0.10566000000E+00 0.  1.
         23    2    1    0    0    0  0.34475675592E+00  0.25816461390E+02  0.15657921149E+02  0.94804320994E+02  0.89867014241E+02 0.  0.
         13    1    3    3    0    0  0.14803172913E+02 -0.15977017290E+02 -0.26090779176E+02  0.33987334874E+02  0.10566000000E+00 0. -1.
         22    1    1    0    0    0 -0.34475675592E+00 -0.25816461390E+02 -0.15657921149E+02  0.30195679006E+02  0.00000000000E+00 0.  1.
</event>
<event>
 5    1  0.1245581E-004  0.9118800E+02  0.7818608E-02  0.1130116E+00
         25   -1    0    0    0    0  0.00000000000E+00  0.00000000000E+00  0.99999998245E-14  0.12500000000E+03  0.12500000000E+03 0.  0.
        -13    1    3    3    0    0  0.43244355839E+02 -0.44025418651E+02 -0.31814775162E+01  0.61793565705E+02  0.10566000000E+00 0.  1.
         23    2    1    0    0    0  0.21325460876E+02 -0.18511263470E+02 -0.76942022785E+01  0.95731537356E+02  0.91147596453E+02 0.  0.
         13    1    3    3    0    0 -0.21918894964E+02  0.25514155180E+02 -0.45127247623E+01  0.33937971651E+02  0.10566000000E+00 0. -1.
         22    1    1    0    0    0 -0.21325460876E+02  0.18511263470E+02  0.76942022785E+01  0.29268462644E+02  0.00000000000E+00 0.  1.
</event>
<event>
 5    1  0.1245581E-004  0.9118800E+02  0.7818608E-02  0.1130116E+00
         25   -1    0    0    0    0  0.00000000000E+00  0.00000000000E+00  0.99999998245E-14  0.12500000000E+03  0.12500000000E+03 0.  0.
        -13    1    3    3    0    0  0.33755470220E+02  0.14721430706E+02 -0.11665156326E+01  0.36844595460E+02  0.10566000000E+00 0.  1.
         23    2    1    0    0    0 -0.10154301598E+01 -0.27058389665E+02  0.15628273809E+02  0.93736115213E+02  0.88368709413E+02 0.  0.
         13    1    3    3    0    0 -0.34770900380E+02 -0.41779820371E+02  0.16794789442E+02  0.56891519754E+02  0.10566000000E+00 0. -1.
         22    1    1    0    0    0  0.10154301598E+01  0.27058389665E+02 -0.15628273809E+02  0.31263884787E+02  0.00000000000E+00 0. -1.
</event>
<event>
 5    1  0.1245581E-004  0.9118800E+02  0.7818608E-02  0.1130116E+00
         25   -1    0    0    0    0  0.00000000000E+00  0.00000000000E+00  0.99999998245E-14  0.12500000000E+03  0.12500000000E+03 0.  0.
        -13    1    3    3    0    0 -0.14484634232E+02  0.74959858619E+01  0.33859067280E+02  0.37582469770E+02  0.10566000000E+00 0.  1.
         23    2    1    0    0    0  0.28803617686E+02  0.32097153079E+01 -0.46115514064E+01  0.95653499859E+02  0.91040512766E+02 0.  0.
         13    1    3    3    0    0  0.43288251918E+02 -0.42862705540E+01 -0.38470618687E+02  0.58071030089E+02  0.10566000000E+00 0. -1.
         22    1    1    0    0    0 -0.28803617686E+02 -0.32097153079E+01  0.46115514064E+01  0.29346500141E+02  0.00000000000E+00 0. -1.
</event>
<event>
 5    1  0.1245581E-004  0.9118800E+02  0.7818608E-02  0.1130116E+00
         25   -1    0    0    0    0  0.00000000000E+00  0.00000000000E+00  0.99999998245E-14  0.12500000000E+03  0.12500000000E+03 0.  0.
        -13    1    3    3    0    0  0.39728575706E+02 -0.39086645287E+02  0.38002052423E+01  0.55862136473E+02  0.10566000000E+00 0.  1.
         23    2    1    0    0    0  0.48783023256E+01 -0.25654272245E+02  0.15038035785E+02  0.94865600416E+02  0.89952210112E+02 0.  0.
         13    1    3    3    0    0 -0.34850273380E+02  0.13432373042E+02  0.11237830543E+02  0.39003463943E+02  0.10566000000E+00 0. -1.
         22    1    1    0    0    0 -0.48783023256E+01  0.25654272245E+02 -0.15038035785E+02  0.30134399584E+02  0.00000000000E+00 0.  1.
</event>
<event>
 5    1  0.1245581E-004  0.9118800E+02  0.7818608E-02  0.1130116E+00
         25   -1    0    0    0    0  0.00000000000E+00  0.00000000000E+00  0.99999998245E-14  0.12500000000E+03  0.12500000000E+03 0.  0.
        -13    1    3    3    0    0  0.34197324124E+02 -0.95200467333E+01  0.16704391761E+02  0.39231825540E+02  0.10566000000E+00 0.  1.
         23    2    1    0    0    0 -0.19608458881E+02 -0.21171825623E+02  0.28429134325E+01  0.96003103327E+02  0.91519264812E+02 0.  0.
         13    1    3    3    0    0 -0.53805783005E+02 -0.11651778889E+02 -0.13861478329E+02  0.56771277787E+02  0.10566000000E+00 0. -1.
         22    1    1    0    0    0  0.19608458881E+02  0.21171825623E+02 -0.28429134325E+01  0.28996896673E+02  0.00000000000E+00 0. -1.
</event>
<event>
 5    1  0.1245581E-004  0.9118800E+02  0.7818608E-02  0.1130116E+00
         25   -1    0    0    0    0  0.00000000000E+00  0.00000000000E+00  0.99999998245E-14  0.12500000000E+03  0.12500000000E+03 0.  0.
        -13    1    3    3    0    0  0.35390907188E+02 -0.12905898979E+02 -0.77358314564E+01  0.38456895252E+02  0.10566000000E+00 0.  1.
         23    2    1    0    0    0  0.51683144598E+01 -0.12312385533E+02  0.33125596044E+02  0.89284297219E+02  0.81829544205E+02 0.  0.
         13    1    3    3    0    0 -0.30222592728E+02  0.59351344565E+00  0.40861427500E+02  0.50827401968E+02  0.10566000000E+00 0. -1.
         22    1    1    0    0    0 -0.51683144598E+01  0.12312385533E+02 -0.33125596044E+02  0.35715702781E+02  0.00000000000E+00 0. -1.
</event>
<event>
 5    1  0.1245581E-004  0.9118800E+02  0.7818608E-02  0.1130116E+00
         25   -1    0    0    0    0  0.00000000000E+00  0.00000000000E+00  0.99999998245E-14  0.12500000000E+03  0.12500000000E+03 0.  0.
        -13    1    3    3    0    0 -0.39205076573E+01  0.25710733019E+02 -0.40494510124E+02  0.48127213579E+02  0.10566000000E+00 0.  1.
         23    2    1    0    0    0  0.20747407312E+02 -0.90388288502E+01 -0.12077411297E+02  0.99348115063E+02  0.95979314260E+02 0.  0.
         13    1    3    3    0    0  0.24667914969E+02 -0.34749561869E+02  0.28417098827E+02  0.51220901484E+02  0.10566000000E+00 0. -1.
         22    1    1    0    0    0 -0.20747407312E+02  0.90388288502E+01  0.12077411297E+02  0.25651884937E+02  0.00000000000E+00 0. -1.
</event>
<event>
 5    1  0.1245581E-004  0.9118800E+02  0.7818608E-02  0.1130116E+00
         25   -1    0    0    0    0  0.00000000000E+00  0.00000000000E+00  0.99999998245E-14  0.12500000000E+03  0.12500000000E+03 0.  0.
        -13    1    3    3    0    0 -0.21723783987E+02 -0.54089162132E+01  0.54668015575E+02  0.59074379017E+02  0.10566000000E+00 0.  1.
         23    2    1    0    0    0 -0.11233111393E+02  0.12051906714E+02  0.24342895969E+02  0.95605989876E+02  0.90975257455E+02 0.  0.
         13    1    3    3    0    0  0.10490672594E+02  0.17460822927E+02 -0.30325119607E+02  0.36531610859E+02  0.10566000000E+00 0. -1.
         22    1    1    0    0    0  0.11233111393E+02 -0.12051906714E+02 -0.24342895969E+02  0.29394010124E+02  0.00000000000E+00 0.  1.
</event>
<event>
 5    1  0.1245581E-004  0.9118800E+02  0.7818608E-02  0.1130116E+00
         25   -1    0    0    0    0  0.00000000000E+00  0.00000000000E+00  0.99999998245E-14  0.12500000000E+03  0.12500000000E+03 0.  0.
        -13    1    3    3    0    0  0.59393103256E+01  0.50333346215E+02  0.36401607465E+02  0.62400395339E+02  0.10566000000E+00 0.  1.
         23    2    1    0    0    0  0.34210047698E+01  0.26729242860E+02  0.16299586438E+02  0.93506632198E+02  0.88043500892E+02 0.  0.
         13    1    3    3    0    0 -0.25183055558E+01 -0.23604103356E+02 -0.20102021027E+02  0.31106236859E+02  0.10566000000E+00 0. -1.
         22    1    1    0    0    0 -0.34210047698E+01 -0.26729242860E+02 -0.16299586438E+02  0.31493367802E+02  0.00000000000E+00 0.  1.
</event>
<event>
 5    1  0.1245581E-004  0.9118800E+02  0.7818608E-02  0.1130116E+00
         25   -1    0    0    0    0  0.00000000000E+00  0.00000000000E+00  0.99999998245E-14  0.12500000000E+03  0.12500000000E+03 0.  0.
        -13    1    3    3    0    0  0.37469129810E+02  0.18620649658E+02 -0.43672208525E+02  0.60480883293E+02  0.10566000000E+00 0.  1.
         23    2    1    0    0    0  0.19470112896E+02  0.17844112634E+02 -0.14223962479E+02  0.95003020811E+02  0.90142970900E+02 0.  0.
         13    1    3    3    0    0 -0.17999016914E+02 -0.77653702380E+00  0.29448246046E+02  0.34522137518E+02  0.10566000000E+00 0. -1.
         22    1    1    0    0    0 -0.19470112896E+02 -0.17844112634E+02  0.14223962479E+02  0.29996979189E+02  0.00000000000E+00 0.  1.
</event>
<event>
 5    1  0.1245581E-004  0.9118800E+02  0.7818608E-02  0.1130116E+00
         25   -1    0    0    0    0  0.00000000000E+00  0.00000000000E+00  0.99999998245E-14  0.12500000000E+03  0.12500000000E+03 0.  0.
        -13    1    3    3    0    0  0.18172400791E+02 -0.38345728555E+02 -0.20921254722E+01  0.42485517555E+02  0.10566000000E+00 0.  1.
         23    2    1    0    0    0 -0.16690948559E+02 -0.10578234666E+02  0.23827609411E+02  0.94044519343E+02  0.88803884125E+02 0.  0.
         13    1    3    3    0    0 -0.34863349351E+02  0.27767493889E+02  0.25919734884E+02  0.51559001787E+02  0.10566000000E+00 0. -1.
         22    1    1    0    0    0  0.16690948559E+02  0.10578234666E+02 -0.23827609411E+02  0.30955480657E+02  0.00000000000E+00 0. -1.
</event>
<event>
 5    1  0.1245581E-004  0.9118800E+02  0.7818608E-02  0.1130116E+00
         25   -1    0    0    0    0  0.00000000000E+00  0.00000000000E+00  0.99999998245E-14  0.12500000000E+03  0.12500000000E+03 0.  0.
        -13    1    3    3    0    0  0.37834173415E+02 -0.18566011436E+02 -0.30350903451E+02  0.51935632883E+02  0.10566000000E+00 0.  1.
         23    2    1    0    0    0  0.20687333310E+02  0.16631016493E+02 -0.68961897072E+01  0.97575304896E+02  0.93642010999E+02 0.  0.
         13    1    3    3    0    0 -0.17146840105E+02  0.35197027929E+02  0.23454713744E+02  0.45639672013E+02  0.10566000000E+00 0. -1.
         22    1    1    0    0    0 -0.20687333310E+02 -0.16631016493E+02  0.68961897072E+01  0.27424695104E+02  0.00000000000E+00 0.  1.
</event>
<event>
 5    1  0.1245581E-004  0.9118800E+02  0.7818608E-02  0.1130116E+00
         25   -1    0    0    0    0  0.00000000000E+00  0.00000000000E+00  0.99999998245E-14  0.12500000000E+03  0.12500000000E+03 0.  0.
        -13    1    3    3    0    0 -0.24014254291E+02  0.26294442495E+02 -0.15293533223E+02  0.38755456877E+02  0.10566000000E+00 0. -1.
         23    2    1    0    0    0  0.17359767719E+02 -0.15085172055E+02 -0.15490110818E+02  0.97271540173E+02  0.93235642559E+02 0.  0.
         13    1    3    3    0    0  0.41374022010E+02 -0.41379614550E+02 -0.19657759516E+00  0.58516083297E+02  0.10566000000E+00 0.  1.
         22    1    1    0    0    0 -0.17359767719E+02  0.15085172055E+02  0.15490110818E+02  0.27728459827E+02  0.00000000000E+00 0.  1.
</event>
<event>
 5    1  0.1245581E-004  0.9118800E+02  0.7818608E-02  0.1130116E+00
         25   -1    0    0    0    0  0.00000000000E+00  0.00000000000E+00  0.99999998245E-14  0.12500000000E+03  0.12500000000E+03 0.  0.
        -13    1    3    3    0    0 -0.41675360895E+02  0.15734170079E+01 -0.33606765453E+02  0.53560593678E+02  0.10566000000E+00 0.  1.
         23    2    1    0    0    0 -0.14442456639E+02 -0.22454446492E+02 -0.13241974604E+02  0.95198379030E+02  0.90413465576E+02 0.  0.
         13    1    3    3    0    0  0.27232904256E+02 -0.24027863500E+02  0.20364790850E+02  0.41637785352E+02  0.10566000000E+00 0. -1.
         22    1    1    0    0    0  0.14442456639E+02  0.22454446492E+02  0.13241974604E+02  0.29801620970E+02  0.00000000000E+00 0.  1.
</event>
<event>
 5    1  0.1245581E-004  0.9118800E+02  0.7818608E-02  0.1130116E+00
         25   -1    0    0    0    0  0.00000000000E+00  0.00000000000E+00  0.99999998245E-14  0.12500000000E+03  0.12500000000E+03 0.  0.
        -13    1    3    3    0    0  0.44536296049E+02 -0.34982907658E+02 -0.10664567808E+02  0.57628375515E+02  0.10566000000E+00 0. -1.
         23    2    1    0    0    0  0.88312338224E+01 -0.23773960782E+02 -0.15367672582E+02  0.95346041366E+02  0.90617384323E+02 0.  0.
         13    1    3    3    0    0 -0.35705062226E+02  0.11208946877E+02 -0.47031047746E+01  0.37717665851E+02  0.10566000000E+00 0.  1.
         22    1    1    0    0    0 -0.88312338224E+01  0.23773960782E+02  0.15367672582E+02  0.29653958634E+02  0.00000000000E+00 0. -1.
</event>
<event>
 5    1  0.1245581E-004  0.9118800E+02  0.7818608E-02  0.1130116E+00
         25   -1    0    0    0    0  0.00000000000E+00  0.00000000000E+00  0.99999998245E-14  0.12500000000E+03  0.12500000000E+03 0.  0.
        -13    1    3    3    0    0  0.90169890793E+01  0.22860386458E+02 -0.31677917896E+02  0.40092455741E+02  0.10566000000E+00 0.  1.
         23    2    1    0    0    0 -0.28204129480E+02 -0.52644035999E+00  0.37399287285E+01  0.96544119657E+02  0.92255243289E+02 0.  0.
         13    1    3    3    0    0 -0.37221118559E+02 -0.23386826818E+02  0.35417846624E+02  0.56451663917E+02  0.10566000000E+00 0. -1.
         22    1    1    0    0    0  0.28204129480E+02  0.52644035999E+00 -0.37399287285E+01  0.28455880343E+02  0.00000000000E+00 0. -1.
</event>
<event>
 5    1  0.1245581E-004  0.9118800E+02  0.7818608E-02  0.1130116E+00
         25   -1    0    0    0    0  0.00000000000E+00  0.00000000000E+00  0.99999998245E-14  0.12500000000E+03  0.12500000000E+03 0.  0.
        -13    1    3    3    0    0  0.15858866555E+02  0.38058581981E+02 -0.14836435759E+01  0.41257383256E+02  0.10566000000E+00 0. -1.
         23    2    1    0    0    0  0.22460230566E+02 -0.16931221771E+02 -0.33543333214E+01  0.96673691032E+02  0.92430637551E+02 0.  0.
         13    1    3    3    0    0  0.66013640106E+01 -0.54989803752E+02 -0.18706897456E+01  0.55416307777E+02  0.10566000000E+00 0.  1.
         22    1    1    0    0    0 -0.22460230566E+02  0.16931221771E+02  0.33543333214E+01  0.28326308968E+02  0.00000000000E+00 0.  1.
</event>
<event>
 5    1  0.1245581E-004  0.9118800E+02  0.7818608E-02  0.1130116E+00
         25   -1    0    0    0    0  0.00000000000E+00  0.00000000000E+00  0.99999998245E-14  0.12500000000E+03  0.12500000000E+03 0.  0.
        -13    1    3    3    0    0  0.11441869752E+02  0.34196478264E+02  0.83576284959E+01  0.37015896952E+02  0.10566000000E+00 0. -1.
         23    2    1    0    0    0 -0.46074518535E+01 -0.21649073263E+02  0.18686465405E+02  0.96032863879E+02  0.91559903723E+02 0.  0.
         13    1    3    3    0    0 -0.16049321605E+02 -0.55845551527E+02  0.10328836909E+02  0.59016966927E+02  0.10566000000E+00 0.  1.
         22    1    1    0    0    0  0.46074518535E+01  0.21649073263E+02 -0.18686465405E+02  0.28967136121E+02  0.00000000000E+00 0.  1.
</event>
<event>
 5    1  0.1245581E-004  0.9118800E+02  0.7818608E-02  0.1130116E+00
         25   -1    0    0    0    0  0.00000000000E+00  0.00000000000E+00  0.99999998245E-14  0.12500000000E+03  0.12500000000E+03 0.  0.
        -13    1    3    3    0    0 -0.20612554574E+02 -0.40253062655E+02 -0.15457968127E+02  0.47792744238E+02  0.10566000000E+00 0. -1.
         23    2    1    0    0    0 -0.23408133725E+02  0.98599613656E+01 -0.38334909805E+01  0.99312352858E+02  0.95932727546E+02 0.  0.
         13    1    3    3    0    0 -0.27955791511E+01  0.50113024021E+02  0.11624477147E+02  0.51519608619E+02  0.10566000000E+00 0.  1.
         22    1    1    0    0    0  0.23408133725E+02 -0.98599613656E+01  0.38334909805E+01  0.25687647142E+02  0.00000000000E+00 0.  1.
</event>
<event>
 5    1  0.1245581E-004  0.9118800E+02  0.7818608E-02  0.1130116E+00
         25   -1    0    0    0    0  0.00000000000E+00  0.00000000000E+00  0.99999998245E-14  0.12500000000E+03  0.12500000000E+03 0.  0.
        -13    1    3    3    0    0 -0.20215144190E+02 -0.51832079218E+02 -0.27903755745E+02  0.62240238105E+02  0.10566000000E+00 0.  1.
         23    2    1    0    0    0 -0.59968849233E+01 -0.26110773502E+02 -0.14414339764E+02  0.94577831890E+02  0.89551426413E+02 0.  0.
         13    1    3    3    0    0  0.14218259267E+02  0.25721305716E+02  0.13489415981E+02  0.32337593786E+02  0.10566000000E+00 0. -1.
         22    1    1    0    0    0  0.59968849233E+01  0.26110773502E+02  0.14414339764E+02  0.30422168110E+02  0.00000000000E+00 0.  1.
</event>
<event>
 5    1  0.1245581E-004  0.9118800E+02  0.7818608E-02  0.1130116E+00
         25   -1    0    0    0    0  0.00000000000E+00  0.00000000000E+00  0.99999998245E-14  0.12500000000E+03  0.12500000000E+03 0.  0.
        -13    1    3    3    0    0  0.30357466143E+02 -0.11491634064E+01  0.15115239892E+02  0.33931960866E+02  0.10566000000E+00 0.  1.
         23    2    1    0    0    0 -0.28336490114E+02  0.98462231775E+01  0.31212446380E+01  0.94839646041E+02  0.89916135984E+02 0.  0.
         13    1    3    3    0    0 -0.58693956257E+02  0.10995386584E+02 -0.11993995254E+02  0.60907685175E+02  0.10566000000E+00 0. -1.
         22    1    1    0    0    0  0.28336490114E+02 -0.98462231775E+01 -0.31212446380E+01  0.30160353959E+02  0.00000000000E+00 0. -1.
</event>
<event>
 5    1  0.1245581E-004  0.9118800E+02  0.7818608E-02  0.1130116E+00
         25   -1    0    0    0    0  0.00000000000E+00  0.00000000000E+00  0.99999998245E-14  0.12500000000E+03  0.12500000000E+03 0.  0.
        -13    1    3    3    0    0 -0.40536545558E+02 -0.16364746385E+02 -0.43921128552E+02  0.61968485114E+02  0.10566000000E+00 0.  1.
         23    2    1    0    0    0 -0.15240771688E+02 -0.11830739584E+02 -0.21915336344E+02  0.95801892393E+02  0.91244030481E+02 0.  0.
         13    1    3    3    0    0  0.25295773870E+02  0.45340068008E+01  0.22005792209E+02  0.33833407279E+02  0.10566000000E+00 0. -1.
         22    1    1    0    0    0  0.15240771688E+02  0.11830739584E+02  0.21915336344E+02  0.29198107607E+02  0.00000000000E+00 0.  1.
</event>
<event>
 5    1  0.1245581E-004  0.9118800E+02  0.7818608E-02  0.1130116E+00
         25   -1    0    0    0    0  0.00000000000E+00  0.00000000000E+00  0.99999998245E-14  0.12500000000E+03  0.12500000000E+03 0.  0.
        -13    1    3    3    0    0 -0.42949019136E+02  0.34908862207E+02 -0.96858260135E+01  0.56187839386E+02  0.10566000000E+00 0. -1.
         23    2    1    0    0    0 -0.26742747162E+02 -0.10650198927E+00 -0.13649745450E+02  0.94974986773E+02  0.90104088106E+02 0.  0.
         13    1    3    3    0    0  0.16206271974E+02 -0.35015364196E+02 -0.39639194360E+01  0.38787147387E+02  0.10566000000E+00 0.  1.
         22    1    1    0    0    0  0.26742747162E+02  0.10650198927E+00  0.13649745450E+02  0.30025013227E+02  0.00000000000E+00 0. -1.
</event>
<event>
 5    1  0.1245581E-004  0.9118800E+02  0.7818608E-02  0.1130116E+00
         25   -1    0    0    0    0  0.00000000000E+00  0.00000000000E+00  0.99999998245E-14  0.12500000000E+03  0.12500000000E+03 0.  0.
        -13    1    3    3    0    0  0.32897950903E+02  0.38432136044E+02 -0.34942324981E+02  0.61483993800E+02  0.10566000000E+00 0. -1.
         23    2    1    0    0    0  0.87009208211E+01  0.22317739579E+02 -0.15037881774E+02  0.96717047338E+02  0.92489252535E+02 0.  0.
         13    1    3    3    0    0 -0.24197030082E+02 -0.16114396465E+02  0.19904443207E+02  0.35233053538E+02  0.10566000000E+00 0.  1.
         22    1    1    0    0    0 -0.87009208211E+01 -0.22317739579E+02  0.15037881774E+02  0.28282952662E+02  0.00000000000E+00 0. -1.
</event>
<event>
 5    1  0.1245581E-004  0.9118800E+02  0.7818608E-02  0.1130116E+00
         25   -1    0    0    0    0  0.00000000000E+00  0.00000000000E+00  0.99999998245E-14  0.12500000000E+03  0.12500000000E+03 0.  0.
        -13    1    3    3    0    0 -0.41858410773E+02 -0.42189457168E+01 -0.14965988430E+02  0.44653309274E+02  0.10566000000E+00 0. -1.
         23    2    1    0    0    0  0.83963539682E+01 -0.16031319355E+02 -0.21732359196E+02  0.96719310538E+02  0.92492311218E+02 0.  0.
         13    1    3    3    0    0  0.50254764742E+02 -0.11812373639E+02 -0.67663707659E+01  0.52066001264E+02  0.10566000000E+00 0.  1.
         22    1    1    0    0    0 -0.83963539682E+01  0.16031319355E+02  0.21732359196E+02  0.28280689462E+02  0.00000000000E+00 0. -1.
</event>
<event>
 5    1  0.1245581E-004  0.9118800E+02  0.7818608E-02  0.1130116E+00
         25   -1    0    0    0    0  0.00000000000E+00  0.00000000000E+00  0.99999998245E-14  0.12500000000E+03  0.12500000000E+03 0.  0.
        -13    1    3    3    0    0  0.36388324943E+02 -0.17902263650E+02 -0.46064253870E+01  0.40814599775E+02  0.10566000000E+00 0. -1.
         23    2    1    0    0    0  0.36982373004E+02  0.20906293149E+02  0.82936059625E+01  0.81715442637E+02  0.69309888611E+02 0.  0.
         13    1    3    3    0    0  0.59404806138E+00  0.38808556799E+02  0.12900031349E+02  0.40900842862E+02  0.10566000000E+00 0.  1.
         22    1    1    0    0    0 -0.36982373004E+02 -0.20906293149E+02 -0.82936059625E+01  0.43284557363E+02  0.00000000000E+00 0. -1.
</event>
<event>
 5    1  0.1245581E-004  0.9118800E+02  0.7818608E-02  0.1130116E+00
         25   -1    0    0    0    0  0.00000000000E+00  0.00000000000E+00  0.99999998245E-14  0.12500000000E+03  0.12500000000E+03 0.  0.
        -13    1    3    3    0    0  0.10557778020E+02  0.10621981934E+02 -0.33431167144E+02  0.36632598564E+02  0.10566000000E+00 0. -1.
         23    2    1    0    0    0 -0.99863759839E+01 -0.11716017113E+02  0.21005281745E+02  0.98957445911E+02  0.95469165062E+02 0.  0.
         13    1    3    3    0    0 -0.20544154003E+02 -0.22337999047E+02  0.54436448889E+02  0.62324847347E+02  0.10566000000E+00 0.  1.
         22    1    1    0    0    0  0.99863759839E+01  0.11716017113E+02 -0.21005281745E+02  0.26042554089E+02  0.00000000000E+00 0.  1.
</event>
<event>
 5    1  0.1245581E-004  0.9118800E+02  0.7818608E-02  0.1130116E+00
         25   -1    0    0    0    0  0.00000000000E+00  0.00000000000E+00  0.99999998245E-14  0.12500000000E+03  0.12500000000E+03 0.  0.
        -13    1    3    3    0    0 -0.23554509310E+02 -0.45014404104E+01 -0.22898791155E+02  0.33157859928E+02  0.10566000000E+00 0.  1.
         23    2    1    0    0    0  0.16673683377E+02  0.79581726289E+00  0.24374993123E+02  0.95457059519E+02  0.90770396495E+02 0.  0.
         13    1    3    3    0    0  0.40228192687E+02  0.52972576732E+01  0.47273784278E+02  0.62299199592E+02  0.10566000000E+00 0. -1.
         22    1    1    0    0    0 -0.16673683377E+02 -0.79581726289E+00 -0.24374993123E+02  0.29542940481E+02  0.00000000000E+00 0. -1.
</event>
<event>
 5    1  0.1245581E-004  0.9118800E+02  0.7818608E-02  0.1130116E+00
         25   -1    0    0    0    0  0.00000000000E+00  0.00000000000E+00  0.99999998245E-14  0.12500000000E+03  0.12500000000E+03 0.  0.
        -13    1    3    3    0    0  0.13682267818E+02  0.31455968397E+01 -0.34388175507E+02  0.37143734476E+02  0.10566000000E+00 0. -1.
         23    2    1    0    0    0 -0.18161679666E+01  0.21489825937E+02  0.19363554733E+02  0.96016240120E+02  0.91537205714E+02 0.  0.
         13    1    3    3    0    0 -0.15498435784E+02  0.18344229098E+02  0.53751730240E+02  0.58872505644E+02  0.10566000000E+00 0.  1.
         22    1    1    0    0    0  0.18161679666E+01 -0.21489825937E+02 -0.19363554733E+02  0.28983759880E+02  0.00000000000E+00 0.  1.
</event>
<event>
 5    1  0.1245581E-004  0.9118800E+02  0.7818608E-02  0.1130116E+00
         25   -1    0    0    0    0  0.00000000000E+00  0.00000000000E+00  0.99999998245E-14  0.12500000000E+03  0.12500000000E+03 0.  0.
        -13    1    3    3    0    0  0.49006782221E+02  0.17171989055E+01 -0.94217492579E+01  0.49933896292E+02  0.10566000000E+00 0.  1.
         23    2    1    0    0    0  0.88163333960E+01 -0.24270790114E+02 -0.85371736439E+01  0.97802898663E+02  0.93945328068E+02 0.  0.
         13    1    3    3    0    0 -0.40190448825E+02 -0.25987989019E+02  0.88457561405E+00  0.47869002372E+02  0.10566000000E+00 0. -1.
         22    1    1    0    0    0 -0.88163333960E+01  0.24270790114E+02  0.85371736439E+01  0.27197101337E+02  0.00000000000E+00 0. -1.
</event>
<event>
 5    1  0.1245581E-004  0.9118800E+02  0.7818608E-02  0.1130116E+00
         25   -1    0    0    0    0  0.00000000000E+00  0.00000000000E+00  0.99999998245E-14  0.12500000000E+03  0.12500000000E+03 0.  0.
        -13    1    3    3    0    0 -0.51672332245E+02  0.43462255410E+00 -0.33545481756E+02  0.61607867409E+02  0.10566000000E+00 0.  1.
         23    2    1    0    0    0 -0.19868595057E+02 -0.37366965951E+01 -0.20417810139E+02  0.96266553603E+02  0.91878389193E+02 0.  0.
         13    1    3    3    0    0  0.31803737188E+02 -0.41713191492E+01  0.13127671617E+02  0.34658686194E+02  0.10566000000E+00 0. -1.
         22    1    1    0    0    0  0.19868595057E+02  0.37366965951E+01  0.20417810139E+02  0.28733446397E+02  0.00000000000E+00 0.  1.
</event>
<event>
 5    1  0.1245581E-004  0.9118800E+02  0.7818608E-02  0.1130116E+00
         25   -1    0    0    0    0  0.00000000000E+00  0.00000000000E+00  0.99999998245E-14  0.12500000000E+03  0.12500000000E+03 0.  0.
        -13    1    3    3    0    0 -0.25640794762E+02 -0.38083580031E+02  0.21392191742E+02  0.50650236481E+02  0.10566000000E+00 0.  1.
         23    2    1    0    0    0  0.14584869488E+02 -0.17186109146E+02  0.18085427499E+02  0.96100805316E+02  0.91652612233E+02 0.  0.
         13    1    3    3    0    0  0.40225664249E+02  0.20897470885E+02 -0.33067642431E+01  0.45450568836E+02  0.10566000000E+00 0. -1.
         22    1    1    0    0    0 -0.14584869488E+02  0.17186109146E+02 -0.18085427499E+02  0.28899194684E+02  0.00000000000E+00 0.  1.
</event>
<event>
 5    1  0.1245581E-004  0.9118800E+02  0.7818608E-02  0.1130116E+00
         25   -1    0    0    0    0  0.00000000000E+00  0.00000000000E+00  0.99999998245E-14  0.12500000000E+03  0.12500000000E+03 0.  0.
        -13    1    3    3    0    0 -0.59650646766E+02 -0.11825324586E+02 -0.60523738272E+01  0.61112031174E+02  0.10566000000E+00 0. -1.
         23    2    1    0    0    0 -0.29028903589E+02  0.36914875429E+01 -0.22478451700E+01  0.95651113620E+02  0.91037236365E+02 0.  0.
         13    1    3    3    0    0  0.30621743178E+02  0.15516812129E+02  0.38045286572E+01  0.34539082446E+02  0.10566000000E+00 0.  1.
         22    1    1    0    0    0  0.29028903589E+02 -0.36914875429E+01  0.22478451700E+01  0.29348886380E+02  0.00000000000E+00 0. -1.
</event>
<event>
 5    1  0.1245581E-004  0.9118800E+02  0.7818608E-02  0.1130116E+00
         25   -1    0    0    0    0  0.00000000000E+00  0.00000000000E+00  0.99999998245E-14  0.12500000000E+03  0.12500000000E+03 0.  0.
        -13    1    3    3    0    0 -0.50785577706E+02  0.22657274961E+02  0.23150974954E+02  0.60237080083E+02  0.10566000000E+00 0. -1.
         23    2    1    0    0    0 -0.26185896551E+02 -0.10244747848E+01  0.79456331912E+01  0.97615993471E+02  0.93696309253E+02 0.  0.
         13    1    3    3    0    0  0.24599681155E+02 -0.23681749745E+02 -0.15205341762E+02  0.37378913388E+02  0.10566000000E+00 0.  1.
         22    1    1    0    0    0  0.26185896551E+02  0.10244747848E+01 -0.79456331912E+01  0.27384006529E+02  0.00000000000E+00 0. -1.
</event>
<event>
 5    1  0.1245581E-004  0.9118800E+02  0.7818608E-02  0.1130116E+00
         25   -1    0    0    0    0  0.00000000000E+00  0.00000000000E+00  0.99999998245E-14  0.12500000000E+03  0.12500000000E+03 0.  0.
        -13    1    3    3    0    0  0.17167003257E+02 -0.12885124086E+01 -0.29196737953E+02  0.33894349620E+02  0.10566000000E+00 0.  1.
         23    2    1    0    0    0 -0.24956100054E+02 -0.54977676446E+01  0.15222451729E+02  0.95255161530E+02  0.90491935455E+02 0.  0.
         13    1    3    3    0    0 -0.42123103311E+02 -0.42092552360E+01  0.44419189682E+02  0.61360811910E+02  0.10566000000E+00 0. -1.
         22    1    1    0    0    0  0.24956100054E+02  0.54977676446E+01 -0.15222451729E+02  0.29744838470E+02  0.00000000000E+00 0. -1.
</event>
<event>
 5    1  0.1245581E-004  0.9118800E+02  0.7818608E-02  0.1130116E+00
         25   -1    0    0    0    0  0.00000000000E+00  0.00000000000E+00  0.99999998245E-14  0.12500000000E+03  0.12500000000E+03 0.  0.
        -13    1    3    3    0    0 -0.14725133316E+02  0.67434780757E+01 -0.45106958903E+02  0.47926537046E+02  0.10566000000E+00 0. -1.
         23    2    1    0    0    0  0.17313342447E+02 -0.15620443899E+02 -0.14716908118E+02  0.97425782354E+02  0.93442204535E+02 0.  0.
         13    1    3    3    0    0  0.32038475762E+02 -0.22363921975E+02  0.30390050785E+02  0.49499245308E+02  0.10566000000E+00 0.  1.
         22    1    1    0    0    0 -0.17313342447E+02  0.15620443899E+02  0.14716908118E+02  0.27574217646E+02  0.00000000000E+00 0. -1.
</event>
<event>
 5    1  0.1245581E-004  0.9118800E+02  0.7818608E-02  0.1130116E+00
         25   -1    0    0    0    0  0.00000000000E+00  0.00000000000E+00  0.99999998245E-14  0.12500000000E+03  0.12500000000E+03 0.  0.
        -13    1    3    3    0    0  0.17144798139E+02  0.50279035123E+02 -0.28407192468E+02  0.60240395284E+02  0.10566000000E+00 0.  1.
         23    2    1    0    0    0  0.16224505731E+02  0.25910441410E+02 -0.50371379030E+01  0.94016805870E+02  0.88764866177E+02 0.  0.
         13    1    3    3    0    0 -0.92029240862E+00 -0.24368593713E+02  0.23370054565E+02  0.33776410586E+02  0.10566000000E+00 0. -1.
         22    1    1    0    0    0 -0.16224505731E+02 -0.25910441410E+02  0.50371379030E+01  0.30983194130E+02  0.00000000000E+00 0.  1.
</event>
<event>
 5    1  0.1245581E-004  0.9118800E+02  0.7818608E-02  0.1130116E+00
         25   -1    0    0    0    0  0.00000000000E+00  0.00000000000E+00  0.99999998245E-14  0.12500000000E+03  0.12500000000E+03 0.  0.
        -13    1    3    3    0    0 -0.37934013001E+01  0.28288090550E+02 -0.27159059922E+02  0.39398371290E+02  0.10566000000E+00 0.  1.
         23    2    1    0    0    0 -0.20759221284E+02 -0.20213852597E+02 -0.40354238175E+01  0.95745431972E+02  0.91166649565E+02 0.  0.
         13    1    3    3    0    0 -0.16965819984E+02 -0.48501943147E+02  0.23123636105E+02  0.56347060682E+02  0.10566000000E+00 0. -1.
         22    1    1    0    0    0  0.20759221284E+02  0.20213852597E+02  0.40354238175E+01  0.29254568028E+02  0.00000000000E+00 0. -1.
</event>
<event>
 5    1  0.1245581E-004  0.9118800E+02  0.7818608E-02  0.1130116E+00
         25   -1    0    0    0    0  0.00000000000E+00  0.00000000000E+00  0.99999998245E-14  0.12500000000E+03  0.12500000000E+03 0.  0.
        -13    1    3    3    0    0 -0.34035996189E+02  0.19770769074E+00 -0.11045103701E+02  0.35783985310E+02  0.10566000000E+00 0.  1.
         23    2    1    0    0    0  0.23246739689E+02 -0.15947691684E+02 -0.92655401209E+01  0.95325263103E+02  0.90588717706E+02 0.  0.
         13    1    3    3    0    0  0.57282735877E+02 -0.16145399375E+02  0.17795635803E+01  0.59541277792E+02  0.10566000000E+00 0. -1.
         22    1    1    0    0    0 -0.23246739689E+02  0.15947691684E+02  0.92655401209E+01  0.29674736897E+02  0.00000000000E+00 0. -1.
</event>
<event>
 5    1  0.1245581E-004  0.9118800E+02  0.7818608E-02  0.1130116E+00
         25   -1    0    0    0    0  0.00000000000E+00  0.00000000000E+00  0.99999998245E-14  0.12500000000E+03  0.12500000000E+03 0.  0.
        -13    1    3    3    0    0  0.17941364144E+02 -0.31482843008E+02 -0.17341958642E+02  0.40172336810E+02  0.10566000000E+00 0. -1.
         23    2    1    0    0    0  0.18347063843E+02  0.21397656580E+02  0.26096244902E+01  0.96693029149E+02  0.92456786053E+02 0.  0.
         13    1    3    3    0    0  0.40569969860E+00  0.52880499588E+02  0.19951583133E+02  0.56520692339E+02  0.10566000000E+00 0.  1.
         22    1    1    0    0    0 -0.18347063843E+02 -0.21397656580E+02 -0.26096244902E+01  0.28306970851E+02  0.00000000000E+00 0.  1.
</event>
<event>
 5    1  0.1245581E-004  0.9118800E+02  0.7818608E-02  0.1130116E+00
         25   -1    0    0    0    0  0.00000000000E+00  0.00000000000E+00  0.99999998245E-14  0.12500000000E+03  0.12500000000E+03 0.  0.
        -13    1    3    3    0    0 -0.11646705502E+01  0.37962429474E+02  0.19475283235E+02  0.42682552995E+02  0.10566000000E+00 0.  1.
         23    2    1    0    0    0  0.24906396523E+02 -0.76128748710E+01  0.13888376574E+02  0.95484386244E+02  0.90808020356E+02 0.  0.
         13    1    3    3    0    0  0.26071067073E+02 -0.45575304345E+02 -0.55869066608E+01  0.52801833249E+02  0.10566000000E+00 0. -1.
         22    1    1    0    0    0 -0.24906396523E+02  0.76128748710E+01 -0.13888376574E+02  0.29515613756E+02  0.00000000000E+00 0. -1.
</event>
<event>
 5    1  0.1245581E-004  0.9118800E+02  0.7818608E-02  0.1130116E+00
         25   -1    0    0    0    0  0.00000000000E+00  0.00000000000E+00  0.99999998245E-14  0.12500000000E+03  0.12500000000E+03 0.  0.
        -13    1    3    3    0    0  0.14383125434E+02  0.59212438249E+02 -0.80684571825E+01  0.61466237122E+02  0.10566000000E+00 0. -1.
         23    2    1    0    0    0  0.14123602584E+02  0.35263595626E+02  0.79689842538E+00  0.87004837498E+02  0.78270105242E+02 0.  0.
         13    1    3    3    0    0 -0.25952284959E+00 -0.23948842623E+02  0.88653556079E+01  0.25538600376E+02  0.10566000000E+00 0.  1.
         22    1    1    0    0    0 -0.14123602584E+02 -0.35263595626E+02 -0.79689842538E+00  0.37995162502E+02  0.00000000000E+00 0. -1.
</event>
<event>
 5    1  0.1245581E-004  0.9118800E+02  0.7818608E-02  0.1130116E+00
         25   -1    0    0    0    0  0.00000000000E+00  0.00000000000E+00  0.99999998245E-14  0.12500000000E+03  0.12500000000E+03 0.  0.
        -13    1    3    3    0    0 -0.19342724445E+02 -0.36688925237E+02 -0.40683567608E+01  0.41674703536E+02  0.10566000000E+00 0. -1.
         23    2    1    0    0    0 -0.21453352731E+02  0.17715277590E+02 -0.73643401037E+01  0.96219608956E+02  0.91814499067E+02 0.  0.
         13    1    3    3    0    0 -0.21106282857E+01  0.54404202827E+02 -0.32959833429E+01  0.54544905420E+02  0.10566000000E+00 0.  1.
         22    1    1    0    0    0  0.21453352731E+02 -0.17715277590E+02  0.73643401037E+01  0.28780391044E+02  0.00000000000E+00 0.  1.
</event>
<event>
 5    1  0.1245581E-004  0.9118800E+02  0.7818608E-02  0.1130116E+00
         25   -1    0    0    0    0  0.00000000000E+00  0.00000000000E+00  0.99999998245E-14  0.12500000000E+03  0.12500000000E+03 0.  0.
        -13    1    3    3    0    0  0.11656949533E+01  0.21691615362E+02 -0.44653957134E+02  0.49657548002E+02  0.10566000000E+00 0.  1.
         23    2    1    0    0    0 -0.13675724803E+02 -0.14693579488E+02 -0.22805392137E+02  0.94618876953E+02  0.89608700684E+02 0.  0.
         13    1    3    3    0    0 -0.14841419756E+02 -0.36385194850E+02  0.21848564997E+02  0.44961328952E+02  0.10566000000E+00 0. -1.
         22    1    1    0    0    0  0.13675724803E+02  0.14693579488E+02  0.22805392137E+02  0.30381123047E+02  0.00000000000E+00 0. -1.
</event>
<event>
 5    1  0.1245581E-004  0.9118800E+02  0.7818608E-02  0.1130116E+00
         25   -1    0    0    0    0  0.00000000000E+00  0.00000000000E+00  0.99999998245E-14  0.12500000000E+03  0.12500000000E+03 0.  0.
        -13    1    3    3    0    0 -0.22236289122E+02  0.28205249892E+02  0.29120131376E+02  0.46238316262E+02  0.10566000000E+00 0. -1.
         23    2    1    0    0    0  0.21042327564E+02  0.59725805400E+01  0.19201148669E+02  0.95894409853E+02  0.91370687112E+02 0.  0.
         13    1    3    3    0    0  0.43278616685E+02 -0.22232669352E+02 -0.99189827075E+01  0.49656093591E+02  0.10566000000E+00 0.  1.
         22    1    1    0    0    0 -0.21042327564E+02 -0.59725805400E+01 -0.19201148669E+02  0.29105590147E+02  0.00000000000E+00 0. -1.
</event>
<event>
 5    1  0.1245581E-004  0.9118800E+02  0.7818608E-02  0.1130116E+00
         25   -1    0    0    0    0  0.00000000000E+00  0.00000000000E+00  0.99999998245E-14  0.12500000000E+03  0.12500000000E+03 0.  0.
        -13    1    3    3    0    0 -0.50971514357E+02 -0.30192769423E+02  0.15490825164E+02  0.61234593406E+02  0.10566000000E+00 0.  1.
         23    2    1    0    0    0 -0.26451481803E+02 -0.54705751183E+01  0.76478582470E+01  0.96926920058E+02  0.92772463665E+02 0.  0.
         13    1    3    3    0    0  0.24520032554E+02  0.24722194305E+02 -0.78429669170E+01  0.35692326652E+02  0.10566000000E+00 0. -1.
         22    1    1    0    0    0  0.26451481803E+02  0.54705751183E+01 -0.76478582470E+01  0.28073079942E+02  0.00000000000E+00 0.  1.
</event>
<event>
 5    1  0.1245581E-004  0.9118800E+02  0.7818608E-02  0.1130116E+00
         25   -1    0    0    0    0  0.00000000000E+00  0.00000000000E+00  0.99999998245E-14  0.12500000000E+03  0.12500000000E+03 0.  0.
        -13    1    3    3    0    0 -0.10767931633E+01  0.33282688895E+02 -0.25481346372E+01  0.33397619941E+02  0.10566000000E+00 0. -1.
         23    2    1    0    0    0 -0.56340548560E+01 -0.28212403596E+02 -0.75272016400E+01  0.95262127592E+02  0.90501557435E+02 0.  0.
         13    1    3    3    0    0 -0.45572616927E+01 -0.61495092491E+02 -0.49790670028E+01  0.61864507651E+02  0.10566000000E+00 0.  1.
         22    1    1    0    0    0  0.56340548560E+01  0.28212403596E+02  0.75272016400E+01  0.29737872408E+02  0.00000000000E+00 0.  1.
</event>
<event>
 5    1  0.1245581E-004  0.9118800E+02  0.7818608E-02  0.1130116E+00
         25   -1    0    0    0    0  0.00000000000E+00  0.00000000000E+00  0.99999998245E-14  0.12500000000E+03  0.12500000000E+03 0.  0.
        -13    1    3    3    0    0 -0.12600909965E+02  0.53892193305E+02 -0.44118673524E+01  0.55521411804E+02  0.10566000000E+00 0.  1.
         23    2    1    0    0    0 -0.33586744523E+01  0.21797230779E+02  0.18656520953E+02  0.96112879379E+02  0.91669077909E+02 0.  0.
         13    1    3    3    0    0  0.92422355131E+01 -0.32094962526E+02  0.23068388305E+02  0.40591467575E+02  0.10566000000E+00 0. -1.
         22    1    1    0    0    0  0.33586744523E+01 -0.21797230779E+02 -0.18656520953E+02  0.28887120621E+02  0.00000000000E+00 0.  1.
</event>
<event>
 5    1  0.1245581E-004  0.9118800E+02  0.7818608E-02  0.1130116E+00
         25   -1    0    0    0    0  0.00000000000E+00  0.00000000000E+00  0.99999998245E-14  0.12500000000E+03  0.12500000000E+03 0.  0.
        -13    1    3    3    0    0  0.41085325742E+02 -0.67299069103E+01 -0.10695616735E+02  0.42984916188E+02  0.10566000000E+00 0. -1.
         23    2    1    0    0    0  0.69088611659E+00  0.23139101862E+02 -0.20391489083E+02  0.94150232001E+02  0.88952560392E+02 0.  0.
         13    1    3    3    0    0 -0.40394439625E+02  0.29869008772E+02 -0.96958723479E+01  0.51165315813E+02  0.10566000000E+00 0.  1.
         22    1    1    0    0    0 -0.69088611659E+00 -0.23139101862E+02  0.20391489083E+02  0.30849767999E+02  0.00000000000E+00 0.  1.
</event>
<event>
 5    1  0.1245581E-004  0.9118800E+02  0.7818608E-02  0.1130116E+00
         25   -1    0    0    0    0  0.00000000000E+00  0.00000000000E+00  0.99999998245E-14  0.12500000000E+03  0.12500000000E+03 0.  0.
        -13    1    3    3    0    0  0.77582641470E+01  0.55956995602E+02 -0.20310632520E+01  0.56528863436E+02  0.10566000000E+00 0. -1.
         23    2    1    0    0    0 -0.14665020427E+02  0.27383583966E+02 -0.69124817471E+01  0.93176959623E+02  0.87574196575E+02 0.  0.
         13    1    3    3    0    0 -0.22423284574E+02 -0.28573411636E+02 -0.48814184951E+01  0.36648096187E+02  0.10566000000E+00 0.  1.
         22    1    1    0    0    0  0.14665020427E+02 -0.27383583966E+02  0.69124817471E+01  0.31823040377E+02  0.00000000000E+00 0. -1.
</event>
<event>
 5    1  0.1245581E-004  0.9118800E+02  0.7818608E-02  0.1130116E+00
         25   -1    0    0    0    0  0.00000000000E+00  0.00000000000E+00  0.99999998245E-14  0.12500000000E+03  0.12500000000E+03 0.  0.
        -13    1    3    3    0    0 -0.12269488037E+02 -0.31497920652E+02  0.81266757964E+01  0.34766555274E+02  0.10566000000E+00 0.  1.
         23    2    1    0    0    0  0.15822623513E+02  0.18882690631E+02 -0.14135782504E+02  0.96596976089E+02  0.92326832623E+02 0.  0.
         13    1    3    3    0    0  0.28092111550E+02  0.50380611283E+02 -0.22262458301E+02  0.61830420815E+02  0.10566000000E+00 0. -1.
         22    1    1    0    0    0 -0.15822623513E+02 -0.18882690631E+02  0.14135782504E+02  0.28403023911E+02  0.00000000000E+00 0. -1.
</event>
<event>
 5    1  0.1245581E-004  0.9118800E+02  0.7818608E-02  0.1130116E+00
         25   -1    0    0    0    0  0.00000000000E+00  0.00000000000E+00  0.99999998245E-14  0.12500000000E+03  0.12500000000E+03 0.  0.
        -13    1    3    3    0    0 -0.49373730247E+02 -0.16291564315E+01 -0.88383621626E+01  0.50185129261E+02  0.10566000000E+00 0.  1.
         23    2    1    0    0    0 -0.29619620403E+02  0.25274957648E+02 -0.13286462150E+02  0.83857862557E+02  0.73071647301E+02 0.  0.
         13    1    3    3    0    0  0.19754109844E+02  0.26904114079E+02 -0.44480999870E+01  0.33672733296E+02  0.10566000000E+00 0. -1.
         22    1    1    0    0    0  0.29619620403E+02 -0.25274957648E+02  0.13286462150E+02  0.41142137443E+02  0.00000000000E+00 0.  1.
</event>
<event>
 5    1  0.1245581E-004  0.9118800E+02  0.7818608E-02  0.1130116E+00
         25   -1    0    0    0    0  0.00000000000E+00  0.00000000000E+00  0.99999998245E-14  0.12500000000E+03  0.12500000000E+03 0.  0.
        -13    1    3    3    0    0  0.84823868077E+01  0.22397179754E+02 -0.38506669284E+02  0.45347097926E+02  0.10566000000E+00 0. -1.
         23    2    1    0    0    0  0.13161675002E+02 -0.21654539543E+02 -0.15932498281E+02  0.95066853270E+02  0.90231443064E+02 0.  0.
         13    1    3    3    0    0  0.46792881945E+01 -0.44051719297E+02  0.22574171003E+02  0.49719755344E+02  0.10566000000E+00 0.  1.
         22    1    1    0    0    0 -0.13161675002E+02  0.21654539543E+02  0.15932498281E+02  0.29933146730E+02  0.00000000000E+00 0.  1.
</event>
<event>
 5    1  0.1245581E-004  0.9118800E+02  0.7818608E-02  0.1130116E+00
         25   -1    0    0    0    0  0.00000000000E+00  0.00000000000E+00  0.99999998245E-14  0.12500000000E+03  0.12500000000E+03 0.  0.
        -13    1    3    3    0    0 -0.33484384587E+02  0.75700046131E+01  0.17613419170E+02  0.38584357969E+02  0.10566000000E+00 0.  1.
         23    2    1    0    0    0  0.15182831046E+02  0.25890109056E+02 -0.36504841493E+01  0.94765216388E+02  0.89812605446E+02 0.  0.
         13    1    3    3    0    0  0.48667215633E+02  0.18320104443E+02 -0.21263903319E+02  0.56180858419E+02  0.10566000000E+00 0. -1.
         22    1    1    0    0    0 -0.15182831046E+02 -0.25890109056E+02  0.36504841493E+01  0.30234783612E+02  0.00000000000E+00 0. -1.
</event>
<event>
 5    1  0.1245581E-004  0.9118800E+02  0.7818608E-02  0.1130116E+00
         25   -1    0    0    0    0  0.00000000000E+00  0.00000000000E+00  0.99999998245E-14  0.12500000000E+03  0.12500000000E+03 0.  0.
        -13    1    3    3    0    0  0.49531989189E+02  0.26670479429E+02 -0.28142514333E+01  0.56326402345E+02  0.10566000000E+00 0. -1.
         23    2    1    0    0    0  0.12742071606E+02  0.26604902784E+02 -0.10078764166E+02  0.93826890946E+02  0.88497021061E+02 0.  0.
         13    1    3    3    0    0 -0.36789917583E+02 -0.65576644949E-01 -0.72645127330E+01  0.37500488601E+02  0.10566000000E+00 0.  1.
         22    1    1    0    0    0 -0.12742071606E+02 -0.26604902784E+02  0.10078764166E+02  0.31173109054E+02  0.00000000000E+00 0. -1.
</event>
<event>
 5    1  0.1245581E-004  0.9118800E+02  0.7818608E-02  0.1130116E+00
         25   -1    0    0    0    0  0.00000000000E+00  0.00000000000E+00  0.99999998245E-14  0.12500000000E+03  0.12500000000E+03 0.  0.
        -13    1    3    3    0    0 -0.61971221165E+01  0.41778657579E+02  0.34315056892E+02  0.54418699408E+02  0.10566000000E+00 0. -1.
         23    2    1    0    0    0 -0.65259910703E+01  0.88296125133E+00  0.28526200927E+02  0.95723519349E+02  0.91136599877E+02 0.  0.
         13    1    3    3    0    0 -0.32886895372E+00 -0.40895696328E+02 -0.57888559655E+01  0.41304819941E+02  0.10566000000E+00 0.  1.
         22    1    1    0    0    0  0.65259910703E+01 -0.88296125133E+00 -0.28526200927E+02  0.29276480651E+02  0.00000000000E+00 0. -1.
</event>
