<event>
 5    1  0.1282529E-003  0.9118800E+02  0.7818608E-02  0.1130116E+00
         25   -1    0    0    0    0  0.00000000000E+00  0.00000000000E+00  0.99999998245E-14  0.12500000000E+03  0.12500000000E+03 0.  0.
        -11    1    3    3    0    0  0.23171666004E+02 -0.41052163481E+02 -0.22028558592E+02  0.52033293436E+02  0.51100000000E-03 0. -1.
         23    2    1    0    0    0  0.82546493044E+01 -0.24107340358E+02  0.15022311442E+02  0.95420058565E+02  0.90719428135E+02 0.  0.
         11    1    3    3    0    0 -0.14917016699E+02  0.16944823124E+02  0.37050870033E+02  0.43386765129E+02  0.51100000000E-03 0.  1.
         22    1    1    0    0    0 -0.82546493044E+01  0.24107340358E+02 -0.15022311442E+02  0.29579941435E+02  0.00000000000E+00 0. -1.
</event>
<event>
 5    1  0.1282529E-003  0.9118800E+02  0.7818608E-02  0.1130116E+00
         25   -1    0    0    0    0  0.00000000000E+00  0.00000000000E+00  0.99999998245E-14  0.12500000000E+03  0.12500000000E+03 0.  0.
        -11    1    3    3    0    0 -0.32903747502E+02  0.88541233593E+01 -0.21353530384E+02  0.40212253856E+02  0.51100000000E-03 0.  1.
         23    2    1    0    0    0 -0.24274798094E+01  0.19220100643E+02  0.22944050562E+02  0.94971107527E+02  0.90098706327E+02 0.  0.
         11    1    3    3    0    0  0.30476267692E+02  0.10365977283E+02  0.44297580946E+02  0.54758853671E+02  0.51100000000E-03 0. -1.
         22    1    1    0    0    0  0.24274798094E+01 -0.19220100643E+02 -0.22944050562E+02  0.30028892473E+02  0.00000000000E+00 0. -1.
</event>
<event>
 5    1  0.1282529E-003  0.9118800E+02  0.7818608E-02  0.1130116E+00
         25   -1    0    0    0    0  0.00000000000E+00  0.00000000000E+00  0.99999998245E-14  0.12500000000E+03  0.12500000000E+03 0.  0.
        -11    1    3    3    0    0 -0.84184126881E+01 -0.15074366957E+02 -0.87936948776E+01  0.19376152384E+02  0.51100000000E-03 0. -1.
         23    2    1    0    0    0  0.84927101614E+01  0.37045724549E+02 -0.28380037109E+02  0.77566485060E+02  0.61372805582E+02 0.  0.
         11    1    3    3    0    0  0.16911122849E+02  0.52120091506E+02 -0.19586342231E+02  0.58190332676E+02  0.51100000000E-03 0.  1.
         22    1    1    0    0    0 -0.84927101614E+01 -0.37045724549E+02  0.28380037109E+02  0.47433514940E+02  0.00000000000E+00 0.  1.
</event>
<event>
 5    1  0.1282529E-003  0.9118800E+02  0.7818608E-02  0.1130116E+00
         25   -1    0    0    0    0  0.00000000000E+00  0.00000000000E+00  0.99999998245E-14  0.12500000000E+03  0.12500000000E+03 0.  0.
        -11    1    3    3    0    0 -0.16896902740E+02  0.39356888288E+02  0.93293136787E+01  0.43834986847E+02  0.51100000000E-03 0. -1.
         23    2    1    0    0    0  0.25285077778E+02  0.26093656473E+02  0.24755202556E+01  0.88581017767E+02  0.80748092497E+02 0.  0.
         11    1    3    3    0    0  0.42181980518E+02 -0.13263231815E+02 -0.68537934231E+01  0.44746030920E+02  0.51100000000E-03 0.  1.
         22    1    1    0    0    0 -0.25285077778E+02 -0.26093656473E+02 -0.24755202556E+01  0.36418982233E+02  0.00000000000E+00 0.  1.
</event>
<event>
 5    1  0.1282529E-003  0.9118800E+02  0.7818608E-02  0.1130116E+00
         25   -1    0    0    0    0  0.00000000000E+00  0.00000000000E+00  0.99999998245E-14  0.12500000000E+03  0.12500000000E+03 0.  0.
        -11    1    3    3    0    0 -0.12761434361E+02 -0.40951080723E+02  0.21487598135E+02  0.47974598417E+02  0.51100000000E-03 0.  1.
         23    2    1    0    0    0 -0.27878935848E+02  0.22236807629E+01  0.50682834400E+01  0.96576993172E+02  0.92299774068E+02 0.  0.
         11    1    3    3    0    0 -0.15117501486E+02  0.43174761486E+02 -0.16419314695E+02  0.48602394755E+02  0.51100000000E-03 0. -1.
         22    1    1    0    0    0  0.27878935848E+02 -0.22236807629E+01 -0.50682834400E+01  0.28423006828E+02  0.00000000000E+00 0.  1.
</event>
<event>
 5    1  0.1282529E-003  0.9118800E+02  0.7818608E-02  0.1130116E+00
         25   -1    0    0    0    0  0.00000000000E+00  0.00000000000E+00  0.99999998245E-14  0.12500000000E+03  0.12500000000E+03 0.  0.
        -11    1    3    3    0    0 -0.43722590996E+01 -0.37219457881E+02  0.31468953995E+02  0.48935669613E+02  0.51100000000E-03 0. -1.
         23    2    1    0    0    0  0.20784143141E+02 -0.21326112561E+02 -0.36864935317E+01  0.94993768686E+02  0.90130140195E+02 0.  0.
         11    1    3    3    0    0  0.25156402241E+02  0.15893345320E+02 -0.35155447527E+02  0.46058099073E+02  0.51100000000E-03 0.  1.
         22    1    1    0    0    0 -0.20784143141E+02  0.21326112561E+02  0.36864935317E+01  0.30006231314E+02  0.00000000000E+00 0. -1.
</event>
<event>
 5    1  0.1282529E-003  0.9118800E+02  0.7818608E-02  0.1130116E+00
         25   -1    0    0    0    0  0.00000000000E+00  0.00000000000E+00  0.99999998245E-14  0.12500000000E+03  0.12500000000E+03 0.  0.
        -11    1    3    3    0    0  0.59742978792E+02  0.49958029950E+01 -0.12844490692E+02  0.61312009459E+02  0.51100000000E-03 0. -1.
         23    2    1    0    0    0  0.24229023062E+02 -0.15800002254E+01 -0.13059413911E+02  0.97430265671E+02  0.93448201790E+02 0.  0.
         11    1    3    3    0    0 -0.35513955730E+02 -0.65758032204E+01 -0.21492321880E+00  0.36118256213E+02  0.51100000000E-03 0.  1.
         22    1    1    0    0    0 -0.24229023062E+02  0.15800002254E+01  0.13059413911E+02  0.27569734329E+02  0.00000000000E+00 0. -1.
</event>
<event>
 4    1  0.1282529E-003  0.9118800E+02  0.7818608E-02  0.1130116E+00
         25   -1    0    0    0    0  0.00000000000E+00  0.00000000000E+00  0.99999998245E-14  0.12500000000E+03  0.12500000000E+03 0.  0.
        -11    1    1    0    0    0  0.69825908596E+01 -0.54653592619E+01  0.54629771173E+02  0.55344725365E+02  0.51100000000E-03 0.  1.
         11    1    1    0    0    0  0.15032411567E+02 -0.29259736059E+01 -0.76949115461E+01  0.17139030983E+02  0.51100000000E-03 0. -1.
         22    1    1    0    0    0 -0.22015002427E+02  0.83913328678E+01 -0.46934859627E+02  0.52516243653E+02  0.00000000000E+00 0.  1.
</event>
<event>
 5    1  0.1282529E-003  0.9118800E+02  0.7818608E-02  0.1130116E+00
         25   -1    0    0    0    0  0.00000000000E+00  0.00000000000E+00  0.99999998245E-14  0.12500000000E+03  0.12500000000E+03 0.  0.
        -11    1    3    3    0    0 -0.94252020260E+01 -0.59173440118E+02  0.10764711062E+02  0.60878645296E+02  0.51100000000E-03 0.  1.
         23    2    1    0    0    0  0.45045072318E+01 -0.27702620154E+02  0.96785742766E+01  0.95311609191E+02  0.90569875222E+02 0.  0.
         11    1    3    3    0    0  0.13929709258E+02  0.31470819964E+02 -0.10861367852E+01  0.34432963895E+02  0.51100000000E-03 0. -1.
         22    1    1    0    0    0 -0.45045072318E+01  0.27702620154E+02 -0.96785742766E+01  0.29688390809E+02  0.00000000000E+00 0.  1.
</event>
<event>
 5    1  0.1282529E-003  0.9118800E+02  0.7818608E-02  0.1130116E+00
         25   -1    0    0    0    0  0.00000000000E+00  0.00000000000E+00  0.99999998245E-14  0.12500000000E+03  0.12500000000E+03 0.  0.
        -11    1    3    3    0    0  0.46607714319E+01  0.73756072580E+01  0.45401465439E+02  0.46232190485E+02  0.51100000000E-03 0.  1.
         23    2    1    0    0    0  0.15733061323E+02  0.20547072456E+02 -0.42444037917E+01  0.98775462470E+02  0.95230591815E+02 0.  0.
         11    1    3    3    0    0  0.11072289891E+02  0.13171465198E+02 -0.49645869231E+02  0.52543271985E+02  0.51100000000E-03 0. -1.
         22    1    1    0    0    0 -0.15733061323E+02 -0.20547072456E+02  0.42444037917E+01  0.26224537530E+02  0.00000000000E+00 0. -1.
</event>
<event>
 5    1  0.1282529E-003  0.9118800E+02  0.7818608E-02  0.1130116E+00
         25   -1    0    0    0    0  0.00000000000E+00  0.00000000000E+00  0.99999998245E-14  0.12500000000E+03  0.12500000000E+03 0.  0.
        -11    1    3    3    0    0 -0.11329764507E+02  0.18985841260E+02  0.28373586870E+02  0.35970629189E+02  0.51100000000E-03 0.  1.
         23    2    1    0    0    0  0.22195099768E+02 -0.22042230241E+02  0.82207406706E+01  0.92657103642E+02  0.86829003855E+02 0.  0.
         11    1    3    3    0    0  0.33524864275E+02 -0.41028071500E+02 -0.20152846199E+02  0.56686474453E+02  0.51100000000E-03 0. -1.
         22    1    1    0    0    0 -0.22195099768E+02  0.22042230241E+02 -0.82207406706E+01  0.32342896358E+02  0.00000000000E+00 0. -1.
</event>
<event>
 5    1  0.1282529E-003  0.9118800E+02  0.7818608E-02  0.1130116E+00
         25   -1    0    0    0    0  0.00000000000E+00  0.00000000000E+00  0.99999998245E-14  0.12500000000E+03  0.12500000000E+03 0.  0.
        -11    1    3    3    0    0  0.51472723393E+02  0.19924268441E+02 -0.12360785715E+02  0.56561530657E+02  0.51100000000E-03 0.  1.
         23    2    1    0    0    0  0.14863387627E+02  0.19649343365E+02 -0.19148881859E+02  0.93795887084E+02  0.88453217981E+02 0.  0.
         11    1    3    3    0    0 -0.36609335767E+02 -0.27492507686E+00 -0.67880961436E+01  0.37234356428E+02  0.51100000000E-03 0. -1.
         22    1    1    0    0    0 -0.14863387627E+02 -0.19649343365E+02  0.19148881859E+02  0.31204112916E+02  0.00000000000E+00 0.  1.
</event>
<event>
 5    1  0.1282529E-003  0.9118800E+02  0.7818608E-02  0.1130116E+00
         25   -1    0    0    0    0  0.00000000000E+00  0.00000000000E+00  0.99999998245E-14  0.12500000000E+03  0.12500000000E+03 0.  0.
        -11    1    3    3    0    0  0.58744067160E+01 -0.32324760746E+02  0.56193365768E+01  0.33331302936E+02  0.51100000000E-03 0.  1.
         23    2    1    0    0    0  0.45054058596E+01  0.29260574163E+02 -0.15879187532E+01  0.95352042764E+02  0.90625662431E+02 0.  0.
         11    1    3    3    0    0 -0.13690008564E+01  0.61585334909E+02 -0.72072553300E+01  0.62020739828E+02  0.51100000000E-03 0. -1.
         22    1    1    0    0    0 -0.45054058596E+01 -0.29260574163E+02  0.15879187532E+01  0.29647957236E+02  0.00000000000E+00 0. -1.
</event>
<event>
 5    1  0.1282529E-003  0.9118800E+02  0.7818608E-02  0.1130116E+00
         25   -1    0    0    0    0  0.00000000000E+00  0.00000000000E+00  0.99999998245E-14  0.12500000000E+03  0.12500000000E+03 0.  0.
        -11    1    3    3    0    0  0.26009384221E+02 -0.73536532850E-01 -0.31528116688E+02  0.40871941688E+02  0.51100000000E-03 0. -1.
         23    2    1    0    0    0 -0.23830916130E+02  0.13158655589E+01 -0.23740544173E+02  0.91336109800E+02  0.84905991838E+02 0.  0.
         11    1    3    3    0    0 -0.49840300351E+02  0.13894020917E+01  0.77875725151E+01  0.50464168112E+02  0.51100000000E-03 0.  1.
         22    1    1    0    0    0  0.23830916130E+02 -0.13158655589E+01  0.23740544173E+02  0.33663890200E+02  0.00000000000E+00 0.  1.
</event>
<event>
 5    1  0.1282529E-003  0.9118800E+02  0.7818608E-02  0.1130116E+00
         25   -1    0    0    0    0  0.00000000000E+00  0.00000000000E+00  0.99999998245E-14  0.12500000000E+03  0.12500000000E+03 0.  0.
        -11    1    3    3    0    0  0.20961332855E+02  0.49313093436E+02 -0.11773194577E+02  0.54861341308E+02  0.51100000000E-03 0.  1.
         23    2    1    0    0    0  0.39821075066E+01  0.21801386125E+02  0.16148098506E+02  0.97578863945E+02  0.93646761751E+02 0.  0.
         11    1    3    3    0    0 -0.16979225349E+02 -0.27511707311E+02  0.27921293083E+02  0.42717522638E+02  0.51100000000E-03 0. -1.
         22    1    1    0    0    0 -0.39821075066E+01 -0.21801386125E+02 -0.16148098506E+02  0.27421136055E+02  0.00000000000E+00 0.  1.
</event>
<event>
 5    1  0.1282529E-003  0.9118800E+02  0.7818608E-02  0.1130116E+00
         25   -1    0    0    0    0  0.00000000000E+00  0.00000000000E+00  0.99999998245E-14  0.12500000000E+03  0.12500000000E+03 0.  0.
        -11    1    3    3    0    0 -0.32606342411E+00 -0.29637449069E+02 -0.30870912758E+02  0.42796004013E+02  0.51100000000E-03 0.  1.
         23    2    1    0    0    0 -0.22465509505E+02  0.14536887443E+02 -0.10022930043E+02  0.96425897380E+02  0.92094920300E+02 0.  0.
         11    1    3    3    0    0 -0.22139446081E+02  0.44174336512E+02  0.20847982715E+02  0.53629893368E+02  0.51100000000E-03 0. -1.
         22    1    1    0    0    0  0.22465509505E+02 -0.14536887443E+02  0.10022930043E+02  0.28574102620E+02  0.00000000000E+00 0. -1.
</event>
<event>
 5    1  0.1282529E-003  0.9118800E+02  0.7818608E-02  0.1130116E+00
         25   -1    0    0    0    0  0.00000000000E+00  0.00000000000E+00  0.99999998245E-14  0.12500000000E+03  0.12500000000E+03 0.  0.
        -11    1    3    3    0    0 -0.13424569245E+02 -0.35165646909E+02  0.11028415471E+02  0.39223305955E+02  0.51100000000E-03 0. -1.
         23    2    1    0    0    0  0.23609200752E+02 -0.57271995708E+01 -0.18032477359E+02  0.94744993558E+02  0.89784455167E+02 0.  0.
         11    1    3    3    0    0  0.37033769998E+02  0.29438447338E+02 -0.29060892831E+02  0.55521687603E+02  0.51100000000E-03 0.  1.
         22    1    1    0    0    0 -0.23609200752E+02  0.57271995708E+01  0.18032477359E+02  0.30255006442E+02  0.00000000000E+00 0.  1.
</event>
<event>
 5    1  0.1282529E-003  0.9118800E+02  0.7818608E-02  0.1130116E+00
         25   -1    0    0    0    0  0.00000000000E+00  0.00000000000E+00  0.99999998245E-14  0.12500000000E+03  0.12500000000E+03 0.  0.
        -11    1    3    3    0    0  0.10387954652E+02 -0.48975283547E+02 -0.20110049406E+02  0.53952776460E+02  0.51100000000E-03 0. -1.
         23    2    1    0    0    0  0.79907885724E+00 -0.25877496842E+02  0.13464603286E+02  0.95818174980E+02  0.91266334127E+02 0.  0.
         11    1    3    3    0    0 -0.95888757946E+01  0.23097786705E+02  0.33574652692E+02  0.41865398521E+02  0.51100000000E-03 0.  1.
         22    1    1    0    0    0 -0.79907885724E+00  0.25877496842E+02 -0.13464603286E+02  0.29181825020E+02  0.00000000000E+00 0. -1.
</event>
<event>
 5    1  0.1282529E-003  0.9118800E+02  0.7818608E-02  0.1130116E+00
         25   -1    0    0    0    0  0.00000000000E+00  0.00000000000E+00  0.99999998245E-14  0.12500000000E+03  0.12500000000E+03 0.  0.
        -11    1    3    3    0    0  0.61648587359E+02  0.94190845071E+00 -0.31905375264E+01  0.61738278603E+02  0.51100000000E-03 0. -1.
         23    2    1    0    0    0  0.28322711164E+02 -0.59642015828E+01 -0.39950537558E+01  0.95781715952E+02  0.91216385524E+02 0.  0.
         11    1    3    3    0    0 -0.33325876195E+02 -0.69061100335E+01 -0.80451622940E+00  0.34043437350E+02  0.51100000000E-03 0.  1.
         22    1    1    0    0    0 -0.28322711164E+02  0.59642015828E+01  0.39950537558E+01  0.29218284048E+02  0.00000000000E+00 0. -1.
</event>
<event>
 5    1  0.1282529E-003  0.9118800E+02  0.7818608E-02  0.1130116E+00
         25   -1    0    0    0    0  0.00000000000E+00  0.00000000000E+00  0.99999998245E-14  0.12500000000E+03  0.12500000000E+03 0.  0.
        -11    1    3    3    0    0  0.54773551733E+01 -0.86417370148E+01 -0.52342233455E+02  0.53332827055E+02  0.51100000000E-03 0. -1.
         23    2    1    0    0    0  0.15744225478E+02  0.15314778249E+02 -0.17109091296E+02  0.97158590666E+02  0.93084089223E+02 0.  0.
         11    1    3    3    0    0  0.10266870305E+02  0.23956515264E+02  0.35233142159E+02  0.43825763611E+02  0.51100000000E-03 0.  1.
         22    1    1    0    0    0 -0.15744225478E+02 -0.15314778249E+02  0.17109091296E+02  0.27841409334E+02  0.00000000000E+00 0.  1.
</event>
<event>
 5    1  0.1282529E-003  0.9118800E+02  0.7818608E-02  0.1130116E+00
         25   -1    0    0    0    0  0.00000000000E+00  0.00000000000E+00  0.99999998245E-14  0.12500000000E+03  0.12500000000E+03 0.  0.
        -11    1    3    3    0    0  0.37041786933E+02 -0.15566339724E+02 -0.47552740092E+02  0.62254863281E+02  0.51100000000E-03 0.  1.
         23    2    1    0    0    0  0.15450821308E+02 -0.53753409242E+01 -0.25167531993E+02  0.94982890950E+02  0.90115052779E+02 0.  0.
         11    1    3    3    0    0 -0.21590965625E+02  0.10190998800E+02  0.22385208099E+02  0.32728027669E+02  0.51100000000E-03 0. -1.
         22    1    1    0    0    0 -0.15450821308E+02  0.53753409242E+01  0.25167531993E+02  0.30017109050E+02  0.00000000000E+00 0.  1.
</event>
<event>
 5    1  0.1282529E-003  0.9118800E+02  0.7818608E-02  0.1130116E+00
         25   -1    0    0    0    0  0.00000000000E+00  0.00000000000E+00  0.99999998245E-14  0.12500000000E+03  0.12500000000E+03 0.  0.
        -11    1    3    3    0    0  0.37739935605E+01 -0.40413811595E+02  0.27628118173E+02  0.49100225143E+02  0.51100000000E-03 0. -1.
         23    2    1    0    0    0 -0.21252401779E+02 -0.31629509682E+01  0.21863159200E+02  0.94346018686E+02  0.89227264172E+02 0.  0.
         11    1    3    3    0    0 -0.25026395339E+02  0.37250860627E+02 -0.57649589730E+01  0.45245793543E+02  0.51100000000E-03 0.  1.
         22    1    1    0    0    0  0.21252401779E+02  0.31629509682E+01 -0.21863159200E+02  0.30653981314E+02  0.00000000000E+00 0.  1.
</event>
<event>
 5    1  0.1282529E-003  0.9118800E+02  0.7818608E-02  0.1130116E+00
         25   -1    0    0    0    0  0.00000000000E+00  0.00000000000E+00  0.99999998245E-14  0.12500000000E+03  0.12500000000E+03 0.  0.
        -11    1    3    3    0    0  0.12619211097E+02  0.52180071785E+02 -0.81860795609E+01  0.54304845816E+02  0.51100000000E-03 0.  1.
         23    2    1    0    0    0  0.76363885588E+01  0.20960480191E+02  0.18765594152E+02  0.95848607513E+02  0.91308005554E+02 0.  0.
         11    1    3    3    0    0 -0.49828225384E+01 -0.31219591595E+02  0.26951673713E+02  0.41543761697E+02  0.51100000000E-03 0. -1.
         22    1    1    0    0    0 -0.76363885588E+01 -0.20960480191E+02 -0.18765594152E+02  0.29151392487E+02  0.00000000000E+00 0.  1.
</event>
<event>
 5    1  0.1282529E-003  0.9118800E+02  0.7818608E-02  0.1130116E+00
         25   -1    0    0    0    0  0.00000000000E+00  0.00000000000E+00  0.99999998245E-14  0.12500000000E+03  0.12500000000E+03 0.  0.
        -11    1    3    3    0    0  0.41920549411E+02  0.64097936551E+01 -0.15079652899E+02  0.45009041863E+02  0.51100000000E-03 0.  1.
         23    2    1    0    0    0 -0.18890106099E+01  0.29053436767E+02 -0.34115749169E+01  0.95686020529E+02  0.91085153193E+02 0.  0.
         11    1    3    3    0    0 -0.43809560021E+02  0.22643643111E+02  0.11668077982E+02  0.50676978665E+02  0.51100000000E-03 0. -1.
         22    1    1    0    0    0  0.18890106099E+01 -0.29053436767E+02  0.34115749169E+01  0.29313979471E+02  0.00000000000E+00 0. -1.
</event>
<event>
 5    1  0.1282529E-003  0.9118800E+02  0.7818608E-02  0.1130116E+00
         25   -1    0    0    0    0  0.00000000000E+00  0.00000000000E+00  0.99999998245E-14  0.12500000000E+03  0.12500000000E+03 0.  0.
        -11    1    3    3    0    0 -0.32021518772E+02  0.14428338564E+02  0.17184130878E+02  0.39100498366E+02  0.51100000000E-03 0.  1.
         23    2    1    0    0    0 -0.47833296561E+01 -0.12168762858E+01 -0.29346511422E+02  0.95241324573E+02  0.90472819915E+02 0.  0.
         11    1    3    3    0    0  0.27238189116E+02 -0.15645214850E+02 -0.46530642301E+02  0.56140826207E+02  0.51100000000E-03 0. -1.
         22    1    1    0    0    0  0.47833296561E+01  0.12168762858E+01  0.29346511422E+02  0.29758675427E+02  0.00000000000E+00 0. -1.
</event>
<event>
 5    1  0.1282529E-003  0.9118800E+02  0.7818608E-02  0.1130116E+00
         25   -1    0    0    0    0  0.00000000000E+00  0.00000000000E+00  0.99999998245E-14  0.12500000000E+03  0.12500000000E+03 0.  0.
        -11    1    3    3    0    0 -0.22621891681E+02 -0.48021166873E+02  0.30559677001E+01  0.53170681676E+02  0.51100000000E-03 0.  1.
         23    2    1    0    0    0 -0.29425192882E+02 -0.13122921874E+02 -0.10335252194E+02  0.91164065071E+02  0.84652325826E+02 0.  0.
         11    1    3    3    0    0 -0.68033012005E+01  0.34898244999E+02 -0.13391219894E+02  0.37993383394E+02  0.51100000000E-03 0. -1.
         22    1    1    0    0    0  0.29425192882E+02  0.13122921874E+02  0.10335252194E+02  0.33835934929E+02  0.00000000000E+00 0.  1.
</event>
<event>
 5    1  0.1282529E-003  0.9118800E+02  0.7818608E-02  0.1130116E+00
         25   -1    0    0    0    0  0.00000000000E+00  0.00000000000E+00  0.99999998245E-14  0.12500000000E+03  0.12500000000E+03 0.  0.
        -11    1    3    3    0    0  0.12566066512E+02 -0.13893244452E+02 -0.27040546737E+02  0.32895583854E+02  0.51100000000E-03 0.  1.
         23    2    1    0    0    0 -0.11415160616E+02  0.53030974409E+01  0.27086568304E+02  0.95131774126E+02  0.90321334863E+02 0.  0.
         11    1    3    3    0    0 -0.23981227128E+02  0.19196341893E+02  0.54127115041E+02  0.62236190272E+02  0.51100000000E-03 0. -1.
         22    1    1    0    0    0  0.11415160616E+02 -0.53030974409E+01 -0.27086568304E+02  0.29868225874E+02  0.00000000000E+00 0. -1.
</event>
<event>
 5    1  0.1282529E-003  0.9118800E+02  0.7818608E-02  0.1130116E+00
         25   -1    0    0    0    0  0.00000000000E+00  0.00000000000E+00  0.99999998245E-14  0.12500000000E+03  0.12500000000E+03 0.  0.
        -11    1    3    3    0    0  0.25864668107E+02  0.11633603764E+02 -0.33447306115E+02  0.43852526489E+02  0.51100000000E-03 0.  1.
         23    2    1    0    0    0  0.26592753429E+02  0.24562682015E+01  0.15811578109E+02  0.93964314238E+02  0.88690915880E+02 0.  0.
         11    1    3    3    0    0  0.72808532185E+00 -0.91773355629E+01  0.49258884224E+02  0.50111787750E+02  0.51100000000E-03 0. -1.
         22    1    1    0    0    0 -0.26592753429E+02 -0.24562682015E+01 -0.15811578109E+02  0.31035685762E+02  0.00000000000E+00 0. -1.
</event>
<event>
 5    1  0.1282529E-003  0.9118800E+02  0.7818608E-02  0.1130116E+00
         25   -1    0    0    0    0  0.00000000000E+00  0.00000000000E+00  0.99999998245E-14  0.12500000000E+03  0.12500000000E+03 0.  0.
        -11    1    3    3    0    0 -0.22722382406E+01 -0.36658039363E+02 -0.12730566977E+02  0.38872126934E+02  0.51100000000E-03 0.  1.
         23    2    1    0    0    0 -0.79922092769E+01  0.58181353740E+01  0.26339127793E+02  0.96866820989E+02  0.92691451857E+02 0.  0.
         11    1    3    3    0    0 -0.57199710364E+01  0.42476174737E+02  0.39069694770E+02  0.57994694056E+02  0.51100000000E-03 0. -1.
         22    1    1    0    0    0  0.79922092769E+01 -0.58181353740E+01 -0.26339127793E+02  0.28133179011E+02  0.00000000000E+00 0. -1.
</event>
<event>
 5    1  0.1282529E-003  0.9118800E+02  0.7818608E-02  0.1130116E+00
         25   -1    0    0    0    0  0.00000000000E+00  0.00000000000E+00  0.99999998245E-14  0.12500000000E+03  0.12500000000E+03 0.  0.
        -11    1    3    3    0    0  0.69057064021E+01  0.40247362617E+02 -0.24278644122E+02  0.47507805034E+02  0.51100000000E-03 0.  1.
         23    2    1    0    0    0  0.27215156724E+02 -0.11248257588E+01 -0.12210556058E+02  0.95149913438E+02  0.90346435234E+02 0.  0.
         11    1    3    3    0    0  0.20309450322E+02 -0.41372188376E+02  0.12068088064E+02  0.47642108404E+02  0.51100000000E-03 0. -1.
         22    1    1    0    0    0 -0.27215156724E+02  0.11248257588E+01  0.12210556058E+02  0.29850086562E+02  0.00000000000E+00 0.  1.
</event>
<event>
 5    1  0.1282529E-003  0.9118800E+02  0.7818608E-02  0.1130116E+00
         25   -1    0    0    0    0  0.00000000000E+00  0.00000000000E+00  0.99999998245E-14  0.12500000000E+03  0.12500000000E+03 0.  0.
        -11    1    3    3    0    0 -0.25049395321E+02  0.41005115132E+02  0.26559128170E+02  0.54902449512E+02  0.51100000000E-03 0.  1.
         23    2    1    0    0    0 -0.27325610455E+02  0.17021251304E+02 -0.25709564388E+01  0.92704151975E+02  0.86896708762E+02 0.  0.
         11    1    3    3    0    0 -0.22762151340E+01 -0.23983863829E+02 -0.29130084609E+02  0.37801702463E+02  0.51100000000E-03 0. -1.
         22    1    1    0    0    0  0.27325610455E+02 -0.17021251304E+02  0.25709564388E+01  0.32295848025E+02  0.00000000000E+00 0.  1.
</event>
<event>
 5    1  0.1282529E-003  0.9118800E+02  0.7818608E-02  0.1130116E+00
         25   -1    0    0    0    0  0.00000000000E+00  0.00000000000E+00  0.99999998245E-14  0.12500000000E+03  0.12500000000E+03 0.  0.
        -11    1    3    3    0    0  0.37965179693E+02  0.12298176293E+02  0.36140185239E+02  0.53839697237E+02  0.51100000000E-03 0.  1.
         23    2    1    0    0    0  0.38745960284E+01  0.22938435419E+02  0.24041338237E+02  0.91545997876E+02  0.85214432281E+02 0.  0.
         11    1    3    3    0    0 -0.34090583664E+02  0.10640259126E+02 -0.12098847001E+02  0.37706300639E+02  0.51100000000E-03 0. -1.
         22    1    1    0    0    0 -0.38745960284E+01 -0.22938435419E+02 -0.24041338237E+02  0.33454002124E+02  0.00000000000E+00 0.  1.
</event>
<event>
 5    1  0.1282529E-003  0.9118800E+02  0.7818608E-02  0.1130116E+00
         25   -1    0    0    0    0  0.00000000000E+00  0.00000000000E+00  0.99999998245E-14  0.12500000000E+03  0.12500000000E+03 0.  0.
        -11    1    3    3    0    0 -0.18176958314E+02 -0.30572481623E+02 -0.26445532495E+02  0.44322055857E+02  0.51100000000E-03 0.  1.
         23    2    1    0    0    0  0.24354387593E+02 -0.18387570806E+02 -0.31530383646E+01  0.94321333045E+02  0.89192674931E+02 0.  0.
         11    1    3    3    0    0  0.42531345907E+02  0.12184910817E+02  0.23292494130E+02  0.49999277188E+02  0.51100000000E-03 0. -1.
         22    1    1    0    0    0 -0.24354387593E+02  0.18387570806E+02  0.31530383646E+01  0.30678666955E+02  0.00000000000E+00 0. -1.
</event>
<event>
 5    1  0.1282529E-003  0.9118800E+02  0.7818608E-02  0.1130116E+00
         25   -1    0    0    0    0  0.00000000000E+00  0.00000000000E+00  0.99999998245E-14  0.12500000000E+03  0.12500000000E+03 0.  0.
        -11    1    3    3    0    0 -0.18245397013E+02  0.45716254552E+02  0.10107875895E+02  0.50249772117E+02  0.51100000000E-03 0. -1.
         23    2    1    0    0    0  0.13808812936E+02  0.29136815655E+02  0.19209774852E+02  0.87467976459E+02  0.79006291615E+02 0.  0.
         11    1    3    3    0    0  0.32054209949E+02 -0.16579438897E+02  0.91018989566E+01  0.37218204342E+02  0.51100000000E-03 0.  1.
         22    1    1    0    0    0 -0.13808812936E+02 -0.29136815655E+02 -0.19209774852E+02  0.37532023541E+02  0.00000000000E+00 0. -1.
</event>
<event>
 5    1  0.1282529E-003  0.9118800E+02  0.7818608E-02  0.1130116E+00
         25   -1    0    0    0    0  0.00000000000E+00  0.00000000000E+00  0.99999998245E-14  0.12500000000E+03  0.12500000000E+03 0.  0.
        -11    1    3    3    0    0 -0.23812541553E+02 -0.91429111676E+01 -0.87917648479E+01  0.26980086902E+02  0.51100000000E-03 0.  1.
         23    2    1    0    0    0  0.35400023900E+02  0.67173553833E+01  0.40489721197E+00  0.88966009141E+02  0.81341885185E+02 0.  0.
         11    1    3    3    0    0  0.59212565453E+02  0.15860266551E+02  0.91966620599E+01  0.61985922239E+02  0.51100000000E-03 0. -1.
         22    1    1    0    0    0 -0.35400023900E+02 -0.67173553833E+01 -0.40489721197E+00  0.36033990859E+02  0.00000000000E+00 0. -1.
</event>
<event>
 5    1  0.1282529E-003  0.9118800E+02  0.7818608E-02  0.1130116E+00
         25   -1    0    0    0    0  0.00000000000E+00  0.00000000000E+00  0.99999998245E-14  0.12500000000E+03  0.12500000000E+03 0.  0.
        -11    1    3    3    0    0  0.54759505710E+02  0.22767287828E+02  0.17446734723E+02  0.61816999388E+02  0.51100000000E-03 0.  1.
         23    2    1    0    0    0  0.25838830270E+02  0.11536961445E+02  0.15926439752E+01  0.96657749843E+02  0.92409076723E+02 0.  0.
         11    1    3    3    0    0 -0.28920675439E+02 -0.11230326384E+02 -0.15854090748E+02  0.34840750455E+02  0.51100000000E-03 0. -1.
         22    1    1    0    0    0 -0.25838830270E+02 -0.11536961445E+02 -0.15926439752E+01  0.28342250157E+02  0.00000000000E+00 0.  1.
</event>
<event>
 5    1  0.1282529E-003  0.9118800E+02  0.7818608E-02  0.1130116E+00
         25   -1    0    0    0    0  0.00000000000E+00  0.00000000000E+00  0.99999998245E-14  0.12500000000E+03  0.12500000000E+03 0.  0.
        -11    1    3    3    0    0  0.55158450183E+00 -0.24803858766E+02  0.39573977431E+02  0.46707979459E+02  0.51100000000E-03 0. -1.
         23    2    1    0    0    0 -0.22970944870E+02  0.10314735114E+02  0.12678933299E+02  0.96807564520E+02  0.92611506466E+02 0.  0.
         11    1    3    3    0    0 -0.23522529372E+02  0.35118593880E+02 -0.26895044132E+02  0.50099585061E+02  0.51100000000E-03 0.  1.
         22    1    1    0    0    0  0.22970944870E+02 -0.10314735114E+02 -0.12678933299E+02  0.28192435480E+02  0.00000000000E+00 0. -1.
</event>
<event>
 5    1  0.1282529E-003  0.9118800E+02  0.7818608E-02  0.1130116E+00
         25   -1    0    0    0    0  0.00000000000E+00  0.00000000000E+00  0.99999998245E-14  0.12500000000E+03  0.12500000000E+03 0.  0.
        -11    1    3    3    0    0 -0.22297607341E+02 -0.21823029185E+02 -0.26127418443E+02  0.40694838625E+02  0.51100000000E-03 0.  1.
         23    2    1    0    0    0 -0.15376153832E+02  0.23696179600E+02  0.50559413635E+01  0.96303352507E+02  0.91928440249E+02 0.  0.
         11    1    3    3    0    0  0.69214535092E+01  0.45519208785E+02  0.31183359806E+02  0.55608513882E+02  0.51100000000E-03 0. -1.
         22    1    1    0    0    0  0.15376153832E+02 -0.23696179600E+02 -0.50559413635E+01  0.28696647493E+02  0.00000000000E+00 0. -1.
</event>
<event>
 5    1  0.1282529E-003  0.9118800E+02  0.7818608E-02  0.1130116E+00
         25   -1    0    0    0    0  0.00000000000E+00  0.00000000000E+00  0.99999998245E-14  0.12500000000E+03  0.12500000000E+03 0.  0.
        -11    1    3    3    0    0 -0.21203849036E+02  0.11388756346E+02 -0.31290821391E+02  0.39476860167E+02  0.51100000000E-03 0. -1.
         23    2    1    0    0    0  0.22614876208E+02  0.19105448652E+02  0.24169578113E+01  0.95296591455E+02  0.90549146124E+02 0.  0.
         11    1    3    3    0    0  0.43818725244E+02  0.77166923056E+01  0.33707779202E+02  0.55819731289E+02  0.51100000000E-03 0.  1.
         22    1    1    0    0    0 -0.22614876208E+02 -0.19105448652E+02 -0.24169578113E+01  0.29703408545E+02  0.00000000000E+00 0. -1.
</event>
<event>
 5    1  0.1282529E-003  0.9118800E+02  0.7818608E-02  0.1130116E+00
         25   -1    0    0    0    0  0.00000000000E+00  0.00000000000E+00  0.99999998245E-14  0.12500000000E+03  0.12500000000E+03 0.  0.
        -11    1    3    3    0    0 -0.38210292663E+02  0.18607290323E+01  0.13680518991E+02  0.40628135301E+02  0.51100000000E-03 0.  1.
         23    2    1    0    0    0 -0.20299286584E+01 -0.53879425948E+01 -0.28068788080E+02  0.96346773305E+02  0.91987462875E+02 0.  0.
         11    1    3    3    0    0  0.36180364005E+02 -0.72486716271E+01 -0.41749307071E+02  0.55718638004E+02  0.51100000000E-03 0. -1.
         22    1    1    0    0    0  0.20299286584E+01  0.53879425948E+01  0.28068788080E+02  0.28653226695E+02  0.00000000000E+00 0. -1.
</event>
<event>
 5    1  0.1282529E-003  0.9118800E+02  0.7818608E-02  0.1130116E+00
         25   -1    0    0    0    0  0.00000000000E+00  0.00000000000E+00  0.99999998245E-14  0.12500000000E+03  0.12500000000E+03 0.  0.
        -11    1    3    3    0    0 -0.25308124139E+02  0.14373178490E+02  0.11516182148E+02  0.31300349182E+02  0.51100000000E-03 0. -1.
         23    2    1    0    0    0  0.21656814643E+02 -0.13598422626E+02 -0.18288250283E+02  0.93561252938E+02  0.88121014716E+02 0.  0.
         11    1    3    3    0    0  0.46964938782E+02 -0.27971601117E+02 -0.29804432431E+02  0.62260903757E+02  0.51100000000E-03 0.  1.
         22    1    1    0    0    0 -0.21656814643E+02  0.13598422626E+02  0.18288250283E+02  0.31438747062E+02  0.00000000000E+00 0.  1.
</event>
<event>
 5    1  0.1282529E-003  0.9118800E+02  0.7818608E-02  0.1130116E+00
         25   -1    0    0    0    0  0.00000000000E+00  0.00000000000E+00  0.99999998245E-14  0.12500000000E+03  0.12500000000E+03 0.  0.
        -11    1    3    3    0    0 -0.15243755461E+02  0.51787980798E+02 -0.24441676817E+02  0.59260126574E+02  0.51100000000E-03 0.  1.
         23    2    1    0    0    0  0.35387655937E+01  0.20503883239E+02 -0.20208990153E+02  0.95994218286E+02  0.91507128529E+02 0.  0.
         11    1    3    3    0    0  0.18782521055E+02 -0.31284097559E+02  0.42326866636E+01  0.36734091712E+02  0.51100000000E-03 0. -1.
         22    1    1    0    0    0 -0.35387655937E+01 -0.20503883239E+02  0.20208990153E+02  0.29005781714E+02  0.00000000000E+00 0.  1.
</event>
<event>
 5    1  0.1282529E-003  0.9118800E+02  0.7818608E-02  0.1130116E+00
         25   -1    0    0    0    0  0.00000000000E+00  0.00000000000E+00  0.99999998245E-14  0.12500000000E+03  0.12500000000E+03 0.  0.
        -11    1    3    3    0    0 -0.37959107053E+02  0.40233567543E+02  0.19477998412E+02  0.58643210927E+02  0.51100000000E-03 0.  1.
         23    2    1    0    0    0 -0.24727444123E+02  0.61346471874E+01  0.14850000642E+02  0.95510969700E+02  0.90844605921E+02 0.  0.
         11    1    3    3    0    0  0.13231662929E+02 -0.34098920356E+02 -0.46279977702E+01  0.36867758773E+02  0.51100000000E-03 0. -1.
         22    1    1    0    0    0  0.24727444123E+02 -0.61346471874E+01 -0.14850000642E+02  0.29489030300E+02  0.00000000000E+00 0.  1.
</event>
<event>
 5    1  0.1282529E-003  0.9118800E+02  0.7818608E-02  0.1130116E+00
         25   -1    0    0    0    0  0.00000000000E+00  0.00000000000E+00  0.99999998245E-14  0.12500000000E+03  0.12500000000E+03 0.  0.
        -11    1    3    3    0    0  0.33866350930E+02  0.59526432944E+01  0.31850454273E+00  0.34386990751E+02  0.51100000000E-03 0.  1.
         23    2    1    0    0    0 -0.24684452937E+02 -0.12017637870E+02  0.86903837354E+01  0.96202975739E+02  0.91791851135E+02 0.  0.
         11    1    3    3    0    0 -0.58550803867E+02 -0.17970281164E+02  0.83718791927E+01  0.61815984989E+02  0.51100000000E-03 0. -1.
         22    1    1    0    0    0  0.24684452937E+02  0.12017637870E+02 -0.86903837354E+01  0.28797024261E+02  0.00000000000E+00 0. -1.
</event>
<event>
 5    1  0.1282529E-003  0.9118800E+02  0.7818608E-02  0.1130116E+00
         25   -1    0    0    0    0  0.00000000000E+00  0.00000000000E+00  0.99999998245E-14  0.12500000000E+03  0.12500000000E+03 0.  0.
        -11    1    3    3    0    0 -0.17467883116E+01 -0.33915863313E+02  0.25243733874E+01  0.34054507997E+02  0.51100000000E-03 0.  1.
         23    2    1    0    0    0 -0.10331780585E+01  0.22673042358E+02  0.21492456074E+02  0.93742041417E+02  0.88377091796E+02 0.  0.
         11    1    3    3    0    0  0.71361025311E+00  0.56588905671E+02  0.18968082687E+02  0.59687533420E+02  0.51100000000E-03 0. -1.
         22    1    1    0    0    0  0.10331780585E+01 -0.22673042358E+02 -0.21492456074E+02  0.31257958583E+02  0.00000000000E+00 0. -1.
</event>
<event>
 5    1  0.1282529E-003  0.9118800E+02  0.7818608E-02  0.1130116E+00
         25   -1    0    0    0    0  0.00000000000E+00  0.00000000000E+00  0.99999998245E-14  0.12500000000E+03  0.12500000000E+03 0.  0.
        -11    1    3    3    0    0 -0.31437819829E+02  0.15781556960E+02  0.14082976001E+02  0.37890952336E+02  0.51100000000E-03 0.  1.
         23    2    1    0    0    0  0.26464704481E+02  0.71834504149E+01  0.48532318961E+01  0.97151545770E+02  0.93074628350E+02 0.  0.
         11    1    3    3    0    0  0.57902524310E+02 -0.85981065449E+01 -0.92297441050E+01  0.59260593434E+02  0.51100000000E-03 0. -1.
         22    1    1    0    0    0 -0.26464704481E+02 -0.71834504149E+01 -0.48532318961E+01  0.27848454230E+02  0.00000000000E+00 0. -1.
</event>
<event>
 5    1  0.1282529E-003  0.9118800E+02  0.7818608E-02  0.1130116E+00
         25   -1    0    0    0    0  0.00000000000E+00  0.00000000000E+00  0.99999998245E-14  0.12500000000E+03  0.12500000000E+03 0.  0.
        -11    1    3    3    0    0  0.14563539461E+02  0.26536101083E+02  0.23646092856E+02  0.38410923576E+02  0.51100000000E-03 0.  1.
         23    2    1    0    0    0 -0.21063293690E+00 -0.27112144225E+02  0.12421296607E+02  0.95177167470E+02  0.90384135043E+02 0.  0.
         11    1    3    3    0    0 -0.14774172398E+02 -0.53648245308E+02 -0.11224796249E+02  0.56766243894E+02  0.51100000000E-03 0. -1.
         22    1    1    0    0    0  0.21063293690E+00  0.27112144225E+02 -0.12421296607E+02  0.29822832530E+02  0.00000000000E+00 0. -1.
</event>
<event>
 5    1  0.1282529E-003  0.9118800E+02  0.7818608E-02  0.1130116E+00
         25   -1    0    0    0    0  0.00000000000E+00  0.00000000000E+00  0.99999998245E-14  0.12500000000E+03  0.12500000000E+03 0.  0.
        -11    1    3    3    0    0  0.39858633852E+01  0.20727115751E+02  0.30941790124E+02  0.37455237426E+02  0.51100000000E-03 0. -1.
         23    2    1    0    0    0  0.19414029893E+01 -0.26222650117E+02 -0.69270571363E+01  0.97808447170E+02  0.93952710405E+02 0.  0.
         11    1    3    3    0    0 -0.20444603959E+01 -0.46949765868E+02 -0.37868847260E+02  0.60353209744E+02  0.51100000000E-03 0.  1.
         22    1    1    0    0    0 -0.19414029893E+01  0.26222650117E+02  0.69270571363E+01  0.27191552830E+02  0.00000000000E+00 0.  1.
</event>
<event>
 5    1  0.1282529E-003  0.9118800E+02  0.7818608E-02  0.1130116E+00
         25   -1    0    0    0    0  0.00000000000E+00  0.00000000000E+00  0.99999998245E-14  0.12500000000E+03  0.12500000000E+03 0.  0.
        -11    1    3    3    0    0 -0.93261119995E+01  0.28262848923E+02 -0.24850109691E+02  0.38772321908E+02  0.51100000000E-03 0. -1.
         23    2    1    0    0    0 -0.49969260027E+01  0.80633623258E+01  0.27957561763E+02  0.95476918501E+02  0.90797740199E+02 0.  0.
         11    1    3    3    0    0  0.43291859967E+01 -0.20199486597E+02  0.52807671453E+02  0.56704596593E+02  0.51100000000E-03 0.  1.
         22    1    1    0    0    0  0.49969260027E+01 -0.80633623258E+01 -0.27957561763E+02  0.29523081499E+02  0.00000000000E+00 0.  1.
</event>
<event>
 5    1  0.1282529E-003  0.9118800E+02  0.7818608E-02  0.1130116E+00
         25   -1    0    0    0    0  0.00000000000E+00  0.00000000000E+00  0.99999998245E-14  0.12500000000E+03  0.12500000000E+03 0.  0.
        -11    1    3    3    0    0  0.26440546309E+02 -0.28665358971E+02 -0.12571243434E+02  0.40973667834E+02  0.51100000000E-03 0.  1.
         23    2    1    0    0    0  0.17559408098E+02  0.23813785041E+02 -0.12727275839E+01  0.95384986811E+02  0.90671090777E+02 0.  0.
         11    1    3    3    0    0 -0.88811382111E+01  0.52479144011E+02  0.11298515850E+02  0.54411318977E+02  0.51100000000E-03 0. -1.
         22    1    1    0    0    0 -0.17559408098E+02 -0.23813785041E+02  0.12727275839E+01  0.29615013189E+02  0.00000000000E+00 0. -1.
</event>
<event>
 5    1  0.1282529E-003  0.9118800E+02  0.7818608E-02  0.1130116E+00
         25   -1    0    0    0    0  0.00000000000E+00  0.00000000000E+00  0.99999998245E-14  0.12500000000E+03  0.12500000000E+03 0.  0.
        -11    1    3    3    0    0  0.24845516224E+02  0.11800513710E+02 -0.30462851844E+02  0.41043113223E+02  0.51100000000E-03 0.  1.
         23    2    1    0    0    0 -0.82694409117E+01 -0.26307130039E+02 -0.81089943926E+01  0.96256226171E+02  0.91864337709E+02 0.  0.
         11    1    3    3    0    0 -0.33114957136E+02 -0.38107643749E+02  0.22353857452E+02  0.55213112948E+02  0.51100000000E-03 0. -1.
         22    1    1    0    0    0  0.82694409117E+01  0.26307130039E+02  0.81089943926E+01  0.28743773829E+02  0.00000000000E+00 0. -1.
</event>
<event>
 5    1  0.1282529E-003  0.9118800E+02  0.7818608E-02  0.1130116E+00
         25   -1    0    0    0    0  0.00000000000E+00  0.00000000000E+00  0.99999998245E-14  0.12500000000E+03  0.12500000000E+03 0.  0.
        -11    1    3    3    0    0 -0.13309502825E+02 -0.16653908522E+02 -0.20274138719E+02  0.29419997206E+02  0.51100000000E-03 0. -1.
         23    2    1    0    0    0  0.41941111892E+01  0.31532406770E+02  0.13105515096E+02  0.90595962863E+02  0.83809251970E+02 0.  0.
         11    1    3    3    0    0  0.17503614014E+02  0.48186315293E+02  0.33379653815E+02  0.61175965657E+02  0.51100000000E-03 0.  1.
         22    1    1    0    0    0 -0.41941111892E+01 -0.31532406770E+02 -0.13105515096E+02  0.34404037137E+02  0.00000000000E+00 0.  1.
</event>
<event>
 5    1  0.1282529E-003  0.9118800E+02  0.7818608E-02  0.1130116E+00
         25   -1    0    0    0    0  0.00000000000E+00  0.00000000000E+00  0.99999998245E-14  0.12500000000E+03  0.12500000000E+03 0.  0.
        -11    1    3    3    0    0 -0.82069577324E+01 -0.22148911624E+02 -0.14001055897E+02  0.27458295792E+02  0.51100000000E-03 0. -1.
         23    2    1    0    0    0 -0.37211521521E+02 -0.22766060138E+02  0.23955321337E+02  0.75232056016E+02  0.56418206316E+02 0.  0.
         11    1    3    3    0    0 -0.29004563788E+02 -0.61714851421E+00  0.37956377234E+02  0.47773760223E+02  0.51100000000E-03 0.  1.
         22    1    1    0    0    0  0.37211521521E+02  0.22766060138E+02 -0.23955321337E+02  0.49767943984E+02  0.00000000000E+00 0.  1.
</event>
<event>
 5    1  0.1282529E-003  0.9118800E+02  0.7818608E-02  0.1130116E+00
         25   -1    0    0    0    0  0.00000000000E+00  0.00000000000E+00  0.99999998245E-14  0.12500000000E+03  0.12500000000E+03 0.  0.
        -11    1    3    3    0    0  0.95413940263E+01  0.47006177515E+02  0.33731117993E+02  0.58637933505E+02  0.51100000000E-03 0.  1.
         23    2    1    0    0    0  0.58408528248E+01  0.11484133803E+02  0.27142360910E+02  0.94954889804E+02  0.90076203577E+02 0.  0.
         11    1    3    3    0    0 -0.37005412015E+01 -0.35522043711E+02 -0.65887570824E+01  0.36316956298E+02  0.51100000000E-03 0. -1.
         22    1    1    0    0    0 -0.58408528248E+01 -0.11484133803E+02 -0.27142360910E+02  0.30045110196E+02  0.00000000000E+00 0.  1.
</event>
<event>
 5    1  0.1282529E-003  0.9118800E+02  0.7818608E-02  0.1130116E+00
         25   -1    0    0    0    0  0.00000000000E+00  0.00000000000E+00  0.99999998245E-14  0.12500000000E+03  0.12500000000E+03 0.  0.
        -11    1    3    3    0    0 -0.26471263845E+02 -0.19128182235E+01 -0.30060018858E+02  0.40099768292E+02  0.51100000000E-03 0. -1.
         23    2    1    0    0    0 -0.17400480904E+02  0.26734048501E+02  0.11244539947E+02  0.91178028390E+02  0.84672941945E+02 0.  0.
         11    1    3    3    0    0  0.90707829406E+01  0.28646866725E+02  0.41304558805E+02  0.51078260098E+02  0.51100000000E-03 0.  1.
         22    1    1    0    0    0  0.17400480904E+02 -0.26734048501E+02 -0.11244539947E+02  0.33821971610E+02  0.00000000000E+00 0.  1.
</event>
<event>
 5    1  0.1282529E-003  0.9118800E+02  0.7818608E-02  0.1130116E+00
         25   -1    0    0    0    0  0.00000000000E+00  0.00000000000E+00  0.99999998245E-14  0.12500000000E+03  0.12500000000E+03 0.  0.
        -11    1    3    3    0    0 -0.13344906322E+02 -0.55463646086E+02 -0.94204138230E+01  0.57819086457E+02  0.51100000000E-03 0.  1.
         23    2    1    0    0    0  0.83098703569E+01 -0.28310551478E+02  0.43422912182E+01  0.95177244203E+02  0.90384241163E+02 0.  0.
         11    1    3    3    0    0  0.21654776679E+02  0.27153094608E+02  0.13762705041E+02  0.37358157745E+02  0.51100000000E-03 0. -1.
         22    1    1    0    0    0 -0.83098703569E+01  0.28310551478E+02 -0.43422912182E+01  0.29822755797E+02  0.00000000000E+00 0.  1.
</event>
<event>
 5    1  0.1282529E-003  0.9118800E+02  0.7818608E-02  0.1130116E+00
         25   -1    0    0    0    0  0.00000000000E+00  0.00000000000E+00  0.99999998245E-14  0.12500000000E+03  0.12500000000E+03 0.  0.
        -11    1    3    3    0    0  0.41953893230E+02  0.20039290945E+02 -0.26432883683E+02  0.53482704483E+02  0.51100000000E-03 0.  1.
         23    2    1    0    0    0  0.11880528513E+02 -0.10537628676E+02 -0.23718305560E+02  0.96456233701E+02  0.92136086444E+02 0.  0.
         11    1    3    3    0    0 -0.30073364717E+02 -0.30576919621E+02  0.27145781223E+01  0.42973529219E+02  0.51100000000E-03 0. -1.
         22    1    1    0    0    0 -0.11880528513E+02  0.10537628676E+02  0.23718305560E+02  0.28543766299E+02  0.00000000000E+00 0.  1.
</event>
<event>
 5    1  0.1282529E-003  0.9118800E+02  0.7818608E-02  0.1130116E+00
         25   -1    0    0    0    0  0.00000000000E+00  0.00000000000E+00  0.99999998245E-14  0.12500000000E+03  0.12500000000E+03 0.  0.
        -11    1    3    3    0    0  0.32514229137E+02 -0.83313360094E+01  0.10890280942E+02  0.35287171540E+02  0.51100000000E-03 0.  1.
         23    2    1    0    0    0 -0.18302551560E+02 -0.38852672983E+01 -0.22105289055E+02  0.96039293866E+02  0.91568681690E+02 0.  0.
         11    1    3    3    0    0 -0.50816780697E+02  0.44460687112E+01 -0.32995569997E+02  0.60752122326E+02  0.51100000000E-03 0. -1.
         22    1    1    0    0    0  0.18302551560E+02  0.38852672983E+01  0.22105289055E+02  0.28960706134E+02  0.00000000000E+00 0. -1.
</event>
<event>
 5    1  0.1282529E-003  0.9118800E+02  0.7818608E-02  0.1130116E+00
         25   -1    0    0    0    0  0.00000000000E+00  0.00000000000E+00  0.99999998245E-14  0.12500000000E+03  0.12500000000E+03 0.  0.
        -11    1    3    3    0    0  0.24010139726E+02  0.29655834949E+02 -0.25317219213E+02  0.45792105707E+02  0.51100000000E-03 0. -1.
         23    2    1    0    0    0 -0.10525367729E+02 -0.65239301733E+01 -0.26420944581E+02  0.95821046227E+02  0.91270266553E+02 0.  0.
         11    1    3    3    0    0 -0.34535507456E+02 -0.36179765122E+02 -0.11037253685E+01  0.50028940519E+02  0.51100000000E-03 0.  1.
         22    1    1    0    0    0  0.10525367729E+02  0.65239301733E+01  0.26420944581E+02  0.29178953773E+02  0.00000000000E+00 0. -1.
</event>
<event>
 5    1  0.1282529E-003  0.9118800E+02  0.7818608E-02  0.1130116E+00
         25   -1    0    0    0    0  0.00000000000E+00  0.00000000000E+00  0.99999998245E-14  0.12500000000E+03  0.12500000000E+03 0.  0.
        -11    1    3    3    0    0 -0.30713104096E+01  0.54072448100E+02 -0.84441618176E+00  0.54166185302E+02  0.51100000000E-03 0. -1.
         23    2    1    0    0    0  0.12235464000E+01  0.19003577504E+02  0.21740406702E+02  0.96098818236E+02  0.91649902123E+02 0.  0.
         11    1    3    3    0    0  0.42948568095E+01 -0.35068870596E+02  0.22584822884E+02  0.41932632935E+02  0.51100000000E-03 0.  1.
         22    1    1    0    0    0 -0.12235464000E+01 -0.19003577504E+02 -0.21740406702E+02  0.28901181764E+02  0.00000000000E+00 0. -1.
</event>
<event>
 5    1  0.1282529E-003  0.9118800E+02  0.7818608E-02  0.1130116E+00
         25   -1    0    0    0    0  0.00000000000E+00  0.00000000000E+00  0.99999998245E-14  0.12500000000E+03  0.12500000000E+03 0.  0.
        -11    1    3    3    0    0  0.32347823271E+02  0.24330774548E+02  0.37078774312E+02  0.54892656751E+02  0.51100000000E-03 0. -1.
         23    2    1    0    0    0  0.22929568468E+02  0.16510500248E+02 -0.27983163387E+01  0.96606474279E+02  0.92339691193E+02 0.  0.
         11    1    3    3    0    0 -0.94182548036E+01 -0.78202743000E+01 -0.39877090651E+02  0.41713817527E+02  0.51100000000E-03 0.  1.
         22    1    1    0    0    0 -0.22929568468E+02 -0.16510500248E+02  0.27983163387E+01  0.28393525721E+02  0.00000000000E+00 0. -1.
</event>
<event>
 5    1  0.1282529E-003  0.9118800E+02  0.7818608E-02  0.1130116E+00
         25   -1    0    0    0    0  0.00000000000E+00  0.00000000000E+00  0.99999998245E-14  0.12500000000E+03  0.12500000000E+03 0.  0.
        -11    1    3    3    0    0  0.35806642847E+02  0.74989590580E+01  0.29573049227E+01  0.36702802503E+02  0.51100000000E-03 0.  1.
         23    2    1    0    0    0 -0.12390528364E+02 -0.13551173508E+02  0.25211316736E+02  0.93810739218E+02  0.88474204175E+02 0.  0.
         11    1    3    3    0    0 -0.48197171211E+02 -0.21050132566E+02  0.22254011813E+02  0.57107936715E+02  0.51100000000E-03 0. -1.
         22    1    1    0    0    0  0.12390528364E+02  0.13551173508E+02 -0.25211316736E+02  0.31189260782E+02  0.00000000000E+00 0. -1.
</event>
<event>
 5    1  0.1282529E-003  0.9118800E+02  0.7818608E-02  0.1130116E+00
         25   -1    0    0    0    0  0.00000000000E+00  0.00000000000E+00  0.99999998245E-14  0.12500000000E+03  0.12500000000E+03 0.  0.
        -11    1    3    3    0    0  0.17331217875E+02 -0.16149372681E+02 -0.54088471391E+02  0.59048590912E+02  0.51100000000E-03 0.  1.
         23    2    1    0    0    0 -0.94579630290E+00 -0.19100793236E+02 -0.25102416224E+02  0.93442653262E+02  0.87952619719E+02 0.  0.
         11    1    3    3    0    0 -0.18277014177E+02 -0.29514205544E+01  0.28986055167E+02  0.34394062350E+02  0.51100000000E-03 0. -1.
         22    1    1    0    0    0  0.94579630290E+00  0.19100793236E+02  0.25102416224E+02  0.31557346738E+02  0.00000000000E+00 0.  1.
</event>
<event>
 5    1  0.1282529E-003  0.9118800E+02  0.7818608E-02  0.1130116E+00
         25   -1    0    0    0    0  0.00000000000E+00  0.00000000000E+00  0.99999998245E-14  0.12500000000E+03  0.12500000000E+03 0.  0.
        -11    1    3    3    0    0  0.37449582691E+02 -0.29625286559E+02 -0.18656443127E+02  0.51265892344E+02  0.51100000000E-03 0.  1.
         23    2    1    0    0    0 -0.57622558069E+01 -0.27180066834E+02 -0.10435665482E+02  0.95320668149E+02  0.90582377079E+02 0.  0.
         11    1    3    3    0    0 -0.43211838498E+02  0.24452197253E+01  0.82207776445E+01  0.44054775805E+02  0.51100000000E-03 0. -1.
         22    1    1    0    0    0  0.57622558069E+01  0.27180066834E+02  0.10435665482E+02  0.29679331851E+02  0.00000000000E+00 0.  1.
</event>
<event>
 5    1  0.1282529E-003  0.9118800E+02  0.7818608E-02  0.1130116E+00
         25   -1    0    0    0    0  0.00000000000E+00  0.00000000000E+00  0.99999998245E-14  0.12500000000E+03  0.12500000000E+03 0.  0.
        -11    1    3    3    0    0 -0.35618806159E+02 -0.20233732186E+02  0.64677138138E+01  0.41472094143E+02  0.51100000000E-03 0.  1.
         23    2    1    0    0    0  0.11114618244E+02 -0.14055030377E+02 -0.22065690012E+02  0.96575128966E+02  0.92297249371E+02 0.  0.
         11    1    3    3    0    0  0.46733424403E+02  0.61787018090E+01 -0.28533403826E+02  0.55103034823E+02  0.51100000000E-03 0. -1.
         22    1    1    0    0    0 -0.11114618244E+02  0.14055030377E+02  0.22065690012E+02  0.28424871034E+02  0.00000000000E+00 0. -1.
</event>
<event>
 5    1  0.1282529E-003  0.9118800E+02  0.7818608E-02  0.1130116E+00
         25   -1    0    0    0    0  0.00000000000E+00  0.00000000000E+00  0.99999998245E-14  0.12500000000E+03  0.12500000000E+03 0.  0.
        -11    1    3    3    0    0 -0.60416786937E+01  0.30987460195E+02 -0.12193369513E+02  0.33843800483E+02  0.51100000000E-03 0. -1.
         23    2    1    0    0    0  0.11387239585E+02 -0.26704612741E+02  0.24536228852E+01  0.95865384295E+02  0.91330969960E+02 0.  0.
         11    1    3    3    0    0  0.17428918279E+02 -0.57692072936E+02  0.14646992398E+02  0.62021583812E+02  0.51100000000E-03 0.  1.
         22    1    1    0    0    0 -0.11387239585E+02  0.26704612741E+02 -0.24536228852E+01  0.29134615705E+02  0.00000000000E+00 0.  1.
</event>
<event>
 5    1  0.1282529E-003  0.9118800E+02  0.7818608E-02  0.1130116E+00
         25   -1    0    0    0    0  0.00000000000E+00  0.00000000000E+00  0.99999998245E-14  0.12500000000E+03  0.12500000000E+03 0.  0.
        -11    1    3    3    0    0  0.18764644613E+02  0.18829291400E+02  0.42634851201E+02  0.50243254665E+02  0.51100000000E-03 0.  1.
         23    2    1    0    0    0 -0.17397325728E+02  0.76770872281E+01  0.18277516765E+01  0.10589645878E+03  0.10415908360E+03 0.  0.
         11    1    3    3    0    0 -0.36161970341E+02 -0.11152204172E+02 -0.40807099525E+02  0.55653204119E+02  0.51100000000E-03 0. -1.
         22    1    1    0    0    0  0.17397325728E+02 -0.76770872281E+01 -0.18277516765E+01  0.19103541216E+02  0.00000000000E+00 0.  1.
</event>
<event>
 5    1  0.1282529E-003  0.9118800E+02  0.7818608E-02  0.1130116E+00
         25   -1    0    0    0    0  0.00000000000E+00  0.00000000000E+00  0.99999998245E-14  0.12500000000E+03  0.12500000000E+03 0.  0.
        -11    1    3    3    0    0 -0.25450596941E+02 -0.21193167661E+02 -0.45518885196E+02  0.56292558566E+02  0.51100000000E-03 0.  1.
         23    2    1    0    0    0 -0.25876858933E+02  0.29362536988E+01 -0.15945147721E+02  0.94463445678E+02  0.89391618284E+02 0.  0.
         11    1    3    3    0    0 -0.42626199226E+00  0.24129421360E+02  0.29573737475E+02  0.38170887112E+02  0.51100000000E-03 0. -1.
         22    1    1    0    0    0  0.25876858933E+02 -0.29362536988E+01  0.15945147721E+02  0.30536554322E+02  0.00000000000E+00 0. -1.
</event>
<event>
 5    1  0.1282529E-003  0.9118800E+02  0.7818608E-02  0.1130116E+00
         25   -1    0    0    0    0  0.00000000000E+00  0.00000000000E+00  0.99999998245E-14  0.12500000000E+03  0.12500000000E+03 0.  0.
        -11    1    3    3    0    0  0.60435131447E+02  0.11018907551E+02 -0.53194108382E+01  0.61661313387E+02  0.51100000000E-03 0. -1.
         23    2    1    0    0    0  0.27658527012E+02  0.31173294847E+01  0.45617053875E+01  0.96795017893E+02  0.92594570431E+02 0.  0.
         11    1    3    3    0    0 -0.32776604435E+02 -0.79015780662E+01  0.98811162257E+01  0.35133704506E+02  0.51100000000E-03 0.  1.
         22    1    1    0    0    0 -0.27658527012E+02 -0.31173294847E+01 -0.45617053875E+01  0.28204982107E+02  0.00000000000E+00 0. -1.
</event>
<event>
 5    1  0.1282529E-003  0.9118800E+02  0.7818608E-02  0.1130116E+00
         25   -1    0    0    0    0  0.00000000000E+00  0.00000000000E+00  0.99999998245E-14  0.12500000000E+03  0.12500000000E+03 0.  0.
        -11    1    3    3    0    0  0.41957039513E+02  0.12869658002E+02  0.42741548251E+02  0.61260600788E+02  0.51100000000E-03 0. -1.
         23    2    1    0    0    0  0.23603611445E+02 -0.11875864420E+01  0.16828487022E+02  0.95987264689E+02  0.91497629326E+02 0.  0.
         11    1    3    3    0    0 -0.18353428068E+02 -0.14057244444E+02 -0.25913061229E+02  0.34726663901E+02  0.51100000000E-03 0.  1.
         22    1    1    0    0    0 -0.23603611445E+02  0.11875864420E+01 -0.16828487022E+02  0.29012735311E+02  0.00000000000E+00 0. -1.
</event>
<event>
 5    1  0.1282529E-003  0.9118800E+02  0.7818608E-02  0.1130116E+00
         25   -1    0    0    0    0  0.00000000000E+00  0.00000000000E+00  0.99999998245E-14  0.12500000000E+03  0.12500000000E+03 0.  0.
        -11    1    3    3    0    0  0.25026397028E+02 -0.33839117933E+02  0.46831768263E+00  0.42090685102E+02  0.51100000000E-03 0. -1.
         23    2    1    0    0    0  0.10708984194E+02  0.13123532722E+02  0.23265288788E+02  0.96221829176E+02  0.91817521715E+02 0.  0.
         11    1    3    3    0    0 -0.14317412834E+02  0.46962650655E+02  0.22796971106E+02  0.54131144073E+02  0.51100000000E-03 0.  1.
         22    1    1    0    0    0 -0.10708984194E+02 -0.13123532722E+02 -0.23265288788E+02  0.28778170824E+02  0.00000000000E+00 0.  1.
</event>
<event>
 5    1  0.1282529E-003  0.9118800E+02  0.7818608E-02  0.1130116E+00
         25   -1    0    0    0    0  0.00000000000E+00  0.00000000000E+00  0.99999998245E-14  0.12500000000E+03  0.12500000000E+03 0.  0.
        -11    1    3    3    0    0 -0.39074571303E+02  0.39642980124E+02  0.16235442819E+02  0.57982562891E+02  0.51100000000E-03 0. -1.
         23    2    1    0    0    0 -0.63681663849E+01  0.29804491064E+02  0.40037598022E+01  0.94260915380E+02  0.89107961738E+02 0.  0.
         11    1    3    3    0    0  0.32706404918E+02 -0.98384890600E+01 -0.12231683017E+02  0.36278352489E+02  0.51100000000E-03 0.  1.
         22    1    1    0    0    0  0.63681663849E+01 -0.29804491064E+02 -0.40037598022E+01  0.30739084620E+02  0.00000000000E+00 0. -1.
</event>
<event>
 5    1  0.1282529E-003  0.9118800E+02  0.7818608E-02  0.1130116E+00
         25   -1    0    0    0    0  0.00000000000E+00  0.00000000000E+00  0.99999998245E-14  0.12500000000E+03  0.12500000000E+03 0.  0.
        -11    1    3    3    0    0  0.19894316471E+02 -0.41652150412E+02  0.54194783581E+01  0.46476404850E+02  0.51100000000E-03 0. -1.
         23    2    1    0    0    0  0.26099284938E+02  0.65303739448E+01  0.12075001583E+02  0.95510610021E+02  0.90844111010E+02 0.  0.
         11    1    3    3    0    0  0.62049684667E+01  0.48182524357E+02  0.66555232250E+01  0.49034205171E+02  0.51100000000E-03 0.  1.
         22    1    1    0    0    0 -0.26099284938E+02 -0.65303739448E+01 -0.12075001583E+02  0.29489389979E+02  0.00000000000E+00 0.  1.
</event>
<event>
 5    1  0.1282529E-003  0.9118800E+02  0.7818608E-02  0.1130116E+00
         25   -1    0    0    0    0  0.00000000000E+00  0.00000000000E+00  0.99999998245E-14  0.12500000000E+03  0.12500000000E+03 0.  0.
        -11    1    3    3    0    0 -0.32967718790E+02 -0.14513720689E+02 -0.12722779070E+02  0.38201932909E+02  0.51100000000E-03 0.  1.
         23    2    1    0    0    0 -0.41185474057E+01  0.22701271497E+02  0.19111455271E+02  0.95040729600E+02  0.90195245995E+02 0.  0.
         11    1    3    3    0    0  0.28849171384E+02  0.37214992187E+02  0.31834234340E+02  0.56838796691E+02  0.51100000000E-03 0. -1.
         22    1    1    0    0    0  0.41185474057E+01 -0.22701271497E+02 -0.19111455271E+02  0.29959270400E+02  0.00000000000E+00 0. -1.
</event>
<event>
 5    1  0.1282529E-003  0.9118800E+02  0.7818608E-02  0.1130116E+00
         25   -1    0    0    0    0  0.00000000000E+00  0.00000000000E+00  0.99999998245E-14  0.12500000000E+03  0.12500000000E+03 0.  0.
        -11    1    3    3    0    0 -0.35094345620E+01 -0.54256972156E+02 -0.22792114170E+02  0.58954352063E+02  0.51100000000E-03 0.  1.
         23    2    1    0    0    0  0.64034823959E+00 -0.17199757208E+02 -0.23036192055E+02  0.96243994744E+02  0.91847692873E+02 0.  0.
         11    1    3    3    0    0  0.41497828016E+01  0.37057214949E+02 -0.24407788459E+00  0.37289642682E+02  0.51100000000E-03 0. -1.
         22    1    1    0    0    0 -0.64034823959E+00  0.17199757208E+02  0.23036192055E+02  0.28756005256E+02  0.00000000000E+00 0.  1.
</event>
<event>
 5    1  0.1282529E-003  0.9118800E+02  0.7818608E-02  0.1130116E+00
         25   -1    0    0    0    0  0.00000000000E+00  0.00000000000E+00  0.99999998245E-14  0.12500000000E+03  0.12500000000E+03 0.  0.
        -11    1    3    3    0    0  0.90390049668E+00 -0.29348156066E+02  0.18873744614E+02  0.34904864082E+02  0.51100000000E-03 0. -1.
         23    2    1    0    0    0 -0.14842181290E+02  0.19986084779E+02 -0.14189318066E+02  0.96345669133E+02  0.91985962425E+02 0.  0.
         11    1    3    3    0    0 -0.15746081787E+02  0.49334240845E+02 -0.33063062680E+02  0.61440805051E+02  0.51100000000E-03 0.  1.
         22    1    1    0    0    0  0.14842181290E+02 -0.19986084779E+02  0.14189318066E+02  0.28654330867E+02  0.00000000000E+00 0.  1.
</event>
<event>
 5    1  0.1282529E-003  0.9118800E+02  0.7818608E-02  0.1130116E+00
         25   -1    0    0    0    0  0.00000000000E+00  0.00000000000E+00  0.99999998245E-14  0.12500000000E+03  0.12500000000E+03 0.  0.
        -11    1    3    3    0    0  0.23805391580E+01  0.87490761627E+01  0.41502690006E+02  0.42481602822E+02  0.51100000000E-03 0. -1.
         23    2    1    0    0    0  0.72164684588E+01  0.25781812326E+02 -0.95948585316E+01  0.96559877390E+02  0.92276591546E+02 0.  0.
         11    1    3    3    0    0  0.48359293008E+01  0.17032736164E+02 -0.51097548537E+02  0.54078274567E+02  0.51100000000E-03 0.  1.
         22    1    1    0    0    0 -0.72164684588E+01 -0.25781812326E+02  0.95948585316E+01  0.28440122610E+02  0.00000000000E+00 0.  1.
</event>
<event>
 5    1  0.1282529E-003  0.9118800E+02  0.7818608E-02  0.1130116E+00
         25   -1    0    0    0    0  0.00000000000E+00  0.00000000000E+00  0.99999998245E-14  0.12500000000E+03  0.12500000000E+03 0.  0.
        -11    1    3    3    0    0  0.14174796842E+00 -0.24879334353E+02  0.53677553935E+02  0.59163174079E+02  0.51100000000E-03 0. -1.
         23    2    1    0    0    0 -0.12009859563E+02 -0.33586516256E+01  0.25295690197E+02  0.96797354557E+02  0.92597724806E+02 0.  0.
         11    1    3    3    0    0 -0.12151607532E+02  0.21520682728E+02 -0.28381863739E+02  0.37634180478E+02  0.51100000000E-03 0.  1.
         22    1    1    0    0    0  0.12009859563E+02  0.33586516256E+01 -0.25295690197E+02  0.28202645443E+02  0.00000000000E+00 0. -1.
</event>
<event>
 5    1  0.1282529E-003  0.9118800E+02  0.7818608E-02  0.1130116E+00
         25   -1    0    0    0    0  0.00000000000E+00  0.00000000000E+00  0.99999998245E-14  0.12500000000E+03  0.12500000000E+03 0.  0.
        -11    1    3    3    0    0 -0.15631743350E+01  0.19154317034E+02 -0.32053957497E+02  0.37373621266E+02  0.51100000000E-03 0. -1.
         23    2    1    0    0    0 -0.24419709253E+02 -0.18120475195E+02  0.43666641703E+01  0.94279622768E+02  0.89134200462E+02 0.  0.
         11    1    3    3    0    0 -0.22856534918E+02 -0.37274792228E+02  0.36420621667E+02  0.56906001503E+02  0.51100000000E-03 0.  1.
         22    1    1    0    0    0  0.24419709253E+02  0.18120475195E+02 -0.43666641703E+01  0.30720377232E+02  0.00000000000E+00 0.  1.
</event>
<event>
 5    1  0.1282529E-003  0.9118800E+02  0.7818608E-02  0.1130116E+00
         25   -1    0    0    0    0  0.00000000000E+00  0.00000000000E+00  0.99999998245E-14  0.12500000000E+03  0.12500000000E+03 0.  0.
        -11    1    3    3    0    0  0.28577185019E+02  0.15940453722E+02  0.11842026418E+02  0.34799240774E+02  0.51100000000E-03 0.  1.
         23    2    1    0    0    0 -0.12884722740E+02 -0.24321985591E+02 -0.86972250959E+01  0.96134505243E+02  0.91698562207E+02 0.  0.
         11    1    3    3    0    0 -0.41461907760E+02 -0.40262439313E+02 -0.20539251514E+02  0.61335264469E+02  0.51100000000E-03 0. -1.
         22    1    1    0    0    0  0.12884722740E+02  0.24321985591E+02  0.86972250959E+01  0.28865494757E+02  0.00000000000E+00 0. -1.
</event>
<event>
 5    1  0.1282529E-003  0.9118800E+02  0.7818608E-02  0.1130116E+00
         25   -1    0    0    0    0  0.00000000000E+00  0.00000000000E+00  0.99999998245E-14  0.12500000000E+03  0.12500000000E+03 0.  0.
        -11    1    3    3    0    0 -0.12276187365E+01  0.78711207620E+00 -0.34090039522E+02  0.34121216099E+02  0.51100000000E-03 0. -1.
         23    2    1    0    0    0  0.17523787676E+01 -0.16785065348E+02  0.24437008392E+02  0.95301908660E+02  0.90556486046E+02 0.  0.
         11    1    3    3    0    0  0.29799975042E+01 -0.17572177424E+02  0.58527047914E+02  0.61180692562E+02  0.51100000000E-03 0.  1.
         22    1    1    0    0    0 -0.17523787676E+01  0.16785065348E+02 -0.24437008392E+02  0.29698091340E+02  0.00000000000E+00 0.  1.
</event>
<event>
 5    1  0.1282529E-003  0.9118800E+02  0.7818608E-02  0.1130116E+00
         25   -1    0    0    0    0  0.00000000000E+00  0.00000000000E+00  0.99999998245E-14  0.12500000000E+03  0.12500000000E+03 0.  0.
        -11    1    3    3    0    0 -0.16362109841E+02  0.19995137188E+02 -0.23415422927E+02  0.34868412363E+02  0.51100000000E-03 0.  1.
         23    2    1    0    0    0  0.28371600182E+02 -0.74537463321E+01  0.60362176674E+01  0.95051010785E+02  0.90209493383E+02 0.  0.
         11    1    3    3    0    0  0.44733710022E+02 -0.27448883520E+02  0.29451640595E+02  0.60182598422E+02  0.51100000000E-03 0. -1.
         22    1    1    0    0    0 -0.28371600182E+02  0.74537463321E+01 -0.60362176674E+01  0.29948989215E+02  0.00000000000E+00 0. -1.
</event>
<event>
 5    1  0.1282529E-003  0.9118800E+02  0.7818608E-02  0.1130116E+00
         25   -1    0    0    0    0  0.00000000000E+00  0.00000000000E+00  0.99999998245E-14  0.12500000000E+03  0.12500000000E+03 0.  0.
        -11    1    3    3    0    0 -0.17235063715E+02  0.55731804773E+02  0.18054177498E+02  0.61065823583E+02  0.51100000000E-03 0.  1.
         23    2    1    0    0    0 -0.12319139965E+02  0.24855002035E+02 -0.17770873927E+00  0.97258984950E+02  0.93218808389E+02 0.  0.
         11    1    3    3    0    0  0.49159237503E+01 -0.30876802738E+02 -0.18231886237E+02  0.36193161366E+02  0.51100000000E-03 0. -1.
         22    1    1    0    0    0  0.12319139965E+02 -0.24855002035E+02  0.17770873927E+00  0.27741015050E+02  0.00000000000E+00 0.  1.
</event>
<event>
 5    1  0.1282529E-003  0.9118800E+02  0.7818608E-02  0.1130116E+00
         25   -1    0    0    0    0  0.00000000000E+00  0.00000000000E+00  0.99999998245E-14  0.12500000000E+03  0.12500000000E+03 0.  0.
        -11    1    3    3    0    0  0.14082865379E+02 -0.45470844268E+02 -0.28204688398E+02  0.55330183658E+02  0.51100000000E-03 0.  1.
         23    2    1    0    0    0  0.19450499066E+02 -0.76428060916E+01 -0.23055613325E+02  0.93882549837E+02  0.88575603071E+02 0.  0.
         11    1    3    3    0    0  0.53676336871E+01  0.37828038176E+02  0.51490750735E+01  0.38552366180E+02  0.51100000000E-03 0. -1.
         22    1    1    0    0    0 -0.19450499066E+02  0.76428060916E+01  0.23055613325E+02  0.31117450163E+02  0.00000000000E+00 0. -1.
</event>
<event>
 5    1  0.1282529E-003  0.9118800E+02  0.7818608E-02  0.1130116E+00
         25   -1    0    0    0    0  0.00000000000E+00  0.00000000000E+00  0.99999998245E-14  0.12500000000E+03  0.12500000000E+03 0.  0.
        -11    1    3    3    0    0 -0.86001443787E+01 -0.56700062974E+02  0.13560801454E+02  0.58930085363E+02  0.51100000000E-03 0.  1.
         23    2    1    0    0    0  0.80248954586E+01 -0.21522431674E+02 -0.41137201908E+01  0.10166468972E+03  0.98950353354E+02 0.  0.
         11    1    3    3    0    0  0.16625039837E+02  0.35177631300E+02 -0.17674521645E+02  0.42734604352E+02  0.51100000000E-03 0. -1.
         22    1    1    0    0    0 -0.80248954586E+01  0.21522431674E+02  0.41137201908E+01  0.23335310285E+02  0.00000000000E+00 0.  1.
</event>
<event>
 5    1  0.1282529E-003  0.9118800E+02  0.7818608E-02  0.1130116E+00
         25   -1    0    0    0    0  0.00000000000E+00  0.00000000000E+00  0.99999998245E-14  0.12500000000E+03  0.12500000000E+03 0.  0.
        -11    1    3    3    0    0  0.24936351524E+02  0.21538285701E+02 -0.10288099423E+02  0.34519043560E+02  0.51100000000E-03 0. -1.
         23    2    1    0    0    0 -0.26085756678E+02 -0.37771747612E+01  0.12453147536E+02  0.95848419697E+02  0.91307748435E+02 0.  0.
         11    1    3    3    0    0 -0.51022108202E+02 -0.25315460462E+02  0.22741246959E+02  0.61329376137E+02  0.51100000000E-03 0.  1.
         22    1    1    0    0    0  0.26085756678E+02  0.37771747612E+01 -0.12453147536E+02  0.29151580303E+02  0.00000000000E+00 0.  1.
</event>
<event>
 5    1  0.1282529E-003  0.9118800E+02  0.7818608E-02  0.1130116E+00
         25   -1    0    0    0    0  0.00000000000E+00  0.00000000000E+00  0.99999998245E-14  0.12500000000E+03  0.12500000000E+03 0.  0.
        -11    1    3    3    0    0 -0.28712337046E+02 -0.18917067076E+02 -0.96228944413E+00  0.34397379647E+02  0.51100000000E-03 0. -1.
         23    2    1    0    0    0  0.15366108211E+02  0.23719001219E+02 -0.65914090759E+01  0.95980093488E+02  0.91487831824E+02 0.  0.
         11    1    3    3    0    0  0.44078445257E+02  0.42636068294E+02 -0.56291196317E+01  0.61582713840E+02  0.51100000000E-03 0.  1.
         22    1    1    0    0    0 -0.15366108211E+02 -0.23719001219E+02  0.65914090759E+01  0.29019906512E+02  0.00000000000E+00 0.  1.
</event>
<event>
 5    1  0.1282529E-003  0.9118800E+02  0.7818608E-02  0.1130116E+00
         25   -1    0    0    0    0  0.00000000000E+00  0.00000000000E+00  0.99999998245E-14  0.12500000000E+03  0.12500000000E+03 0.  0.
        -11    1    3    3    0    0  0.22901018175E+02  0.17611207155E+02 -0.21514954789E+02  0.36020890199E+02  0.51100000000E-03 0.  1.
         23    2    1    0    0    0 -0.27866954015E+02 -0.79092968885E+01 -0.25649201383E+01  0.95919028237E+02  0.91404360177E+02 0.  0.
         11    1    3    3    0    0 -0.50767972190E+02 -0.25520504044E+02  0.18950034651E+02  0.59898138038E+02  0.51100000000E-03 0. -1.
         22    1    1    0    0    0  0.27866954015E+02  0.79092968885E+01  0.25649201383E+01  0.29080971763E+02  0.00000000000E+00 0. -1.
</event>
<event>
 5    1  0.1282529E-003  0.9118800E+02  0.7818608E-02  0.1130116E+00
         25   -1    0    0    0    0  0.00000000000E+00  0.00000000000E+00  0.99999998245E-14  0.12500000000E+03  0.12500000000E+03 0.  0.
        -11    1    3    3    0    0 -0.71730771558E+01  0.33371589487E+02  0.20316129488E+01  0.34194202318E+02  0.51100000000E-03 0.  1.
         23    2    1    0    0    0 -0.72279319822E+01 -0.27035706690E+02  0.10330561810E+02  0.95168926532E+02  0.90372737221E+02 0.  0.
         11    1    3    3    0    0 -0.54854826334E-01 -0.60407296177E+02  0.82989488613E+01  0.60974724213E+02  0.51100000000E-03 0. -1.
         22    1    1    0    0    0  0.72279319822E+01  0.27035706690E+02 -0.10330561810E+02  0.29831073468E+02  0.00000000000E+00 0. -1.
</event>
<event>
 5    1  0.1282529E-003  0.9118800E+02  0.7818608E-02  0.1130116E+00
         25   -1    0    0    0    0  0.00000000000E+00  0.00000000000E+00  0.99999998245E-14  0.12500000000E+03  0.12500000000E+03 0.  0.
        -11    1    3    3    0    0  0.97651689101E+01 -0.42933953663E+01  0.26884250424E+02  0.28923255154E+02  0.51100000000E-03 0. -1.
         23    2    1    0    0    0 -0.18547798709E+01  0.15643076212E+02 -0.30444298734E+02  0.90721707056E+02  0.83996587812E+02 0.  0.
         11    1    3    3    0    0 -0.11619948781E+02  0.19936471578E+02 -0.57328549158E+02  0.61798451902E+02  0.51100000000E-03 0.  1.
         22    1    1    0    0    0  0.18547798709E+01 -0.15643076212E+02  0.30444298734E+02  0.34278292944E+02  0.00000000000E+00 0.  1.
</event>
<event>
 5    1  0.1282529E-003  0.9118800E+02  0.7818608E-02  0.1130116E+00
         25   -1    0    0    0    0  0.00000000000E+00  0.00000000000E+00  0.99999998245E-14  0.12500000000E+03  0.12500000000E+03 0.  0.
        -11    1    3    3    0    0 -0.10480022924E+02 -0.40868142375E+02  0.45807740150E+02  0.62276681026E+02  0.51100000000E-03 0.  1.
         23    2    1    0    0    0 -0.74655893108E+01 -0.18949453620E+02  0.25996975453E+02  0.91974864891E+02  0.85841226824E+02 0.  0.
         11    1    3    3    0    0  0.30144336132E+01  0.21918688754E+02 -0.19810764697E+02  0.29698183865E+02  0.51100000000E-03 0. -1.
         22    1    1    0    0    0  0.74655893108E+01  0.18949453620E+02 -0.25996975453E+02  0.33025135109E+02  0.00000000000E+00 0.  1.
</event>
<event>
 5    1  0.1282529E-003  0.9118800E+02  0.7818608E-02  0.1130116E+00
         25   -1    0    0    0    0  0.00000000000E+00  0.00000000000E+00  0.99999998245E-14  0.12500000000E+03  0.12500000000E+03 0.  0.
        -11    1    3    3    0    0 -0.17890568510E+02  0.31599929426E+02 -0.23687505897E+02  0.43355806039E+02  0.51100000000E-03 0. -1.
         23    2    1    0    0    0  0.98418686878E+01 -0.12975987352E+02 -0.24168164871E+02  0.95856581870E+02  0.91318921739E+02 0.  0.
         11    1    3    3    0    0  0.27732437198E+02 -0.44575916779E+02 -0.48065897360E+00  0.52500775832E+02  0.51100000000E-03 0.  1.
         22    1    1    0    0    0 -0.98418686878E+01  0.12975987352E+02  0.24168164871E+02  0.29143418130E+02  0.00000000000E+00 0. -1.
</event>
<event>
 5    1  0.1282529E-003  0.9118800E+02  0.7818608E-02  0.1130116E+00
         25   -1    0    0    0    0  0.00000000000E+00  0.00000000000E+00  0.99999998245E-14  0.12500000000E+03  0.12500000000E+03 0.  0.
        -11    1    3    3    0    0  0.10148395247E+01  0.48769068935E+02  0.83594817128E+01  0.49490735686E+02  0.51100000000E-03 0.  1.
         23    2    1    0    0    0  0.14792618281E+02  0.19464073958E+01 -0.15212111070E+02  0.10369229293E+03  0.10147942270E+03 0.  0.
         11    1    3    3    0    0  0.13777778756E+02 -0.46822661539E+02 -0.23571592783E+02  0.54201557244E+02  0.51100000000E-03 0. -1.
         22    1    1    0    0    0 -0.14792618281E+02 -0.19464073958E+01  0.15212111070E+02  0.21307707070E+02  0.00000000000E+00 0. -1.
</event>
<event>
 5    1  0.1282529E-003  0.9118800E+02  0.7818608E-02  0.1130116E+00
         25   -1    0    0    0    0  0.00000000000E+00  0.00000000000E+00  0.99999998245E-14  0.12500000000E+03  0.12500000000E+03 0.  0.
        -11    1    3    3    0    0  0.31515207257E+02 -0.33382121898E+02 -0.17508895958E+02  0.49133855831E+02  0.51100000000E-03 0.  1.
         23    2    1    0    0    0 -0.10456267425E+02 -0.26401903561E+02  0.31439792590E+01  0.96429409427E+02  0.92099687061E+02 0.  0.
         11    1    3    3    0    0 -0.41971474681E+02  0.69802183370E+01  0.20652875217E+02  0.47295553596E+02  0.51100000000E-03 0. -1.
         22    1    1    0    0    0  0.10456267425E+02  0.26401903561E+02 -0.31439792590E+01  0.28570590573E+02  0.00000000000E+00 0.  1.
</event>
<event>
 5    1  0.1282529E-003  0.9118800E+02  0.7818608E-02  0.1130116E+00
         25   -1    0    0    0    0  0.00000000000E+00  0.00000000000E+00  0.99999998245E-14  0.12500000000E+03  0.12500000000E+03 0.  0.
        -11    1    3    3    0    0  0.20454123659E+02 -0.49188744042E+01  0.26468378478E+02  0.33810376508E+02  0.51100000000E-03 0.  1.
         23    2    1    0    0    0 -0.20040734601E+02 -0.10077458777E+02 -0.19492188130E+02  0.95282469537E+02  0.90529649200E+02 0.  0.
         11    1    3    3    0    0 -0.40494858260E+02 -0.51585843729E+01 -0.45960566608E+02  0.61472093029E+02  0.51100000000E-03 0. -1.
         22    1    1    0    0    0  0.20040734601E+02  0.10077458777E+02  0.19492188130E+02  0.29717530463E+02  0.00000000000E+00 0. -1.
</event>
<event>
 5    1  0.1282529E-003  0.9118800E+02  0.7818608E-02  0.1130116E+00
         25   -1    0    0    0    0  0.00000000000E+00  0.00000000000E+00  0.99999998245E-14  0.12500000000E+03  0.12500000000E+03 0.  0.
        -11    1    3    3    0    0  0.91638938575E+01  0.33258319563E+02  0.25770221651E+02  0.43060388932E+02  0.51100000000E-03 0. -1.
         23    2    1    0    0    0  0.98002585331E+01 -0.19513410452E+02  0.18590416781E+02  0.96322101700E+02  0.91953930993E+02 0.  0.
         11    1    3    3    0    0  0.63636467564E+00 -0.52771730015E+02 -0.71798048693E+01  0.53261712768E+02  0.51100000000E-03 0.  1.
         22    1    1    0    0    0 -0.98002585331E+01  0.19513410452E+02 -0.18590416781E+02  0.28677898300E+02  0.00000000000E+00 0.  1.
</event>
<event>
 5    1  0.1282529E-003  0.9118800E+02  0.7818608E-02  0.1130116E+00
         25   -1    0    0    0    0  0.00000000000E+00  0.00000000000E+00  0.99999998245E-14  0.12500000000E+03  0.12500000000E+03 0.  0.
        -11    1    3    3    0    0 -0.16078537855E+02  0.51049160346E+02  0.31708369339E+02  0.62208977149E+02  0.51100000000E-03 0. -1.
         23    2    1    0    0    0 -0.38251018806E+01  0.23276454286E+02  0.16886658303E+02  0.95989933520E+02  0.91501275292E+02 0.  0.
         11    1    3    3    0    0  0.12253435975E+02 -0.27772706060E+02 -0.14821711035E+02  0.33780956371E+02  0.51100000000E-03 0.  1.
         22    1    1    0    0    0  0.38251018806E+01 -0.23276454286E+02 -0.16886658303E+02  0.29010066480E+02  0.00000000000E+00 0. -1.
</event>
<event>
 5    1  0.1282529E-003  0.9118800E+02  0.7818608E-02  0.1130116E+00
         25   -1    0    0    0    0  0.00000000000E+00  0.00000000000E+00  0.99999998245E-14  0.12500000000E+03  0.12500000000E+03 0.  0.
        -11    1    3    3    0    0  0.26649599649E+02 -0.82432735669E+01  0.21939772912E+02  0.35489524599E+02  0.51100000000E-03 0.  1.
         23    2    1    0    0    0 -0.12620025031E+02  0.27555874010E+02 -0.36576653640E+01  0.94471820556E+02  0.89403328456E+02 0.  0.
         11    1    3    3    0    0 -0.39269624681E+02  0.35799147577E+02 -0.25597438276E+02  0.58982295957E+02  0.51100000000E-03 0. -1.
         22    1    1    0    0    0  0.12620025031E+02 -0.27555874010E+02  0.36576653640E+01  0.30528179444E+02  0.00000000000E+00 0. -1.
</event>
<event>
 5    1  0.1282529E-003  0.9118800E+02  0.7818608E-02  0.1130116E+00
         25   -1    0    0    0    0  0.00000000000E+00  0.00000000000E+00  0.99999998245E-14  0.12500000000E+03  0.12500000000E+03 0.  0.
        -11    1    3    3    0    0  0.71702704871E+01  0.25433416742E+02 -0.29334384774E+02  0.39481357580E+02  0.51100000000E-03 0. -1.
         23    2    1    0    0    0  0.25861200204E+02 -0.10068082037E+02  0.98394927244E+01  0.95555415287E+02  0.90905741412E+02 0.  0.
         11    1    3    3    0    0  0.18690929716E+02 -0.35501498779E+02  0.39173877498E+02  0.56074057707E+02  0.51100000000E-03 0.  1.
         22    1    1    0    0    0 -0.25861200204E+02  0.10068082037E+02 -0.98394927244E+01  0.29444584713E+02  0.00000000000E+00 0.  1.
</event>
<event>
 5    1  0.1282529E-003  0.9118800E+02  0.7818608E-02  0.1130116E+00
         25   -1    0    0    0    0  0.00000000000E+00  0.00000000000E+00  0.99999998245E-14  0.12500000000E+03  0.12500000000E+03 0.  0.
        -11    1    3    3    0    0  0.19427195029E+02  0.33473894358E+02 -0.19015235359E+02  0.43121881756E+02  0.51100000000E-03 0. -1.
         23    2    1    0    0    0  0.18074249900E+02 -0.12694285794E+02  0.13047072428E+02  0.99347524482E+02  0.95978545105E+02 0.  0.
         11    1    3    3    0    0 -0.13529451289E+01 -0.46168180152E+02  0.32062307787E+02  0.56225642726E+02  0.51100000000E-03 0.  1.
         22    1    1    0    0    0 -0.18074249900E+02  0.12694285794E+02 -0.13047072428E+02  0.25652475518E+02  0.00000000000E+00 0.  1.
</event>
<event>
 5    1  0.1282529E-003  0.9118800E+02  0.7818608E-02  0.1130116E+00
         25   -1    0    0    0    0  0.00000000000E+00  0.00000000000E+00  0.99999998245E-14  0.12500000000E+03  0.12500000000E+03 0.  0.
        -11    1    3    3    0    0 -0.35084034997E+02  0.15740518576E+01  0.22274135281E+02  0.41587308805E+02  0.51100000000E-03 0. -1.
         23    2    1    0    0    0  0.14340884666E+02 -0.20365501032E+02  0.14388126052E+02  0.96234868737E+02  0.91835272005E+02 0.  0.
         11    1    3    3    0    0  0.49424919663E+02 -0.21939552889E+02 -0.78860092288E+01  0.54647559932E+02  0.51100000000E-03 0.  1.
         22    1    1    0    0    0 -0.14340884666E+02  0.20365501032E+02 -0.14388126052E+02  0.28765131263E+02  0.00000000000E+00 0.  1.
</event>
<event>
 5    1  0.1282529E-003  0.9118800E+02  0.7818608E-02  0.1130116E+00
         25   -1    0    0    0    0  0.00000000000E+00  0.00000000000E+00  0.99999998245E-14  0.12500000000E+03  0.12500000000E+03 0.  0.
        -11    1    3    3    0    0  0.27848441615E+02  0.13457915911E+02  0.17528374387E+02  0.35551302507E+02  0.51100000000E-03 0.  1.
         23    2    1    0    0    0 -0.21860376964E+02 -0.18267974939E+02  0.89267626142E+01  0.95145652240E+02  0.90340539406E+02 0.  0.
         11    1    3    3    0    0 -0.49708818579E+02 -0.31725890850E+02 -0.86016117728E+01  0.59594349733E+02  0.51100000000E-03 0. -1.
         22    1    1    0    0    0  0.21860376964E+02  0.18267974939E+02 -0.89267626142E+01  0.29854347760E+02  0.00000000000E+00 0. -1.
</event>
<event>
 5    1  0.1282529E-003  0.9118800E+02  0.7818608E-02  0.1130116E+00
         25   -1    0    0    0    0  0.00000000000E+00  0.00000000000E+00  0.99999998245E-14  0.12500000000E+03  0.12500000000E+03 0.  0.
        -11    1    3    3    0    0 -0.86994684709E+00  0.40043477979E+02 -0.55243625706E+01  0.40432109990E+02  0.51100000000E-03 0.  1.
         23    2    1    0    0    0  0.26180578581E+02 -0.72054391150E+01 -0.12099807118E+02  0.95272127894E+02  0.90515368714E+02 0.  0.
         11    1    3    3    0    0  0.27050525428E+02 -0.47248917094E+02 -0.65754445472E+01  0.54840017904E+02  0.51100000000E-03 0. -1.
         22    1    1    0    0    0 -0.26180578581E+02  0.72054391150E+01  0.12099807118E+02  0.29727872106E+02  0.00000000000E+00 0.  1.
</event>
<event>
 5    1  0.1282529E-003  0.9118800E+02  0.7818608E-02  0.1130116E+00
         25   -1    0    0    0    0  0.00000000000E+00  0.00000000000E+00  0.99999998245E-14  0.12500000000E+03  0.12500000000E+03 0.  0.
        -11    1    3    3    0    0 -0.94302387153E+01 -0.45795565693E+01 -0.37796727223E+02  0.39223645033E+02  0.51100000000E-03 0.  1.
         23    2    1    0    0    0  0.27020220969E+02 -0.54723455015E+01  0.65786456916E+01  0.96657144011E+02  0.92408257222E+02 0.  0.
         11    1    3    3    0    0  0.36450459684E+02 -0.89278893222E+00  0.44375372915E+02  0.57433498978E+02  0.51100000000E-03 0. -1.
         22    1    1    0    0    0 -0.27020220969E+02  0.54723455015E+01 -0.65786456916E+01  0.28342855989E+02  0.00000000000E+00 0. -1.
</event>
<event>
 5    1  0.1282529E-003  0.9118800E+02  0.7818608E-02  0.1130116E+00
         25   -1    0    0    0    0  0.00000000000E+00  0.00000000000E+00  0.99999998245E-14  0.12500000000E+03  0.12500000000E+03 0.  0.
        -11    1    3    3    0    0  0.65958230239E+00  0.31277192416E+02  0.44435348771E+02  0.54343334779E+02  0.51100000000E-03 0. -1.
         23    2    1    0    0    0 -0.16528501235E+02  0.21254999034E+02  0.63143766382E+01  0.97344300961E+02  0.93333141167E+02 0.  0.
         11    1    3    3    0    0 -0.17188083538E+02 -0.10022193382E+02 -0.38120972133E+02  0.43000966181E+02  0.51100000000E-03 0.  1.
         22    1    1    0    0    0  0.16528501235E+02 -0.21254999034E+02 -0.63143766382E+01  0.27655699039E+02  0.00000000000E+00 0.  1.
</event>
<event>
 5    1  0.1282529E-003  0.9118800E+02  0.7818608E-02  0.1130116E+00
         25   -1    0    0    0    0  0.00000000000E+00  0.00000000000E+00  0.99999998245E-14  0.12500000000E+03  0.12500000000E+03 0.  0.
        -11    1    3    3    0    0 -0.20984706950E+02  0.26528123507E+02  0.37918817934E+02  0.50812754465E+02  0.51100000000E-03 0.  1.
         23    2    1    0    0    0  0.14785390242E+02  0.18753575249E+01  0.24575564104E+02  0.96258338923E+02  0.91867212490E+02 0.  0.
         11    1    3    3    0    0  0.35770097192E+02 -0.24652765982E+02 -0.13343253830E+02  0.45445584458E+02  0.51100000000E-03 0. -1.
         22    1    1    0    0    0 -0.14785390242E+02 -0.18753575249E+01 -0.24575564104E+02  0.28741661077E+02  0.00000000000E+00 0.  1.
</event>
<event>
 5    1  0.1282529E-003  0.9118800E+02  0.7818608E-02  0.1130116E+00
         25   -1    0    0    0    0  0.00000000000E+00  0.00000000000E+00  0.99999998245E-14  0.12500000000E+03  0.12500000000E+03 0.  0.
        -11    1    3    3    0    0 -0.44818158017E+02 -0.33078164286E+02 -0.92789497124E+01  0.56470621996E+02  0.51100000000E-03 0.  1.
         23    2    1    0    0    0 -0.27481912208E+02  0.12495944210E+01 -0.11920182173E+02  0.95018210062E+02  0.90164031163E+02 0.  0.
         11    1    3    3    0    0  0.17336245809E+02  0.34327758707E+02 -0.26412324609E+01  0.38547588067E+02  0.51100000000E-03 0. -1.
         22    1    1    0    0    0  0.27481912208E+02 -0.12495944210E+01  0.11920182173E+02  0.29981789938E+02  0.00000000000E+00 0.  1.
</event>
<event>
 5    1  0.1282529E-003  0.9118800E+02  0.7818608E-02  0.1130116E+00
         25   -1    0    0    0    0  0.00000000000E+00  0.00000000000E+00  0.99999998245E-14  0.12500000000E+03  0.12500000000E+03 0.  0.
        -11    1    3    3    0    0  0.13117585681E+02  0.26930007352E+02 -0.34346728621E+02  0.45574050920E+02  0.51100000000E-03 0.  1.
         23    2    1    0    0    0 -0.13511148422E+02  0.25509131605E+02  0.74817657600E+01  0.95179809762E+02  0.90387789222E+02 0.  0.
         11    1    3    3    0    0 -0.26628734103E+02 -0.14208757469E+01  0.41828494381E+02  0.49605758841E+02  0.51100000000E-03 0. -1.
         22    1    1    0    0    0  0.13511148422E+02 -0.25509131605E+02 -0.74817657600E+01  0.29820190238E+02  0.00000000000E+00 0.  1.
</event>
<event>
 5    1  0.1282529E-003  0.9118800E+02  0.7818608E-02  0.1130116E+00
         25   -1    0    0    0    0  0.00000000000E+00  0.00000000000E+00  0.99999998245E-14  0.12500000000E+03  0.12500000000E+03 0.  0.
        -11    1    3    3    0    0 -0.43090195700E+02  0.57283304083E+01  0.31259252386E+02  0.53541755618E+02  0.51100000000E-03 0.  1.
         23    2    1    0    0    0 -0.23972378024E+02  0.13568198952E+02 -0.66016776009E+01  0.96674162358E+02  0.92431274954E+02 0.  0.
         11    1    3    3    0    0  0.19117817675E+02  0.78398685440E+01 -0.37860929987E+02  0.43132406740E+02  0.51100000000E-03 0. -1.
         22    1    1    0    0    0  0.23972378024E+02 -0.13568198952E+02  0.66016776009E+01  0.28325837642E+02  0.00000000000E+00 0.  1.
</event>
<event>
 5    1  0.1282529E-003  0.9118800E+02  0.7818608E-02  0.1130116E+00
         25   -1    0    0    0    0  0.00000000000E+00  0.00000000000E+00  0.99999998245E-14  0.12500000000E+03  0.12500000000E+03 0.  0.
        -11    1    3    3    0    0 -0.17918739353E+02 -0.26570626332E+02  0.10475279429E+02  0.33716626211E+02  0.51100000000E-03 0.  1.
         23    2    1    0    0    0  0.26899257056E+02  0.10803258943E+02 -0.80018312650E+01  0.94928256826E+02  0.90039237038E+02 0.  0.
         11    1    3    3    0    0  0.44817996409E+02  0.37373885275E+02 -0.18477110694E+02  0.61211630615E+02  0.51100000000E-03 0. -1.
         22    1    1    0    0    0 -0.26899257056E+02 -0.10803258943E+02  0.80018312650E+01  0.30071743174E+02  0.00000000000E+00 0. -1.
</event>
<event>
 5    1  0.1282529E-003  0.9118800E+02  0.7818608E-02  0.1130116E+00
         25   -1    0    0    0    0  0.00000000000E+00  0.00000000000E+00  0.99999998245E-14  0.12500000000E+03  0.12500000000E+03 0.  0.
        -11    1    3    3    0    0  0.36930188873E+02 -0.18467553278E+02  0.32700117981E+02  0.52670552403E+02  0.51100000000E-03 0.  1.
         23    2    1    0    0    0  0.10953489842E+02  0.13995523336E+02  0.23980110881E+02  0.95152063203E+02  0.90349409521E+02 0.  0.
         11    1    3    3    0    0 -0.25976699030E+02  0.32463076614E+02 -0.87200071006E+01  0.42481510800E+02  0.51100000000E-03 0. -1.
         22    1    1    0    0    0 -0.10953489842E+02 -0.13995523336E+02 -0.23980110881E+02  0.29847936797E+02  0.00000000000E+00 0.  1.
</event>
<event>
 5    1  0.1282529E-003  0.9118800E+02  0.7818608E-02  0.1130116E+00
         25   -1    0    0    0    0  0.00000000000E+00  0.00000000000E+00  0.99999998245E-14  0.12500000000E+03  0.12500000000E+03 0.  0.
        -11    1    3    3    0    0  0.10786805120E+02  0.36686785667E+02 -0.99609552822E+01  0.39515769481E+02  0.51100000000E-03 0. -1.
         23    2    1    0    0    0 -0.27889713195E+02 -0.35204330423E+01  0.28110397779E+01  0.96748778867E+02  0.92532128024E+02 0.  0.
         11    1    3    3    0    0 -0.38676518315E+02 -0.40207218709E+02  0.12771995060E+02  0.57233009386E+02  0.51100000000E-03 0.  1.
         22    1    1    0    0    0  0.27889713195E+02  0.35204330423E+01 -0.28110397779E+01  0.28251221133E+02  0.00000000000E+00 0.  1.
</event>
<event>
 5    1  0.1282529E-003  0.9118800E+02  0.7818608E-02  0.1130116E+00
         25   -1    0    0    0    0  0.00000000000E+00  0.00000000000E+00  0.99999998245E-14  0.12500000000E+03  0.12500000000E+03 0.  0.
        -11    1    3    3    0    0 -0.41744583580E+02 -0.27030663223E+02  0.14894627999E+02  0.51914515851E+02  0.51100000000E-03 0. -1.
         23    2    1    0    0    0 -0.14429273094E+01 -0.13787282105E+02  0.25796418959E+02  0.95714740599E+02  0.91124558434E+02 0.  0.
         11    1    3    3    0    0  0.40301656271E+02  0.13243381118E+02  0.10901790960E+02  0.43800224748E+02  0.51100000000E-03 0.  1.
         22    1    1    0    0    0  0.14429273094E+01  0.13787282105E+02 -0.25796418959E+02  0.29285259401E+02  0.00000000000E+00 0.  1.
</event>
<event>
 5    1  0.1282529E-003  0.9118800E+02  0.7818608E-02  0.1130116E+00
         25   -1    0    0    0    0  0.00000000000E+00  0.00000000000E+00  0.99999998245E-14  0.12500000000E+03  0.12500000000E+03 0.  0.
        -11    1    3    3    0    0 -0.22108789416E+02  0.41718933259E+02 -0.35676498337E+02  0.59178378615E+02  0.51100000000E-03 0.  1.
         23    2    1    0    0    0 -0.19294312774E+02  0.22203736563E+02 -0.57323525080E+01  0.95031077964E+02  0.90181868970E+02 0.  0.
         11    1    3    3    0    0  0.28144766418E+01 -0.19515196697E+02  0.29944145829E+02  0.35852699348E+02  0.51100000000E-03 0. -1.
         22    1    1    0    0    0  0.19294312774E+02 -0.22203736563E+02  0.57323525080E+01  0.29968922036E+02  0.00000000000E+00 0.  1.
</event>
<event>
 5    1  0.1282529E-003  0.9118800E+02  0.7818608E-02  0.1130116E+00
         25   -1    0    0    0    0  0.00000000000E+00  0.00000000000E+00  0.99999998245E-14  0.12500000000E+03  0.12500000000E+03 0.  0.
        -11    1    3    3    0    0  0.16174217740E+02 -0.72177154468E+01 -0.35429454881E+02  0.39609935738E+02  0.51100000000E-03 0.  1.
         23    2    1    0    0    0 -0.20302839334E+01 -0.17300730128E+02  0.19798892391E+02  0.98628927672E+02  0.95038055104E+02 0.  0.
         11    1    3    3    0    0 -0.18204501673E+02 -0.10083014682E+02  0.55228347272E+02  0.59018991934E+02  0.51100000000E-03 0. -1.
         22    1    1    0    0    0  0.20302839334E+01  0.17300730128E+02 -0.19798892391E+02  0.26371072328E+02  0.00000000000E+00 0. -1.
</event>
<event>
 5    1  0.1282529E-003  0.9118800E+02  0.7818608E-02  0.1130116E+00
         25   -1    0    0    0    0  0.00000000000E+00  0.00000000000E+00  0.99999998245E-14  0.12500000000E+03  0.12500000000E+03 0.  0.
        -11    1    3    3    0    0 -0.45343886248E+01 -0.32860153608E+02 -0.13480203398E+01  0.33198908634E+02  0.51100000000E-03 0.  1.
         23    2    1    0    0    0 -0.21575688942E+02  0.23288083243E+02  0.70663504233E+01  0.92476493382E+02  0.86568604849E+02 0.  0.
         11    1    3    3    0    0 -0.17041300317E+02  0.56148236851E+02  0.84143707631E+01  0.59277584748E+02  0.51100000000E-03 0. -1.
         22    1    1    0    0    0  0.21575688942E+02 -0.23288083243E+02 -0.70663504233E+01  0.32523506618E+02  0.00000000000E+00 0. -1.
</event>
<event>
 5    1  0.1282529E-003  0.9118800E+02  0.7818608E-02  0.1130116E+00
         25   -1    0    0    0    0  0.00000000000E+00  0.00000000000E+00  0.99999998245E-14  0.12500000000E+03  0.12500000000E+03 0.  0.
        -11    1    3    3    0    0  0.15381453031E+02 -0.55532563774E+02 -0.22690455776E+02  0.61929891977E+02  0.51100000000E-03 0. -1.
         23    2    1    0    0    0  0.12729237904E+02 -0.25758681941E+02 -0.83799364328E+01  0.95070641043E+02  0.90236690213E+02 0.  0.
         11    1    3    3    0    0 -0.26522151272E+01  0.29773881833E+02  0.14310519344E+02  0.33140749066E+02  0.51100000000E-03 0.  1.
         22    1    1    0    0    0 -0.12729237904E+02  0.25758681941E+02  0.83799364328E+01  0.29929358957E+02  0.00000000000E+00 0. -1.
</event>
<event>
 5    1  0.1282529E-003  0.9118800E+02  0.7818608E-02  0.1130116E+00
         25   -1    0    0    0    0  0.00000000000E+00  0.00000000000E+00  0.99999998245E-14  0.12500000000E+03  0.12500000000E+03 0.  0.
        -11    1    3    3    0    0  0.48505056908E+02  0.11202043420E+02 -0.27276906686E+02  0.56764918401E+02  0.51100000000E-03 0.  1.
         23    2    1    0    0    0  0.28889883319E+02  0.30036869093E+01  0.51121843590E+01  0.95507934590E+02  0.90840429586E+02 0.  0.
         11    1    3    3    0    0 -0.19615173589E+02 -0.81983565105E+01  0.32389091045E+02  0.38743016189E+02  0.51100000000E-03 0. -1.
         22    1    1    0    0    0 -0.28889883319E+02 -0.30036869093E+01 -0.51121843590E+01  0.29492065410E+02  0.00000000000E+00 0.  1.
</event>
<event>
 5    1  0.1282529E-003  0.9118800E+02  0.7818608E-02  0.1130116E+00
         25   -1    0    0    0    0  0.00000000000E+00  0.00000000000E+00  0.99999998245E-14  0.12500000000E+03  0.12500000000E+03 0.  0.
        -11    1    3    3    0    0 -0.21109080555E+02 -0.45239599311E+02 -0.70786337425E+01  0.50421440713E+02  0.51100000000E-03 0. -1.
         23    2    1    0    0    0 -0.25035354007E+02 -0.39330671188E+00 -0.14528819434E+02  0.96051593575E+02  0.91585470429E+02 0.  0.
         11    1    3    3    0    0 -0.39262734518E+01  0.44846292599E+02 -0.74501856920E+01  0.45630152862E+02  0.51100000000E-03 0.  1.
         22    1    1    0    0    0  0.25035354007E+02  0.39330671188E+00  0.14528819434E+02  0.28948406425E+02  0.00000000000E+00 0.  1.
</event>
<event>
 5    1  0.1282529E-003  0.9118800E+02  0.7818608E-02  0.1130116E+00
         25   -1    0    0    0    0  0.00000000000E+00  0.00000000000E+00  0.99999998245E-14  0.12500000000E+03  0.12500000000E+03 0.  0.
        -11    1    3    3    0    0 -0.42000980367E+02  0.20545751504E+02  0.20772423387E+02  0.51163500958E+02  0.51100000000E-03 0.  1.
         23    2    1    0    0    0 -0.24118178041E+02 -0.15601459202E+02  0.56905381495E+00  0.96269948425E+02  0.91883007713E+02 0.  0.
         11    1    3    3    0    0  0.17882802327E+02 -0.36147210705E+02 -0.20203369572E+02  0.45106447467E+02  0.51100000000E-03 0. -1.
         22    1    1    0    0    0  0.24118178041E+02  0.15601459202E+02 -0.56905381495E+00  0.28730051575E+02  0.00000000000E+00 0.  1.
</event>
<event>
 5    1  0.1282529E-003  0.9118800E+02  0.7818608E-02  0.1130116E+00
         25   -1    0    0    0    0  0.00000000000E+00  0.00000000000E+00  0.99999998245E-14  0.12500000000E+03  0.12500000000E+03 0.  0.
        -11    1    3    3    0    0  0.13425037924E+02  0.39195301536E+02 -0.20057462639E+02  0.46030480266E+02  0.51100000000E-03 0. -1.
         23    2    1    0    0    0  0.27253829902E+02 -0.35649180618E+01  0.43507733434E+01  0.97171792839E+02  0.93101816361E+02 0.  0.
         11    1    3    3    0    0  0.13828791978E+02 -0.42760219598E+02  0.24408235982E+02  0.51141312573E+02  0.51100000000E-03 0.  1.
         22    1    1    0    0    0 -0.27253829902E+02  0.35649180618E+01 -0.43507733434E+01  0.27828207161E+02  0.00000000000E+00 0. -1.
</event>
<event>
 5    1  0.1282529E-003  0.9118800E+02  0.7818608E-02  0.1130116E+00
         25   -1    0    0    0    0  0.00000000000E+00  0.00000000000E+00  0.99999998245E-14  0.12500000000E+03  0.12500000000E+03 0.  0.
        -11    1    3    3    0    0  0.33333442214E+02  0.28669905198E+01  0.23961767986E+02  0.41152209294E+02  0.51100000000E-03 0.  1.
         23    2    1    0    0    0  0.82350853077E+01 -0.21275876956E+02 -0.18184811223E+02  0.95825234714E+02  0.91276002753E+02 0.  0.
         11    1    3    3    0    0 -0.25098356906E+02 -0.24142867476E+02 -0.42146579209E+02  0.54673025420E+02  0.51100000000E-03 0. -1.
         22    1    1    0    0    0 -0.82350853077E+01  0.21275876956E+02  0.18184811223E+02  0.29174765286E+02  0.00000000000E+00 0. -1.
</event>
<event>
 5    1  0.1282529E-003  0.9118800E+02  0.7818608E-02  0.1130116E+00
         25   -1    0    0    0    0  0.00000000000E+00  0.00000000000E+00  0.99999998245E-14  0.12500000000E+03  0.12500000000E+03 0.  0.
        -11    1    3    3    0    0  0.29624421720E+02 -0.24407150400E+02 -0.17983120595E+01  0.38425893346E+02  0.51100000000E-03 0. -1.
         23    2    1    0    0    0 -0.11931544580E+02  0.14997797005E+02 -0.18788769838E+02  0.98161342376E+02  0.94421054823E+02 0.  0.
         11    1    3    3    0    0 -0.41555966300E+02  0.39404947405E+02 -0.16990457778E+02  0.59735449030E+02  0.51100000000E-03 0.  1.
         22    1    1    0    0    0  0.11931544580E+02 -0.14997797005E+02  0.18788769838E+02  0.26838657624E+02  0.00000000000E+00 0.  1.
</event>
<event>
 4    1  0.1282529E-003  0.9118800E+02  0.7818608E-02  0.1130116E+00
         25   -1    0    0    0    0  0.00000000000E+00  0.00000000000E+00  0.99999998245E-14  0.12500000000E+03  0.12500000000E+03 0.  0.
        -11    1    1    0    0    0  0.16963277115E+02 -0.20396371438E+02 -0.29584966573E+01  0.26693022329E+02  0.51100000000E-03 0. -1.
         11    1    1    0    0    0  0.38522406334E+02  0.17599675315E+02 -0.28492438927E+01  0.42448116000E+02  0.51100000000E-03 0.  1.
         22    1    1    0    0    0 -0.55485683448E+02  0.27966961231E+01  0.58077405499E+01  0.55858861671E+02  0.00000000000E+00 0.  1.
</event>
<event>
 5    1  0.1282529E-003  0.9118800E+02  0.7818608E-02  0.1130116E+00
         25   -1    0    0    0    0  0.00000000000E+00  0.00000000000E+00  0.99999998245E-14  0.12500000000E+03  0.12500000000E+03 0.  0.
        -11    1    3    3    0    0  0.31221695702E+02 -0.23514654416E+02  0.29490919200E+01  0.39197326417E+02  0.51100000000E-03 0. -1.
         23    2    1    0    0    0 -0.16648205003E+01  0.18043571186E+02  0.22876661750E+02  0.95816378887E+02  0.91263874133E+02 0.  0.
         11    1    3    3    0    0 -0.32886516202E+02  0.41558225602E+02  0.19927569830E+02  0.56619052471E+02  0.51100000000E-03 0.  1.
         22    1    1    0    0    0  0.16648205003E+01 -0.18043571186E+02 -0.22876661750E+02  0.29183621113E+02  0.00000000000E+00 0.  1.
</event>
<event>
 5    1  0.1282529E-003  0.9118800E+02  0.7818608E-02  0.1130116E+00
         25   -1    0    0    0    0  0.00000000000E+00  0.00000000000E+00  0.99999998245E-14  0.12500000000E+03  0.12500000000E+03 0.  0.
        -11    1    3    3    0    0  0.30064710708E+02 -0.52073884633E+01  0.26126764412E+02  0.40169783961E+02  0.51100000000E-03 0.  1.
         23    2    1    0    0    0 -0.30037260497E+01  0.26722993789E+02 -0.74510623760E+01  0.97095536240E+02  0.92999376664E+02 0.  0.
         11    1    3    3    0    0 -0.33068436758E+02  0.31930382252E+02 -0.33577826788E+02  0.56925752278E+02  0.51100000000E-03 0. -1.
         22    1    1    0    0    0  0.30037260497E+01 -0.26722993789E+02  0.74510623760E+01  0.27904463760E+02  0.00000000000E+00 0. -1.
</event>
<event>
 5    1  0.1282529E-003  0.9118800E+02  0.7818608E-02  0.1130116E+00
         25   -1    0    0    0    0  0.00000000000E+00  0.00000000000E+00  0.99999998245E-14  0.12500000000E+03  0.12500000000E+03 0.  0.
        -11    1    3    3    0    0  0.39449876040E+02 -0.34758007933E+02 -0.17783042328E+02  0.55503589341E+02  0.51100000000E-03 0. -1.
         23    2    1    0    0    0  0.25876528760E+02 -0.95131813368E+01  0.10241021497E+02  0.95589561698E+02  0.90952682338E+02 0.  0.
         11    1    3    3    0    0 -0.13573347280E+02  0.25244826597E+02  0.28024063825E+02  0.40085972357E+02  0.51100000000E-03 0.  1.
         22    1    1    0    0    0 -0.25876528760E+02  0.95131813368E+01 -0.10241021497E+02  0.29410438302E+02  0.00000000000E+00 0. -1.
</event>
<event>
 5    1  0.1282529E-003  0.9118800E+02  0.7818608E-02  0.1130116E+00
         25   -1    0    0    0    0  0.00000000000E+00  0.00000000000E+00  0.99999998245E-14  0.12500000000E+03  0.12500000000E+03 0.  0.
        -11    1    3    3    0    0  0.26772674938E+02 -0.19343185073E+02  0.24267042576E+02  0.40985659538E+02  0.51100000000E-03 0.  1.
         23    2    1    0    0    0 -0.25473670989E+02 -0.28921230527E+01  0.68478194197E+01  0.98463894027E+02  0.94820744074E+02 0.  0.
         11    1    3    3    0    0 -0.52246345927E+02  0.16451062021E+02 -0.17419223156E+02  0.57478234489E+02  0.51100000000E-03 0. -1.
         22    1    1    0    0    0  0.25473670989E+02  0.28921230527E+01 -0.68478194197E+01  0.26536105973E+02  0.00000000000E+00 0. -1.
</event>
<event>
 5    1  0.1282529E-003  0.9118800E+02  0.7818608E-02  0.1130116E+00
         25   -1    0    0    0    0  0.00000000000E+00  0.00000000000E+00  0.99999998245E-14  0.12500000000E+03  0.12500000000E+03 0.  0.
        -11    1    3    3    0    0 -0.19730021865E+02  0.16850541098E+02 -0.43831407452E+02  0.50935319549E+02  0.51100000000E-03 0.  1.
         23    2    1    0    0    0 -0.29151698123E+02  0.38404771357E+01 -0.22513161639E+01  0.95510354485E+02  0.90843759397E+02 0.  0.
         11    1    3    3    0    0 -0.94216762587E+01 -0.13010063962E+02  0.41580091288E+02  0.44575034937E+02  0.51100000000E-03 0. -1.
         22    1    1    0    0    0  0.29151698123E+02 -0.38404771357E+01  0.22513161639E+01  0.29489645515E+02  0.00000000000E+00 0. -1.
</event>
<event>
 5    1  0.1282529E-003  0.9118800E+02  0.7818608E-02  0.1130116E+00
         25   -1    0    0    0    0  0.00000000000E+00  0.00000000000E+00  0.99999998245E-14  0.12500000000E+03  0.12500000000E+03 0.  0.
        -11    1    3    3    0    0  0.42955299654E+01 -0.11831449397E+02  0.35119051151E+02  0.37306601648E+02  0.51100000000E-03 0.  1.
         23    2    1    0    0    0  0.78065732587E+01 -0.15389907871E+02 -0.23336850092E+02  0.95975864828E+02  0.91482054016E+02 0.  0.
         11    1    3    3    0    0  0.35110432933E+01 -0.35584584739E+01 -0.58455901243E+02  0.58669263180E+02  0.51100000000E-03 0. -1.
         22    1    1    0    0    0 -0.78065732587E+01  0.15389907871E+02  0.23336850092E+02  0.29024135172E+02  0.00000000000E+00 0. -1.
</event>
<event>
 5    1  0.1282529E-003  0.9118800E+02  0.7818608E-02  0.1130116E+00
         25   -1    0    0    0    0  0.00000000000E+00  0.00000000000E+00  0.99999998245E-14  0.12500000000E+03  0.12500000000E+03 0.  0.
        -11    1    3    3    0    0 -0.10683319323E+02 -0.12478309345E+02  0.59170129503E+02  0.61408026686E+02  0.51100000000E-03 0.  1.
         23    2    1    0    0    0 -0.11253806520E+02 -0.46653022551E+00  0.27685932383E+02  0.95110592787E+02  0.90292016240E+02 0.  0.
         11    1    3    3    0    0 -0.57048719664E+00  0.12011779119E+02 -0.31484197120E+02  0.33702566101E+02  0.51100000000E-03 0. -1.
         22    1    1    0    0    0  0.11253806520E+02  0.46653022551E+00 -0.27685932383E+02  0.29889407213E+02  0.00000000000E+00 0.  1.
</event>
<event>
 5    1  0.1282529E-003  0.9118800E+02  0.7818608E-02  0.1130116E+00
         25   -1    0    0    0    0  0.00000000000E+00  0.00000000000E+00  0.99999998245E-14  0.12500000000E+03  0.12500000000E+03 0.  0.
        -11    1    3    3    0    0 -0.40552552445E+02  0.93220242249E+01  0.27774267454E+02  0.50028187838E+02  0.51100000000E-03 0. -1.
         23    2    1    0    0    0 -0.10972606352E+00 -0.12215533644E+02  0.26447440342E+02  0.95867571288E+02  0.91333963136E+02 0.  0.
         11    1    3    3    0    0  0.40442826382E+02 -0.21537557868E+02 -0.13268271122E+01  0.45839383450E+02  0.51100000000E-03 0.  1.
         22    1    1    0    0    0  0.10972606352E+00  0.12215533644E+02 -0.26447440342E+02  0.29132428712E+02  0.00000000000E+00 0.  1.
</event>
<event>
 5    1  0.1282529E-003  0.9118800E+02  0.7818608E-02  0.1130116E+00
         25   -1    0    0    0    0  0.00000000000E+00  0.00000000000E+00  0.99999998245E-14  0.12500000000E+03  0.12500000000E+03 0.  0.
        -11    1    3    3    0    0 -0.26392362824E+01  0.14122200954E+02  0.27822584936E+02  0.31312910448E+02  0.51100000000E-03 0.  1.
         23    2    1    0    0    0 -0.68280525731E+01 -0.19482332128E+02 -0.24077382208E+02  0.93284011901E+02  0.87726865756E+02 0.  0.
         11    1    3    3    0    0 -0.41888162907E+01 -0.33604533082E+02 -0.51899967144E+02  0.61971101454E+02  0.51100000000E-03 0. -1.
         22    1    1    0    0    0  0.68280525731E+01  0.19482332128E+02  0.24077382208E+02  0.31715988099E+02  0.00000000000E+00 0. -1.
</event>
<event>
 5    1  0.1282529E-003  0.9118800E+02  0.7818608E-02  0.1130116E+00
         25   -1    0    0    0    0  0.00000000000E+00  0.00000000000E+00  0.99999998245E-14  0.12500000000E+03  0.12500000000E+03 0.  0.
        -11    1    3    3    0    0  0.34945849368E+01 -0.13714152574E+02  0.38179027059E+02  0.40717664620E+02  0.51100000000E-03 0.  1.
         23    2    1    0    0    0 -0.30258883126E+02  0.69277649261E+01  0.27333930474E+01  0.93838078165E+02  0.88512821338E+02 0.  0.
         11    1    3    3    0    0 -0.33753468063E+02  0.20641917501E+02 -0.35445634011E+02  0.53120413544E+02  0.51100000000E-03 0. -1.
         22    1    1    0    0    0  0.30258883126E+02 -0.69277649261E+01 -0.27333930474E+01  0.31161921835E+02  0.00000000000E+00 0. -1.
</event>
<event>
 5    1  0.1282529E-003  0.9118800E+02  0.7818608E-02  0.1130116E+00
         25   -1    0    0    0    0  0.00000000000E+00  0.00000000000E+00  0.99999998245E-14  0.12500000000E+03  0.12500000000E+03 0.  0.
        -11    1    3    3    0    0  0.26809954949E+02  0.49155947572E+02  0.22800895851E+02  0.60456279392E+02  0.51100000000E-03 0.  1.
         23    2    1    0    0    0  0.21522705052E+01  0.27399281877E+02  0.96748589057E+01  0.95863153731E+02  0.91327917050E+02 0.  0.
         11    1    3    3    0    0 -0.24657684444E+02 -0.21756665695E+02 -0.13126036945E+02  0.35406874339E+02  0.51100000000E-03 0. -1.
         22    1    1    0    0    0 -0.21522705052E+01 -0.27399281877E+02 -0.96748589057E+01  0.29136846269E+02  0.00000000000E+00 0.  1.
</event>
<event>
 5    1  0.1282529E-003  0.9118800E+02  0.7818608E-02  0.1130116E+00
         25   -1    0    0    0    0  0.00000000000E+00  0.00000000000E+00  0.99999998245E-14  0.12500000000E+03  0.12500000000E+03 0.  0.
        -11    1    3    3    0    0 -0.25418893594E+02  0.37612340042E+02 -0.11820613286E+02  0.46909862221E+02  0.51100000000E-03 0. -1.
         23    2    1    0    0    0 -0.23957221066E+01 -0.68053248787E+01 -0.25273443540E+02  0.98716946915E+02  0.95153753098E+02 0.  0.
         11    1    3    3    0    0  0.23023171487E+02 -0.44417664920E+02 -0.13452830255E+02  0.51807084693E+02  0.51100000000E-03 0.  1.
         22    1    1    0    0    0  0.23957221066E+01  0.68053248787E+01  0.25273443540E+02  0.26283053085E+02  0.00000000000E+00 0.  1.
</event>
<event>
 5    1  0.1282529E-003  0.9118800E+02  0.7818608E-02  0.1130116E+00
         25   -1    0    0    0    0  0.00000000000E+00  0.00000000000E+00  0.99999998245E-14  0.12500000000E+03  0.12500000000E+03 0.  0.
        -11    1    3    3    0    0 -0.32246689702E+02  0.45513877317E+02 -0.22702478164E+02  0.60222624820E+02  0.51100000000E-03 0.  1.
         23    2    1    0    0    0 -0.76843366090E+01  0.16855867493E+02 -0.19502421855E+02  0.98101788976E+02  0.94342181680E+02 0.  0.
         11    1    3    3    0    0  0.24562353093E+02 -0.28658009824E+02  0.32000563090E+01  0.37879164156E+02  0.51100000000E-03 0. -1.
         22    1    1    0    0    0  0.76843366090E+01 -0.16855867493E+02  0.19502421855E+02  0.26898211024E+02  0.00000000000E+00 0.  1.
</event>
<event>
 5    1  0.1282529E-003  0.9118800E+02  0.7818608E-02  0.1130116E+00
         25   -1    0    0    0    0  0.00000000000E+00  0.00000000000E+00  0.99999998245E-14  0.12500000000E+03  0.12500000000E+03 0.  0.
        -11    1    3    3    0    0 -0.24111712834E+02 -0.17399824698E+02  0.25483351383E+02  0.39160308902E+02  0.51100000000E-03 0. -1.
         23    2    1    0    0    0 -0.10739851363E+02 -0.54600043047E+01 -0.27436855191E+02  0.95034401774E+02  0.90186475945E+02 0.  0.
         11    1    3    3    0    0  0.13371861471E+02  0.11939820394E+02 -0.52920206574E+02  0.55874092872E+02  0.51100000000E-03 0.  1.
         22    1    1    0    0    0  0.10739851363E+02  0.54600043047E+01  0.27436855191E+02  0.29965598226E+02  0.00000000000E+00 0.  1.
</event>
<event>
 5    1  0.1282529E-003  0.9118800E+02  0.7818608E-02  0.1130116E+00
         25   -1    0    0    0    0  0.00000000000E+00  0.00000000000E+00  0.99999998245E-14  0.12500000000E+03  0.12500000000E+03 0.  0.
        -11    1    3    3    0    0 -0.21237937738E+02  0.56628934121E+02  0.76018709894E+01  0.60956333731E+02  0.51100000000E-03 0. -1.
         23    2    1    0    0    0 -0.59757883067E+01  0.25672335554E+02  0.12519373617E+02  0.95819294484E+02  0.91267867407E+02 0.  0.
         11    1    3    3    0    0  0.15262149432E+02 -0.30956598568E+02  0.49175026274E+01  0.34862960753E+02  0.51100000000E-03 0.  1.
         22    1    1    0    0    0  0.59757883067E+01 -0.25672335554E+02 -0.12519373617E+02  0.29180705516E+02  0.00000000000E+00 0. -1.
</event>
<event>
 5    1  0.1282529E-003  0.9118800E+02  0.7818608E-02  0.1130116E+00
         25   -1    0    0    0    0  0.00000000000E+00  0.00000000000E+00  0.99999998245E-14  0.12500000000E+03  0.12500000000E+03 0.  0.
        -11    1    3    3    0    0 -0.33881883521E+02 -0.10908208222E+02  0.27462504493E+02  0.44957315209E+02  0.51100000000E-03 0.  1.
         23    2    1    0    0    0 -0.76771293903E+01  0.27129939864E+02  0.48329863584E+01  0.96393537272E+02  0.92050987599E+02 0.  0.
         11    1    3    3    0    0  0.26204754130E+02  0.38038148086E+02 -0.22629518134E+02  0.51436222063E+02  0.51100000000E-03 0. -1.
         22    1    1    0    0    0  0.76771293903E+01 -0.27129939864E+02 -0.48329863584E+01  0.28606462728E+02  0.00000000000E+00 0. -1.
</event>
<event>
 5    1  0.1282529E-003  0.9118800E+02  0.7818608E-02  0.1130116E+00
         25   -1    0    0    0    0  0.00000000000E+00  0.00000000000E+00  0.99999998245E-14  0.12500000000E+03  0.12500000000E+03 0.  0.
        -11    1    3    3    0    0  0.14779859228E+01 -0.11019044642E+02 -0.31173712044E+02  0.33096889734E+02  0.51100000000E-03 0.  1.
         23    2    1    0    0    0 -0.65429857757E+01  0.87414632550E+01  0.27438684668E+02  0.95468571674E+02  0.90786248509E+02 0.  0.
         11    1    3    3    0    0 -0.80209716984E+01  0.19760507897E+02  0.58612396712E+02  0.62371681939E+02  0.51100000000E-03 0. -1.
         22    1    1    0    0    0  0.65429857757E+01 -0.87414632550E+01 -0.27438684668E+02  0.29531428326E+02  0.00000000000E+00 0. -1.
</event>
<event>
 5    1  0.1282529E-003  0.9118800E+02  0.7818608E-02  0.1130116E+00
         25   -1    0    0    0    0  0.00000000000E+00  0.00000000000E+00  0.99999998245E-14  0.12500000000E+03  0.12500000000E+03 0.  0.
        -11    1    3    3    0    0  0.91749287105E+01  0.30662913363E+02  0.22070238729E+02  0.38877873020E+02  0.51100000000E-03 0.  1.
         23    2    1    0    0    0  0.41004902913E+01 -0.22593741632E+02  0.23158780082E+02  0.92386808246E+02  0.86439007753E+02 0.  0.
         11    1    3    3    0    0 -0.50744384192E+01 -0.53256654994E+02  0.10885413526E+01  0.53508935226E+02  0.51100000000E-03 0. -1.
         22    1    1    0    0    0 -0.41004902913E+01  0.22593741632E+02 -0.23158780082E+02  0.32613191754E+02  0.00000000000E+00 0. -1.
</event>
<event>
 5    1  0.1282529E-003  0.9118800E+02  0.7818608E-02  0.1130116E+00
         25   -1    0    0    0    0  0.00000000000E+00  0.00000000000E+00  0.99999998245E-14  0.12500000000E+03  0.12500000000E+03 0.  0.
        -11    1    3    3    0    0 -0.18263648234E+02  0.49114352487E+02 -0.14364222139E+02  0.54333335485E+02  0.51100000000E-03 0.  1.
         23    2    1    0    0    0 -0.42932113364E+01  0.34217753903E+02 -0.29391108707E+02  0.79688592862E+02  0.65552636984E+02 0.  0.
         11    1    3    3    0    0  0.13970436897E+02 -0.14896598584E+02 -0.15026886568E+02  0.25355257377E+02  0.51100000000E-03 0. -1.
         22    1    1    0    0    0  0.42932113364E+01 -0.34217753903E+02  0.29391108707E+02  0.45311407138E+02  0.00000000000E+00 0.  1.
</event>
<event>
 5    1  0.1282529E-003  0.9118800E+02  0.7818608E-02  0.1130116E+00
         25   -1    0    0    0    0  0.00000000000E+00  0.00000000000E+00  0.99999998245E-14  0.12500000000E+03  0.12500000000E+03 0.  0.
        -11    1    3    3    0    0 -0.66929351020E+01 -0.20121128446E+02 -0.27433529722E+02  0.34673530878E+02  0.51100000000E-03 0. -1.
         23    2    1    0    0    0  0.16820105442E+02  0.20164829306E+02  0.12351116635E+02  0.95981275525E+02  0.91489446830E+02 0.  0.
         11    1    3    3    0    0  0.23513040544E+02  0.40285957752E+02  0.39784646358E+02  0.61307744647E+02  0.51100000000E-03 0.  1.
         22    1    1    0    0    0 -0.16820105442E+02 -0.20164829306E+02 -0.12351116635E+02  0.29018724475E+02  0.00000000000E+00 0.  1.
</event>
<event>
 5    1  0.1282529E-003  0.9118800E+02  0.7818608E-02  0.1130116E+00
         25   -1    0    0    0    0  0.00000000000E+00  0.00000000000E+00  0.99999998245E-14  0.12500000000E+03  0.12500000000E+03 0.  0.
        -11    1    3    3    0    0  0.34773997994E+02 -0.16964275845E+02 -0.92131357959E+01  0.39773099739E+02  0.51100000000E-03 0.  1.
         23    2    1    0    0    0  0.93453699637E+01 -0.99995208371E+01 -0.41409553433E+02  0.81387186834E+02  0.68715330957E+02 0.  0.
         11    1    3    3    0    0 -0.25428628030E+02  0.69647550084E+01 -0.32196417637E+02  0.41614087095E+02  0.51100000000E-03 0. -1.
         22    1    1    0    0    0 -0.93453699637E+01  0.99995208371E+01  0.41409553433E+02  0.43612813166E+02  0.00000000000E+00 0. -1.
</event>
<event>
 5    1  0.1282529E-003  0.9118800E+02  0.7818608E-02  0.1130116E+00
         25   -1    0    0    0    0  0.00000000000E+00  0.00000000000E+00  0.99999998245E-14  0.12500000000E+03  0.12500000000E+03 0.  0.
        -11    1    3    3    0    0 -0.25311099694E+02  0.83953154613E+01 -0.19596846973E+02  0.33093345267E+02  0.51100000000E-03 0. -1.
         23    2    1    0    0    0  0.19642959457E+02 -0.25257362121E+02  0.12139850254E+01  0.92980412914E+02  0.87293202648E+02 0.  0.
         11    1    3    3    0    0  0.44954059151E+02 -0.33652677582E+02  0.20810831998E+02  0.59887067647E+02  0.51100000000E-03 0.  1.
         22    1    1    0    0    0 -0.19642959457E+02  0.25257362121E+02 -0.12139850254E+01  0.32019587086E+02  0.00000000000E+00 0.  1.
</event>
<event>
 5    1  0.1282529E-003  0.9118800E+02  0.7818608E-02  0.1130116E+00
         25   -1    0    0    0    0  0.00000000000E+00  0.00000000000E+00  0.99999998245E-14  0.12500000000E+03  0.12500000000E+03 0.  0.
        -11    1    3    3    0    0  0.30790803200E+02 -0.42354078066E+01 -0.24524643838E+02  0.39591291930E+02  0.51100000000E-03 0. -1.
         23    2    1    0    0    0 -0.18396864643E+02 -0.22738883186E+02 -0.81273830068E+01  0.94642862589E+02  0.89642153294E+02 0.  0.
         11    1    3    3    0    0 -0.49187667843E+02 -0.18503475380E+02  0.16397260832E+02  0.55051570659E+02  0.51100000000E-03 0.  1.
         22    1    1    0    0    0  0.18396864643E+02  0.22738883186E+02  0.81273830068E+01  0.30357137411E+02  0.00000000000E+00 0.  1.
</event>
<event>
 5    1  0.1282529E-003  0.9118800E+02  0.7818608E-02  0.1130116E+00
         25   -1    0    0    0    0  0.00000000000E+00  0.00000000000E+00  0.99999998245E-14  0.12500000000E+03  0.12500000000E+03 0.  0.
        -11    1    3    3    0    0  0.41392074802E+01 -0.49070867483E+02  0.35209795358E+02  0.60537697045E+02  0.51100000000E-03 0.  1.
         23    2    1    0    0    0 -0.29981160651E+01 -0.27533970164E+02  0.75891267648E+01  0.96282356330E+02  0.91899886194E+02 0.  0.
         11    1    3    3    0    0 -0.71373235454E+01  0.21536897319E+02 -0.27620668594E+02  0.35744659284E+02  0.51100000000E-03 0. -1.
         22    1    1    0    0    0  0.29981160651E+01  0.27533970164E+02 -0.75891267648E+01  0.28717643670E+02  0.00000000000E+00 0.  1.
</event>
<event>
 5    1  0.1282529E-003  0.9118800E+02  0.7818608E-02  0.1130116E+00
         25   -1    0    0    0    0  0.00000000000E+00  0.00000000000E+00  0.99999998245E-14  0.12500000000E+03  0.12500000000E+03 0.  0.
        -11    1    3    3    0    0  0.56667264007E+02  0.82165558297E+01 -0.14964142928E+02  0.59182904403E+02  0.51100000000E-03 0.  1.
         23    2    1    0    0    0  0.27025319884E+02  0.12113848948E+02  0.47651623380E+01  0.95002999762E+02  0.90142941711E+02 0.  0.
         11    1    3    3    0    0 -0.29641944122E+02  0.38972931187E+01  0.19729305266E+02  0.35820095359E+02  0.51100000000E-03 0. -1.
         22    1    1    0    0    0 -0.27025319884E+02 -0.12113848948E+02 -0.47651623380E+01  0.29997000238E+02  0.00000000000E+00 0.  1.
</event>
<event>
 5    1  0.1282529E-003  0.9118800E+02  0.7818608E-02  0.1130116E+00
         25   -1    0    0    0    0  0.00000000000E+00  0.00000000000E+00  0.99999998245E-14  0.12500000000E+03  0.12500000000E+03 0.  0.
        -11    1    3    3    0    0  0.27136435691E+02 -0.30568400474E+01 -0.37494829325E+02  0.46385263171E+02  0.51100000000E-03 0.  1.
         23    2    1    0    0    0  0.14545834823E+02  0.24857834840E+02  0.17289006836E+01  0.96147229574E+02  0.91715905892E+02 0.  0.
         11    1    3    3    0    0 -0.12590600868E+02  0.27914674888E+02  0.39223730008E+02  0.49761966403E+02  0.51100000000E-03 0. -1.
         22    1    1    0    0    0 -0.14545834823E+02 -0.24857834840E+02 -0.17289006836E+01  0.28852770426E+02  0.00000000000E+00 0. -1.
</event>
<event>
 5    1  0.1282529E-003  0.9118800E+02  0.7818608E-02  0.1130116E+00
         25   -1    0    0    0    0  0.00000000000E+00  0.00000000000E+00  0.99999998245E-14  0.12500000000E+03  0.12500000000E+03 0.  0.
        -11    1    3    3    0    0 -0.10428518418E+02  0.49702734325E+02 -0.55959519696E+01  0.51092371980E+02  0.51100000000E-03 0.  1.
         23    2    1    0    0    0  0.70370179539E+01  0.20585255442E+02  0.21410192496E+02  0.94476751385E+02  0.89410222270E+02 0.  0.
         11    1    3    3    0    0  0.17465536372E+02 -0.29117478883E+02  0.27006144465E+02  0.43384379406E+02  0.51100000000E-03 0. -1.
         22    1    1    0    0    0 -0.70370179539E+01 -0.20585255442E+02 -0.21410192496E+02  0.30523248615E+02  0.00000000000E+00 0. -1.
</event>
<event>
 5    1  0.1282529E-003  0.9118800E+02  0.7818608E-02  0.1130116E+00
         25   -1    0    0    0    0  0.00000000000E+00  0.00000000000E+00  0.99999998245E-14  0.12500000000E+03  0.12500000000E+03 0.  0.
        -11    1    3    3    0    0 -0.31773952195E+02 -0.28864231851E+01  0.16569064637E+02  0.35950652012E+02  0.51100000000E-03 0. -1.
         23    2    1    0    0    0  0.52466830235E+01 -0.56482529434E+01 -0.29152388355E+02  0.94845527847E+02  0.89924312406E+02 0.  0.
         11    1    3    3    0    0  0.37020635219E+02 -0.27618297583E+01 -0.45721452991E+02  0.58894875834E+02  0.51100000000E-03 0.  1.
         22    1    1    0    0    0 -0.52466830235E+01  0.56482529434E+01  0.29152388355E+02  0.30154472153E+02  0.00000000000E+00 0.  1.
</event>
<event>
 5    1  0.1282529E-003  0.9118800E+02  0.7818608E-02  0.1130116E+00
         25   -1    0    0    0    0  0.00000000000E+00  0.00000000000E+00  0.99999998245E-14  0.12500000000E+03  0.12500000000E+03 0.  0.
        -11    1    3    3    0    0 -0.29922611912E+02  0.56527982553E+00 -0.27897368109E+02  0.40913877751E+02  0.51100000000E-03 0. -1.
         23    2    1    0    0    0  0.20916431970E+02 -0.11612581890E+02 -0.20067362162E+02  0.93774238061E+02  0.88422618799E+02 0.  0.
         11    1    3    3    0    0  0.50839043882E+02 -0.12177861716E+02  0.78300059473E+01  0.52860360311E+02  0.51100000000E-03 0.  1.
         22    1    1    0    0    0 -0.20916431970E+02  0.11612581890E+02  0.20067362162E+02  0.31225761939E+02  0.00000000000E+00 0. -1.
</event>
<event>
 5    1  0.1282529E-003  0.9118800E+02  0.7818608E-02  0.1130116E+00
         25   -1    0    0    0    0  0.00000000000E+00  0.00000000000E+00  0.99999998245E-14  0.12500000000E+03  0.12500000000E+03 0.  0.
        -11    1    3    3    0    0 -0.51250437836E+02 -0.23240034751E+02  0.21221569503E+02  0.60142011988E+02  0.51100000000E-03 0.  1.
         23    2    1    0    0    0 -0.28638947544E+02 -0.24302652929E+00  0.63124392757E+01  0.95672619143E+02  0.91066760048E+02 0.  0.
         11    1    3    3    0    0  0.22611490291E+02  0.22997008222E+02 -0.14909130227E+02  0.35530607154E+02  0.51100000000E-03 0. -1.
         22    1    1    0    0    0  0.28638947544E+02  0.24302652929E+00 -0.63124392757E+01  0.29327380857E+02  0.00000000000E+00 0.  1.
</event>
<event>
 5    1  0.1282529E-003  0.9118800E+02  0.7818608E-02  0.1130116E+00
         25   -1    0    0    0    0  0.00000000000E+00  0.00000000000E+00  0.99999998245E-14  0.12500000000E+03  0.12500000000E+03 0.  0.
        -11    1    3    3    0    0 -0.13209188623E+02 -0.38928918290E+02  0.14384091614E+02  0.43552789063E+02  0.51100000000E-03 0.  1.
         23    2    1    0    0    0 -0.23989209791E+02  0.87483283371E+00 -0.17177163571E+02  0.95482166962E+02  0.90804965396E+02 0.  0.
         11    1    3    3    0    0 -0.10780021168E+02  0.39803751124E+02 -0.31561255185E+02  0.51929377900E+02  0.51100000000E-03 0. -1.
         22    1    1    0    0    0  0.23989209791E+02 -0.87483283371E+00  0.17177163571E+02  0.29517833038E+02  0.00000000000E+00 0.  1.
</event>
<event>
 5    1  0.1282529E-003  0.9118800E+02  0.7818608E-02  0.1130116E+00
         25   -1    0    0    0    0  0.00000000000E+00  0.00000000000E+00  0.99999998245E-14  0.12500000000E+03  0.12500000000E+03 0.  0.
        -11    1    3    3    0    0 -0.51135823792E+01  0.39004364075E+02 -0.34783342066E+02  0.52510665842E+02  0.51100000000E-03 0. -1.
         23    2    1    0    0    0 -0.12026729803E+02 -0.32505905463E+01 -0.25928979117E+02  0.96233343491E+02  0.91833195919E+02 0.  0.
         11    1    3    3    0    0 -0.69131474234E+01 -0.42254954621E+02  0.88543629483E+01  0.43722677649E+02  0.51100000000E-03 0.  1.
         22    1    1    0    0    0  0.12026729803E+02  0.32505905463E+01  0.25928979117E+02  0.28766656509E+02  0.00000000000E+00 0. -1.
</event>
<event>
 5    1  0.1282529E-003  0.9118800E+02  0.7818608E-02  0.1130116E+00
         25   -1    0    0    0    0  0.00000000000E+00  0.00000000000E+00  0.99999998245E-14  0.12500000000E+03  0.12500000000E+03 0.  0.
        -11    1    3    3    0    0  0.22281552677E+02  0.32859657599E+02  0.68906255508E+01  0.40295228104E+02  0.51100000000E-03 0.  1.
         23    2    1    0    0    0 -0.17087465394E+02  0.47902522389E+01 -0.22088738071E+02  0.96665562654E+02  0.92419644360E+02 0.  0.
         11    1    3    3    0    0 -0.39369018071E+02 -0.28069405360E+02 -0.28979363622E+02  0.56370334550E+02  0.51100000000E-03 0. -1.
         22    1    1    0    0    0  0.17087465394E+02 -0.47902522389E+01  0.22088738071E+02  0.28334437346E+02  0.00000000000E+00 0. -1.
</event>
<event>
 5    1  0.1282529E-003  0.9118800E+02  0.7818608E-02  0.1130116E+00
         25   -1    0    0    0    0  0.00000000000E+00  0.00000000000E+00  0.99999998245E-14  0.12500000000E+03  0.12500000000E+03 0.  0.
        -11    1    3    3    0    0 -0.27842215331E+02  0.18403682656E+02 -0.50751561259E+02  0.60742122620E+02  0.51100000000E-03 0.  1.
         23    2    1    0    0    0 -0.21168330204E+02  0.67446148155E+01 -0.17136980400E+02  0.96941772510E+02  0.92792473442E+02 0.  0.
         11    1    3    3    0    0  0.66738851263E+01 -0.11659067841E+02  0.33614580859E+02  0.36199649890E+02  0.51100000000E-03 0. -1.
         22    1    1    0    0    0  0.21168330204E+02 -0.67446148155E+01  0.17136980400E+02  0.28058227490E+02  0.00000000000E+00 0.  1.
</event>
<event>
 5    1  0.1282529E-003  0.9118800E+02  0.7818608E-02  0.1130116E+00
         25   -1    0    0    0    0  0.00000000000E+00  0.00000000000E+00  0.99999998245E-14  0.12500000000E+03  0.12500000000E+03 0.  0.
        -11    1    3    3    0    0 -0.29760801104E+02  0.23075434189E+02  0.46984603863E+02  0.60214067674E+02  0.51100000000E-03 0. -1.
         23    2    1    0    0    0 -0.17929274630E+02  0.18566203552E+02  0.13799902517E+02  0.95732268408E+02  0.91148599012E+02 0.  0.
         11    1    3    3    0    0  0.11831526474E+02 -0.45092306370E+01 -0.33184701347E+02  0.35518200734E+02  0.51100000000E-03 0.  1.
         22    1    1    0    0    0  0.17929274630E+02 -0.18566203552E+02 -0.13799902517E+02  0.29267731592E+02  0.00000000000E+00 0. -1.
</event>
<event>
 5    1  0.1282529E-003  0.9118800E+02  0.7818608E-02  0.1130116E+00
         25   -1    0    0    0    0  0.00000000000E+00  0.00000000000E+00  0.99999998245E-14  0.12500000000E+03  0.12500000000E+03 0.  0.
        -11    1    3    3    0    0  0.30388075368E+02 -0.40313225169E+02 -0.12330334510E+02  0.51967570633E+02  0.51100000000E-03 0.  1.
         23    2    1    0    0    0 -0.85618014683E+01 -0.29112269133E+02  0.10184600048E+01  0.94637755036E+02  0.89635030870E+02 0.  0.
         11    1    3    3    0    0 -0.38949876837E+02  0.11200956036E+02  0.13348794515E+02  0.42670184403E+02  0.51100000000E-03 0. -1.
         22    1    1    0    0    0  0.85618014683E+01  0.29112269133E+02 -0.10184600048E+01  0.30362244964E+02  0.00000000000E+00 0.  1.
</event>
<event>
 5    1  0.1282529E-003  0.9118800E+02  0.7818608E-02  0.1130116E+00
         25   -1    0    0    0    0  0.00000000000E+00  0.00000000000E+00  0.99999998245E-14  0.12500000000E+03  0.12500000000E+03 0.  0.
        -11    1    3    3    0    0  0.25775148394E+02  0.11792882560E+02  0.72448503620E+01  0.29256079895E+02  0.51100000000E-03 0.  1.
         23    2    1    0    0    0 -0.28704476834E+02  0.43240007353E+01 -0.19121570959E+02  0.90239700108E+02  0.83276197241E+02 0.  0.
         11    1    3    3    0    0 -0.54479625228E+02 -0.74688818246E+01 -0.26366421321E+02  0.60983620212E+02  0.51100000000E-03 0. -1.
         22    1    1    0    0    0  0.28704476834E+02 -0.43240007353E+01  0.19121570959E+02  0.34760299892E+02  0.00000000000E+00 0. -1.
</event>
<event>
 5    1  0.1282529E-003  0.9118800E+02  0.7818608E-02  0.1130116E+00
         25   -1    0    0    0    0  0.00000000000E+00  0.00000000000E+00  0.99999998245E-14  0.12500000000E+03  0.12500000000E+03 0.  0.
        -11    1    3    3    0    0  0.21661204508E+02 -0.53609438021E+02  0.51909425119E+01  0.58052782105E+02  0.51100000000E-03 0.  1.
         23    2    1    0    0    0 -0.59889918077E+01 -0.29200933781E+02  0.36659592605E+01  0.94966654968E+02  0.90092528780E+02 0.  0.
         11    1    3    3    0    0 -0.27650196315E+02  0.24408504241E+02 -0.15249832514E+01  0.36913872863E+02  0.51100000000E-03 0. -1.
         22    1    1    0    0    0  0.59889918077E+01  0.29200933781E+02 -0.36659592605E+01  0.30033345032E+02  0.00000000000E+00 0.  1.
</event>
<event>
 5    1  0.1282529E-003  0.9118800E+02  0.7818608E-02  0.1130116E+00
         25   -1    0    0    0    0  0.00000000000E+00  0.00000000000E+00  0.99999998245E-14  0.12500000000E+03  0.12500000000E+03 0.  0.
        -11    1    3    3    0    0  0.23119183907E+02  0.30484020185E+01 -0.50844439654E+02  0.55936986542E+02  0.51100000000E-03 0. -1.
         23    2    1    0    0    0 -0.51929910663E+01 -0.10049495718E+02 -0.28581045405E+02  0.94261820534E+02  0.89109231473E+02 0.  0.
         11    1    3    3    0    0 -0.28312174973E+02 -0.13097897737E+02  0.22263394249E+02  0.38324833993E+02  0.51100000000E-03 0.  1.
         22    1    1    0    0    0  0.51929910663E+01  0.10049495718E+02  0.28581045405E+02  0.30738179466E+02  0.00000000000E+00 0. -1.
</event>
<event>
 5    1  0.1282529E-003  0.9118800E+02  0.7818608E-02  0.1130116E+00
         25   -1    0    0    0    0  0.00000000000E+00  0.00000000000E+00  0.99999998245E-14  0.12500000000E+03  0.12500000000E+03 0.  0.
        -11    1    3    3    0    0  0.19372289915E+02  0.22765055738E+02  0.14384043287E+02  0.33172791274E+02  0.51100000000E-03 0.  1.
         23    2    1    0    0    0 -0.16852946550E+02 -0.15688578326E+02 -0.18554381593E+02  0.95429434000E+02  0.90732345390E+02 0.  0.
         11    1    3    3    0    0 -0.36225236465E+02 -0.38453634064E+02 -0.32938424880E+02  0.62256642726E+02  0.51100000000E-03 0. -1.
         22    1    1    0    0    0  0.16852946550E+02  0.15688578326E+02  0.18554381593E+02  0.29570566000E+02  0.00000000000E+00 0. -1.
</event>
<event>
 5    1  0.1282529E-003  0.9118800E+02  0.7818608E-02  0.1130116E+00
         25   -1    0    0    0    0  0.00000000000E+00  0.00000000000E+00  0.99999998245E-14  0.12500000000E+03  0.12500000000E+03 0.  0.
        -11    1    3    3    0    0 -0.19054229550E+02  0.73659919512E+01 -0.39448688870E+02  0.44424323912E+02  0.51100000000E-03 0. -1.
         23    2    1    0    0    0 -0.27355303943E+02 -0.15679274007E+02  0.28895385492E+01  0.93337692437E+02  0.87803320605E+02 0.  0.
         11    1    3    3    0    0 -0.83010743925E+01 -0.23045265958E+02  0.42338227420E+02  0.48913368525E+02  0.51100000000E-03 0.  1.
         22    1    1    0    0    0  0.27355303943E+02  0.15679274007E+02 -0.28895385492E+01  0.31662307563E+02  0.00000000000E+00 0. -1.
</event>
<event>
 5    1  0.1282529E-003  0.9118800E+02  0.7818608E-02  0.1130116E+00
         25   -1    0    0    0    0  0.00000000000E+00  0.00000000000E+00  0.99999998245E-14  0.12500000000E+03  0.12500000000E+03 0.  0.
        -11    1    3    3    0    0  0.36318060372E+02  0.38923914171E+02  0.19804062401E+01  0.53272831845E+02  0.51100000000E-03 0.  1.
         23    2    1    0    0    0  0.28870465282E+02 -0.24053754199E+01 -0.42224244159E+01  0.95723414398E+02  0.91136455931E+02 0.  0.
         11    1    3    3    0    0 -0.74475950900E+01 -0.41329289591E+02 -0.62028306560E+01  0.42450582554E+02  0.51100000000E-03 0. -1.
         22    1    1    0    0    0 -0.28870465282E+02  0.24053754199E+01  0.42224244159E+01  0.29276585602E+02  0.00000000000E+00 0.  1.
</event>
<event>
 5    1  0.1282529E-003  0.9118800E+02  0.7818608E-02  0.1130116E+00
         25   -1    0    0    0    0  0.00000000000E+00  0.00000000000E+00  0.99999998245E-14  0.12500000000E+03  0.12500000000E+03 0.  0.
        -11    1    3    3    0    0  0.36591615207E+02 -0.23528114084E+02 -0.30637385953E+02  0.53208719907E+02  0.51100000000E-03 0.  1.
         23    2    1    0    0    0  0.20871727989E+01 -0.92730780713E+00 -0.30457919835E+02  0.94456570744E+02  0.89382004262E+02 0.  0.
         11    1    3    3    0    0 -0.34504442408E+02  0.22600806277E+02  0.17946611847E+00  0.41247850837E+02  0.51100000000E-03 0. -1.
         22    1    1    0    0    0 -0.20871727989E+01  0.92730780713E+00  0.30457919835E+02  0.30543429256E+02  0.00000000000E+00 0.  1.
</event>
<event>
 5    1  0.1282529E-003  0.9118800E+02  0.7818608E-02  0.1130116E+00
         25   -1    0    0    0    0  0.00000000000E+00  0.00000000000E+00  0.99999998245E-14  0.12500000000E+03  0.12500000000E+03 0.  0.
        -11    1    3    3    0    0  0.45143813366E+02  0.78449595765E+01 -0.87570433738E+01  0.46649684724E+02  0.51100000000E-03 0.  1.
         23    2    1    0    0    0  0.15349612768E+02 -0.19423305019E+01  0.26796272233E+02  0.94057739813E+02  0.88822491257E+02 0.  0.
         11    1    3    3    0    0 -0.29794200598E+02 -0.97872900784E+01  0.35553315607E+02  0.47408055088E+02  0.51100000000E-03 0. -1.
         22    1    1    0    0    0 -0.15349612768E+02  0.19423305019E+01 -0.26796272233E+02  0.30942260187E+02  0.00000000000E+00 0.  1.
</event>
<event>
 5    1  0.1282529E-003  0.9118800E+02  0.7818608E-02  0.1130116E+00
         25   -1    0    0    0    0  0.00000000000E+00  0.00000000000E+00  0.99999998245E-14  0.12500000000E+03  0.12500000000E+03 0.  0.
        -11    1    3    3    0    0 -0.54136054012E+02 -0.22159180136E+02 -0.47419872981E+01  0.58687545971E+02  0.51100000000E-03 0.  1.
         23    2    1    0    0    0 -0.11029967432E+02 -0.20099578030E+02 -0.29893357262E+00  0.10207092283E+03  0.99462207435E+02 0.  0.
         11    1    3    3    0    0  0.43106086581E+02  0.20596021065E+01  0.44430537255E+01  0.43383376860E+02  0.51100000000E-03 0. -1.
         22    1    1    0    0    0  0.11029967432E+02  0.20099578030E+02  0.29893357262E+00  0.22929077169E+02  0.00000000000E+00 0.  1.
</event>
<event>
 5    1  0.1282529E-003  0.9118800E+02  0.7818608E-02  0.1130116E+00
         25   -1    0    0    0    0  0.00000000000E+00  0.00000000000E+00  0.99999998245E-14  0.12500000000E+03  0.12500000000E+03 0.  0.
        -11    1    3    3    0    0 -0.32746142990E+02 -0.55853824645E+01 -0.14020898571E+02  0.36056788195E+02  0.51100000000E-03 0. -1.
         23    2    1    0    0    0  0.17464272457E+02 -0.19948898635E+02  0.13671741252E+02  0.95169212581E+02  0.90373132872E+02 0.  0.
         11    1    3    3    0    0  0.50210415446E+02 -0.14363516170E+02  0.27692639823E+02  0.59112424385E+02  0.51100000000E-03 0.  1.
         22    1    1    0    0    0 -0.17464272457E+02  0.19948898635E+02 -0.13671741252E+02  0.29830787419E+02  0.00000000000E+00 0.  1.
</event>
<event>
 5    1  0.1282529E-003  0.9118800E+02  0.7818608E-02  0.1130116E+00
         25   -1    0    0    0    0  0.00000000000E+00  0.00000000000E+00  0.99999998245E-14  0.12500000000E+03  0.12500000000E+03 0.  0.
        -11    1    3    3    0    0  0.14305585747E+02  0.56613498331E+02  0.21284864718E+02  0.62151294783E+02  0.51100000000E-03 0. -1.
         23    2    1    0    0    0  0.53097294960E+01  0.27172336168E+02  0.54029862476E+01  0.96791466884E+02  0.92589776547E+02 0.  0.
         11    1    3    3    0    0 -0.89958562507E+01 -0.29441162163E+02 -0.15881878470E+02  0.34640172101E+02  0.51100000000E-03 0.  1.
         22    1    1    0    0    0 -0.53097294960E+01 -0.27172336168E+02 -0.54029862476E+01  0.28208533116E+02  0.00000000000E+00 0. -1.
</event>
<event>
 5    1  0.1282529E-003  0.9118800E+02  0.7818608E-02  0.1130116E+00
         25   -1    0    0    0    0  0.00000000000E+00  0.00000000000E+00  0.99999998245E-14  0.12500000000E+03  0.12500000000E+03 0.  0.
        -11    1    3    3    0    0 -0.82441974958E+01 -0.32759284736E+02 -0.21368579933E+02  0.39971911855E+02  0.51100000000E-03 0.  1.
         23    2    1    0    0    0  0.35422605503E+01 -0.50226391052E+01  0.27190886604E+02  0.97123148892E+02  0.93036483290E+02 0.  0.
         11    1    3    3    0    0  0.11786458046E+02  0.27736645631E+02  0.48559466537E+02  0.57151237036E+02  0.51100000000E-03 0. -1.
         22    1    1    0    0    0 -0.35422605503E+01  0.50226391052E+01 -0.27190886604E+02  0.27876851108E+02  0.00000000000E+00 0. -1.
</event>
<event>
 5    1  0.1282529E-003  0.9118800E+02  0.7818608E-02  0.1130116E+00
         25   -1    0    0    0    0  0.00000000000E+00  0.00000000000E+00  0.99999998245E-14  0.12500000000E+03  0.12500000000E+03 0.  0.
        -11    1    3    3    0    0 -0.78889796895E+01  0.58170696756E+02  0.12893101990E+00  0.58703343901E+02  0.51100000000E-03 0. -1.
         23    2    1    0    0    0 -0.71719598753E+01  0.21813453884E+02  0.14542567859E+02  0.97820043070E+02  0.93968136980E+02 0.  0.
         11    1    3    3    0    0  0.71701981422E+00 -0.36357242872E+02  0.14413636839E+02  0.39116699169E+02  0.51100000000E-03 0.  1.
         22    1    1    0    0    0  0.71719598753E+01 -0.21813453884E+02 -0.14542567859E+02  0.27179956930E+02  0.00000000000E+00 0. -1.
</event>
<event>
 5    1  0.1282529E-003  0.9118800E+02  0.7818608E-02  0.1130116E+00
         25   -1    0    0    0    0  0.00000000000E+00  0.00000000000E+00  0.99999998245E-14  0.12500000000E+03  0.12500000000E+03 0.  0.
        -11    1    3    3    0    0 -0.12996666789E+02  0.31377165682E+02 -0.12066200736E+01  0.33983757975E+02  0.51100000000E-03 0.  1.
         23    2    1    0    0    0 -0.13301167210E+02 -0.22124776387E+02 -0.21698755467E+02  0.91276673235E+02  0.84818443210E+02 0.  0.
         11    1    3    3    0    0 -0.30450042146E+00 -0.53501942069E+02 -0.20492135393E+02  0.57292915259E+02  0.51100000000E-03 0. -1.
         22    1    1    0    0    0  0.13301167210E+02  0.22124776387E+02  0.21698755467E+02  0.33723326765E+02  0.00000000000E+00 0. -1.
</event>
<event>
 5    1  0.1282529E-003  0.9118800E+02  0.7818608E-02  0.1130116E+00
         25   -1    0    0    0    0  0.00000000000E+00  0.00000000000E+00  0.99999998245E-14  0.12500000000E+03  0.12500000000E+03 0.  0.
        -11    1    3    3    0    0 -0.19539399485E+02  0.61896330942E+01  0.28122652448E+02  0.34799184919E+02  0.51100000000E-03 0.  1.
         23    2    1    0    0    0  0.24755705126E+02  0.11372730417E+02 -0.12409809134E+02  0.95063612507E+02  0.90226953438E+02 0.  0.
         11    1    3    3    0    0  0.44295104611E+02  0.51830973225E+01 -0.40532461582E+02  0.60264427588E+02  0.51100000000E-03 0. -1.
         22    1    1    0    0    0 -0.24755705126E+02 -0.11372730417E+02  0.12409809134E+02  0.29936387493E+02  0.00000000000E+00 0. -1.
</event>
<event>
 5    1  0.1282529E-003  0.9118800E+02  0.7818608E-02  0.1130116E+00
         25   -1    0    0    0    0  0.00000000000E+00  0.00000000000E+00  0.99999998245E-14  0.12500000000E+03  0.12500000000E+03 0.  0.
        -11    1    3    3    0    0  0.37955108976E+02  0.30135227433E+02 -0.41509332225E+01  0.48641057520E+02  0.51100000000E-03 0. -1.
         23    2    1    0    0    0  0.16054760657E+02  0.20950238151E+01  0.25390994806E+02  0.94886098198E+02  0.89980689870E+02 0.  0.
         11    1    3    3    0    0 -0.21900348319E+02 -0.28040203617E+02  0.29541928028E+02  0.46245040678E+02  0.51100000000E-03 0.  1.
         22    1    1    0    0    0 -0.16054760657E+02 -0.20950238151E+01 -0.25390994806E+02  0.30113901802E+02  0.00000000000E+00 0.  1.
</event>
<event>
 5    1  0.1282529E-003  0.9118800E+02  0.7818608E-02  0.1130116E+00
         25   -1    0    0    0    0  0.00000000000E+00  0.00000000000E+00  0.99999998245E-14  0.12500000000E+03  0.12500000000E+03 0.  0.
        -11    1    3    3    0    0 -0.53319237165E+01  0.14656631974E+02  0.35791055633E+02  0.39041592372E+02  0.51100000000E-03 0. -1.
         23    2    1    0    0    0  0.31655972690E+01  0.25834067701E+02 -0.17161538238E+02  0.93824072512E+02  0.88493039997E+02 0.  0.
         11    1    3    3    0    0  0.84975209855E+01  0.11177435727E+02 -0.52952593871E+02  0.54782480140E+02  0.51100000000E-03 0.  1.
         22    1    1    0    0    0 -0.31655972690E+01 -0.25834067701E+02  0.17161538238E+02  0.31175927488E+02  0.00000000000E+00 0.  1.
</event>
<event>
 5    1  0.1282529E-003  0.9118800E+02  0.7818608E-02  0.1130116E+00
         25   -1    0    0    0    0  0.00000000000E+00  0.00000000000E+00  0.99999998245E-14  0.12500000000E+03  0.12500000000E+03 0.  0.
        -11    1    3    3    0    0  0.70116031980E+01 -0.24539935566E+02  0.44222427108E+02  0.51058731639E+02  0.51100000000E-03 0.  1.
         23    2    1    0    0    0 -0.63606468795E+01 -0.29513446027E+02  0.30237275056E+01  0.94657879884E+02  0.89663091465E+02 0.  0.
         11    1    3    3    0    0 -0.13372250078E+02 -0.49735104602E+01 -0.41198699603E+02  0.43599148245E+02  0.51100000000E-03 0. -1.
         22    1    1    0    0    0  0.63606468795E+01  0.29513446027E+02 -0.30237275056E+01  0.30342120116E+02  0.00000000000E+00 0. -1.
</event>
<event>
 5    1  0.1282529E-003  0.9118800E+02  0.7818608E-02  0.1130116E+00
         25   -1    0    0    0    0  0.00000000000E+00  0.00000000000E+00  0.99999998245E-14  0.12500000000E+03  0.12500000000E+03 0.  0.
        -11    1    3    3    0    0  0.19653331340E+02 -0.17315155881E+02  0.11202504162E+02  0.28487965104E+02  0.51100000000E-03 0.  1.
         23    2    1    0    0    0  0.77931257848E+01  0.36339017978E+02 -0.85219181166E+01  0.86870219966E+02  0.78054820424E+02 0.  0.
         11    1    3    3    0    0 -0.11860205556E+02  0.53654173859E+02 -0.19724422279E+02  0.58382254862E+02  0.51100000000E-03 0. -1.
         22    1    1    0    0    0 -0.77931257848E+01 -0.36339017978E+02  0.85219181166E+01  0.38129780034E+02  0.00000000000E+00 0. -1.
</event>
<event>
 5    1  0.1282529E-003  0.9118800E+02  0.7818608E-02  0.1130116E+00
         25   -1    0    0    0    0  0.00000000000E+00  0.00000000000E+00  0.99999998245E-14  0.12500000000E+03  0.12500000000E+03 0.  0.
        -11    1    3    3    0    0  0.21909369032E+02 -0.54942070885E+02 -0.17498744898E+02  0.61683528416E+02  0.51100000000E-03 0.  1.
         23    2    1    0    0    0  0.47390927919E+01 -0.25846175866E+02 -0.12726233942E+02  0.95803410512E+02  0.91246110208E+02 0.  0.
         11    1    3    3    0    0 -0.17170276241E+02  0.29095895020E+02  0.47725109564E+01  0.34119882096E+02  0.51100000000E-03 0. -1.
         22    1    1    0    0    0 -0.47390927919E+01  0.25846175866E+02  0.12726233942E+02  0.29196589488E+02  0.00000000000E+00 0.  1.
</event>
<event>
 5    1  0.1282529E-003  0.9118800E+02  0.7818608E-02  0.1130116E+00
         25   -1    0    0    0    0  0.00000000000E+00  0.00000000000E+00  0.99999998245E-14  0.12500000000E+03  0.12500000000E+03 0.  0.
        -11    1    3    3    0    0 -0.16909671191E+01  0.29305969199E+02  0.44372298068E+02  0.53203383695E+02  0.51100000000E-03 0.  1.
         23    2    1    0    0    0 -0.13319545254E+02 -0.67198353547E+01  0.25388474919E+02  0.95552739827E+02  0.90902062446E+02 0.  0.
         11    1    3    3    0    0 -0.11628578135E+02 -0.36025804554E+02 -0.18983823149E+02  0.42349356132E+02  0.51100000000E-03 0. -1.
         22    1    1    0    0    0  0.13319545254E+02  0.67198353547E+01 -0.25388474919E+02  0.29447260173E+02  0.00000000000E+00 0.  1.
</event>
<event>
 5    1  0.1282529E-003  0.9118800E+02  0.7818608E-02  0.1130116E+00
         25   -1    0    0    0    0  0.00000000000E+00  0.00000000000E+00  0.99999998245E-14  0.12500000000E+03  0.12500000000E+03 0.  0.
        -11    1    3    3    0    0  0.22535370569E+02  0.20949514854E+02 -0.31196561492E+02  0.43817240311E+02  0.51100000000E-03 0. -1.
         23    2    1    0    0    0 -0.17345053188E+02  0.25337262387E+02 -0.57449897169E+00  0.94289125958E+02  0.89147526547E+02 0.  0.
         11    1    3    3    0    0 -0.39880423757E+02  0.43877475336E+01  0.30622062520E+02  0.50471885647E+02  0.51100000000E-03 0.  1.
         22    1    1    0    0    0  0.17345053188E+02 -0.25337262387E+02  0.57449897169E+00  0.30710874042E+02  0.00000000000E+00 0.  1.
</event>
<event>
 5    1  0.1282529E-003  0.9118800E+02  0.7818608E-02  0.1130116E+00
         25   -1    0    0    0    0  0.00000000000E+00  0.00000000000E+00  0.99999998245E-14  0.12500000000E+03  0.12500000000E+03 0.  0.
        -11    1    3    3    0    0 -0.27650683721E+02  0.43290421018E+02  0.23694536257E+02  0.56569001325E+02  0.51100000000E-03 0. -1.
         23    2    1    0    0    0 -0.19838450298E+02  0.46668018150E+01  0.20482998304E+02  0.96105426653E+02  0.91658914805E+02 0.  0.
         11    1    3    3    0    0  0.78122334236E+01 -0.38623619203E+02 -0.32115379530E+01  0.39536425328E+02  0.51100000000E-03 0.  1.
         22    1    1    0    0    0  0.19838450298E+02 -0.46668018150E+01 -0.20482998304E+02  0.28894573347E+02  0.00000000000E+00 0. -1.
</event>
<event>
 5    1  0.1282529E-003  0.9118800E+02  0.7818608E-02  0.1130116E+00
         25   -1    0    0    0    0  0.00000000000E+00  0.00000000000E+00  0.99999998245E-14  0.12500000000E+03  0.12500000000E+03 0.  0.
        -11    1    3    3    0    0  0.50660654371E+02  0.15792467611E+02 -0.23988369732E+01  0.53119284197E+02  0.51100000000E-03 0. -1.
         23    2    1    0    0    0  0.75336378184E+01  0.20397555439E+02 -0.15349610126E+02  0.98383717433E+02  0.94714990145E+02 0.  0.
         11    1    3    3    0    0 -0.43127016552E+02  0.46050878284E+01 -0.12950773153E+02  0.45264433236E+02  0.51100000000E-03 0.  1.
         22    1    1    0    0    0 -0.75336378184E+01 -0.20397555439E+02  0.15349610126E+02  0.26616282567E+02  0.00000000000E+00 0. -1.
</event>
<event>
 5    1  0.1282529E-003  0.9118800E+02  0.7818608E-02  0.1130116E+00
         25   -1    0    0    0    0  0.00000000000E+00  0.00000000000E+00  0.99999998245E-14  0.12500000000E+03  0.12500000000E+03 0.  0.
        -11    1    3    3    0    0  0.11811031805E+02 -0.38592113123E+01 -0.55933195143E+02  0.57296739030E+02  0.51100000000E-03 0.  1.
         23    2    1    0    0    0  0.47179905549E+01  0.16177382051E+02 -0.23185874670E+02  0.96337273174E+02  0.91974552424E+02 0.  0.
         11    1    3    3    0    0 -0.70930412502E+01  0.20036593363E+02  0.32747320474E+02  0.39040534144E+02  0.51100000000E-03 0. -1.
         22    1    1    0    0    0 -0.47179905549E+01 -0.16177382051E+02  0.23185874670E+02  0.28662726826E+02  0.00000000000E+00 0.  1.
</event>
<event>
 5    1  0.1282529E-003  0.9118800E+02  0.7818608E-02  0.1130116E+00
         25   -1    0    0    0    0  0.00000000000E+00  0.00000000000E+00  0.99999998245E-14  0.12500000000E+03  0.12500000000E+03 0.  0.
        -11    1    3    3    0    0 -0.46414890942E+01  0.50851450316E+02  0.12379492601E+02  0.52542033245E+02  0.51100000000E-03 0. -1.
         23    2    1    0    0    0 -0.67855461817E+01  0.20244737815E+02  0.30193074203E+02  0.88020076041E+02  0.79875021191E+02 0.  0.
         11    1    3    3    0    0 -0.21440570875E+01 -0.30606712500E+02  0.17813581601E+02  0.35478042796E+02  0.51100000000E-03 0.  1.
         22    1    1    0    0    0  0.67855461817E+01 -0.20244737815E+02 -0.30193074203E+02  0.36979923959E+02  0.00000000000E+00 0.  1.
</event>
<event>
 5    1  0.1282529E-003  0.9118800E+02  0.7818608E-02  0.1130116E+00
         25   -1    0    0    0    0  0.00000000000E+00  0.00000000000E+00  0.99999998245E-14  0.12500000000E+03  0.12500000000E+03 0.  0.
        -11    1    3    3    0    0  0.19396815000E+02  0.41383905542E+02  0.19383737787E+02  0.49644671022E+02  0.51100000000E-03 0. -1.
         23    2    1    0    0    0 -0.18110717737E+02  0.27286719936E+02  0.86025353020E+01  0.91139007761E+02  0.84615317408E+02 0.  0.
         11    1    3    3    0    0 -0.37507532737E+02 -0.14097185606E+02 -0.10781202485E+02  0.41494336738E+02  0.51100000000E-03 0.  1.
         22    1    1    0    0    0  0.18110717737E+02 -0.27286719936E+02 -0.86025353020E+01  0.33860992239E+02  0.00000000000E+00 0. -1.
</event>
<event>
 5    1  0.1282529E-003  0.9118800E+02  0.7818608E-02  0.1130116E+00
         25   -1    0    0    0    0  0.00000000000E+00  0.00000000000E+00  0.99999998245E-14  0.12500000000E+03  0.12500000000E+03 0.  0.
        -11    1    3    3    0    0 -0.27558948579E+01  0.40333084663E+02  0.35341157840E+02  0.53696835220E+02  0.51100000000E-03 0.  1.
         23    2    1    0    0    0 -0.21537822591E+02  0.64628682383E+01  0.18293823114E+02  0.96011891543E+02  0.91531267257E+02 0.  0.
         11    1    3    3    0    0 -0.18781927733E+02 -0.33870216425E+02 -0.17047334726E+02  0.42315056322E+02  0.51100000000E-03 0. -1.
         22    1    1    0    0    0  0.21537822591E+02 -0.64628682383E+01 -0.18293823114E+02  0.28988108457E+02  0.00000000000E+00 0.  1.
</event>
<event>
 5    1  0.1282529E-003  0.9118800E+02  0.7818608E-02  0.1130116E+00
         25   -1    0    0    0    0  0.00000000000E+00  0.00000000000E+00  0.99999998245E-14  0.12500000000E+03  0.12500000000E+03 0.  0.
        -11    1    3    3    0    0  0.36230590958E+02 -0.21436631656E+02 -0.39077331574E+02  0.57438860896E+02  0.51100000000E-03 0.  1.
         23    2    1    0    0    0  0.32753670169E+01 -0.21262942483E+02 -0.20565835495E+02  0.95237702681E+02  0.90467815660E+02 0.  0.
         11    1    3    3    0    0 -0.32955223941E+02  0.17368917328E+00  0.18511496079E+02  0.37798841785E+02  0.51100000000E-03 0. -1.
         22    1    1    0    0    0 -0.32753670169E+01  0.21262942483E+02  0.20565835495E+02  0.29762297319E+02  0.00000000000E+00 0.  1.
</event>
<event>
 5    1  0.1282529E-003  0.9118800E+02  0.7818608E-02  0.1130116E+00
         25   -1    0    0    0    0  0.00000000000E+00  0.00000000000E+00  0.99999998245E-14  0.12500000000E+03  0.12500000000E+03 0.  0.
        -11    1    3    3    0    0  0.26479661670E+02  0.46074718171E+02  0.40519478738E+01  0.53296063819E+02  0.51100000000E-03 0. -1.
         23    2    1    0    0    0  0.27124947050E+02  0.43639131885E+01  0.10657417753E+02  0.95531592443E+02  0.90872977890E+02 0.  0.
         11    1    3    3    0    0  0.64528537979E+00 -0.41710804983E+02  0.66054698795E+01  0.42235528624E+02  0.51100000000E-03 0.  1.
         22    1    1    0    0    0 -0.27124947050E+02 -0.43639131885E+01 -0.10657417753E+02  0.29468407557E+02  0.00000000000E+00 0. -1.
</event>
<event>
 5    1  0.1282529E-003  0.9118800E+02  0.7818608E-02  0.1130116E+00
         25   -1    0    0    0    0  0.00000000000E+00  0.00000000000E+00  0.99999998245E-14  0.12500000000E+03  0.12500000000E+03 0.  0.
        -11    1    3    3    0    0 -0.22098598988E+02  0.27151115536E+02  0.30568673300E+01  0.35140796664E+02  0.51100000000E-03 0. -1.
         23    2    1    0    0    0  0.19061963430E+02 -0.11237875699E+02 -0.19236780877E+02  0.95679324043E+02  0.91075962860E+02 0.  0.
         11    1    3    3    0    0  0.41160562418E+02 -0.38388991234E+02 -0.22293648207E+02  0.60538527379E+02  0.51100000000E-03 0.  1.
         22    1    1    0    0    0 -0.19061963430E+02  0.11237875699E+02  0.19236780877E+02  0.29320675957E+02  0.00000000000E+00 0.  1.
</event>
<event>
 5    1  0.1282529E-003  0.9118800E+02  0.7818608E-02  0.1130116E+00
         25   -1    0    0    0    0  0.00000000000E+00  0.00000000000E+00  0.99999998245E-14  0.12500000000E+03  0.12500000000E+03 0.  0.
        -11    1    3    3    0    0  0.21274436075E+02 -0.35320659309E+02  0.12123113864E+01  0.41250700643E+02  0.51100000000E-03 0.  1.
         23    2    1    0    0    0 -0.84528573855E+01  0.11630887965E+01  0.28224931893E+02  0.95513556439E+02  0.90848165143E+02 0.  0.
         11    1    3    3    0    0 -0.29727293460E+02  0.36483748106E+02  0.27012620506E+02  0.54262855797E+02  0.51100000000E-03 0. -1.
         22    1    1    0    0    0  0.84528573855E+01 -0.11630887965E+01 -0.28224931893E+02  0.29486443561E+02  0.00000000000E+00 0. -1.
</event>
<event>
 5    1  0.1282529E-003  0.9118800E+02  0.7818608E-02  0.1130116E+00
         25   -1    0    0    0    0  0.00000000000E+00  0.00000000000E+00  0.99999998245E-14  0.12500000000E+03  0.12500000000E+03 0.  0.
        -11    1    3    3    0    0  0.63063537619E+01  0.92447477991E+01  0.55254016529E+02  0.56375897355E+02  0.51100000000E-03 0.  1.
         23    2    1    0    0    0  0.18953933215E+02  0.11830513853E+02  0.16496195343E+02  0.97227043673E+02  0.93175967493E+02 0.  0.
         11    1    3    3    0    0  0.12647579453E+02  0.25857660542E+01 -0.38757821187E+02  0.40851146318E+02  0.51100000000E-03 0. -1.
         22    1    1    0    0    0 -0.18953933215E+02 -0.11830513853E+02 -0.16496195343E+02  0.27772956327E+02  0.00000000000E+00 0.  1.
</event>
<event>
 5    1  0.1282529E-003  0.9118800E+02  0.7818608E-02  0.1130116E+00
         25   -1    0    0    0    0  0.00000000000E+00  0.00000000000E+00  0.99999998245E-14  0.12500000000E+03  0.12500000000E+03 0.  0.
        -11    1    3    3    0    0  0.15732874408E+02 -0.31713279442E+02 -0.51052589559E+02  0.62125858795E+02  0.51100000000E-03 0.  1.
         23    2    1    0    0    0  0.43300444911E+01 -0.18564401776E+02 -0.23151025272E+02  0.95010730757E+02  0.90153661541E+02 0.  0.
         11    1    3    3    0    0 -0.11402829917E+02  0.13148877667E+02  0.27901564287E+02  0.32884871962E+02  0.51100000000E-03 0. -1.
         22    1    1    0    0    0 -0.43300444911E+01  0.18564401776E+02  0.23151025272E+02  0.29989269243E+02  0.00000000000E+00 0.  1.
</event>
<event>
 5    1  0.1282529E-003  0.9118800E+02  0.7818608E-02  0.1130116E+00
         25   -1    0    0    0    0  0.00000000000E+00  0.00000000000E+00  0.99999998245E-14  0.12500000000E+03  0.12500000000E+03 0.  0.
        -11    1    3    3    0    0 -0.25032964156E+02 -0.15779999563E+02  0.18186684866E+02  0.34733459190E+02  0.51100000000E-03 0.  1.
         23    2    1    0    0    0  0.20310218156E+02  0.16990681896E+02 -0.91277642042E+01  0.96990995872E+02  0.92858758166E+02 0.  0.
         11    1    3    3    0    0  0.45343182312E+02  0.32770681459E+02 -0.27314449071E+02  0.62257536682E+02  0.51100000000E-03 0. -1.
         22    1    1    0    0    0 -0.20310218156E+02 -0.16990681896E+02  0.91277642042E+01  0.28009004128E+02  0.00000000000E+00 0. -1.
</event>
<event>
 5    1  0.1282529E-003  0.9118800E+02  0.7818608E-02  0.1130116E+00
         25   -1    0    0    0    0  0.00000000000E+00  0.00000000000E+00  0.99999998245E-14  0.12500000000E+03  0.12500000000E+03 0.  0.
        -11    1    3    3    0    0  0.91369481374E+01 -0.37135993665E+02  0.13708001693E+02  0.40626040386E+02  0.51100000000E-03 0.  1.
         23    2    1    0    0    0 -0.30920655503E+02 -0.50993665895E+01  0.22711158505E+00  0.93660854255E+02  0.88262186489E+02 0.  0.
         11    1    3    3    0    0 -0.40057603640E+02  0.32036627076E+02 -0.13480890108E+02  0.53034813869E+02  0.51100000000E-03 0. -1.
         22    1    1    0    0    0  0.30920655503E+02  0.50993665895E+01 -0.22711158505E+00  0.31339145745E+02  0.00000000000E+00 0. -1.
</event>
<event>
 5    1  0.1282529E-003  0.9118800E+02  0.7818608E-02  0.1130116E+00
         25   -1    0    0    0    0  0.00000000000E+00  0.00000000000E+00  0.99999998245E-14  0.12500000000E+03  0.12500000000E+03 0.  0.
        -11    1    3    3    0    0 -0.47811786113E+02  0.10762933252E+02 -0.35092827698E+02  0.60276978852E+02  0.51100000000E-03 0. -1.
         23    2    1    0    0    0 -0.15560345659E+02  0.14079691040E+02 -0.19893167502E+02  0.96084603235E+02  0.91630512433E+02 0.  0.
         11    1    3    3    0    0  0.32251440454E+02  0.33167577883E+01  0.15199660196E+02  0.35807624382E+02  0.51100000000E-03 0.  1.
         22    1    1    0    0    0  0.15560345659E+02 -0.14079691040E+02  0.19893167502E+02  0.28915396765E+02  0.00000000000E+00 0. -1.
</event>
<event>
 5    1  0.1282529E-003  0.9118800E+02  0.7818608E-02  0.1130116E+00
         25   -1    0    0    0    0  0.00000000000E+00  0.00000000000E+00  0.99999998245E-14  0.12500000000E+03  0.12500000000E+03 0.  0.
        -11    1    3    3    0    0  0.45239773872E+02 -0.60511188872E+01  0.60057210031E+01  0.46036093066E+02  0.51100000000E-03 0. -1.
         23    2    1    0    0    0  0.33662090994E+00  0.22312769078E-02  0.28414166825E+02  0.96583839194E+02  0.92309045052E+02 0.  0.
         11    1    3    3    0    0 -0.44903152962E+02  0.60533501641E+01  0.22408445822E+02  0.50547746127E+02  0.51100000000E-03 0.  1.
         22    1    1    0    0    0 -0.33662090994E+00 -0.22312769078E-02 -0.28414166825E+02  0.28416160806E+02  0.00000000000E+00 0.  1.
</event>
<event>
 5    1  0.1282529E-003  0.9118800E+02  0.7818608E-02  0.1130116E+00
         25   -1    0    0    0    0  0.00000000000E+00  0.00000000000E+00  0.99999998245E-14  0.12500000000E+03  0.12500000000E+03 0.  0.
        -11    1    3    3    0    0  0.22833541332E+02  0.47162013361E+02 -0.19163656424E+02  0.55793116437E+02  0.51100000000E-03 0.  1.
         23    2    1    0    0    0  0.27113718903E+02  0.10295301586E+02 -0.47349164732E+01  0.95613499332E+02  0.90985574862E+02 0.  0.
         11    1    3    3    0    0  0.42801775712E+01 -0.36866711774E+02  0.14428739951E+02  0.39820382895E+02  0.51100000000E-03 0. -1.
         22    1    1    0    0    0 -0.27113718903E+02 -0.10295301586E+02  0.47349164732E+01  0.29386500668E+02  0.00000000000E+00 0.  1.
</event>
<event>
 5    1  0.1282529E-003  0.9118800E+02  0.7818608E-02  0.1130116E+00
         25   -1    0    0    0    0  0.00000000000E+00  0.00000000000E+00  0.99999998245E-14  0.12500000000E+03  0.12500000000E+03 0.  0.
        -11    1    3    3    0    0 -0.46356882365E+01  0.29411694471E+02  0.45523630251E+02  0.54396123837E+02  0.51100000000E-03 0.  1.
         23    2    1    0    0    0  0.18907434435E+01 -0.75190796517E+01  0.28285475920E+02  0.95671181108E+02  0.91064786153E+02 0.  0.
         11    1    3    3    0    0  0.65264316800E+01 -0.36930774122E+02 -0.17238154331E+02  0.41275057271E+02  0.51100000000E-03 0. -1.
         22    1    1    0    0    0 -0.18907434435E+01  0.75190796517E+01 -0.28285475920E+02  0.29328818892E+02  0.00000000000E+00 0.  1.
</event>
<event>
 5    1  0.1282529E-003  0.9118800E+02  0.7818608E-02  0.1130116E+00
         25   -1    0    0    0    0  0.00000000000E+00  0.00000000000E+00  0.99999998245E-14  0.12500000000E+03  0.12500000000E+03 0.  0.
        -11    1    3    3    0    0 -0.10982586780E+02  0.15691382206E+02 -0.27309173131E+02  0.33356073290E+02  0.51100000000E-03 0. -1.
         23    2    1    0    0    0  0.29477214027E+01 -0.19690588231E+02  0.21806714310E+02  0.95471350939E+02  0.90790075090E+02 0.  0.
         11    1    3    3    0    0  0.13930308183E+02 -0.35381970437E+02  0.49115887441E+02  0.62115277650E+02  0.51100000000E-03 0.  1.
         22    1    1    0    0    0 -0.29477214027E+01  0.19690588231E+02 -0.21806714310E+02  0.29528649061E+02  0.00000000000E+00 0.  1.
</event>
<event>
 5    1  0.1282529E-003  0.9118800E+02  0.7818608E-02  0.1130116E+00
         25   -1    0    0    0    0  0.00000000000E+00  0.00000000000E+00  0.99999998245E-14  0.12500000000E+03  0.12500000000E+03 0.  0.
        -11    1    3    3    0    0 -0.31559370736E+02  0.61396408763E+01  0.11106185136E+02  0.34015238054E+02  0.51100000000E-03 0.  1.
         23    2    1    0    0    0  0.29123734899E+02 -0.13224500764E+01  0.29393891193E+01  0.95698450262E+02  0.91102209444E+02 0.  0.
         11    1    3    3    0    0  0.60683105635E+02 -0.74620909527E+01 -0.81667960170E+01  0.61683212208E+02  0.51100000000E-03 0. -1.
         22    1    1    0    0    0 -0.29123734899E+02  0.13224500764E+01 -0.29393891193E+01  0.29301549738E+02  0.00000000000E+00 0. -1.
</event>
<event>
 5    1  0.1282529E-003  0.9118800E+02  0.7818608E-02  0.1130116E+00
         25   -1    0    0    0    0  0.00000000000E+00  0.00000000000E+00  0.99999998245E-14  0.12500000000E+03  0.12500000000E+03 0.  0.
        -11    1    3    3    0    0 -0.26482428199E+02 -0.67154000568E+01 -0.32647313051E+02  0.42570678301E+02  0.51100000000E-03 0.  1.
         23    2    1    0    0    0  0.22106298013E+02 -0.13563026910E+02 -0.16644252076E+02  0.94183198771E+02  0.88998874672E+02 0.  0.
         11    1    3    3    0    0  0.48588726213E+02 -0.68476268533E+01  0.16003060976E+02  0.51612520471E+02  0.51100000000E-03 0. -1.
         22    1    1    0    0    0 -0.22106298013E+02  0.13563026910E+02  0.16644252076E+02  0.30816801229E+02  0.00000000000E+00 0. -1.
</event>
<event>
 5    1  0.1282529E-003  0.9118800E+02  0.7818608E-02  0.1130116E+00
         25   -1    0    0    0    0  0.00000000000E+00  0.00000000000E+00  0.99999998245E-14  0.12500000000E+03  0.12500000000E+03 0.  0.
        -11    1    3    3    0    0 -0.36912891725E+02 -0.28714077960E+02 -0.40630897783E+02  0.61951026654E+02  0.51100000000E-03 0.  1.
         23    2    1    0    0    0 -0.12827173458E+02 -0.13099336248E+02 -0.22801064101E+02  0.95742223030E+02  0.91162249630E+02 0.  0.
         11    1    3    3    0    0  0.24085718267E+02  0.15614741712E+02  0.17829833682E+02  0.33791196376E+02  0.51100000000E-03 0. -1.
         22    1    1    0    0    0  0.12827173458E+02  0.13099336248E+02  0.22801064101E+02  0.29257776970E+02  0.00000000000E+00 0.  1.
</event>
<event>
 5    1  0.1282529E-003  0.9118800E+02  0.7818608E-02  0.1130116E+00
         25   -1    0    0    0    0  0.00000000000E+00  0.00000000000E+00  0.99999998245E-14  0.12500000000E+03  0.12500000000E+03 0.  0.
        -11    1    3    3    0    0  0.43184807097E+02  0.41319655106E+01 -0.42376311697E+02  0.60644476222E+02  0.51100000000E-03 0. -1.
         23    2    1    0    0    0  0.26682000363E+02  0.33982732188E+01 -0.11326768685E+02  0.95814848071E+02  0.91261777420E+02 0.  0.
         11    1    3    3    0    0 -0.16502806734E+02 -0.73369229180E+00  0.31049543012E+02  0.35170371849E+02  0.51100000000E-03 0.  1.
         22    1    1    0    0    0 -0.26682000363E+02 -0.33982732188E+01  0.11326768685E+02  0.29185151929E+02  0.00000000000E+00 0. -1.
</event>
<event>
 5    1  0.1282529E-003  0.9118800E+02  0.7818608E-02  0.1130116E+00
         25   -1    0    0    0    0  0.00000000000E+00  0.00000000000E+00  0.99999998245E-14  0.12500000000E+03  0.12500000000E+03 0.  0.
        -11    1    3    3    0    0  0.21225058454E+02  0.47611808915E+02  0.29283953935E+02  0.59790780333E+02  0.51100000000E-03 0.  1.
         23    2    1    0    0    0 -0.25305508529E+01  0.23842996029E+02  0.17157301461E+02  0.95516697256E+02  0.90852486560E+02 0.  0.
         11    1    3    3    0    0 -0.23755609307E+02 -0.23768812886E+02 -0.12126652473E+02  0.35725916924E+02  0.51100000000E-03 0. -1.
         22    1    1    0    0    0  0.25305508529E+01 -0.23842996029E+02 -0.17157301461E+02  0.29483302744E+02  0.00000000000E+00 0.  1.
</event>
<event>
 5    1  0.1282529E-003  0.9118800E+02  0.7818608E-02  0.1130116E+00
         25   -1    0    0    0    0  0.00000000000E+00  0.00000000000E+00  0.99999998245E-14  0.12500000000E+03  0.12500000000E+03 0.  0.
        -11    1    3    3    0    0 -0.42744232478E+02  0.29658375493E+02 -0.29792418497E+02  0.59952288090E+02  0.51100000000E-03 0.  1.
         23    2    1    0    0    0 -0.16931844086E+02  0.73569647152E+01 -0.24267124934E+02  0.94508925461E+02  0.89455191941E+02 0.  0.
         11    1    3    3    0    0  0.25812388392E+02 -0.22301410778E+02  0.55252935630E+01  0.34556637371E+02  0.51100000000E-03 0. -1.
         22    1    1    0    0    0  0.16931844086E+02 -0.73569647152E+01  0.24267124934E+02  0.30491074539E+02  0.00000000000E+00 0.  1.
</event>
<event>
 5    1  0.1282529E-003  0.9118800E+02  0.7818608E-02  0.1130116E+00
         25   -1    0    0    0    0  0.00000000000E+00  0.00000000000E+00  0.99999998245E-14  0.12500000000E+03  0.12500000000E+03 0.  0.
        -11    1    3    3    0    0  0.17735722093E+02 -0.49908001501E+02 -0.18556343452E+02  0.56122208925E+02  0.51100000000E-03 0.  1.
         23    2    1    0    0    0 -0.52789070091E+01 -0.36140012691E+02 -0.46273563682E+00  0.88473550668E+02  0.80581559100E+02 0.  0.
         11    1    3    3    0    0 -0.23014629102E+02  0.13767988810E+02  0.18093607815E+02  0.32351341743E+02  0.51100000000E-03 0. -1.
         22    1    1    0    0    0  0.52789070091E+01  0.36140012691E+02  0.46273563682E+00  0.36526449332E+02  0.00000000000E+00 0.  1.
</event>
<event>
 5    1  0.1282529E-003  0.9118800E+02  0.7818608E-02  0.1130116E+00
         25   -1    0    0    0    0  0.00000000000E+00  0.00000000000E+00  0.99999998245E-14  0.12500000000E+03  0.12500000000E+03 0.  0.
        -11    1    3    3    0    0 -0.10803276087E+02  0.34170290002E+02  0.23737841704E+02  0.42986098009E+02  0.51100000000E-03 0.  1.
         23    2    1    0    0    0 -0.26449218197E+02 -0.14259777619E+01 -0.12112704445E+02  0.95874201045E+02  0.91343036194E+02 0.  0.
         11    1    3    3    0    0 -0.15645942109E+02 -0.35596267764E+02 -0.35850546149E+02  0.52888103035E+02  0.51100000000E-03 0. -1.
         22    1    1    0    0    0  0.26449218197E+02  0.14259777619E+01  0.12112704445E+02  0.29125798955E+02  0.00000000000E+00 0. -1.
</event>
<event>
 5    1  0.1282529E-003  0.9118800E+02  0.7818608E-02  0.1130116E+00
         25   -1    0    0    0    0  0.00000000000E+00  0.00000000000E+00  0.99999998245E-14  0.12500000000E+03  0.12500000000E+03 0.  0.
        -11    1    3    3    0    0  0.44836357095E+02  0.11043063565E+02  0.93696968676E+01  0.47117293960E+02  0.51100000000E-03 0.  1.
         23    2    1    0    0    0 -0.20777976448E+01  0.19805310547E+02  0.20812170703E+02  0.96195243131E+02  0.91781320446E+02 0.  0.
         11    1    3    3    0    0 -0.46914154740E+02  0.87622469814E+01  0.11442473835E+02  0.49077949171E+02  0.51100000000E-03 0. -1.
         22    1    1    0    0    0  0.20777976448E+01 -0.19805310547E+02 -0.20812170703E+02  0.28804756869E+02  0.00000000000E+00 0.  1.
</event>
<event>
 5    1  0.1282529E-003  0.9118800E+02  0.7818608E-02  0.1130116E+00
         25   -1    0    0    0    0  0.00000000000E+00  0.00000000000E+00  0.99999998245E-14  0.12500000000E+03  0.12500000000E+03 0.  0.
        -11    1    3    3    0    0  0.25149052690E+01 -0.18167926528E+02  0.40501341036E+02  0.44460734686E+02  0.51100000000E-03 0.  1.
         23    2    1    0    0    0 -0.24789285025E+02 -0.14305754726E+02 -0.32683742915E+01  0.96192960221E+02  0.91778211223E+02 0.  0.
         11    1    3    3    0    0 -0.27304190294E+02  0.38621718025E+01 -0.43769715328E+02  0.51732225535E+02  0.51100000000E-03 0. -1.
         22    1    1    0    0    0  0.24789285025E+02  0.14305754726E+02  0.32683742915E+01  0.28807039779E+02  0.00000000000E+00 0. -1.
</event>
<event>
 5    1  0.1282529E-003  0.9118800E+02  0.7818608E-02  0.1130116E+00
         25   -1    0    0    0    0  0.00000000000E+00  0.00000000000E+00  0.99999998245E-14  0.12500000000E+03  0.12500000000E+03 0.  0.
        -11    1    3    3    0    0  0.24964117678E+01 -0.46264795817E+01 -0.34926252662E+02  0.35319675966E+02  0.51100000000E-03 0.  1.
         23    2    1    0    0    0  0.14936739655E+02 -0.77373145526E+01  0.24037126230E+02  0.95661362243E+02  0.91051307299E+02 0.  0.
         11    1    3    3    0    0  0.12440327887E+02 -0.31108349709E+01  0.58963378892E+02  0.60341686278E+02  0.51100000000E-03 0. -1.
         22    1    1    0    0    0 -0.14936739655E+02  0.77373145526E+01 -0.24037126230E+02  0.29338637757E+02  0.00000000000E+00 0. -1.
</event>
<event>
 5    1  0.1282529E-003  0.9118800E+02  0.7818608E-02  0.1130116E+00
         25   -1    0    0    0    0  0.00000000000E+00  0.00000000000E+00  0.99999998245E-14  0.12500000000E+03  0.12500000000E+03 0.  0.
        -11    1    3    3    0    0  0.18883106609E+02  0.20751932624E+02  0.42129485283E+02  0.50617269319E+02  0.51100000000E-03 0. -1.
         23    2    1    0    0    0 -0.13464441945E+02  0.37601647908E+00  0.32170786293E+02  0.90123187129E+02  0.83101123833E+02 0.  0.
         11    1    3    3    0    0 -0.32347548554E+02 -0.20375916145E+02 -0.99586989893E+01  0.39505917811E+02  0.51100000000E-03 0.  1.
         22    1    1    0    0    0  0.13464441945E+02 -0.37601647908E+00 -0.32170786293E+02  0.34876812871E+02  0.00000000000E+00 0. -1.
</event>
<event>
 5    1  0.1282529E-003  0.9118800E+02  0.7818608E-02  0.1130116E+00
         25   -1    0    0    0    0  0.00000000000E+00  0.00000000000E+00  0.99999998245E-14  0.12500000000E+03  0.12500000000E+03 0.  0.
        -11    1    3    3    0    0 -0.30820179029E+02 -0.37486033952E+00  0.19931283933E+02  0.36705313446E+02  0.51100000000E-03 0.  1.
         23    2    1    0    0    0  0.25217066657E+02 -0.11982158156E+02  0.71652572086E+00  0.97071771020E+02  0.92967428463E+02 0.  0.
         11    1    3    3    0    0  0.56037245686E+02 -0.11607297817E+02 -0.19214758212E+02  0.60366457574E+02  0.51100000000E-03 0. -1.
         22    1    1    0    0    0 -0.25217066657E+02  0.11982158156E+02 -0.71652572086E+00  0.27928228980E+02  0.00000000000E+00 0. -1.
</event>
<event>
 5    1  0.1282529E-003  0.9118800E+02  0.7818608E-02  0.1130116E+00
         25   -1    0    0    0    0  0.00000000000E+00  0.00000000000E+00  0.99999998245E-14  0.12500000000E+03  0.12500000000E+03 0.  0.
        -11    1    3    3    0    0 -0.36679962045E+01 -0.38576392501E+02 -0.13669267464E+02  0.41090645259E+02  0.51100000000E-03 0. -1.
         23    2    1    0    0    0  0.18416307600E+02  0.10508881292E+02 -0.20694010858E+02  0.95371651126E+02  0.90652704215E+02 0.  0.
         11    1    3    3    0    0  0.22084303805E+02  0.49085273793E+02 -0.70247433942E+01  0.54281005867E+02  0.51100000000E-03 0.  1.
         22    1    1    0    0    0 -0.18416307600E+02 -0.10508881292E+02  0.20694010858E+02  0.29628348874E+02  0.00000000000E+00 0.  1.
</event>
<event>
 5    1  0.1282529E-003  0.9118800E+02  0.7818608E-02  0.1130116E+00
         25   -1    0    0    0    0  0.00000000000E+00  0.00000000000E+00  0.99999998245E-14  0.12500000000E+03  0.12500000000E+03 0.  0.
        -11    1    3    3    0    0 -0.37640536233E+02 -0.73262659286E+01  0.28694994271E+02  0.47894538695E+02  0.51100000000E-03 0. -1.
         23    2    1    0    0    0 -0.13995309381E+02  0.25811057102E+02  0.43742515087E+01  0.95314760744E+02  0.90574224734E+02 0.  0.
         11    1    3    3    0    0  0.23645226851E+02  0.33137323031E+02 -0.24320742762E+02  0.47420222050E+02  0.51100000000E-03 0.  1.
         22    1    1    0    0    0  0.13995309381E+02 -0.25811057102E+02 -0.43742515087E+01  0.29685239256E+02  0.00000000000E+00 0.  1.
</event>
<event>
 5    1  0.1282529E-003  0.9118800E+02  0.7818608E-02  0.1130116E+00
         25   -1    0    0    0    0  0.00000000000E+00  0.00000000000E+00  0.99999998245E-14  0.12500000000E+03  0.12500000000E+03 0.  0.
        -11    1    3    3    0    0  0.42202189353E+02 -0.15864430453E+02  0.37782968872E+02  0.58823954957E+02  0.51100000000E-03 0. -1.
         23    2    1    0    0    0  0.90052574440E+01 -0.11709557524E+02  0.27430333765E+02  0.93845038766E+02  0.88522650726E+02 0.  0.
         11    1    3    3    0    0 -0.33196931909E+02  0.41548729290E+01 -0.10352635108E+02  0.35021083809E+02  0.51100000000E-03 0.  1.
         22    1    1    0    0    0 -0.90052574440E+01  0.11709557524E+02 -0.27430333765E+02  0.31154961234E+02  0.00000000000E+00 0. -1.
</event>
<event>
 5    1  0.1282529E-003  0.9118800E+02  0.7818608E-02  0.1130116E+00
         25   -1    0    0    0    0  0.00000000000E+00  0.00000000000E+00  0.99999998245E-14  0.12500000000E+03  0.12500000000E+03 0.  0.
        -11    1    3    3    0    0  0.97219151753E+01 -0.51760795170E+02  0.15549668551E+02  0.54913456854E+02  0.51100000000E-03 0.  1.
         23    2    1    0    0    0  0.73513566397E+01 -0.22963007250E+02 -0.14712062515E+02  0.96754877769E+02  0.92540366556E+02 0.  0.
         11    1    3    3    0    0 -0.23705585356E+01  0.28797787921E+02 -0.30261731065E+02  0.41841420915E+02  0.51100000000E-03 0. -1.
         22    1    1    0    0    0 -0.73513566397E+01  0.22963007250E+02  0.14712062515E+02  0.28245122231E+02  0.00000000000E+00 0.  1.
</event>
<event>
 5    1  0.1282529E-003  0.9118800E+02  0.7818608E-02  0.1130116E+00
         25   -1    0    0    0    0  0.00000000000E+00  0.00000000000E+00  0.99999998245E-14  0.12500000000E+03  0.12500000000E+03 0.  0.
        -11    1    3    3    0    0 -0.37328457456E+02 -0.39081348866E+02  0.14287006315E+02  0.55900662920E+02  0.51100000000E-03 0.  1.
         23    2    1    0    0    0 -0.30232686924E+02 -0.25446487616E+01  0.77021033687E+01  0.93698035329E+02  0.88314827929E+02 0.  0.
         11    1    3    3    0    0  0.70957705313E+01  0.36536700104E+02 -0.65849029458E+01  0.37797372409E+02  0.51100000000E-03 0. -1.
         22    1    1    0    0    0  0.30232686924E+02  0.25446487616E+01 -0.77021033687E+01  0.31301964671E+02  0.00000000000E+00 0.  1.
</event>
<event>
 5    1  0.1282529E-003  0.9118800E+02  0.7818608E-02  0.1130116E+00
         25   -1    0    0    0    0  0.00000000000E+00  0.00000000000E+00  0.99999998245E-14  0.12500000000E+03  0.12500000000E+03 0.  0.
        -11    1    3    3    0    0  0.21736587190E+02  0.21445295210E+02 -0.51431413556E+02  0.59812793029E+02  0.51100000000E-03 0.  1.
         23    2    1    0    0    0  0.21471765667E+02  0.59388427669E+01 -0.19164809706E+02  0.95612987471E+02  0.90984871642E+02 0.  0.
         11    1    3    3    0    0 -0.26482152278E+00 -0.15506452443E+02  0.32266603850E+02  0.35800194442E+02  0.51100000000E-03 0. -1.
         22    1    1    0    0    0 -0.21471765667E+02 -0.59388427669E+01  0.19164809706E+02  0.29387012529E+02  0.00000000000E+00 0.  1.
</event>
<event>
 5    1  0.1282529E-003  0.9118800E+02  0.7818608E-02  0.1130116E+00
         25   -1    0    0    0    0  0.00000000000E+00  0.00000000000E+00  0.99999998245E-14  0.12500000000E+03  0.12500000000E+03 0.  0.
        -11    1    3    3    0    0  0.29866410261E+02  0.18516838062E+02  0.67440682725E+01  0.35782093438E+02  0.51100000000E-03 0. -1.
         23    2    1    0    0    0 -0.20062208722E+02  0.85064699077E+01 -0.21814749712E+02  0.94166000031E+02  0.88974715553E+02 0.  0.
         11    1    3    3    0    0 -0.49928618983E+02 -0.10010368154E+02 -0.28558817985E+02  0.58383906593E+02  0.51100000000E-03 0.  1.
         22    1    1    0    0    0  0.20062208722E+02 -0.85064699077E+01  0.21814749712E+02  0.30833999969E+02  0.00000000000E+00 0.  1.
</event>
<event>
 5    1  0.1282529E-003  0.9118800E+02  0.7818608E-02  0.1130116E+00
         25   -1    0    0    0    0  0.00000000000E+00  0.00000000000E+00  0.99999998245E-14  0.12500000000E+03  0.12500000000E+03 0.  0.
        -11    1    3    3    0    0  0.43566505675E+01 -0.92169060400E+01 -0.32828135523E+02  0.34374674446E+02  0.51100000000E-03 0.  1.
         23    2    1    0    0    0 -0.13225007860E+02  0.22117783670E+02  0.15751047339E+02  0.94797472297E+02  0.89857487580E+02 0.  0.
         11    1    3    3    0    0 -0.17581658428E+02  0.31334689710E+02  0.48579182862E+02  0.60422797850E+02  0.51100000000E-03 0. -1.
         22    1    1    0    0    0  0.13225007860E+02 -0.22117783670E+02 -0.15751047339E+02  0.30202527703E+02  0.00000000000E+00 0. -1.
</event>
<event>
 5    1  0.1282529E-003  0.9118800E+02  0.7818608E-02  0.1130116E+00
         25   -1    0    0    0    0  0.00000000000E+00  0.00000000000E+00  0.99999998245E-14  0.12500000000E+03  0.12500000000E+03 0.  0.
        -11    1    3    3    0    0  0.11521426293E+02  0.41538263518E+02 -0.29384244850E+02  0.52168998894E+02  0.51100000000E-03 0.  1.
         23    2    1    0    0    0  0.14456744563E+02  0.23052218018E+02  0.10188172075E+02  0.95944861571E+02  0.91439681718E+02 0.  0.
         11    1    3    3    0    0  0.29353182704E+01 -0.18486045499E+02  0.39572416925E+02  0.43775862677E+02  0.51100000000E-03 0. -1.
         22    1    1    0    0    0 -0.14456744563E+02 -0.23052218018E+02 -0.10188172075E+02  0.29055138429E+02  0.00000000000E+00 0.  1.
</event>
<event>
 5    1  0.1282529E-003  0.9118800E+02  0.7818608E-02  0.1130116E+00
         25   -1    0    0    0    0  0.00000000000E+00  0.00000000000E+00  0.99999998245E-14  0.12500000000E+03  0.12500000000E+03 0.  0.
        -11    1    3    3    0    0 -0.67997545062E+01 -0.17048385349E+02 -0.29542990390E+02  0.34780344820E+02  0.51100000000E-03 0.  1.
         23    2    1    0    0    0  0.16306076032E+02  0.22233601326E+02  0.10548823757E+02  0.95478841044E+02  0.90800386898E+02 0.  0.
         11    1    3    3    0    0  0.23105830538E+02  0.39281986675E+02  0.40091814147E+02  0.60698496224E+02  0.51100000000E-03 0. -1.
         22    1    1    0    0    0 -0.16306076032E+02 -0.22233601326E+02 -0.10548823757E+02  0.29521158956E+02  0.00000000000E+00 0. -1.
</event>
<event>
 5    1  0.1282529E-003  0.9118800E+02  0.7818608E-02  0.1130116E+00
         25   -1    0    0    0    0  0.00000000000E+00  0.00000000000E+00  0.99999998245E-14  0.12500000000E+03  0.12500000000E+03 0.  0.
        -11    1    3    3    0    0  0.27250750846E+02 -0.34249928523E+01 -0.21417284171E+02  0.34828638492E+02  0.51100000000E-03 0.  1.
         23    2    1    0    0    0 -0.24281732168E+02  0.16440118186E+02 -0.18896804541E+02  0.90114914004E+02  0.83088678537E+02 0.  0.
         11    1    3    3    0    0 -0.51532483014E+02  0.19865111038E+02  0.25204796295E+01  0.55286275512E+02  0.51100000000E-03 0. -1.
         22    1    1    0    0    0  0.24281732168E+02 -0.16440118186E+02  0.18896804541E+02  0.34885085996E+02  0.00000000000E+00 0. -1.
</event>
<event>
 5    1  0.1282529E-003  0.9118800E+02  0.7818608E-02  0.1130116E+00
         25   -1    0    0    0    0  0.00000000000E+00  0.00000000000E+00  0.99999998245E-14  0.12500000000E+03  0.12500000000E+03 0.  0.
        -11    1    3    3    0    0 -0.25193698038E+02 -0.23847546999E+01 -0.55701762875E+02  0.61180845560E+02  0.51100000000E-03 0.  1.
         23    2    1    0    0    0 -0.32154647018E+01  0.48110192054E+00 -0.28709330922E+02  0.96107157386E+02  0.91661275065E+02 0.  0.
         11    1    3    3    0    0  0.21978233337E+02  0.28658566204E+01  0.26992431953E+02  0.34926311826E+02  0.51100000000E-03 0. -1.
         22    1    1    0    0    0  0.32154647018E+01 -0.48110192054E+00  0.28709330922E+02  0.28892842614E+02  0.00000000000E+00 0.  1.
</event>
<event>
 5    1  0.1282529E-003  0.9118800E+02  0.7818608E-02  0.1130116E+00
         25   -1    0    0    0    0  0.00000000000E+00  0.00000000000E+00  0.99999998245E-14  0.12500000000E+03  0.12500000000E+03 0.  0.
        -11    1    3    3    0    0  0.66657875784E-01  0.46193839403E+02  0.19098159321E+02  0.49986147399E+02  0.51100000000E-03 0.  1.
         23    2    1    0    0    0  0.22750928404E+02  0.76936806569E+01  0.18513491491E+02  0.94675969390E+02  0.89688306637E+02 0.  0.
         11    1    3    3    0    0  0.22684270528E+02 -0.38500158746E+02 -0.58466782983E+00  0.44689821991E+02  0.51100000000E-03 0. -1.
         22    1    1    0    0    0 -0.22750928404E+02 -0.76936806569E+01 -0.18513491491E+02  0.30324030610E+02  0.00000000000E+00 0.  1.
</event>
<event>
 5    1  0.1282529E-003  0.9118800E+02  0.7818608E-02  0.1130116E+00
         25   -1    0    0    0    0  0.00000000000E+00  0.00000000000E+00  0.99999998245E-14  0.12500000000E+03  0.12500000000E+03 0.  0.
        -11    1    3    3    0    0  0.68103254767E+01 -0.46544049305E+02  0.24630646878E+02  0.53098002078E+02  0.51100000000E-03 0.  1.
         23    2    1    0    0    0 -0.16837605816E+02 -0.11240148036E+02  0.21134398199E+02  0.95733830372E+02  0.91150741044E+02 0.  0.
         11    1    3    3    0    0 -0.23647931292E+02  0.35303901269E+02 -0.34962486787E+01  0.42635828294E+02  0.51100000000E-03 0. -1.
         22    1    1    0    0    0  0.16837605816E+02  0.11240148036E+02 -0.21134398199E+02  0.29266169628E+02  0.00000000000E+00 0.  1.
</event>
<event>
 5    1  0.1282529E-003  0.9118800E+02  0.7818608E-02  0.1130116E+00
         25   -1    0    0    0    0  0.00000000000E+00  0.00000000000E+00  0.99999998245E-14  0.12500000000E+03  0.12500000000E+03 0.  0.
        -11    1    3    3    0    0 -0.18627153843E+02 -0.30914087073E+02  0.59375844993E+00  0.36097149322E+02  0.51100000000E-03 0.  1.
         23    2    1    0    0    0  0.12038595108E+02  0.18025493736E+02  0.18436264695E+02  0.96544033095E+02  0.92255126002E+02 0.  0.
         11    1    3    3    0    0  0.30665748951E+02  0.48939580809E+02  0.17842506245E+02  0.60446883773E+02  0.51100000000E-03 0. -1.
         22    1    1    0    0    0 -0.12038595108E+02 -0.18025493736E+02 -0.18436264695E+02  0.28455966905E+02  0.00000000000E+00 0. -1.
</event>
<event>
 5    1  0.1282529E-003  0.9118800E+02  0.7818608E-02  0.1130116E+00
         25   -1    0    0    0    0  0.00000000000E+00  0.00000000000E+00  0.99999998245E-14  0.12500000000E+03  0.12500000000E+03 0.  0.
        -11    1    3    3    0    0  0.37951222725E+02  0.29137529828E+02 -0.31440164110E+02  0.57251854733E+02  0.51100000000E-03 0.  1.
         23    2    1    0    0    0  0.16730791465E+02  0.24677246210E+02 -0.31691840379E+00  0.95184126697E+02  0.90393759045E+02 0.  0.
         11    1    3    3    0    0 -0.21220431261E+02 -0.44602836186E+01  0.31123245706E+02  0.37932271964E+02  0.51100000000E-03 0. -1.
         22    1    1    0    0    0 -0.16730791465E+02 -0.24677246210E+02  0.31691840379E+00  0.29815873303E+02  0.00000000000E+00 0.  1.
</event>
<event>
 5    1  0.1282529E-003  0.9118800E+02  0.7818608E-02  0.1130116E+00
         25   -1    0    0    0    0  0.00000000000E+00  0.00000000000E+00  0.99999998245E-14  0.12500000000E+03  0.12500000000E+03 0.  0.
        -11    1    3    3    0    0 -0.19017945816E+02 -0.14045017858E+02 -0.31035205789E+02  0.39014468961E+02  0.51100000000E-03 0.  1.
         23    2    1    0    0    0  0.79070211337E+01  0.28306081469E+02 -0.63947035020E+01  0.94922642001E+02  0.90031441731E+02 0.  0.
         11    1    3    3    0    0  0.26924966950E+02  0.42351099327E+02  0.24640502287E+02  0.55908173040E+02  0.51100000000E-03 0. -1.
         22    1    1    0    0    0 -0.79070211337E+01 -0.28306081469E+02  0.63947035020E+01  0.30077357999E+02  0.00000000000E+00 0. -1.
</event>
<event>
 5    1  0.1282529E-003  0.9118800E+02  0.7818608E-02  0.1130116E+00
         25   -1    0    0    0    0  0.00000000000E+00  0.00000000000E+00  0.99999998245E-14  0.12500000000E+03  0.12500000000E+03 0.  0.
        -11    1    3    3    0    0 -0.67720512888E+01  0.25923566244E+02 -0.32727437848E+02  0.42296301893E+02  0.51100000000E-03 0. -1.
         23    2    1    0    0    0 -0.25411632091E+01 -0.24700778661E+02 -0.14359747956E+02  0.96315712693E+02  0.91945245518E+02 0.  0.
         11    1    3    3    0    0  0.42308880796E+01 -0.50624344905E+02  0.18367689892E+02  0.54019410800E+02  0.51100000000E-03 0.  1.
         22    1    1    0    0    0  0.25411632091E+01  0.24700778661E+02  0.14359747956E+02  0.28684287307E+02  0.00000000000E+00 0.  1.
</event>
<event>
 5    1  0.1282529E-003  0.9118800E+02  0.7818608E-02  0.1130116E+00
         25   -1    0    0    0    0  0.00000000000E+00  0.00000000000E+00  0.99999998245E-14  0.12500000000E+03  0.12500000000E+03 0.  0.
        -11    1    3    3    0    0 -0.35293237048E+02  0.12556954919E+01 -0.34529934510E+02  0.49391352786E+02  0.51100000000E-03 0.  1.
         23    2    1    0    0    0 -0.13678810422E+02  0.25128409872E+02 -0.30114943272E+00  0.96388157553E+02  0.92043681957E+02 0.  0.
         11    1    3    3    0    0  0.21614426626E+02  0.23872714380E+02  0.34228785077E+02  0.46996804767E+02  0.51100000000E-03 0. -1.
         22    1    1    0    0    0  0.13678810422E+02 -0.25128409872E+02  0.30114943272E+00  0.28611842447E+02  0.00000000000E+00 0. -1.
</event>
<event>
 5    1  0.1282529E-003  0.9118800E+02  0.7818608E-02  0.1130116E+00
         25   -1    0    0    0    0  0.00000000000E+00  0.00000000000E+00  0.99999998245E-14  0.12500000000E+03  0.12500000000E+03 0.  0.
        -11    1    3    3    0    0 -0.22757183144E+02  0.44987531076E+01 -0.30441979848E+02  0.38273258308E+02  0.51100000000E-03 0.  1.
         23    2    1    0    0    0  0.69389717888E+01  0.23862491966E+02  0.15049582494E+02  0.95947327394E+02  0.91443052489E+02 0.  0.
         11    1    3    3    0    0  0.29696154932E+02  0.19363738858E+02  0.45491562342E+02  0.57674069086E+02  0.51100000000E-03 0. -1.
         22    1    1    0    0    0 -0.69389717888E+01 -0.23862491966E+02 -0.15049582494E+02  0.29052672606E+02  0.00000000000E+00 0. -1.
</event>
<event>
 5    1  0.1282529E-003  0.9118800E+02  0.7818608E-02  0.1130116E+00
         25   -1    0    0    0    0  0.00000000000E+00  0.00000000000E+00  0.99999998245E-14  0.12500000000E+03  0.12500000000E+03 0.  0.
        -11    1    3    3    0    0  0.42370121388E+02 -0.85326056515E+01  0.36538221614E+02  0.56595708182E+02  0.51100000000E-03 0.  1.
         23    2    1    0    0    0  0.23548648488E+02  0.10333863787E+02  0.34933225551E+01  0.99047526344E+02  0.95587036705E+02 0.  0.
         11    1    3    3    0    0 -0.18821472900E+02  0.18866469439E+02 -0.33044899059E+02  0.42451818162E+02  0.51100000000E-03 0. -1.
         22    1    1    0    0    0 -0.23548648488E+02 -0.10333863787E+02 -0.34933225551E+01  0.25952473656E+02  0.00000000000E+00 0.  1.
</event>
<event>
 5    1  0.1282529E-003  0.9118800E+02  0.7818608E-02  0.1130116E+00
         25   -1    0    0    0    0  0.00000000000E+00  0.00000000000E+00  0.99999998245E-14  0.12500000000E+03  0.12500000000E+03 0.  0.
        -11    1    3    3    0    0 -0.49624533553E+01 -0.21342968607E+02  0.40253370718E+02  0.45831016863E+02  0.51100000000E-03 0.  1.
         23    2    1    0    0    0 -0.19872304959E+02 -0.20944967433E+02 -0.69233782747E+01  0.95309372996E+02  0.90566788885E+02 0.  0.
         11    1    3    3    0    0 -0.14909851604E+02  0.39800117424E+00 -0.47176748993E+02  0.49478356133E+02  0.51100000000E-03 0. -1.
         22    1    1    0    0    0  0.19872304959E+02  0.20944967433E+02  0.69233782747E+01  0.29690627004E+02  0.00000000000E+00 0. -1.
</event>
<event>
 5    1  0.1282529E-003  0.9118800E+02  0.7818608E-02  0.1130116E+00
         25   -1    0    0    0    0  0.00000000000E+00  0.00000000000E+00  0.99999998245E-14  0.12500000000E+03  0.12500000000E+03 0.  0.
        -11    1    3    3    0    0  0.23984059315E+02 -0.44277773254E+02  0.36372991336E+02  0.62118844198E+02  0.51100000000E-03 0. -1.
         23    2    1    0    0    0  0.71507744566E+01 -0.20161868727E+02  0.19659866522E+02  0.95945828569E+02  0.91441003615E+02 0.  0.
         11    1    3    3    0    0 -0.16833284859E+02  0.24115904526E+02 -0.16713124815E+02  0.33826984370E+02  0.51100000000E-03 0.  1.
         22    1    1    0    0    0 -0.71507744566E+01  0.20161868727E+02 -0.19659866522E+02  0.29054171431E+02  0.00000000000E+00 0. -1.
</event>
<event>
 5    1  0.1282529E-003  0.9118800E+02  0.7818608E-02  0.1130116E+00
         25   -1    0    0    0    0  0.00000000000E+00  0.00000000000E+00  0.99999998245E-14  0.12500000000E+03  0.12500000000E+03 0.  0.
        -11    1    3    3    0    0 -0.41190991289E+02  0.15010281599E+02 -0.35601647211E+02  0.56475513291E+02  0.51100000000E-03 0.  1.
         23    2    1    0    0    0 -0.58644171391E+01 -0.12110103608E+01 -0.28356959529E+02  0.96017676280E+02  0.91539166864E+02 0.  0.
         11    1    3    3    0    0  0.35326574150E+02 -0.16221291960E+02  0.72446876822E+01  0.39542162990E+02  0.51100000000E-03 0. -1.
         22    1    1    0    0    0  0.58644171391E+01  0.12110103608E+01  0.28356959529E+02  0.28982323720E+02  0.00000000000E+00 0. -1.
</event>
<event>
 4    1  0.1282529E-003  0.9118800E+02  0.7818608E-02  0.1130116E+00
         25   -1    0    0    0    0  0.00000000000E+00  0.00000000000E+00  0.99999998245E-14  0.12500000000E+03  0.12500000000E+03 0.  0.
        -11    1    1    0    0    0 -0.14317528157E+02  0.44534298894E+01 -0.13284915344E+01  0.15052891428E+02  0.51100000000E-03 0.  1.
         11    1    1    0    0    0 -0.38520400984E+02  0.12766224822E+02 -0.25818680638E+02  0.48097838396E+02  0.51100000000E-03 0. -1.
         22    1    1    0    0    0  0.52837929141E+02 -0.17219654712E+02  0.27147172173E+02  0.61849270176E+02  0.00000000000E+00 0. -1.
</event>
<event>
 5    1  0.1282529E-003  0.9118800E+02  0.7818608E-02  0.1130116E+00
         25   -1    0    0    0    0  0.00000000000E+00  0.00000000000E+00  0.99999998245E-14  0.12500000000E+03  0.12500000000E+03 0.  0.
        -11    1    3    3    0    0 -0.21409089815E+02  0.43405805523E+02  0.64197067428E+01  0.48822389482E+02  0.51100000000E-03 0.  1.
         23    2    1    0    0    0 -0.21141694078E+02  0.29770500466E+01 -0.18866454676E+02  0.96508296514E+02  0.92206692428E+02 0.  0.
         11    1    3    3    0    0  0.26739573640E+00 -0.40428755477E+02 -0.25286161419E+02  0.47685907032E+02  0.51100000000E-03 0. -1.
         22    1    1    0    0    0  0.21141694078E+02 -0.29770500466E+01  0.18866454676E+02  0.28491703486E+02  0.00000000000E+00 0.  1.
</event>
<event>
 5    1  0.1282529E-003  0.9118800E+02  0.7818608E-02  0.1130116E+00
         25   -1    0    0    0    0  0.00000000000E+00  0.00000000000E+00  0.99999998245E-14  0.12500000000E+03  0.12500000000E+03 0.  0.
        -11    1    3    3    0    0 -0.28347469691E+02 -0.43590388249E+02 -0.58613344643E+01  0.52326439088E+02  0.51100000000E-03 0.  1.
         23    2    1    0    0    0 -0.11360706057E+01 -0.19925222396E+02  0.20032815732E+02  0.96722467397E+02  0.92496577501E+02 0.  0.
         11    1    3    3    0    0  0.27211399086E+02  0.23665165853E+02  0.25894150196E+02  0.44396028310E+02  0.51100000000E-03 0. -1.
         22    1    1    0    0    0  0.11360706057E+01  0.19925222396E+02 -0.20032815732E+02  0.28277532603E+02  0.00000000000E+00 0.  1.
</event>
<event>
 5    1  0.1282529E-003  0.9118800E+02  0.7818608E-02  0.1130116E+00
         25   -1    0    0    0    0  0.00000000000E+00  0.00000000000E+00  0.99999998245E-14  0.12500000000E+03  0.12500000000E+03 0.  0.
        -11    1    3    3    0    0  0.34253318656E+02  0.13516470267E+02 -0.83314838659E+01  0.37754449157E+02  0.51100000000E-03 0.  1.
         23    2    1    0    0    0 -0.22198226003E+02  0.14568600187E+02  0.92390397512E+01  0.96886565407E+02  0.92718074569E+02 0.  0.
         11    1    3    3    0    0 -0.56451544660E+02  0.10521299202E+01  0.17570523617E+02  0.59132116250E+02  0.51100000000E-03 0. -1.
         22    1    1    0    0    0  0.22198226003E+02 -0.14568600187E+02 -0.92390397512E+01  0.28113434593E+02  0.00000000000E+00 0. -1.
</event>
<event>
 5    1  0.1282529E-003  0.9118800E+02  0.7818608E-02  0.1130116E+00
         25   -1    0    0    0    0  0.00000000000E+00  0.00000000000E+00  0.99999998245E-14  0.12500000000E+03  0.12500000000E+03 0.  0.
        -11    1    3    3    0    0 -0.23689241247E+02 -0.44088167303E+02  0.37292725407E+02  0.62415494996E+02  0.51100000000E-03 0. -1.
         23    2    1    0    0    0 -0.11312472206E+02 -0.21450830178E+02  0.15223365057E+02  0.96366785259E+02  0.92014652717E+02 0.  0.
         11    1    3    3    0    0  0.12376769042E+02  0.22637337124E+02 -0.22069360350E+02  0.33951290263E+02  0.51100000000E-03 0.  1.
         22    1    1    0    0    0  0.11312472206E+02  0.21450830178E+02 -0.15223365057E+02  0.28633214741E+02  0.00000000000E+00 0. -1.
</event>
<event>
 5    1  0.1282529E-003  0.9118800E+02  0.7818608E-02  0.1130116E+00
         25   -1    0    0    0    0  0.00000000000E+00  0.00000000000E+00  0.99999998245E-14  0.12500000000E+03  0.12500000000E+03 0.  0.
        -11    1    3    3    0    0  0.24985503710E+02 -0.18445023153E+02  0.19682189334E+02  0.36767959584E+02  0.51100000000E-03 0.  1.
         23    2    1    0    0    0 -0.24653254424E+02  0.11340160674E+02  0.12574154795E+02  0.95091948131E+02  0.90266200943E+02 0.  0.
         11    1    3    3    0    0 -0.49638758134E+02  0.29785183827E+02 -0.71080345388E+01  0.58323988546E+02  0.51100000000E-03 0. -1.
         22    1    1    0    0    0  0.24653254424E+02 -0.11340160674E+02 -0.12574154795E+02  0.29908051869E+02  0.00000000000E+00 0. -1.
</event>
<event>
 5    1  0.1282529E-003  0.9118800E+02  0.7818608E-02  0.1130116E+00
         25   -1    0    0    0    0  0.00000000000E+00  0.00000000000E+00  0.99999998245E-14  0.12500000000E+03  0.12500000000E+03 0.  0.
        -11    1    3    3    0    0 -0.90188319051E+01 -0.25879092075E+02 -0.43550266023E+02  0.51455732493E+02  0.51100000000E-03 0.  1.
         23    2    1    0    0    0 -0.42773613784E+01  0.15556210610E+02 -0.19833142924E+02  0.99433516724E+02  0.96090473934E+02 0.  0.
         11    1    3    3    0    0  0.47414705268E+01  0.41435302684E+02  0.23717123099E+02  0.47977784230E+02  0.51100000000E-03 0. -1.
         22    1    1    0    0    0  0.42773613784E+01 -0.15556210610E+02  0.19833142924E+02  0.25566483276E+02  0.00000000000E+00 0.  1.
</event>
<event>
 5    1  0.1282529E-003  0.9118800E+02  0.7818608E-02  0.1130116E+00
         25   -1    0    0    0    0  0.00000000000E+00  0.00000000000E+00  0.99999998245E-14  0.12500000000E+03  0.12500000000E+03 0.  0.
        -11    1    3    3    0    0  0.37748163961E+02 -0.30616751750E+02  0.37731872402E+02  0.61530509224E+02  0.51100000000E-03 0.  1.
         23    2    1    0    0    0  0.22887423176E+02 -0.15340514371E+02  0.11986018235E+02  0.94952867792E+02  0.90073397559E+02 0.  0.
         11    1    3    3    0    0 -0.14860740785E+02  0.15276237379E+02 -0.25745854167E+02  0.33422358567E+02  0.51100000000E-03 0. -1.
         22    1    1    0    0    0 -0.22887423176E+02  0.15340514371E+02 -0.11986018235E+02  0.30047132208E+02  0.00000000000E+00 0.  1.
</event>
<event>
 5    1  0.1282529E-003  0.9118800E+02  0.7818608E-02  0.1130116E+00
         25   -1    0    0    0    0  0.00000000000E+00  0.00000000000E+00  0.99999998245E-14  0.12500000000E+03  0.12500000000E+03 0.  0.
        -11    1    3    3    0    0 -0.14450309316E+01  0.83966199082E+01 -0.52272581802E+02  0.52962384281E+02  0.51100000000E-03 0. -1.
         23    2    1    0    0    0 -0.17177983350E+02  0.18692756211E+02 -0.13058298015E+02  0.96451420460E+02  0.92129556142E+02 0.  0.
         11    1    3    3    0    0 -0.15732952418E+02  0.10296136303E+02  0.39214283787E+02  0.43489036179E+02  0.51100000000E-03 0.  1.
         22    1    1    0    0    0  0.17177983350E+02 -0.18692756211E+02  0.13058298015E+02  0.28548579540E+02  0.00000000000E+00 0. -1.
</event>
<event>
 5    1  0.1282529E-003  0.9118800E+02  0.7818608E-02  0.1130116E+00
         25   -1    0    0    0    0  0.00000000000E+00  0.00000000000E+00  0.99999998245E-14  0.12500000000E+03  0.12500000000E+03 0.  0.
        -11    1    3    3    0    0 -0.28902977906E+01 -0.31591613402E+02 -0.44264368927E+02  0.54458408124E+02  0.51100000000E-03 0. -1.
         23    2    1    0    0    0 -0.78254655089E+01  0.59606820419E+01 -0.27342274095E+02  0.95941996051E+02  0.91435764407E+02 0.  0.
         11    1    3    3    0    0 -0.49351677183E+01  0.37552295444E+02  0.16922094832E+02  0.41483587927E+02  0.51100000000E-03 0.  1.
         22    1    1    0    0    0  0.78254655089E+01 -0.59606820419E+01  0.27342274095E+02  0.29058003949E+02  0.00000000000E+00 0. -1.
</event>
<event>
 5    1  0.1282529E-003  0.9118800E+02  0.7818608E-02  0.1130116E+00
         25   -1    0    0    0    0  0.00000000000E+00  0.00000000000E+00  0.99999998245E-14  0.12500000000E+03  0.12500000000E+03 0.  0.
        -11    1    3    3    0    0  0.41216448684E+02 -0.30131136929E+02 -0.31426162966E+02  0.59952354197E+02  0.51100000000E-03 0. -1.
         23    2    1    0    0    0  0.27583416829E+02 -0.69564019123E+01 -0.84363588419E+01  0.95328320539E+02  0.90592936451E+02 0.  0.
         11    1    3    3    0    0 -0.13633031855E+02  0.23174735017E+02  0.22989804124E+02  0.35375966342E+02  0.51100000000E-03 0.  1.
         22    1    1    0    0    0 -0.27583416829E+02  0.69564019123E+01  0.84363588419E+01  0.29671679461E+02  0.00000000000E+00 0. -1.
</event>
<event>
 5    1  0.1282529E-003  0.9118800E+02  0.7818608E-02  0.1130116E+00
         25   -1    0    0    0    0  0.00000000000E+00  0.00000000000E+00  0.99999998245E-14  0.12500000000E+03  0.12500000000E+03 0.  0.
        -11    1    3    3    0    0 -0.21967740247E+02  0.19139325362E+02  0.35202734876E+02  0.45696038449E+02  0.51100000000E-03 0.  1.
         23    2    1    0    0    0 -0.15885850445E+02 -0.22897672394E+02  0.19527106195E+02  0.90971019384E+02  0.84366787576E+02 0.  0.
         11    1    3    3    0    0  0.60818898018E+01 -0.42036997756E+02 -0.15675628681E+02  0.45274980935E+02  0.51100000000E-03 0. -1.
         22    1    1    0    0    0  0.15885850445E+02  0.22897672394E+02 -0.19527106195E+02  0.34028980616E+02  0.00000000000E+00 0.  1.
</event>
<event>
 5    1  0.1282529E-003  0.9118800E+02  0.7818608E-02  0.1130116E+00
         25   -1    0    0    0    0  0.00000000000E+00  0.00000000000E+00  0.99999998245E-14  0.12500000000E+03  0.12500000000E+03 0.  0.
        -11    1    3    3    0    0  0.18414467890E+02  0.42029945923E+02 -0.31875717202E+02  0.55871910020E+02  0.51100000000E-03 0.  1.
         23    2    1    0    0    0  0.22395677507E+01  0.27899684589E+02  0.30205962487E+01  0.96848053965E+02  0.92666139939E+02 0.  0.
         11    1    3    3    0    0 -0.16174900139E+02 -0.14130261334E+02  0.34896313450E+02  0.40976143945E+02  0.51100000000E-03 0. -1.
         22    1    1    0    0    0 -0.22395677507E+01 -0.27899684589E+02 -0.30205962487E+01  0.28151946035E+02  0.00000000000E+00 0.  1.
</event>
<event>
 5    1  0.1282529E-003  0.9118800E+02  0.7818608E-02  0.1130116E+00
         25   -1    0    0    0    0  0.00000000000E+00  0.00000000000E+00  0.99999998245E-14  0.12500000000E+03  0.12500000000E+03 0.  0.
        -11    1    3    3    0    0 -0.32885216627E+02  0.11685851019E+02 -0.34852000180E+02  0.49321988032E+02  0.51100000000E-03 0. -1.
         23    2    1    0    0    0  0.19519063276E+01 -0.16622120010E+02 -0.24400999116E+02  0.95410921444E+02  0.90706837455E+02 0.  0.
         11    1    3    3    0    0  0.34837122955E+02 -0.28307971029E+02  0.10451001064E+02  0.46088933412E+02  0.51100000000E-03 0.  1.
         22    1    1    0    0    0 -0.19519063276E+01  0.16622120010E+02  0.24400999116E+02  0.29589078556E+02  0.00000000000E+00 0. -1.
</event>
<event>
 5    1  0.1282529E-003  0.9118800E+02  0.7818608E-02  0.1130116E+00
         25   -1    0    0    0    0  0.00000000000E+00  0.00000000000E+00  0.99999998245E-14  0.12500000000E+03  0.12500000000E+03 0.  0.
        -11    1    3    3    0    0 -0.32451957954E+02 -0.48757201409E+01 -0.54569480163E+01  0.33266807840E+02  0.51100000000E-03 0.  1.
         23    2    1    0    0    0  0.29478791754E+02 -0.24002168185E+01 -0.10079628797E+01  0.95406483933E+02  0.90700722066E+02 0.  0.
         11    1    3    3    0    0  0.61930749707E+02  0.24755033224E+01  0.44489851366E+01  0.62139676094E+02  0.51100000000E-03 0. -1.
         22    1    1    0    0    0 -0.29478791754E+02  0.24002168185E+01  0.10079628797E+01  0.29593516067E+02  0.00000000000E+00 0. -1.
</event>
<event>
 5    1  0.1282529E-003  0.9118800E+02  0.7818608E-02  0.1130116E+00
         25   -1    0    0    0    0  0.00000000000E+00  0.00000000000E+00  0.99999998245E-14  0.12500000000E+03  0.12500000000E+03 0.  0.
        -11    1    3    3    0    0  0.35333337572E+02  0.51228963831E+01  0.25789215811E+02  0.44042848043E+02  0.51100000000E-03 0.  1.
         23    2    1    0    0    0  0.11652741606E+02  0.18751331824E+02 -0.18576755794E+02  0.96147015961E+02  0.91715614757E+02 0.  0.
         11    1    3    3    0    0 -0.23680595966E+02  0.13628435441E+02 -0.44365971604E+02  0.52104167919E+02  0.51100000000E-03 0. -1.
         22    1    1    0    0    0 -0.11652741606E+02 -0.18751331824E+02  0.18576755794E+02  0.28852984039E+02  0.00000000000E+00 0.  1.
</event>
<event>
 5    1  0.1282529E-003  0.9118800E+02  0.7818608E-02  0.1130116E+00
         25   -1    0    0    0    0  0.00000000000E+00  0.00000000000E+00  0.99999998245E-14  0.12500000000E+03  0.12500000000E+03 0.  0.
        -11    1    3    3    0    0 -0.35512078359E+02  0.36991259326E+02 -0.11336153981E+02  0.52516372335E+02  0.51100000000E-03 0. -1.
         23    2    1    0    0    0 -0.22282364074E+02 -0.21689048660E+01 -0.20263173767E+02  0.94803905747E+02  0.89866436653E+02 0.  0.
         11    1    3    3    0    0  0.13229714285E+02 -0.39160164192E+02 -0.89270197859E+01  0.42287533412E+02  0.51100000000E-03 0.  1.
         22    1    1    0    0    0  0.22282364074E+02  0.21689048660E+01  0.20263173767E+02  0.30196094253E+02  0.00000000000E+00 0. -1.
</event>
<event>
 5    1  0.1282529E-003  0.9118800E+02  0.7818608E-02  0.1130116E+00
         25   -1    0    0    0    0  0.00000000000E+00  0.00000000000E+00  0.99999998245E-14  0.12500000000E+03  0.12500000000E+03 0.  0.
        -11    1    3    3    0    0 -0.24978858341E+02  0.44252868595E+02  0.24799931346E+02  0.56544640223E+02  0.51100000000E-03 0. -1.
         23    2    1    0    0    0  0.32357838743E+01  0.16290893396E+02  0.23415468278E+02  0.96292027943E+02  0.91913040347E+02 0.  0.
         11    1    3    3    0    0  0.28214642215E+02 -0.27961975199E+02 -0.13844630680E+01  0.39747387720E+02  0.51100000000E-03 0.  1.
         22    1    1    0    0    0 -0.32357838743E+01 -0.16290893396E+02 -0.23415468278E+02  0.28707972057E+02  0.00000000000E+00 0.  1.
</event>
<event>
 5    1  0.1282529E-003  0.9118800E+02  0.7818608E-02  0.1130116E+00
         25   -1    0    0    0    0  0.00000000000E+00  0.00000000000E+00  0.99999998245E-14  0.12500000000E+03  0.12500000000E+03 0.  0.
        -11    1    3    3    0    0  0.54960042694E+02 -0.27791581214E+02 -0.77853893251E+01  0.62077295096E+02  0.51100000000E-03 0.  1.
         23    2    1    0    0    0  0.18774036801E+02 -0.14979760845E+02 -0.19835411870E+01  0.10090037078E+03  0.97980062746E+02 0.  0.
         11    1    3    3    0    0 -0.36186005893E+02  0.12811820369E+02  0.58018481380E+01  0.38823075686E+02  0.51100000000E-03 0. -1.
         22    1    1    0    0    0 -0.18774036801E+02  0.14979760845E+02  0.19835411870E+01  0.24099629217E+02  0.00000000000E+00 0.  1.
</event>
<event>
 5    1  0.1282529E-003  0.9118800E+02  0.7818608E-02  0.1130116E+00
         25   -1    0    0    0    0  0.00000000000E+00  0.00000000000E+00  0.99999998245E-14  0.12500000000E+03  0.12500000000E+03 0.  0.
        -11    1    3    3    0    0 -0.25810870749E+02  0.10777452460E+02 -0.22575570092E+02  0.35944553072E+02  0.51100000000E-03 0.  1.
         23    2    1    0    0    0  0.15593514833E+02 -0.25164799681E+02  0.40108296355E+00  0.95392809735E+02  0.90681874891E+02 0.  0.
         11    1    3    3    0    0  0.41404385581E+02 -0.35942252141E+02  0.22976653056E+02  0.59448256663E+02  0.51100000000E-03 0. -1.
         22    1    1    0    0    0 -0.15593514833E+02  0.25164799681E+02 -0.40108296355E+00  0.29607190265E+02  0.00000000000E+00 0. -1.
</event>
<event>
 5    1  0.1282529E-003  0.9118800E+02  0.7818608E-02  0.1130116E+00
         25   -1    0    0    0    0  0.00000000000E+00  0.00000000000E+00  0.99999998245E-14  0.12500000000E+03  0.12500000000E+03 0.  0.
        -11    1    3    3    0    0  0.50245125695E+02  0.17974302177E+02  0.84076252124E+01  0.54021628602E+02  0.51100000000E-03 0. -1.
         23    2    1    0    0    0  0.26335400409E+02 -0.66450440207E+01 -0.13431018679E+02  0.94699798887E+02  0.89721512035E+02 0.  0.
         11    1    3    3    0    0 -0.23909725286E+02 -0.24619346198E+02 -0.21838643891E+02  0.40678170285E+02  0.51100000000E-03 0.  1.
         22    1    1    0    0    0 -0.26335400409E+02  0.66450440207E+01  0.13431018679E+02  0.30300201113E+02  0.00000000000E+00 0. -1.
</event>
<event>
 5    1  0.1282529E-003  0.9118800E+02  0.7818608E-02  0.1130116E+00
         25   -1    0    0    0    0  0.00000000000E+00  0.00000000000E+00  0.99999998245E-14  0.12500000000E+03  0.12500000000E+03 0.  0.
        -11    1    3    3    0    0 -0.11799306591E+02  0.43785599936E+02  0.29482865755E+02  0.54089201983E+02  0.51100000000E-03 0.  1.
         23    2    1    0    0    0  0.93120213991E+01  0.83713222885E+01  0.26815807485E+02  0.95404724863E+02  0.90698297755E+02 0.  0.
         11    1    3    3    0    0  0.21111327990E+02 -0.35414277647E+02 -0.26670582704E+01  0.41315522880E+02  0.51100000000E-03 0. -1.
         22    1    1    0    0    0 -0.93120213991E+01 -0.83713222885E+01 -0.26815807485E+02  0.29595275137E+02  0.00000000000E+00 0.  1.
</event>
<event>
 5    1  0.1282529E-003  0.9118800E+02  0.7818608E-02  0.1130116E+00
         25   -1    0    0    0    0  0.00000000000E+00  0.00000000000E+00  0.99999998245E-14  0.12500000000E+03  0.12500000000E+03 0.  0.
        -11    1    3    3    0    0  0.89020378420E+01 -0.27273191033E+02 -0.17236192860E+02  0.33468785031E+02  0.51100000000E-03 0.  1.
         23    2    1    0    0    0  0.89214595431E+01  0.30354324349E+02 -0.97452494171E+00  0.93346767212E+02  0.87816238834E+02 0.  0.
         11    1    3    3    0    0  0.19421701179E-01  0.57627515382E+02  0.16261667918E+02  0.59877982181E+02  0.51100000000E-03 0. -1.
         22    1    1    0    0    0 -0.89214595431E+01 -0.30354324349E+02  0.97452494171E+00  0.31653232788E+02  0.00000000000E+00 0. -1.
</event>
<event>
 5    1  0.1282529E-003  0.9118800E+02  0.7818608E-02  0.1130116E+00
         25   -1    0    0    0    0  0.00000000000E+00  0.00000000000E+00  0.99999998245E-14  0.12500000000E+03  0.12500000000E+03 0.  0.
        -11    1    3    3    0    0  0.21798251160E+01 -0.17732383241E+02  0.56590096136E+02  0.59343306564E+02  0.51100000000E-03 0. -1.
         23    2    1    0    0    0 -0.84021680075E+01 -0.17586758281E+02  0.21565853330E+02  0.95931520096E+02  0.91421441818E+02 0.  0.
         11    1    3    3    0    0 -0.10581993123E+02  0.14562496001E+00 -0.35024242806E+02  0.36588213533E+02  0.51100000000E-03 0.  1.
         22    1    1    0    0    0  0.84021680075E+01  0.17586758281E+02 -0.21565853330E+02  0.29068479904E+02  0.00000000000E+00 0. -1.
</event>
<event>
 5    1  0.1282529E-003  0.9118800E+02  0.7818608E-02  0.1130116E+00
         25   -1    0    0    0    0  0.00000000000E+00  0.00000000000E+00  0.99999998245E-14  0.12500000000E+03  0.12500000000E+03 0.  0.
        -11    1    3    3    0    0  0.41090794041E+02 -0.37521730813E+02  0.13304882506E+02  0.57213228688E+02  0.51100000000E-03 0. -1.
         23    2    1    0    0    0  0.15662043548E+02 -0.21554893640E+02 -0.11325171814E+02  0.96048789930E+02  0.91581643807E+02 0.  0.
         11    1    3    3    0    0 -0.25428750492E+02  0.15966837174E+02 -0.24630054320E+02  0.38835561242E+02  0.51100000000E-03 0.  1.
         22    1    1    0    0    0 -0.15662043548E+02  0.21554893640E+02  0.11325171814E+02  0.28951210070E+02  0.00000000000E+00 0. -1.
</event>
<event>
 5    1  0.1282529E-003  0.9118800E+02  0.7818608E-02  0.1130116E+00
         25   -1    0    0    0    0  0.00000000000E+00  0.00000000000E+00  0.99999998245E-14  0.12500000000E+03  0.12500000000E+03 0.  0.
        -11    1    3    3    0    0 -0.41124062119E+02 -0.89886071071E+01 -0.35923796453E+02  0.55339883400E+02  0.51100000000E-03 0.  1.
         23    2    1    0    0    0 -0.19252350238E+01 -0.11828686704E+02 -0.26735653886E+02  0.95701202281E+02  0.91105985370E+02 0.  0.
         11    1    3    3    0    0  0.39198827095E+02 -0.28400795973E+01  0.91881425669E+01  0.40361318881E+02  0.51100000000E-03 0. -1.
         22    1    1    0    0    0  0.19252350238E+01  0.11828686704E+02  0.26735653886E+02  0.29298797719E+02  0.00000000000E+00 0.  1.
</event>
<event>
 5    1  0.1282529E-003  0.9118800E+02  0.7818608E-02  0.1130116E+00
         25   -1    0    0    0    0  0.00000000000E+00  0.00000000000E+00  0.99999998245E-14  0.12500000000E+03  0.12500000000E+03 0.  0.
        -11    1    3    3    0    0 -0.15560960100E+01 -0.61195299649E+01  0.61765236688E+02  0.62087152819E+02  0.51100000000E-03 0. -1.
         23    2    1    0    0    0 -0.51676837820E+01 -0.53651644054E+01  0.29036105372E+02  0.95023586606E+02  0.90171484692E+02 0.  0.
         11    1    3    3    0    0 -0.36115877720E+01  0.75436555948E+00 -0.32729131316E+02  0.32936433787E+02  0.51100000000E-03 0.  1.
         22    1    1    0    0    0  0.51676837820E+01  0.53651644054E+01 -0.29036105372E+02  0.29976413394E+02  0.00000000000E+00 0. -1.
</event>
<event>
 5    1  0.1282529E-003  0.9118800E+02  0.7818608E-02  0.1130116E+00
         25   -1    0    0    0    0  0.00000000000E+00  0.00000000000E+00  0.99999998245E-14  0.12500000000E+03  0.12500000000E+03 0.  0.
        -11    1    3    3    0    0  0.22221332169E+02  0.23352176094E+02  0.46938486095E+02  0.56941489345E+02  0.51100000000E-03 0. -1.
         23    2    1    0    0    0  0.21071815434E+02  0.16863704447E+02  0.74144413837E+01  0.97011075862E+02  0.92885784518E+02 0.  0.
         11    1    3    3    0    0 -0.11495167351E+01 -0.64884716475E+01 -0.39524044711E+02  0.40069586517E+02  0.51100000000E-03 0.  1.
         22    1    1    0    0    0 -0.21071815434E+02 -0.16863704447E+02 -0.74144413837E+01  0.27988924138E+02  0.00000000000E+00 0. -1.
</event>
<event>
 5    1  0.1282529E-003  0.9118800E+02  0.7818608E-02  0.1130116E+00
         25   -1    0    0    0    0  0.00000000000E+00  0.00000000000E+00  0.99999998245E-14  0.12500000000E+03  0.12500000000E+03 0.  0.
        -11    1    3    3    0    0  0.43405822993E+02 -0.19183777876E+02 -0.32463783218E+01  0.47567024037E+02  0.51100000000E-03 0. -1.
         23    2    1    0    0    0  0.21912891538E+01 -0.95734597914E+01 -0.27119940378E+02  0.96156559729E+02  0.91728621118E+02 0.  0.
         11    1    3    3    0    0 -0.41214533839E+02  0.96103180850E+01 -0.23873562057E+02  0.48589535692E+02  0.51100000000E-03 0.  1.
         22    1    1    0    0    0 -0.21912891538E+01  0.95734597914E+01  0.27119940378E+02  0.28843440271E+02  0.00000000000E+00 0.  1.
</event>
<event>
 5    1  0.1282529E-003  0.9118800E+02  0.7818608E-02  0.1130116E+00
         25   -1    0    0    0    0  0.00000000000E+00  0.00000000000E+00  0.99999998245E-14  0.12500000000E+03  0.12500000000E+03 0.  0.
        -11    1    3    3    0    0  0.44733795273E+02  0.28219812665E+01 -0.16153132444E+02  0.47644513910E+02  0.51100000000E-03 0. -1.
         23    2    1    0    0    0  0.89490909245E+01  0.25347077022E+02  0.87676380842E+01  0.96725771107E+02  0.92501042031E+02 0.  0.
         11    1    3    3    0    0 -0.35784704348E+02  0.22525095755E+02  0.24920770528E+02  0.49081257197E+02  0.51100000000E-03 0.  1.
         22    1    1    0    0    0 -0.89490909245E+01 -0.25347077022E+02 -0.87676380842E+01  0.28274228893E+02  0.00000000000E+00 0.  1.
</event>
<event>
 5    1  0.1282529E-003  0.9118800E+02  0.7818608E-02  0.1130116E+00
         25   -1    0    0    0    0  0.00000000000E+00  0.00000000000E+00  0.99999998245E-14  0.12500000000E+03  0.12500000000E+03 0.  0.
        -11    1    3    3    0    0  0.19702494079E+02 -0.29966201618E+02  0.14996751691E+02  0.38872407616E+02  0.51100000000E-03 0.  1.
         23    2    1    0    0    0 -0.29744480873E+02 -0.91437939953E+01  0.68030369842E+01  0.93146830248E+02  0.87531180513E+02 0.  0.
         11    1    3    3    0    0 -0.49446974952E+02  0.20822407623E+02 -0.81937147065E+01  0.54274422632E+02  0.51100000000E-03 0. -1.
         22    1    1    0    0    0  0.29744480873E+02  0.91437939953E+01 -0.68030369842E+01  0.31853169752E+02  0.00000000000E+00 0. -1.
</event>
<event>
 5    1  0.1282529E-003  0.9118800E+02  0.7818608E-02  0.1130116E+00
         25   -1    0    0    0    0  0.00000000000E+00  0.00000000000E+00  0.99999998245E-14  0.12500000000E+03  0.12500000000E+03 0.  0.
        -11    1    3    3    0    0 -0.13004321719E+02 -0.42970484245E+02  0.29345068798E+02  0.53634950943E+02  0.51100000000E-03 0. -1.
         23    2    1    0    0    0 -0.27285198746E+02 -0.99421270087E+01  0.12049472683E+02  0.93559297845E+02  0.88118241365E+02 0.  0.
         11    1    3    3    0    0 -0.14280877026E+02  0.33028357236E+02 -0.17295596115E+02  0.39924346902E+02  0.51100000000E-03 0.  1.
         22    1    1    0    0    0  0.27285198746E+02  0.99421270087E+01 -0.12049472683E+02  0.31440702155E+02  0.00000000000E+00 0. -1.
</event>
<event>
 5    1  0.1282529E-003  0.9118800E+02  0.7818608E-02  0.1130116E+00
         25   -1    0    0    0    0  0.00000000000E+00  0.00000000000E+00  0.99999998245E-14  0.12500000000E+03  0.12500000000E+03 0.  0.
        -11    1    3    3    0    0  0.32828504898E+02  0.30400514227E+02  0.61376294657E+01  0.45161626353E+02  0.51100000000E-03 0.  1.
         23    2    1    0    0    0 -0.38653461341E+01  0.13349891697E+02 -0.25120444772E+02  0.96291164172E+02  0.91911865627E+02 0.  0.
         11    1    3    3    0    0 -0.36693851032E+02 -0.17050622530E+02 -0.31258074238E+02  0.51129537819E+02  0.51100000000E-03 0. -1.
         22    1    1    0    0    0  0.38653461341E+01 -0.13349891697E+02  0.25120444772E+02  0.28708835828E+02  0.00000000000E+00 0.  1.
</event>
<event>
 5    1  0.1282529E-003  0.9118800E+02  0.7818608E-02  0.1130116E+00
         25   -1    0    0    0    0  0.00000000000E+00  0.00000000000E+00  0.99999998245E-14  0.12500000000E+03  0.12500000000E+03 0.  0.
        -11    1    3    3    0    0  0.35232074023E+02 -0.22171043502E+02  0.32902073189E+02  0.53060348946E+02  0.51100000000E-03 0. -1.
         23    2    1    0    0    0  0.45956254780E+01 -0.28029671908E+02  0.27163455849E+01  0.96466496638E+02  0.92150009004E+02 0.  0.
         11    1    3    3    0    0 -0.30636448545E+02 -0.58586284053E+01 -0.30185727604E+02  0.43406147692E+02  0.51100000000E-03 0.  1.
         22    1    1    0    0    0 -0.45956254780E+01  0.28029671908E+02 -0.27163455849E+01  0.28533503362E+02  0.00000000000E+00 0. -1.
</event>
<event>
 5    1  0.1282529E-003  0.9118800E+02  0.7818608E-02  0.1130116E+00
         25   -1    0    0    0    0  0.00000000000E+00  0.00000000000E+00  0.99999998245E-14  0.12500000000E+03  0.12500000000E+03 0.  0.
        -11    1    3    3    0    0 -0.49589033607E+02 -0.13142511509E+02  0.24807257427E+02  0.56984189773E+02  0.51100000000E-03 0. -1.
         23    2    1    0    0    0 -0.14289214620E+02 -0.22622637882E+02  0.95945957902E+01  0.96574278064E+02  0.92296096971E+02 0.  0.
         11    1    3    3    0    0  0.35299818987E+02 -0.94801263733E+01 -0.15212661637E+02  0.39590088291E+02  0.51100000000E-03 0.  1.
         22    1    1    0    0    0  0.14289214620E+02  0.22622637882E+02 -0.95945957902E+01  0.28425721936E+02  0.00000000000E+00 0. -1.
</event>
<event>
 5    1  0.1282529E-003  0.9118800E+02  0.7818608E-02  0.1130116E+00
         25   -1    0    0    0    0  0.00000000000E+00  0.00000000000E+00  0.99999998245E-14  0.12500000000E+03  0.12500000000E+03 0.  0.
        -11    1    3    3    0    0  0.27117270114E+02 -0.95668725985E+01 -0.21435710858E+02  0.35865876401E+02  0.51100000000E-03 0. -1.
         23    2    1    0    0    0 -0.10933930792E+02  0.19075112336E+01  0.25393520857E+02  0.97286820045E+02  0.93256125865E+02 0.  0.
         11    1    3    3    0    0 -0.38051200907E+02  0.11474383832E+02  0.46829231715E+02  0.61420943644E+02  0.51100000000E-03 0.  1.
         22    1    1    0    0    0  0.10933930792E+02 -0.19075112336E+01 -0.25393520857E+02  0.27713179955E+02  0.00000000000E+00 0.  1.
</event>
<event>
 5    1  0.1282529E-003  0.9118800E+02  0.7818608E-02  0.1130116E+00
         25   -1    0    0    0    0  0.00000000000E+00  0.00000000000E+00  0.99999998245E-14  0.12500000000E+03  0.12500000000E+03 0.  0.
        -11    1    3    3    0    0 -0.46444277326E+01  0.30346482158E+02 -0.22913157764E+02  0.38307864562E+02  0.51100000000E-03 0.  1.
         23    2    1    0    0    0 -0.32900648079E+01 -0.24983154340E+02 -0.18322230567E+02  0.93844155280E+02  0.88521403175E+02 0.  0.
         11    1    3    3    0    0  0.13543629247E+01 -0.55329636498E+02  0.45909271965E+01  0.55536290718E+02  0.51100000000E-03 0. -1.
         22    1    1    0    0    0  0.32900648079E+01  0.24983154340E+02  0.18322230567E+02  0.31155844720E+02  0.00000000000E+00 0. -1.
</event>
<event>
 5    1  0.1282529E-003  0.9118800E+02  0.7818608E-02  0.1130116E+00
         25   -1    0    0    0    0  0.00000000000E+00  0.00000000000E+00  0.99999998245E-14  0.12500000000E+03  0.12500000000E+03 0.  0.
        -11    1    3    3    0    0  0.55811912989E+02 -0.24141953317E+02  0.92542499815E+01  0.61509712115E+02  0.51100000000E-03 0. -1.
         23    2    1    0    0    0  0.25757721104E+02 -0.13485611328E+02 -0.32147258550E+01  0.95748395400E+02  0.91170712676E+02 0.  0.
         11    1    3    3    0    0 -0.30054191885E+02  0.10656341988E+02 -0.12468975836E+02  0.34238683285E+02  0.51100000000E-03 0.  1.
         22    1    1    0    0    0 -0.25757721104E+02  0.13485611328E+02  0.32147258550E+01  0.29251604600E+02  0.00000000000E+00 0. -1.
</event>
<event>
 5    1  0.1282529E-003  0.9118800E+02  0.7818608E-02  0.1130116E+00
         25   -1    0    0    0    0  0.00000000000E+00  0.00000000000E+00  0.99999998245E-14  0.12500000000E+03  0.12500000000E+03 0.  0.
        -11    1    3    3    0    0  0.11847822825E+02  0.27544122797E+02 -0.45500753375E+02  0.54491909164E+02  0.51100000000E-03 0.  1.
         23    2    1    0    0    0  0.15453953558E+02 -0.77581365820E+01 -0.21842620231E+02  0.97141187707E+02  0.93060716346E+02 0.  0.
         11    1    3    3    0    0  0.36061307331E+01 -0.35302259379E+02  0.23658133144E+02  0.42649278543E+02  0.51100000000E-03 0. -1.
         22    1    1    0    0    0 -0.15453953558E+02  0.77581365820E+01  0.21842620231E+02  0.27858812293E+02  0.00000000000E+00 0. -1.
</event>
<event>
 5    1  0.1282529E-003  0.9118800E+02  0.7818608E-02  0.1130116E+00
         25   -1    0    0    0    0  0.00000000000E+00  0.00000000000E+00  0.99999998245E-14  0.12500000000E+03  0.12500000000E+03 0.  0.
        -11    1    3    3    0    0  0.34032980558E+02 -0.18824865988E+02 -0.46704744366E+02  0.60777894762E+02  0.51100000000E-03 0. -1.
         23    2    1    0    0    0  0.16168366237E+02 -0.20713376789E+01 -0.31296354892E+02  0.89713057145E+02  0.82481902780E+02 0.  0.
         11    1    3    3    0    0 -0.17864614322E+02  0.16753528309E+02  0.15408389474E+02  0.28935162383E+02  0.51100000000E-03 0.  1.
         22    1    1    0    0    0 -0.16168366237E+02  0.20713376789E+01  0.31296354892E+02  0.35286942855E+02  0.00000000000E+00 0. -1.
</event>
<event>
 5    1  0.1282529E-003  0.9118800E+02  0.7818608E-02  0.1130116E+00
         25   -1    0    0    0    0  0.00000000000E+00  0.00000000000E+00  0.99999998245E-14  0.12500000000E+03  0.12500000000E+03 0.  0.
        -11    1    3    3    0    0  0.17191672513E+02  0.13057620472E+02 -0.39887011261E+02  0.45354478542E+02  0.51100000000E-03 0.  1.
         23    2    1    0    0    0 -0.24252462547E+02 -0.31115500634E+01 -0.14101715579E+02  0.96773734472E+02  0.92565833967E+02 0.  0.
         11    1    3    3    0    0 -0.41444135060E+02 -0.16169170535E+02  0.25785295682E+02  0.51419255930E+02  0.51100000000E-03 0. -1.
         22    1    1    0    0    0  0.24252462547E+02  0.31115500634E+01  0.14101715579E+02  0.28226265528E+02  0.00000000000E+00 0.  1.
</event>
<event>
 5    1  0.1282529E-003  0.9118800E+02  0.7818608E-02  0.1130116E+00
         25   -1    0    0    0    0  0.00000000000E+00  0.00000000000E+00  0.99999998245E-14  0.12500000000E+03  0.12500000000E+03 0.  0.
        -11    1    3    3    0    0  0.94803842746E+01  0.40423474834E+02 -0.44189847217E+02  0.60635613305E+02  0.51100000000E-03 0. -1.
         23    2    1    0    0    0 -0.64262588840E+01  0.16294739213E+02 -0.20741685860E+02  0.97851650849E+02  0.94010173451E+02 0.  0.
         11    1    3    3    0    0 -0.15906643159E+02 -0.24128735620E+02  0.23448161356E+02  0.37216037544E+02  0.51100000000E-03 0.  1.
         22    1    1    0    0    0  0.64262588840E+01 -0.16294739213E+02  0.20741685860E+02  0.27148349151E+02  0.00000000000E+00 0. -1.
</event>
<event>
 5    1  0.1282529E-003  0.9118800E+02  0.7818608E-02  0.1130116E+00
         25   -1    0    0    0    0  0.00000000000E+00  0.00000000000E+00  0.99999998245E-14  0.12500000000E+03  0.12500000000E+03 0.  0.
        -11    1    3    3    0    0 -0.38826503857E+02  0.71873222656E+00 -0.84618072330E+01  0.39744385260E+02  0.51100000000E-03 0.  1.
         23    2    1    0    0    0  0.25783899979E+01  0.26958192699E+02  0.14948807066E+02  0.94066861115E+02  0.88835326751E+02 0.  0.
         11    1    3    3    0    0  0.41404893855E+02  0.26239460472E+02  0.23410614299E+02  0.54322475856E+02  0.51100000000E-03 0. -1.
         22    1    1    0    0    0 -0.25783899979E+01 -0.26958192699E+02 -0.14948807066E+02  0.30933138885E+02  0.00000000000E+00 0. -1.
</event>
<event>
 5    1  0.1282529E-003  0.9118800E+02  0.7818608E-02  0.1130116E+00
         25   -1    0    0    0    0  0.00000000000E+00  0.00000000000E+00  0.99999998245E-14  0.12500000000E+03  0.12500000000E+03 0.  0.
        -11    1    3    3    0    0  0.32928446257E+02  0.24619356553E+02  0.18633052562E+02  0.45139627137E+02  0.51100000000E-03 0.  1.
         23    2    1    0    0    0  0.18054226964E+02 -0.19492554637E+02 -0.59337412242E+01  0.97776405776E+02  0.93910071047E+02 0.  0.
         11    1    3    3    0    0 -0.14874219294E+02 -0.44111911190E+02 -0.24566793786E+02  0.52636778640E+02  0.51100000000E-03 0. -1.
         22    1    1    0    0    0 -0.18054226964E+02  0.19492554637E+02  0.59337412242E+01  0.27223594224E+02  0.00000000000E+00 0. -1.
</event>
<event>
 5    1  0.1282529E-003  0.9118800E+02  0.7818608E-02  0.1130116E+00
         25   -1    0    0    0    0  0.00000000000E+00  0.00000000000E+00  0.99999998245E-14  0.12500000000E+03  0.12500000000E+03 0.  0.
        -11    1    3    3    0    0 -0.35981247692E+02  0.58170856554E+01  0.30981547806E+02  0.47836648876E+02  0.51100000000E-03 0. -1.
         23    2    1    0    0    0 -0.19041799672E+02 -0.21657554722E+02 -0.45113623826E+01  0.95811094543E+02  0.91256636118E+02 0.  0.
         11    1    3    3    0    0  0.16939448021E+02 -0.27474640377E+02 -0.35492910188E+02  0.47974445666E+02  0.51100000000E-03 0.  1.
         22    1    1    0    0    0  0.19041799672E+02  0.21657554722E+02  0.45113623826E+01  0.29188905457E+02  0.00000000000E+00 0. -1.
</event>
<event>
 5    1  0.1282529E-003  0.9118800E+02  0.7818608E-02  0.1130116E+00
         25   -1    0    0    0    0  0.00000000000E+00  0.00000000000E+00  0.99999998245E-14  0.12500000000E+03  0.12500000000E+03 0.  0.
        -11    1    3    3    0    0 -0.17016696777E+02  0.25827321967E+02  0.23256788650E+02  0.38697503120E+02  0.51100000000E-03 0.  1.
         23    2    1    0    0    0  0.22770800160E+02 -0.13451655220E+02  0.12962604354E+02  0.95546893547E+02  0.90894022833E+02 0.  0.
         11    1    3    3    0    0  0.39787496937E+02 -0.39278977187E+02 -0.10294184297E+02  0.56849390427E+02  0.51100000000E-03 0. -1.
         22    1    1    0    0    0 -0.22770800160E+02  0.13451655220E+02 -0.12962604354E+02  0.29453106453E+02  0.00000000000E+00 0. -1.
</event>
<event>
 5    1  0.1282529E-003  0.9118800E+02  0.7818608E-02  0.1130116E+00
         25   -1    0    0    0    0  0.00000000000E+00  0.00000000000E+00  0.99999998245E-14  0.12500000000E+03  0.12500000000E+03 0.  0.
        -11    1    3    3    0    0 -0.34023478517E+02  0.28309746866E+01  0.39488850496E+02  0.52201348851E+02  0.51100000000E-03 0. -1.
         23    2    1    0    0    0 -0.98062607764E+01 -0.22158062580E+02  0.25827512824E+02  0.89585272747E+02  0.82288019704E+02 0.  0.
         11    1    3    3    0    0  0.24217217741E+02 -0.24989037267E+02 -0.13661337672E+02  0.37383923897E+02  0.51100000000E-03 0.  1.
         22    1    1    0    0    0  0.98062607764E+01  0.22158062580E+02 -0.25827512824E+02  0.35414727253E+02  0.00000000000E+00 0. -1.
</event>
<event>
 5    1  0.1282529E-003  0.9118800E+02  0.7818608E-02  0.1130116E+00
         25   -1    0    0    0    0  0.00000000000E+00  0.00000000000E+00  0.99999998245E-14  0.12500000000E+03  0.12500000000E+03 0.  0.
        -11    1    3    3    0    0 -0.55595156723E+02  0.19460078032E+02 -0.71159798282E+01  0.59330879458E+02  0.51100000000E-03 0. -1.
         23    2    1    0    0    0 -0.21975311109E+02  0.18986587102E+02 -0.12500514149E+02  0.93382478874E+02  0.87867057073E+02 0.  0.
         11    1    3    3    0    0  0.33619845613E+02 -0.47349092972E+00 -0.53845343204E+01  0.34051599417E+02  0.51100000000E-03 0.  1.
         22    1    1    0    0    0  0.21975311109E+02 -0.18986587102E+02  0.12500514149E+02  0.31617521126E+02  0.00000000000E+00 0. -1.
</event>
<event>
 5    1  0.1282529E-003  0.9118800E+02  0.7818608E-02  0.1130116E+00
         25   -1    0    0    0    0  0.00000000000E+00  0.00000000000E+00  0.99999998245E-14  0.12500000000E+03  0.12500000000E+03 0.  0.
        -11    1    3    3    0    0  0.12019984748E+02 -0.99312071315E+01 -0.24704136480E+02  0.29213066733E+02  0.51100000000E-03 0.  1.
         23    2    1    0    0    0 -0.74335573018E+01 -0.10090415480E+02  0.32783138380E+02  0.89902871616E+02  0.82769063690E+02 0.  0.
         11    1    3    3    0    0 -0.19453542050E+02 -0.15920834828E+00  0.57487274861E+02  0.60689804883E+02  0.51100000000E-03 0. -1.
         22    1    1    0    0    0  0.74335573018E+01  0.10090415480E+02 -0.32783138380E+02  0.35097128384E+02  0.00000000000E+00 0. -1.
</event>
<event>
 5    1  0.1282529E-003  0.9118800E+02  0.7818608E-02  0.1130116E+00
         25   -1    0    0    0    0  0.00000000000E+00  0.00000000000E+00  0.99999998245E-14  0.12500000000E+03  0.12500000000E+03 0.  0.
        -11    1    3    3    0    0 -0.27568666757E+02  0.37819727573E+02 -0.28186301255E+01  0.46886115818E+02  0.51100000000E-03 0. -1.
         23    2    1    0    0    0  0.16495894620E+02  0.17477256121E+02 -0.14667390395E+02  0.96845047295E+02  0.92662084067E+02 0.  0.
         11    1    3    3    0    0  0.44064561377E+02 -0.20342471452E+02 -0.11848760269E+02  0.49958931477E+02  0.51100000000E-03 0.  1.
         22    1    1    0    0    0 -0.16495894620E+02 -0.17477256121E+02  0.14667390395E+02  0.28154952705E+02  0.00000000000E+00 0.  1.
</event>
<event>
 5    1  0.1282529E-003  0.9118800E+02  0.7818608E-02  0.1130116E+00
         25   -1    0    0    0    0  0.00000000000E+00  0.00000000000E+00  0.99999998245E-14  0.12500000000E+03  0.12500000000E+03 0.  0.
        -11    1    3    3    0    0  0.21546545385E+02  0.47979079186E+02  0.46563191607E+01  0.52800823535E+02  0.51100000000E-03 0.  1.
         23    2    1    0    0    0  0.18422563684E+02  0.10284648751E+02  0.22093390631E+02  0.94450323043E+02  0.89373266477E+02 0.  0.
         11    1    3    3    0    0 -0.31239817012E+01 -0.37694430436E+02  0.17437071470E+02  0.41649499508E+02  0.51100000000E-03 0. -1.
         22    1    1    0    0    0 -0.18422563684E+02 -0.10284648751E+02 -0.22093390631E+02  0.30549676957E+02  0.00000000000E+00 0.  1.
</event>
<event>
 5    1  0.1282529E-003  0.9118800E+02  0.7818608E-02  0.1130116E+00
         25   -1    0    0    0    0  0.00000000000E+00  0.00000000000E+00  0.99999998245E-14  0.12500000000E+03  0.12500000000E+03 0.  0.
        -11    1    3    3    0    0 -0.15325744279E+02  0.10790941958E+02 -0.34815933870E+02  0.39540765262E+02  0.51100000000E-03 0.  1.
         23    2    1    0    0    0  0.24158644068E+02  0.11928844263E+01  0.89012824423E+01  0.99226061892E+02  0.95820224760E+02 0.  0.
         11    1    3    3    0    0  0.39484388347E+02 -0.95980575315E+01  0.43717216312E+02  0.59685296630E+02  0.51100000000E-03 0. -1.
         22    1    1    0    0    0 -0.24158644068E+02 -0.11928844263E+01 -0.89012824423E+01  0.25773938108E+02  0.00000000000E+00 0. -1.
</event>
<event>
 5    1  0.1282529E-003  0.9118800E+02  0.7818608E-02  0.1130116E+00
         25   -1    0    0    0    0  0.00000000000E+00  0.00000000000E+00  0.99999998245E-14  0.12500000000E+03  0.12500000000E+03 0.  0.
        -11    1    3    3    0    0 -0.29791276110E+02 -0.49136856857E+02 -0.49279633836E+01  0.57673526487E+02  0.51100000000E-03 0.  1.
         23    2    1    0    0    0 -0.12828504313E+02 -0.17846271692E+02  0.14929008084E+02  0.98430558557E+02  0.94776788505E+02 0.  0.
         11    1    3    3    0    0  0.16962771797E+02  0.31290585166E+02  0.19856971467E+02  0.40757032070E+02  0.51100000000E-03 0. -1.
         22    1    1    0    0    0  0.12828504313E+02  0.17846271692E+02 -0.14929008084E+02  0.26569441443E+02  0.00000000000E+00 0.  1.
</event>
<event>
 5    1  0.1282529E-003  0.9118800E+02  0.7818608E-02  0.1130116E+00
         25   -1    0    0    0    0  0.00000000000E+00  0.00000000000E+00  0.99999998245E-14  0.12500000000E+03  0.12500000000E+03 0.  0.
        -11    1    3    3    0    0  0.40370116628E+02  0.16071218334E+02  0.34421856210E+02  0.55433695173E+02  0.51100000000E-03 0. -1.
         23    2    1    0    0    0  0.16327346840E+02  0.24257551878E+02  0.33454039250E+01  0.95568676459E+02  0.90923974368E+02 0.  0.
         11    1    3    3    0    0 -0.24042769788E+02  0.81863335445E+01 -0.31076452285E+02  0.40134981287E+02  0.51100000000E-03 0.  1.
         22    1    1    0    0    0 -0.16327346840E+02 -0.24257551878E+02 -0.33454039250E+01  0.29431323541E+02  0.00000000000E+00 0. -1.
</event>
<event>
 5    1  0.1282529E-003  0.9118800E+02  0.7818608E-02  0.1130116E+00
         25   -1    0    0    0    0  0.00000000000E+00  0.00000000000E+00  0.99999998245E-14  0.12500000000E+03  0.12500000000E+03 0.  0.
        -11    1    3    3    0    0  0.10366227226E+02 -0.15443360089E+02 -0.29795275499E+02  0.35124271951E+02  0.51100000000E-03 0. -1.
         23    2    1    0    0    0 -0.90555239100E+00  0.32544062415E+02 -0.55333678719E+00  0.92438639384E+02  0.86513928624E+02 0.  0.
         11    1    3    3    0    0 -0.11271779617E+02  0.47987422504E+02  0.29241938712E+02  0.57314367433E+02  0.51100000000E-03 0.  1.
         22    1    1    0    0    0  0.90555239100E+00 -0.32544062415E+02  0.55333678719E+00  0.32561360616E+02  0.00000000000E+00 0.  1.
</event>
<event>
 5    1  0.1282529E-003  0.9118800E+02  0.7818608E-02  0.1130116E+00
         25   -1    0    0    0    0  0.00000000000E+00  0.00000000000E+00  0.99999998245E-14  0.12500000000E+03  0.12500000000E+03 0.  0.
        -11    1    3    3    0    0 -0.50580110653E+02  0.30179707370E+02 -0.19391232138E+02  0.62009533257E+02  0.51100000000E-03 0.  1.
         23    2    1    0    0    0 -0.24629355562E+02  0.12917668711E+02 -0.14745322963E+02  0.93521501471E+02  0.88064609054E+02 0.  0.
         11    1    3    3    0    0  0.25950755090E+02 -0.17262038659E+02  0.46459091757E+01  0.31511968215E+02  0.51100000000E-03 0. -1.
         22    1    1    0    0    0  0.24629355562E+02 -0.12917668711E+02  0.14745322963E+02  0.31478498529E+02  0.00000000000E+00 0.  1.
</event>
<event>
 5    1  0.1282529E-003  0.9118800E+02  0.7818608E-02  0.1130116E+00
         25   -1    0    0    0    0  0.00000000000E+00  0.00000000000E+00  0.99999998245E-14  0.12500000000E+03  0.12500000000E+03 0.  0.
        -11    1    3    3    0    0  0.24076682210E+02  0.44213546447E+00  0.37219346369E+02  0.44330146113E+02  0.51100000000E-03 0. -1.
         23    2    1    0    0    0  0.10690998274E+02 -0.28226938251E+02 -0.20342802603E+01  0.94747797050E+02  0.89788358168E+02 0.  0.
         11    1    3    3    0    0 -0.13385683936E+02 -0.28669073716E+02 -0.39253626630E+02  0.50417650937E+02  0.51100000000E-03 0.  1.
         22    1    1    0    0    0 -0.10690998274E+02  0.28226938251E+02  0.20342802603E+01  0.30252202950E+02  0.00000000000E+00 0. -1.
</event>
<event>
 5    1  0.1282529E-003  0.9118800E+02  0.7818608E-02  0.1130116E+00
         25   -1    0    0    0    0  0.00000000000E+00  0.00000000000E+00  0.99999998245E-14  0.12500000000E+03  0.12500000000E+03 0.  0.
        -11    1    3    3    0    0  0.56857011073E+01 -0.29390493934E+02  0.43286957030E+02  0.52629734751E+02  0.51100000000E-03 0. -1.
         23    2    1    0    0    0 -0.10293341277E+02  0.66682587961E+01  0.27083243303E+02  0.95269197491E+02  0.90511321793E+02 0.  0.
         11    1    3    3    0    0 -0.15979042385E+02  0.36058752730E+02 -0.16203713726E+02  0.42639462740E+02  0.51100000000E-03 0.  1.
         22    1    1    0    0    0  0.10293341277E+02 -0.66682587961E+01 -0.27083243303E+02  0.29730802509E+02  0.00000000000E+00 0. -1.
</event>
<event>
 5    1  0.1282529E-003  0.9118800E+02  0.7818608E-02  0.1130116E+00
         25   -1    0    0    0    0  0.00000000000E+00  0.00000000000E+00  0.99999998245E-14  0.12500000000E+03  0.12500000000E+03 0.  0.
        -11    1    3    3    0    0  0.39511114195E+02 -0.15577386257E+02  0.40287793582E+02  0.58539639728E+02  0.51100000000E-03 0.  1.
         23    2    1    0    0    0  0.65936819666E+01 -0.63178208053E+01  0.29072775107E+02  0.94526769879E+02  0.89480123322E+02 0.  0.
         11    1    3    3    0    0 -0.32917432228E+02  0.92595654521E+01 -0.11215018475E+02  0.35987130151E+02  0.51100000000E-03 0. -1.
         22    1    1    0    0    0 -0.65936819666E+01  0.63178208053E+01 -0.29072775107E+02  0.30473230121E+02  0.00000000000E+00 0.  1.
</event>
<event>
 5    1  0.1282529E-003  0.9118800E+02  0.7818608E-02  0.1130116E+00
         25   -1    0    0    0    0  0.00000000000E+00  0.00000000000E+00  0.99999998245E-14  0.12500000000E+03  0.12500000000E+03 0.  0.
        -11    1    3    3    0    0  0.20594642973E+02 -0.21647431931E+02 -0.21808528332E+02  0.36991384627E+02  0.51100000000E-03 0. -1.
         23    2    1    0    0    0 -0.28415959060E+02  0.54914901631E+01 -0.39607809096E+01  0.95788512894E+02  0.91225699359E+02 0.  0.
         11    1    3    3    0    0 -0.49010602033E+02  0.27138922095E+02  0.17847747422E+02  0.58797128267E+02  0.51100000000E-03 0.  1.
         22    1    1    0    0    0  0.28415959060E+02 -0.54914901631E+01  0.39607809096E+01  0.29211487106E+02  0.00000000000E+00 0.  1.
</event>
<event>
 5    1  0.1282529E-003  0.9118800E+02  0.7818608E-02  0.1130116E+00
         25   -1    0    0    0    0  0.00000000000E+00  0.00000000000E+00  0.99999998245E-14  0.12500000000E+03  0.12500000000E+03 0.  0.
        -11    1    3    3    0    0 -0.23254559613E+02  0.87613148589E+01  0.54464821305E+02  0.59866116801E+02  0.51100000000E-03 0.  1.
         23    2    1    0    0    0 -0.21195724258E+02  0.42577180041E+01  0.17432386412E+02  0.97228162008E+02  0.93177467781E+02 0.  0.
         11    1    3    3    0    0  0.20588353542E+01 -0.45035968549E+01 -0.37032434893E+02  0.37362045207E+02  0.51100000000E-03 0. -1.
         22    1    1    0    0    0  0.21195724258E+02 -0.42577180041E+01 -0.17432386412E+02  0.27771837992E+02  0.00000000000E+00 0.  1.
</event>
<event>
 5    1  0.1282529E-003  0.9118800E+02  0.7818608E-02  0.1130116E+00
         25   -1    0    0    0    0  0.00000000000E+00  0.00000000000E+00  0.99999998245E-14  0.12500000000E+03  0.12500000000E+03 0.  0.
        -11    1    3    3    0    0 -0.28707040633E+02 -0.12425557051E+02  0.84060684002E+01  0.32390594872E+02  0.51100000000E-03 0. -1.
         23    2    1    0    0    0  0.30560315925E+02  0.33192441413E+01  0.54157934698E+01  0.93786523584E+02  0.88439984712E+02 0.  0.
         11    1    3    3    0    0  0.59267356558E+02  0.15744801193E+02 -0.29902749303E+01  0.61395928712E+02  0.51100000000E-03 0.  1.
         22    1    1    0    0    0 -0.30560315925E+02 -0.33192441413E+01 -0.54157934698E+01  0.31213476416E+02  0.00000000000E+00 0.  1.
</event>
<event>
 5    1  0.1282529E-003  0.9118800E+02  0.7818608E-02  0.1130116E+00
         25   -1    0    0    0    0  0.00000000000E+00  0.00000000000E+00  0.99999998245E-14  0.12500000000E+03  0.12500000000E+03 0.  0.
        -11    1    3    3    0    0 -0.16664989345E+02 -0.24773910772E+02 -0.15234263968E+02  0.33519417115E+02  0.51100000000E-03 0.  1.
         23    2    1    0    0    0  0.10178596721E+02  0.27621402386E+02  0.36311816540E+01  0.95339737338E+02  0.90608687964E+02 0.  0.
         11    1    3    3    0    0  0.26843586065E+02  0.52395313158E+02  0.18865445622E+02  0.61820320224E+02  0.51100000000E-03 0. -1.
         22    1    1    0    0    0 -0.10178596721E+02 -0.27621402386E+02 -0.36311816540E+01  0.29660262662E+02  0.00000000000E+00 0. -1.
</event>
<event>
 5    1  0.1282529E-003  0.9118800E+02  0.7818608E-02  0.1130116E+00
         25   -1    0    0    0    0  0.00000000000E+00  0.00000000000E+00  0.99999998245E-14  0.12500000000E+03  0.12500000000E+03 0.  0.
        -11    1    3    3    0    0  0.11413021840E+02  0.16569301670E+02 -0.28326846057E+02  0.34744913774E+02  0.51100000000E-03 0.  1.
         23    2    1    0    0    0  0.24773316573E+00 -0.16066393815E+02  0.23216811838E+02  0.96765079531E+02  0.92554145681E+02 0.  0.
         11    1    3    3    0    0 -0.11165288674E+02 -0.32635695486E+02  0.51543657895E+02  0.62020165757E+02  0.51100000000E-03 0. -1.
         22    1    1    0    0    0 -0.24773316573E+00  0.16066393815E+02 -0.23216811838E+02  0.28234920469E+02  0.00000000000E+00 0. -1.
</event>
<event>
 5    1  0.1282529E-003  0.9118800E+02  0.7818608E-02  0.1130116E+00
         25   -1    0    0    0    0  0.00000000000E+00  0.00000000000E+00  0.99999998245E-14  0.12500000000E+03  0.12500000000E+03 0.  0.
        -11    1    3    3    0    0 -0.21688368278E+02 -0.18302263022E+01  0.41391267865E+02  0.46765073534E+02  0.51100000000E-03 0. -1.
         23    2    1    0    0    0  0.15693139110E+02 -0.19500982309E+02  0.16261807340E+02  0.95150221038E+02  0.90346860817E+02 0.  0.
         11    1    3    3    0    0  0.37381507388E+02 -0.17670756007E+02 -0.25129460525E+02  0.48385147504E+02  0.51100000000E-03 0.  1.
         22    1    1    0    0    0 -0.15693139110E+02  0.19500982309E+02 -0.16261807340E+02  0.29849778962E+02  0.00000000000E+00 0.  1.
</event>
<event>
 5    1  0.1282529E-003  0.9118800E+02  0.7818608E-02  0.1130116E+00
         25   -1    0    0    0    0  0.00000000000E+00  0.00000000000E+00  0.99999998245E-14  0.12500000000E+03  0.12500000000E+03 0.  0.
        -11    1    3    3    0    0 -0.41542924513E+02 -0.16111688753E+01 -0.32460416367E+02  0.52745512351E+02  0.51100000000E-03 0.  1.
         23    2    1    0    0    0 -0.26689296376E+02 -0.10909521745E+02  0.64804995540E+01  0.95447790603E+02  0.90757631364E+02 0.  0.
         11    1    3    3    0    0  0.14853628137E+02 -0.92983528693E+01  0.38940915921E+02  0.42702278252E+02  0.51100000000E-03 0. -1.
         22    1    1    0    0    0  0.26689296376E+02  0.10909521745E+02 -0.64804995540E+01  0.29552209397E+02  0.00000000000E+00 0.  1.
</event>
<event>
 5    1  0.1282529E-003  0.9118800E+02  0.7818608E-02  0.1130116E+00
         25   -1    0    0    0    0  0.00000000000E+00  0.00000000000E+00  0.99999998245E-14  0.12500000000E+03  0.12500000000E+03 0.  0.
        -11    1    3    3    0    0 -0.55796733424E+02  0.26458638174E+02 -0.69172555597E+01  0.62138421444E+02  0.51100000000E-03 0. -1.
         23    2    1    0    0    0 -0.26323441943E+02  0.11720378630E+02  0.14896141526E+01  0.96146753714E+02  0.91715257337E+02 0.  0.
         11    1    3    3    0    0  0.29473291482E+02 -0.14738259544E+02  0.84068697122E+01  0.34008332270E+02  0.51100000000E-03 0.  1.
         22    1    1    0    0    0  0.26323441943E+02 -0.11720378630E+02 -0.14896141526E+01  0.28853246286E+02  0.00000000000E+00 0. -1.
</event>
<event>
 5    1  0.1282529E-003  0.9118800E+02  0.7818608E-02  0.1130116E+00
         25   -1    0    0    0    0  0.00000000000E+00  0.00000000000E+00  0.99999998245E-14  0.12500000000E+03  0.12500000000E+03 0.  0.
        -11    1    3    3    0    0  0.40074903405E+02  0.12956985620E+02  0.40931815210E+02  0.58730697731E+02  0.51100000000E-03 0.  1.
         23    2    1    0    0    0  0.17672790621E+02  0.19181892205E+02  0.10848758308E+02  0.96751671312E+02  0.92536035294E+02 0.  0.
         11    1    3    3    0    0 -0.22402112784E+02  0.62249065844E+01 -0.30083056902E+02  0.38020973581E+02  0.51100000000E-03 0. -1.
         22    1    1    0    0    0 -0.17672790621E+02 -0.19181892205E+02 -0.10848758308E+02  0.28248328688E+02  0.00000000000E+00 0.  1.
</event>
<event>
 5    1  0.1282529E-003  0.9118800E+02  0.7818608E-02  0.1130116E+00
         25   -1    0    0    0    0  0.00000000000E+00  0.00000000000E+00  0.99999998245E-14  0.12500000000E+03  0.12500000000E+03 0.  0.
        -11    1    3    3    0    0 -0.25950601989E+01  0.14068072793E+02 -0.28888944012E+02  0.32236874785E+02  0.51100000000E-03 0.  1.
         23    2    1    0    0    0  0.70026016795E+01 -0.31695197139E+02  0.77352426535E+01  0.91631512907E+02  0.85339781033E+02 0.  0.
         11    1    3    3    0    0  0.95976618784E+01 -0.45763269932E+02  0.36624186666E+02  0.59394638121E+02  0.51100000000E-03 0. -1.
         22    1    1    0    0    0 -0.70026016795E+01  0.31695197139E+02 -0.77352426535E+01  0.33368487093E+02  0.00000000000E+00 0. -1.
</event>
<event>
 5    1  0.1282529E-003  0.9118800E+02  0.7818608E-02  0.1130116E+00
         25   -1    0    0    0    0  0.00000000000E+00  0.00000000000E+00  0.99999998245E-14  0.12500000000E+03  0.12500000000E+03 0.  0.
        -11    1    3    3    0    0  0.25992251980E+02 -0.36733267343E+02  0.92711506009E+00  0.45008772870E+02  0.51100000000E-03 0.  1.
         23    2    1    0    0    0  0.31541355869E+01 -0.28585163619E+01 -0.29023734479E+02  0.95665773401E+02  0.91057362965E+02 0.  0.
         11    1    3    3    0    0 -0.22838116393E+02  0.33874750981E+02 -0.29950849539E+02  0.50657000531E+02  0.51100000000E-03 0. -1.
         22    1    1    0    0    0 -0.31541355869E+01  0.28585163619E+01  0.29023734479E+02  0.29334226599E+02  0.00000000000E+00 0.  1.
</event>
<event>
 5    1  0.1282529E-003  0.9118800E+02  0.7818608E-02  0.1130116E+00
         25   -1    0    0    0    0  0.00000000000E+00  0.00000000000E+00  0.99999998245E-14  0.12500000000E+03  0.12500000000E+03 0.  0.
        -11    1    3    3    0    0  0.91905336970E+01 -0.24218338551E+02 -0.52975353419E+02  0.58969330181E+02  0.51100000000E-03 0.  1.
         23    2    1    0    0    0  0.16827005920E+02 -0.16031557687E+02 -0.18265322637E+02  0.95440213445E+02  0.90747194785E+02 0.  0.
         11    1    3    3    0    0  0.76364722234E+01  0.81867808635E+01  0.34710030782E+02  0.36470883264E+02  0.51100000000E-03 0. -1.
         22    1    1    0    0    0 -0.16827005920E+02  0.16031557687E+02  0.18265322637E+02  0.29559786555E+02  0.00000000000E+00 0.  1.
</event>
<event>
 5    1  0.1282529E-003  0.9118800E+02  0.7818608E-02  0.1130116E+00
         25   -1    0    0    0    0  0.00000000000E+00  0.00000000000E+00  0.99999998245E-14  0.12500000000E+03  0.12500000000E+03 0.  0.
        -11    1    3    3    0    0 -0.16449836271E+02 -0.50590302224E+02 -0.18483384239E+02  0.56317060342E+02  0.51100000000E-03 0.  1.
         23    2    1    0    0    0 -0.20727873607E+02 -0.10365254140E+02 -0.15986477819E+02  0.96845946816E+02  0.92663297502E+02 0.  0.
         11    1    3    3    0    0 -0.42780373368E+01  0.40225048084E+02  0.24969064201E+01  0.40528886473E+02  0.51100000000E-03 0. -1.
         22    1    1    0    0    0  0.20727873607E+02  0.10365254140E+02  0.15986477819E+02  0.28154053184E+02  0.00000000000E+00 0.  1.
</event>
<event>
 5    1  0.1282529E-003  0.9118800E+02  0.7818608E-02  0.1130116E+00
         25   -1    0    0    0    0  0.00000000000E+00  0.00000000000E+00  0.99999998245E-14  0.12500000000E+03  0.12500000000E+03 0.  0.
        -11    1    3    3    0    0 -0.43200115164E+02 -0.25988902141E+01 -0.21152941419E+02  0.48171060934E+02  0.51100000000E-03 0.  1.
         23    2    1    0    0    0 -0.35481856922E-03 -0.22679456040E+02 -0.18234732782E+02  0.95899085822E+02  0.91377083864E+02 0.  0.
         11    1    3    3    0    0  0.43199760346E+02 -0.20080565825E+02  0.29182086373E+01  0.47728024888E+02  0.51100000000E-03 0. -1.
         22    1    1    0    0    0  0.35481856922E-03  0.22679456040E+02  0.18234732782E+02  0.29100914178E+02  0.00000000000E+00 0. -1.
</event>
<event>
 5    1  0.1282529E-003  0.9118800E+02  0.7818608E-02  0.1130116E+00
         25   -1    0    0    0    0  0.00000000000E+00  0.00000000000E+00  0.99999998245E-14  0.12500000000E+03  0.12500000000E+03 0.  0.
        -11    1    3    3    0    0  0.26785774683E+02  0.18730231510E+02 -0.17167992672E+02  0.36919361729E+02  0.51100000000E-03 0. -1.
         23    2    1    0    0    0 -0.22164543324E+02  0.12192257763E+02  0.14746361997E+02  0.95719062135E+02  0.91130486303E+02 0.  0.
         11    1    3    3    0    0 -0.48950318007E+02 -0.65379737470E+01  0.31914354669E+02  0.58799700406E+02  0.51100000000E-03 0.  1.
         22    1    1    0    0    0  0.22164543324E+02 -0.12192257763E+02 -0.14746361997E+02  0.29280937865E+02  0.00000000000E+00 0.  1.
</event>
<event>
 5    1  0.1282529E-003  0.9118800E+02  0.7818608E-02  0.1130116E+00
         25   -1    0    0    0    0  0.00000000000E+00  0.00000000000E+00  0.99999998245E-14  0.12500000000E+03  0.12500000000E+03 0.  0.
        -11    1    3    3    0    0  0.43702719067E+02 -0.14347134284E+02  0.38796793274E+02  0.60174405561E+02  0.51100000000E-03 0.  1.
         23    2    1    0    0    0  0.19156553816E+02 -0.17360190362E+02  0.12462313152E+02  0.96300539855E+02  0.91924615657E+02 0.  0.
         11    1    3    3    0    0 -0.24546165251E+02 -0.30130560776E+01 -0.26334480122E+02  0.36126134294E+02  0.51100000000E-03 0. -1.
         22    1    1    0    0    0 -0.19156553816E+02  0.17360190362E+02 -0.12462313152E+02  0.28699460145E+02  0.00000000000E+00 0.  1.
</event>
<event>
 5    1  0.1282529E-003  0.9118800E+02  0.7818608E-02  0.1130116E+00
         25   -1    0    0    0    0  0.00000000000E+00  0.00000000000E+00  0.99999998245E-14  0.12500000000E+03  0.12500000000E+03 0.  0.
        -11    1    3    3    0    0  0.67862146391E+01 -0.42567917393E+02  0.26730246628E+01  0.43188254901E+02  0.51100000000E-03 0.  1.
         23    2    1    0    0    0 -0.24301230888E+02 -0.14296637490E+01  0.15264474674E+02  0.96266779711E+02  0.91878696811E+02 0.  0.
         11    1    3    3    0    0 -0.31087445528E+02  0.41138253644E+02  0.12591450011E+02  0.53078524809E+02  0.51100000000E-03 0. -1.
         22    1    1    0    0    0  0.24301230888E+02  0.14296637490E+01 -0.15264474674E+02  0.28733220289E+02  0.00000000000E+00 0. -1.
</event>
<event>
 5    1  0.1282529E-003  0.9118800E+02  0.7818608E-02  0.1130116E+00
         25   -1    0    0    0    0  0.00000000000E+00  0.00000000000E+00  0.99999998245E-14  0.12500000000E+03  0.12500000000E+03 0.  0.
        -11    1    3    3    0    0  0.26414892736E+02  0.21530633127E+02  0.22340361800E+02  0.40748085681E+02  0.51100000000E-03 0. -1.
         23    2    1    0    0    0 -0.22237283859E+02  0.21487733919E+02  0.51130813040E+00  0.94072973981E+02  0.88843927734E+02 0.  0.
         11    1    3    3    0    0 -0.48652176595E+02 -0.42899207223E-01 -0.21829053670E+02  0.53324888299E+02  0.51100000000E-03 0.  1.
         22    1    1    0    0    0  0.22237283859E+02 -0.21487733919E+02 -0.51130813040E+00  0.30927026019E+02  0.00000000000E+00 0.  1.
</event>
<event>
 5    1  0.1282529E-003  0.9118800E+02  0.7818608E-02  0.1130116E+00
         25   -1    0    0    0    0  0.00000000000E+00  0.00000000000E+00  0.99999998245E-14  0.12500000000E+03  0.12500000000E+03 0.  0.
        -11    1    3    3    0    0 -0.28264178307E+02 -0.10203038492E+02 -0.15350814122E+02  0.33743344000E+02  0.51100000000E-03 0. -1.
         23    2    1    0    0    0  0.23374779453E+02  0.35103356071E+01  0.16709728157E+02  0.96053190407E+02  0.91587649832E+02 0.  0.
         11    1    3    3    0    0  0.51638957760E+02  0.13713374099E+02  0.32060542279E+02  0.62309846407E+02  0.51100000000E-03 0.  1.
         22    1    1    0    0    0 -0.23374779453E+02 -0.35103356071E+01 -0.16709728157E+02  0.28946809593E+02  0.00000000000E+00 0.  1.
</event>
<event>
 5    1  0.1282529E-003  0.9118800E+02  0.7818608E-02  0.1130116E+00
         25   -1    0    0    0    0  0.00000000000E+00  0.00000000000E+00  0.99999998245E-14  0.12500000000E+03  0.12500000000E+03 0.  0.
        -11    1    3    3    0    0 -0.21779414864E+02  0.76242813922E+01 -0.32490812889E+02  0.39851292339E+02  0.51100000000E-03 0. -1.
         23    2    1    0    0    0  0.32068464645E+01  0.34537969336E+02  0.20313182954E+01  0.90254044205E+02  0.83297725367E+02 0.  0.
         11    1    3    3    0    0  0.24986261329E+02  0.26913687944E+02  0.34522131185E+02  0.50402751866E+02  0.51100000000E-03 0.  1.
         22    1    1    0    0    0 -0.32068464645E+01 -0.34537969336E+02 -0.20313182954E+01  0.34745955795E+02  0.00000000000E+00 0.  1.
</event>
<event>
 5    1  0.1282529E-003  0.9118800E+02  0.7818608E-02  0.1130116E+00
         25   -1    0    0    0    0  0.00000000000E+00  0.00000000000E+00  0.99999998245E-14  0.12500000000E+03  0.12500000000E+03 0.  0.
        -11    1    3    3    0    0 -0.21839198742E+02 -0.37232429028E+02  0.16354001518E+02  0.46159048289E+02  0.51100000000E-03 0.  1.
         23    2    1    0    0    0 -0.62951279940E+01 -0.10048732310E+02 -0.24587239314E+02  0.97702784124E+02  0.93812024980E+02 0.  0.
         11    1    3    3    0    0  0.15544070748E+02  0.27183696718E+02 -0.40941240832E+02  0.51543735835E+02  0.51100000000E-03 0. -1.
         22    1    1    0    0    0  0.62951279940E+01  0.10048732310E+02  0.24587239314E+02  0.27297215876E+02  0.00000000000E+00 0. -1.
</event>
<event>
 5    1  0.1282529E-003  0.9118800E+02  0.7818608E-02  0.1130116E+00
         25   -1    0    0    0    0  0.00000000000E+00  0.00000000000E+00  0.99999998245E-14  0.12500000000E+03  0.12500000000E+03 0.  0.
        -11    1    3    3    0    0 -0.21130510103E+02 -0.29739676975E+02 -0.43464274231E+01  0.36740145283E+02  0.51100000000E-03 0.  1.
         23    2    1    0    0    0  0.19886921783E+01  0.13118756592E+02  0.27182216235E+02  0.94752197591E+02  0.89794484228E+02 0.  0.
         11    1    3    3    0    0  0.23119202282E+02  0.42858433566E+02  0.31528643658E+02  0.58012052309E+02  0.51100000000E-03 0. -1.
         22    1    1    0    0    0 -0.19886921783E+01 -0.13118756592E+02 -0.27182216235E+02  0.30247802409E+02  0.00000000000E+00 0. -1.
</event>
<event>
 5    1  0.1282529E-003  0.9118800E+02  0.7818608E-02  0.1130116E+00
         25   -1    0    0    0    0  0.00000000000E+00  0.00000000000E+00  0.99999998245E-14  0.12500000000E+03  0.12500000000E+03 0.  0.
        -11    1    3    3    0    0  0.22056061868E+02  0.23033867370E+02 -0.32362284637E+02  0.45435078720E+02  0.51100000000E-03 0.  1.
         23    2    1    0    0    0  0.27077154921E+02 -0.88727138861E+01  0.63043216136E+01  0.95817096763E+02  0.91264857370E+02 0.  0.
         11    1    3    3    0    0  0.50210930532E+01 -0.31906581256E+02  0.38666606250E+02  0.50382018043E+02  0.51100000000E-03 0. -1.
         22    1    1    0    0    0 -0.27077154921E+02  0.88727138861E+01 -0.63043216136E+01  0.29182903237E+02  0.00000000000E+00 0. -1.
</event>
<event>
 5    1  0.1282529E-003  0.9118800E+02  0.7818608E-02  0.1130116E+00
         25   -1    0    0    0    0  0.00000000000E+00  0.00000000000E+00  0.99999998245E-14  0.12500000000E+03  0.12500000000E+03 0.  0.
        -11    1    3    3    0    0  0.45946991752E+01 -0.61785514075E+02  0.31393275813E+00  0.61956916999E+02  0.51100000000E-03 0. -1.
         23    2    1    0    0    0 -0.18115723392E+01 -0.29175370182E+02  0.43945936502E+01  0.95439951405E+02  0.90746833836E+02 0.  0.
         11    1    3    3    0    0 -0.64062715144E+01  0.32610143893E+02  0.40806608921E+01  0.33483034406E+02  0.51100000000E-03 0.  1.
         22    1    1    0    0    0  0.18115723392E+01  0.29175370182E+02 -0.43945936502E+01  0.29560048595E+02  0.00000000000E+00 0. -1.
</event>
<event>
 5    1  0.1282529E-003  0.9118800E+02  0.7818608E-02  0.1130116E+00
         25   -1    0    0    0    0  0.00000000000E+00  0.00000000000E+00  0.99999998245E-14  0.12500000000E+03  0.12500000000E+03 0.  0.
        -11    1    3    3    0    0  0.15237784044E+02 -0.28743735828E+02 -0.19613887038E+02  0.37988116259E+02  0.51100000000E-03 0.  1.
         23    2    1    0    0    0 -0.22540237674E+02 -0.84534942066E+01  0.17930156057E+02  0.94983098512E+02  0.90115340692E+02 0.  0.
         11    1    3    3    0    0 -0.37778021717E+02  0.20290241621E+02  0.37544043095E+02  0.56994982254E+02  0.51100000000E-03 0. -1.
         22    1    1    0    0    0  0.22540237674E+02  0.84534942066E+01 -0.17930156057E+02  0.30016901488E+02  0.00000000000E+00 0. -1.
</event>
<event>
 5    1  0.1282529E-003  0.9118800E+02  0.7818608E-02  0.1130116E+00
         25   -1    0    0    0    0  0.00000000000E+00  0.00000000000E+00  0.99999998245E-14  0.12500000000E+03  0.12500000000E+03 0.  0.
        -11    1    3    3    0    0  0.13282779234E+02  0.29740905669E+02  0.15026638806E+02  0.35871347455E+02  0.51100000000E-03 0.  1.
         23    2    1    0    0    0 -0.30643342646E+02  0.30263836126E+02  0.13641889991E+02  0.79822401701E+02  0.65807297659E+02 0.  0.
         11    1    3    3    0    0 -0.43926121880E+02  0.52293045717E+00 -0.13847488151E+01  0.43951054245E+02  0.51100000000E-03 0. -1.
         22    1    1    0    0    0  0.30643342646E+02 -0.30263836126E+02 -0.13641889991E+02  0.45177598299E+02  0.00000000000E+00 0.  1.
</event>
<event>
 5    1  0.1282529E-003  0.9118800E+02  0.7818608E-02  0.1130116E+00
         25   -1    0    0    0    0  0.00000000000E+00  0.00000000000E+00  0.99999998245E-14  0.12500000000E+03  0.12500000000E+03 0.  0.
        -11    1    3    3    0    0 -0.13588501684E+02 -0.27199026136E+02  0.18468178975E+02  0.35573979756E+02  0.51100000000E-03 0.  1.
         23    2    1    0    0    0  0.15870560598E+02  0.35696758275E+01 -0.24183654047E+02  0.95854393088E+02  0.91315925621E+02 0.  0.
         11    1    3    3    0    0  0.29459062282E+02  0.30768701963E+02 -0.42651833022E+02  0.60280413332E+02  0.51100000000E-03 0. -1.
         22    1    1    0    0    0 -0.15870560598E+02 -0.35696758275E+01  0.24183654047E+02  0.29145606912E+02  0.00000000000E+00 0. -1.
</event>
<event>
 5    1  0.1282529E-003  0.9118800E+02  0.7818608E-02  0.1130116E+00
         25   -1    0    0    0    0  0.00000000000E+00  0.00000000000E+00  0.99999998245E-14  0.12500000000E+03  0.12500000000E+03 0.  0.
        -11    1    3    3    0    0  0.46171130130E+02  0.56996466167E+01  0.16097160506E+01  0.46549440545E+02  0.51100000000E-03 0. -1.
         23    2    1    0    0    0 -0.16715317191E+01  0.17937647467E+02  0.18916569828E+02  0.98877407690E+02  0.95364311576E+02 0.  0.
         11    1    3    3    0    0 -0.47842661849E+02  0.12238000851E+02  0.17306853777E+02  0.52327967145E+02  0.51100000000E-03 0.  1.
         22    1    1    0    0    0  0.16715317191E+01 -0.17937647467E+02 -0.18916569828E+02  0.26122592310E+02  0.00000000000E+00 0.  1.
</event>
<event>
 5    1  0.1282529E-003  0.9118800E+02  0.7818608E-02  0.1130116E+00
         25   -1    0    0    0    0  0.00000000000E+00  0.00000000000E+00  0.99999998245E-14  0.12500000000E+03  0.12500000000E+03 0.  0.
        -11    1    3    3    0    0  0.19010750885E+02  0.86524844902E+01  0.12730932340E+02  0.24461209609E+02  0.51100000000E-03 0. -1.
         23    2    1    0    0    0 -0.33170045594E+02  0.22211164160E+02 -0.11334906593E+02  0.83502194690E+02  0.72460669832E+02 0.  0.
         11    1    3    3    0    0 -0.52180796479E+02  0.13558679670E+02 -0.24065838933E+02  0.59040985081E+02  0.51100000000E-03 0.  1.
         22    1    1    0    0    0  0.33170045594E+02 -0.22211164160E+02  0.11334906593E+02  0.41497805310E+02  0.00000000000E+00 0.  1.
</event>
<event>
 5    1  0.1282529E-003  0.9118800E+02  0.7818608E-02  0.1130116E+00
         25   -1    0    0    0    0  0.00000000000E+00  0.00000000000E+00  0.99999998245E-14  0.12500000000E+03  0.12500000000E+03 0.  0.
        -11    1    3    3    0    0 -0.26125486652E+02 -0.20851600570E+02  0.17422480990E+02  0.37694470990E+02  0.51100000000E-03 0.  1.
         23    2    1    0    0    0  0.26152083325E+02 -0.59348046382E+01 -0.69879525689E+01  0.97287460430E+02  0.93256984229E+02 0.  0.
         11    1    3    3    0    0  0.52277569977E+02  0.14916795932E+02 -0.24410433559E+02  0.59592989439E+02  0.51100000000E-03 0. -1.
         22    1    1    0    0    0 -0.26152083325E+02  0.59348046382E+01  0.69879525689E+01  0.27712539570E+02  0.00000000000E+00 0. -1.
</event>
<event>
 5    1  0.1282529E-003  0.9118800E+02  0.7818608E-02  0.1130116E+00
         25   -1    0    0    0    0  0.00000000000E+00  0.00000000000E+00  0.99999998245E-14  0.12500000000E+03  0.12500000000E+03 0.  0.
        -11    1    3    3    0    0 -0.40571887141E+01 -0.11620764738E+02 -0.47429341097E+02  0.49000462758E+02  0.51100000000E-03 0. -1.
         23    2    1    0    0    0  0.25285526465E+02  0.48295391285E+01 -0.20820036908E+02  0.91891749764E+02  0.85720111066E+02 0.  0.
         11    1    3    3    0    0  0.29342715179E+02  0.16450303866E+02  0.26609304189E+02  0.42891287006E+02  0.51100000000E-03 0.  1.
         22    1    1    0    0    0 -0.25285526465E+02 -0.48295391285E+01  0.20820036908E+02  0.33108250236E+02  0.00000000000E+00 0. -1.
</event>
<event>
 5    1  0.1282529E-003  0.9118800E+02  0.7818608E-02  0.1130116E+00
         25   -1    0    0    0    0  0.00000000000E+00  0.00000000000E+00  0.99999998245E-14  0.12500000000E+03  0.12500000000E+03 0.  0.
        -11    1    3    3    0    0  0.25352033334E+02  0.11542696648E+02 -0.49562853121E+02  0.56854514771E+02  0.51100000000E-03 0.  1.
         23    2    1    0    0    0 -0.55483402763E+01  0.99782441285E+01 -0.28540378283E+02  0.94260731495E+02  0.89107703784E+02 0.  0.
         11    1    3    3    0    0 -0.30900373611E+02 -0.15644525197E+01  0.21022474839E+02  0.37406216723E+02  0.51100000000E-03 0. -1.
         22    1    1    0    0    0  0.55483402763E+01 -0.99782441285E+01  0.28540378283E+02  0.30739268505E+02  0.00000000000E+00 0.  1.
</event>
<event>
 5    1  0.1282529E-003  0.9118800E+02  0.7818608E-02  0.1130116E+00
         25   -1    0    0    0    0  0.00000000000E+00  0.00000000000E+00  0.99999998245E-14  0.12500000000E+03  0.12500000000E+03 0.  0.
        -11    1    3    3    0    0  0.23801290043E+02 -0.33770648644E+02 -0.45976469374E+02  0.61812570355E+02  0.51100000000E-03 0. -1.
         23    2    1    0    0    0  0.45661135687E+01 -0.17165757580E+02 -0.21713435902E+02  0.96946730581E+02  0.92799152180E+02 0.  0.
         11    1    3    3    0    0 -0.19235176475E+02  0.16604891064E+02  0.24263033472E+02  0.35134160226E+02  0.51100000000E-03 0.  1.
         22    1    1    0    0    0 -0.45661135687E+01  0.17165757580E+02  0.21713435902E+02  0.28053269419E+02  0.00000000000E+00 0. -1.
</event>
<event>
 5    1  0.1282529E-003  0.9118800E+02  0.7818608E-02  0.1130116E+00
         25   -1    0    0    0    0  0.00000000000E+00  0.00000000000E+00  0.99999998245E-14  0.12500000000E+03  0.12500000000E+03 0.  0.
        -11    1    3    3    0    0 -0.17125187006E+02 -0.34384073457E+02  0.67718025640E+00  0.38418681795E+02  0.51100000000E-03 0.  1.
         23    2    1    0    0    0  0.29136450779E+02 -0.11904133816E+01 -0.40797138418E+01  0.95555239633E+02  0.90905499879E+02 0.  0.
         11    1    3    3    0    0  0.46261637786E+02  0.33193660076E+02 -0.47568940982E+01  0.57136557838E+02  0.51100000000E-03 0. -1.
         22    1    1    0    0    0 -0.29136450779E+02  0.11904133816E+01  0.40797138418E+01  0.29444760367E+02  0.00000000000E+00 0. -1.
</event>
<event>
 5    1  0.1282529E-003  0.9118800E+02  0.7818608E-02  0.1130116E+00
         25   -1    0    0    0    0  0.00000000000E+00  0.00000000000E+00  0.99999998245E-14  0.12500000000E+03  0.12500000000E+03 0.  0.
        -11    1    3    3    0    0  0.58412913263E+02 -0.10753755684E+02  0.59385989224E+01  0.59690691524E+02  0.51100000000E-03 0.  1.
         23    2    1    0    0    0  0.36153936292E+02  0.59142019390E+01 -0.10023664056E+01  0.88351812700E+02  0.80392494518E+02 0.  0.
         11    1    3    3    0    0 -0.22258976971E+02  0.16667957623E+02 -0.69409653280E+01  0.28661121176E+02  0.51100000000E-03 0. -1.
         22    1    1    0    0    0 -0.36153936292E+02 -0.59142019390E+01  0.10023664056E+01  0.36648187300E+02  0.00000000000E+00 0.  1.
</event>
<event>
 5    1  0.1282529E-003  0.9118800E+02  0.7818608E-02  0.1130116E+00
         25   -1    0    0    0    0  0.00000000000E+00  0.00000000000E+00  0.99999998245E-14  0.12500000000E+03  0.12500000000E+03 0.  0.
        -11    1    3    3    0    0 -0.34051865834E+02 -0.18048096576E+01 -0.51097803423E+02  0.61431037917E+02  0.51100000000E-03 0. -1.
         23    2    1    0    0    0 -0.88668359530E+01 -0.79492313140E+00 -0.27999554349E+02  0.95619262665E+02  0.90993492439E+02 0.  0.
         11    1    3    3    0    0  0.25185029881E+02  0.10098865262E+01  0.23098249074E+02  0.34188224748E+02  0.51100000000E-03 0.  1.
         22    1    1    0    0    0  0.88668359530E+01  0.79492313140E+00  0.27999554349E+02  0.29380737335E+02  0.00000000000E+00 0. -1.
</event>
<event>
 5    1  0.1282529E-003  0.9118800E+02  0.7818608E-02  0.1130116E+00
         25   -1    0    0    0    0  0.00000000000E+00  0.00000000000E+00  0.99999998245E-14  0.12500000000E+03  0.12500000000E+03 0.  0.
        -11    1    3    3    0    0 -0.16146448925E+02  0.35331219990E+02  0.28793874794E+02  0.48353801761E+02  0.51100000000E-03 0. -1.
         23    2    1    0    0    0 -0.30957466430E+02 -0.37776386525E+00  0.20430056834E+02  0.87906945993E+02  0.79697782267E+02 0.  0.
         11    1    3    3    0    0 -0.14811017506E+02 -0.35708983855E+02 -0.83638179602E+01  0.39553144232E+02  0.51100000000E-03 0.  1.
         22    1    1    0    0    0  0.30957466430E+02  0.37776386525E+00 -0.20430056834E+02  0.37093054007E+02  0.00000000000E+00 0.  1.
</event>
<event>
 5    1  0.1282529E-003  0.9118800E+02  0.7818608E-02  0.1130116E+00
         25   -1    0    0    0    0  0.00000000000E+00  0.00000000000E+00  0.99999998245E-14  0.12500000000E+03  0.12500000000E+03 0.  0.
        -11    1    3    3    0    0  0.27368672552E+02 -0.19978790566E+02 -0.36941740647E+02  0.50128719433E+02  0.51100000000E-03 0. -1.
         23    2    1    0    0    0  0.16365105928E+02  0.18727551783E+02 -0.14829207636E+02  0.96044114814E+02  0.91575262508E+02 0.  0.
         11    1    3    3    0    0 -0.11003566624E+02  0.38706342349E+02  0.22112533012E+02  0.45915395380E+02  0.51100000000E-03 0.  1.
         22    1    1    0    0    0 -0.16365105928E+02 -0.18727551783E+02  0.14829207636E+02  0.28955885186E+02  0.00000000000E+00 0.  1.
</event>
<event>
 5    1  0.1282529E-003  0.9118800E+02  0.7818608E-02  0.1130116E+00
         25   -1    0    0    0    0  0.00000000000E+00  0.00000000000E+00  0.99999998245E-14  0.12500000000E+03  0.12500000000E+03 0.  0.
        -11    1    3    3    0    0  0.24321357284E+02  0.23789465110E+02  0.29935712301E+02  0.45316817426E+02  0.51100000000E-03 0. -1.
         23    2    1    0    0    0  0.24973627287E+02 -0.16468041842E+02  0.69491387545E+00  0.95077410418E+02  0.90246066975E+02 0.  0.
         11    1    3    3    0    0  0.65227000317E+00 -0.40257506952E+02 -0.29240798425E+02  0.49760592993E+02  0.51100000000E-03 0.  1.
         22    1    1    0    0    0 -0.24973627287E+02  0.16468041842E+02 -0.69491387545E+00  0.29922589582E+02  0.00000000000E+00 0.  1.
</event>
<event>
 5    1  0.1282529E-003  0.9118800E+02  0.7818608E-02  0.1130116E+00
         25   -1    0    0    0    0  0.00000000000E+00  0.00000000000E+00  0.99999998245E-14  0.12500000000E+03  0.12500000000E+03 0.  0.
        -11    1    3    3    0    0  0.34783590204E+01  0.59046740441E+02 -0.69440848317E+01  0.59555325981E+02  0.51100000000E-03 0.  1.
         23    2    1    0    0    0 -0.11568607228E+02  0.24138839563E+02  0.18857463768E+00  0.98231514629E+02  0.94513907216E+02 0.  0.
         11    1    3    3    0    0 -0.15046966249E+02 -0.34907900878E+02  0.71326594694E+01  0.38676188649E+02  0.51100000000E-03 0. -1.
         22    1    1    0    0    0  0.11568607228E+02 -0.24138839563E+02 -0.18857463768E+00  0.26768485371E+02  0.00000000000E+00 0.  1.
</event>
<event>
 5    1  0.1282529E-003  0.9118800E+02  0.7818608E-02  0.1130116E+00
         25   -1    0    0    0    0  0.00000000000E+00  0.00000000000E+00  0.99999998245E-14  0.12500000000E+03  0.12500000000E+03 0.  0.
        -11    1    3    3    0    0 -0.18805721852E+01 -0.25113981996E+02  0.35602762058E+02  0.43609692843E+02  0.51100000000E-03 0. -1.
         23    2    1    0    0    0 -0.29094440752E+02 -0.16640881135E+01 -0.22202014103E+01  0.95773557072E+02  0.91205204171E+02 0.  0.
         11    1    3    3    0    0 -0.27213868567E+02  0.23449893882E+02 -0.37822963468E+02  0.52163864229E+02  0.51100000000E-03 0.  1.
         22    1    1    0    0    0  0.29094440752E+02  0.16640881135E+01  0.22202014103E+01  0.29226442928E+02  0.00000000000E+00 0.  1.
</event>
<event>
 5    1  0.1282529E-003  0.9118800E+02  0.7818608E-02  0.1130116E+00
         25   -1    0    0    0    0  0.00000000000E+00  0.00000000000E+00  0.99999998245E-14  0.12500000000E+03  0.12500000000E+03 0.  0.
        -11    1    3    3    0    0  0.28265751101E+01  0.27811777584E+02 -0.17206589438E+02  0.32826075300E+02  0.51100000000E-03 0.  1.
         23    2    1    0    0    0 -0.16395348183E+02 -0.21584925415E+02  0.14162166713E+02  0.94417596347E+02  0.89327482259E+02 0.  0.
         11    1    3    3    0    0 -0.19221923293E+02 -0.49396702999E+02  0.31368756150E+02  0.61591521047E+02  0.51100000000E-03 0. -1.
         22    1    1    0    0    0  0.16395348183E+02  0.21584925415E+02 -0.14162166713E+02  0.30582403653E+02  0.00000000000E+00 0. -1.
</event>
<event>
 5    1  0.1282529E-003  0.9118800E+02  0.7818608E-02  0.1130116E+00
         25   -1    0    0    0    0  0.00000000000E+00  0.00000000000E+00  0.99999998245E-14  0.12500000000E+03  0.12500000000E+03 0.  0.
        -11    1    3    3    0    0  0.17359923891E+02  0.26137340292E+02  0.15407270360E+01  0.31414986154E+02  0.51100000000E-03 0.  1.
         23    2    1    0    0    0  0.61121798754E+01 -0.32732833395E+02 -0.32611795860E+01  0.91542079904E+02  0.85208684862E+02 0.  0.
         11    1    3    3    0    0 -0.11247744015E+02 -0.58870173686E+02 -0.48019066221E+01  0.60127093749E+02  0.51100000000E-03 0. -1.
         22    1    1    0    0    0 -0.61121798754E+01  0.32732833395E+02  0.32611795860E+01  0.33457920096E+02  0.00000000000E+00 0. -1.
</event>
<event>
 5    1  0.1282529E-003  0.9118800E+02  0.7818608E-02  0.1130116E+00
         25   -1    0    0    0    0  0.00000000000E+00  0.00000000000E+00  0.99999998245E-14  0.12500000000E+03  0.12500000000E+03 0.  0.
        -11    1    3    3    0    0  0.45040830189E+01 -0.44302263026E+02  0.30433201925E+02  0.53936602162E+02  0.51100000000E-03 0.  1.
         23    2    1    0    0    0 -0.95651980771E+01 -0.48121981388E+01  0.26947969016E+02  0.96002701863E+02  0.91518716478E+02 0.  0.
         11    1    3    3    0    0 -0.14069281096E+02  0.39490064888E+02 -0.34852329088E+01  0.42066099701E+02  0.51100000000E-03 0. -1.
         22    1    1    0    0    0  0.95651980771E+01  0.48121981388E+01 -0.26947969016E+02  0.28997298137E+02  0.00000000000E+00 0.  1.
</event>
<event>
 5    1  0.1282529E-003  0.9118800E+02  0.7818608E-02  0.1130116E+00
         25   -1    0    0    0    0  0.00000000000E+00  0.00000000000E+00  0.99999998245E-14  0.12500000000E+03  0.12500000000E+03 0.  0.
        -11    1    3    3    0    0 -0.35207325206E+02 -0.14166139583E+02  0.17969093705E+02  0.41989565224E+02  0.51100000000E-03 0. -1.
         23    2    1    0    0    0  0.18107698047E+02 -0.54945489541E+01  0.21790150016E+02  0.96140176118E+02  0.91706292202E+02 0.  0.
         11    1    3    3    0    0  0.53315023254E+02  0.86715906284E+01  0.38210563112E+01  0.54150610894E+02  0.51100000000E-03 0.  1.
         22    1    1    0    0    0 -0.18107698047E+02  0.54945489541E+01 -0.21790150016E+02  0.28859823882E+02  0.00000000000E+00 0.  1.
</event>
<event>
 5    1  0.1282529E-003  0.9118800E+02  0.7818608E-02  0.1130116E+00
         25   -1    0    0    0    0  0.00000000000E+00  0.00000000000E+00  0.99999998245E-14  0.12500000000E+03  0.12500000000E+03 0.  0.
        -11    1    3    3    0    0 -0.12001468960E+02  0.29519827869E+02 -0.21622530690E+02  0.38509600469E+02  0.51100000000E-03 0.  1.
         23    2    1    0    0    0  0.12335556892E+02  0.51682537465E+01  0.25107428955E+02  0.96552508031E+02  0.92266608303E+02 0.  0.
         11    1    3    3    0    0  0.24337025853E+02 -0.24351574122E+02  0.46729959645E+02  0.58042907562E+02  0.51100000000E-03 0. -1.
         22    1    1    0    0    0 -0.12335556892E+02 -0.51682537465E+01 -0.25107428955E+02  0.28447491969E+02  0.00000000000E+00 0. -1.
</event>
<event>
 5    1  0.1282529E-003  0.9118800E+02  0.7818608E-02  0.1130116E+00
         25   -1    0    0    0    0  0.00000000000E+00  0.00000000000E+00  0.99999998245E-14  0.12500000000E+03  0.12500000000E+03 0.  0.
        -11    1    3    3    0    0 -0.11510797785E+02 -0.57096923498E+02  0.10994051767E+01  0.58256036859E+02  0.51100000000E-03 0.  1.
         23    2    1    0    0    0  0.92019218679E+01 -0.24435923730E+02  0.83119288432E+01  0.97597848703E+02  0.93672099238E+02 0.  0.
         11    1    3    3    0    0  0.20712719653E+02  0.32660999768E+02  0.72125236665E+01  0.39341811844E+02  0.51100000000E-03 0. -1.
         22    1    1    0    0    0 -0.92019218679E+01  0.24435923730E+02 -0.83119288432E+01  0.27402151297E+02  0.00000000000E+00 0.  1.
</event>
<event>
 5    1  0.1282529E-003  0.9118800E+02  0.7818608E-02  0.1130116E+00
         25   -1    0    0    0    0  0.00000000000E+00  0.00000000000E+00  0.99999998245E-14  0.12500000000E+03  0.12500000000E+03 0.  0.
        -11    1    3    3    0    0 -0.89187833758E+01 -0.15371738196E+02  0.34240651957E+02  0.38577937721E+02  0.51100000000E-03 0.  1.
         23    2    1    0    0    0  0.13766969718E+02  0.26490719368E+02  0.42639384070E+01  0.94842598942E+02  0.89920240966E+02 0.  0.
         11    1    3    3    0    0  0.22685753094E+02  0.41862457564E+02 -0.29976713550E+02  0.56264661221E+02  0.51100000000E-03 0. -1.
         22    1    1    0    0    0 -0.13766969718E+02 -0.26490719368E+02 -0.42639384070E+01  0.30157401058E+02  0.00000000000E+00 0. -1.
</event>
<event>
 5    1  0.1282529E-003  0.9118800E+02  0.7818608E-02  0.1130116E+00
         25   -1    0    0    0    0  0.00000000000E+00  0.00000000000E+00  0.99999998245E-14  0.12500000000E+03  0.12500000000E+03 0.  0.
        -11    1    3    3    0    0  0.29979986791E+02 -0.31932096481E+01  0.47810274438E+02  0.56522725854E+02  0.51100000000E-03 0.  1.
         23    2    1    0    0    0  0.26988633795E+02 -0.18678364278E+02  0.27901824826E+02  0.81921241025E+02  0.69680056373E+02 0.  0.
         11    1    3    3    0    0 -0.29913529962E+01 -0.15485154630E+02 -0.19908449612E+02  0.25398515171E+02  0.51100000000E-03 0. -1.
         22    1    1    0    0    0 -0.26988633795E+02  0.18678364278E+02 -0.27901824826E+02  0.43078758975E+02  0.00000000000E+00 0.  1.
</event>
<event>
 5    1  0.1282529E-003  0.9118800E+02  0.7818608E-02  0.1130116E+00
         25   -1    0    0    0    0  0.00000000000E+00  0.00000000000E+00  0.99999998245E-14  0.12500000000E+03  0.12500000000E+03 0.  0.
        -11    1    3    3    0    0 -0.36329452628E+02 -0.54004661632E+01  0.34234407589E+02  0.50209449572E+02  0.51100000000E-03 0. -1.
         23    2    1    0    0    0  0.74587900059E+01 -0.91094136349E+01  0.28039524608E+02  0.94588983816E+02  0.89566991431E+02 0.  0.
         11    1    3    3    0    0  0.43788242634E+02 -0.37089474717E+01 -0.61948829816E+01  0.44379534244E+02  0.51100000000E-03 0.  1.
         22    1    1    0    0    0 -0.74587900059E+01  0.91094136349E+01 -0.28039524608E+02  0.30411016184E+02  0.00000000000E+00 0. -1.
</event>
<event>
 5    1  0.1282529E-003  0.9118800E+02  0.7818608E-02  0.1130116E+00
         25   -1    0    0    0    0  0.00000000000E+00  0.00000000000E+00  0.99999998245E-14  0.12500000000E+03  0.12500000000E+03 0.  0.
        -11    1    3    3    0    0 -0.39497471695E+02  0.42478425664E+01 -0.14807531468E+02  0.42395252390E+02  0.51100000000E-03 0.  1.
         23    2    1    0    0    0 -0.52916034312E+01 -0.75682808122E+01  0.26278131290E+02  0.97146452193E+02  0.93067787382E+02 0.  0.
         11    1    3    3    0    0  0.34205868264E+02 -0.11816123379E+02  0.41085662758E+02  0.54751199803E+02  0.51100000000E-03 0. -1.
         22    1    1    0    0    0  0.52916034312E+01  0.75682808122E+01 -0.26278131290E+02  0.27853547807E+02  0.00000000000E+00 0. -1.
</event>
<event>
 5    1  0.1282529E-003  0.9118800E+02  0.7818608E-02  0.1130116E+00
         25   -1    0    0    0    0  0.00000000000E+00  0.00000000000E+00  0.99999998245E-14  0.12500000000E+03  0.12500000000E+03 0.  0.
        -11    1    3    3    0    0  0.13800945260E+02 -0.56307097523E+02  0.18572637536E+02  0.60876088794E+02  0.51100000000E-03 0. -1.
         23    2    1    0    0    0 -0.28081349033E+01 -0.27010349566E+02  0.12536222576E+02  0.95090110636E+02  0.90263656357E+02 0.  0.
         11    1    3    3    0    0 -0.16609080163E+02  0.29296747958E+02 -0.60364149601E+01  0.34214021842E+02  0.51100000000E-03 0.  1.
         22    1    1    0    0    0  0.28081349033E+01  0.27010349566E+02 -0.12536222576E+02  0.29909889364E+02  0.00000000000E+00 0. -1.
</event>
<event>
 5    1  0.1282529E-003  0.9118800E+02  0.7818608E-02  0.1130116E+00
         25   -1    0    0    0    0  0.00000000000E+00  0.00000000000E+00  0.99999998245E-14  0.12500000000E+03  0.12500000000E+03 0.  0.
        -11    1    3    3    0    0  0.32218447603E+02 -0.80316166254E+01 -0.24352608598E+01  0.33293628929E+02  0.51100000000E-03 0.  1.
         23    2    1    0    0    0 -0.28694610174E+02 -0.79409491693E+01  0.55053777839E+01  0.94722144869E+02  0.89752639055E+02 0.  0.
         11    1    3    3    0    0 -0.60913057777E+02  0.90667456122E-01  0.79406386437E+01  0.61428515941E+02  0.51100000000E-03 0. -1.
         22    1    1    0    0    0  0.28694610174E+02  0.79409491693E+01 -0.55053777839E+01  0.30277855131E+02  0.00000000000E+00 0. -1.
</event>
<event>
 5    1  0.1282529E-003  0.9118800E+02  0.7818608E-02  0.1130116E+00
         25   -1    0    0    0    0  0.00000000000E+00  0.00000000000E+00  0.99999998245E-14  0.12500000000E+03  0.12500000000E+03 0.  0.
        -11    1    3    3    0    0 -0.88996283963E+01  0.85602203414E+01 -0.32650195028E+02  0.34907248438E+02  0.51100000000E-03 0.  1.
         23    2    1    0    0    0  0.29608401414E+02  0.41040516210E+01  0.10874305885E+02  0.93191963241E+02  0.87595609537E+02 0.  0.
         11    1    3    3    0    0  0.38508029810E+02 -0.44561687205E+01  0.43524500914E+02  0.58284714802E+02  0.51100000000E-03 0. -1.
         22    1    1    0    0    0 -0.29608401414E+02 -0.41040516210E+01 -0.10874305885E+02  0.31808036759E+02  0.00000000000E+00 0. -1.
</event>
<event>
 5    1  0.1282529E-003  0.9118800E+02  0.7818608E-02  0.1130116E+00
         25   -1    0    0    0    0  0.00000000000E+00  0.00000000000E+00  0.99999998245E-14  0.12500000000E+03  0.12500000000E+03 0.  0.
        -11    1    3    3    0    0  0.38553685491E+02 -0.98923819208E+01  0.45837405421E+02  0.60706783978E+02  0.51100000000E-03 0. -1.
         23    2    1    0    0    0  0.95430185027E+01 -0.82223244701E+01  0.26633673699E+02  0.95537678358E+02  0.90881348964E+02 0.  0.
         11    1    3    3    0    0 -0.29010666988E+02  0.16700574507E+01 -0.19203731722E+02  0.34830894380E+02  0.51100000000E-03 0.  1.
         22    1    1    0    0    0 -0.95430185027E+01  0.82223244701E+01 -0.26633673699E+02  0.29462321642E+02  0.00000000000E+00 0. -1.
</event>
<event>
 5    1  0.1282529E-003  0.9118800E+02  0.7818608E-02  0.1130116E+00
         25   -1    0    0    0    0  0.00000000000E+00  0.00000000000E+00  0.99999998245E-14  0.12500000000E+03  0.12500000000E+03 0.  0.
        -11    1    3    3    0    0 -0.22927644213E+02  0.38635435521E+02  0.39611748305E+02  0.59895445161E+02  0.51100000000E-03 0.  1.
         23    2    1    0    0    0 -0.19654301794E+02  0.90004524883E+01  0.19739415449E+02  0.95726389935E+02  0.91140536995E+02 0.  0.
         11    1    3    3    0    0  0.32733424190E+01 -0.29634983033E+02 -0.19872332856E+02  0.35830944773E+02  0.51100000000E-03 0. -1.
         22    1    1    0    0    0  0.19654301794E+02 -0.90004524883E+01 -0.19739415449E+02  0.29273610065E+02  0.00000000000E+00 0.  1.
</event>
<event>
 5    1  0.1282529E-003  0.9118800E+02  0.7818608E-02  0.1130116E+00
         25   -1    0    0    0    0  0.00000000000E+00  0.00000000000E+00  0.99999998245E-14  0.12500000000E+03  0.12500000000E+03 0.  0.
        -11    1    3    3    0    0 -0.38901281871E+02  0.11957848919E+02  0.21569575099E+02  0.46060248069E+02  0.51100000000E-03 0. -1.
         23    2    1    0    0    0 -0.17694583711E+02 -0.23588805594E+02 -0.47798010884E+01  0.95127327865E+02  0.90315181261E+02 0.  0.
         11    1    3    3    0    0  0.21206698160E+02 -0.35546654513E+02 -0.26349376187E+02  0.49067079795E+02  0.51100000000E-03 0.  1.
         22    1    1    0    0    0  0.17694583711E+02  0.23588805594E+02  0.47798010884E+01  0.29872672135E+02  0.00000000000E+00 0. -1.
</event>
<event>
 5    1  0.1282529E-003  0.9118800E+02  0.7818608E-02  0.1130116E+00
         25   -1    0    0    0    0  0.00000000000E+00  0.00000000000E+00  0.99999998245E-14  0.12500000000E+03  0.12500000000E+03 0.  0.
        -11    1    3    3    0    0 -0.36520900174E+01 -0.15677395311E+02  0.36760411300E+02  0.40130366612E+02  0.51100000000E-03 0.  1.
         23    2    1    0    0    0 -0.24115438494E+01 -0.20263935581E+02 -0.19608511524E+02  0.96699181052E+02  0.92465102946E+02 0.  0.
         11    1    3    3    0    0  0.12405461679E+01 -0.45865402692E+01 -0.56368922824E+02  0.56568814439E+02  0.51100000000E-03 0. -1.
         22    1    1    0    0    0  0.24115438494E+01  0.20263935581E+02  0.19608511524E+02  0.28300818948E+02  0.00000000000E+00 0. -1.
</event>
<event>
 5    1  0.1282529E-003  0.9118800E+02  0.7818608E-02  0.1130116E+00
         25   -1    0    0    0    0  0.00000000000E+00  0.00000000000E+00  0.99999998245E-14  0.12500000000E+03  0.12500000000E+03 0.  0.
        -11    1    3    3    0    0  0.72927879114E+01 -0.12899941499E+02 -0.30274733077E+02  0.33706864424E+02  0.51100000000E-03 0.  1.
         23    2    1    0    0    0  0.52397314394E+01  0.26515852563E+01  0.29199934246E+02  0.95215409187E+02  0.90437007340E+02 0.  0.
         11    1    3    3    0    0 -0.20530564720E+01  0.15551526755E+02  0.59474667323E+02  0.61508544762E+02  0.51100000000E-03 0. -1.
         22    1    1    0    0    0 -0.52397314394E+01 -0.26515852563E+01 -0.29199934246E+02  0.29784590813E+02  0.00000000000E+00 0. -1.
</event>
<event>
 5    1  0.1282529E-003  0.9118800E+02  0.7818608E-02  0.1130116E+00
         25   -1    0    0    0    0  0.00000000000E+00  0.00000000000E+00  0.99999998245E-14  0.12500000000E+03  0.12500000000E+03 0.  0.
        -11    1    3    3    0    0 -0.58082042300E+02 -0.52158580334E+01  0.16341251034E+02  0.60562078056E+02  0.51100000000E-03 0.  1.
         23    2    1    0    0    0 -0.28036620872E+02  0.77593057458E+01  0.35776358286E+01  0.95690301712E+02  0.91091028253E+02 0.  0.
         11    1    3    3    0    0  0.30045421428E+02  0.12975163779E+02 -0.12763615205E+02  0.35128223657E+02  0.51100000000E-03 0. -1.
         22    1    1    0    0    0  0.28036620872E+02 -0.77593057458E+01 -0.35776358286E+01  0.29309698288E+02  0.00000000000E+00 0.  1.
</event>
<event>
 5    1  0.1282529E-003  0.9118800E+02  0.7818608E-02  0.1130116E+00
         25   -1    0    0    0    0  0.00000000000E+00  0.00000000000E+00  0.99999998245E-14  0.12500000000E+03  0.12500000000E+03 0.  0.
        -11    1    3    3    0    0  0.19468044236E+02 -0.29566709209E+02 -0.17726916371E+02  0.39590890418E+02  0.51100000000E-03 0.  1.
         23    2    1    0    0    0  0.11492463221E+02  0.24786401095E+02 -0.13042602789E+02  0.94725392196E+02  0.89757161548E+02 0.  0.
         11    1    3    3    0    0 -0.79755810150E+01  0.54353110305E+02  0.46843135815E+01  0.55134501778E+02  0.51100000000E-03 0. -1.
         22    1    1    0    0    0 -0.11492463221E+02 -0.24786401095E+02  0.13042602789E+02  0.30274607804E+02  0.00000000000E+00 0. -1.
</event>
<event>
 5    1  0.1282529E-003  0.9118800E+02  0.7818608E-02  0.1130116E+00
         25   -1    0    0    0    0  0.00000000000E+00  0.00000000000E+00  0.99999998245E-14  0.12500000000E+03  0.12500000000E+03 0.  0.
        -11    1    3    3    0    0 -0.34075965888E+02 -0.56497488791E+01  0.35929013696E+02  0.49839594090E+02  0.51100000000E-03 0.  1.
         23    2    1    0    0    0  0.65386887773E+01  0.12098834399E+02  0.26483952289E+02  0.95158150634E+02  0.90357831196E+02 0.  0.
         11    1    3    3    0    0  0.40614654665E+02  0.17748583278E+02 -0.94450614077E+01  0.45318556544E+02  0.51100000000E-03 0. -1.
         22    1    1    0    0    0 -0.65386887773E+01 -0.12098834399E+02 -0.26483952289E+02  0.29841849366E+02  0.00000000000E+00 0. -1.
</event>
<event>
 5    1  0.1282529E-003  0.9118800E+02  0.7818608E-02  0.1130116E+00
         25   -1    0    0    0    0  0.00000000000E+00  0.00000000000E+00  0.99999998245E-14  0.12500000000E+03  0.12500000000E+03 0.  0.
        -11    1    3    3    0    0 -0.29708691711E+02 -0.18471347117E+02 -0.24619029391E+02  0.42777256059E+02  0.51100000000E-03 0. -1.
         23    2    1    0    0    0  0.20060654291E+02 -0.62959783152E+01 -0.22712383418E+02  0.94049692182E+02  0.88811165095E+02 0.  0.
         11    1    3    3    0    0  0.49769346002E+02  0.12175368801E+02  0.19066459735E+01  0.51272436123E+02  0.51100000000E-03 0.  1.
         22    1    1    0    0    0 -0.20060654291E+02  0.62959783152E+01  0.22712383418E+02  0.30950307818E+02  0.00000000000E+00 0.  1.
</event>
<event>
 5    1  0.1282529E-003  0.9118800E+02  0.7818608E-02  0.1130116E+00
         25   -1    0    0    0    0  0.00000000000E+00  0.00000000000E+00  0.99999998245E-14  0.12500000000E+03  0.12500000000E+03 0.  0.
        -11    1    3    3    0    0  0.38440494767E+02  0.48906514410E+01 -0.34201272547E+02  0.51684786481E+02  0.51100000000E-03 0. -1.
         23    2    1    0    0    0  0.19342573677E+01  0.23148687824E+02 -0.18052784930E+02  0.95580514225E+02  0.90940247175E+02 0.  0.
         11    1    3    3    0    0 -0.36506237400E+02  0.18258036383E+02  0.16148487617E+02  0.43895727745E+02  0.51100000000E-03 0.  1.
         22    1    1    0    0    0 -0.19342573677E+01 -0.23148687824E+02  0.18052784930E+02  0.29419485775E+02  0.00000000000E+00 0. -1.
</event>
<event>
 5    1  0.1282529E-003  0.9118800E+02  0.7818608E-02  0.1130116E+00
         25   -1    0    0    0    0  0.00000000000E+00  0.00000000000E+00  0.99999998245E-14  0.12500000000E+03  0.12500000000E+03 0.  0.
        -11    1    3    3    0    0 -0.72659071183E+01 -0.60833063863E+02 -0.65943400265E+01  0.61619318285E+02  0.51100000000E-03 0. -1.
         23    2    1    0    0    0  0.67341770027E+00 -0.29683392219E+02  0.29784855381E+01  0.95159949043E+02  0.90360319061E+02 0.  0.
         11    1    3    3    0    0  0.79393248185E+01  0.31149671644E+02  0.95728255646E+01  0.33540630758E+02  0.51100000000E-03 0.  1.
         22    1    1    0    0    0 -0.67341770027E+00  0.29683392219E+02 -0.29784855381E+01  0.29840050957E+02  0.00000000000E+00 0. -1.
</event>
<event>
 5    1  0.1282529E-003  0.9118800E+02  0.7818608E-02  0.1130116E+00
         25   -1    0    0    0    0  0.00000000000E+00  0.00000000000E+00  0.99999998245E-14  0.12500000000E+03  0.12500000000E+03 0.  0.
        -11    1    3    3    0    0  0.49175540109E+02 -0.66979985322E+00 -0.23163571306E+02  0.54362058578E+02  0.51100000000E-03 0. -1.
         23    2    1    0    0    0  0.16913307401E+02 -0.20956087168E+02 -0.17481802782E+02  0.92893443268E+02  0.87168577005E+02 0.  0.
         11    1    3    3    0    0 -0.32262232708E+02 -0.20286287315E+02  0.56817685243E+01  0.38531384691E+02  0.51100000000E-03 0.  1.
         22    1    1    0    0    0 -0.16913307401E+02  0.20956087168E+02  0.17481802782E+02  0.32106556732E+02  0.00000000000E+00 0. -1.
</event>
<event>
 5    1  0.1282529E-003  0.9118800E+02  0.7818608E-02  0.1130116E+00
         25   -1    0    0    0    0  0.00000000000E+00  0.00000000000E+00  0.99999998245E-14  0.12500000000E+03  0.12500000000E+03 0.  0.
        -11    1    3    3    0    0 -0.45072030312E+02 -0.37970699219E+02 -0.19991898591E+02  0.62232932802E+02  0.51100000000E-03 0.  1.
         23    2    1    0    0    0 -0.21393275797E+02 -0.16704593922E+02 -0.13378948149E+02  0.94739267012E+02  0.89776482182E+02 0.  0.
         11    1    3    3    0    0  0.23678754515E+02  0.21266105298E+02  0.66129504426E+01  0.32506334210E+02  0.51100000000E-03 0. -1.
         22    1    1    0    0    0  0.21393275797E+02  0.16704593922E+02  0.13378948149E+02  0.30260732988E+02  0.00000000000E+00 0.  1.
</event>
<event>
 5    1  0.1282529E-003  0.9118800E+02  0.7818608E-02  0.1130116E+00
         25   -1    0    0    0    0  0.00000000000E+00  0.00000000000E+00  0.99999998245E-14  0.12500000000E+03  0.12500000000E+03 0.  0.
        -11    1    3    3    0    0  0.94672074796E+00 -0.42542558307E+02 -0.32907832650E+02  0.53793038559E+02  0.51100000000E-03 0.  1.
         23    2    1    0    0    0 -0.89559676729E+01 -0.25774115685E+01 -0.28277561441E+02  0.95226305429E+02  0.90452066628E+02 0.  0.
         11    1    3    3    0    0 -0.99026884209E+01  0.39965146738E+02  0.46302712089E+01  0.41433266870E+02  0.51100000000E-03 0. -1.
         22    1    1    0    0    0  0.89559676729E+01  0.25774115685E+01  0.28277561441E+02  0.29773694571E+02  0.00000000000E+00 0.  1.
</event>
<event>
 5    1  0.1282529E-003  0.9118800E+02  0.7818608E-02  0.1130116E+00
         25   -1    0    0    0    0  0.00000000000E+00  0.00000000000E+00  0.99999998245E-14  0.12500000000E+03  0.12500000000E+03 0.  0.
        -11    1    3    3    0    0 -0.33446114710E+02  0.72817097283E+01 -0.22258734614E+02  0.40830345977E+02  0.51100000000E-03 0.  1.
         23    2    1    0    0    0  0.21961336593E+02  0.97287390607E+01 -0.14788814142E+02  0.96792595079E+02  0.92591299644E+02 0.  0.
         11    1    3    3    0    0  0.55407451302E+02  0.24470293324E+01  0.74699204717E+01  0.55962249102E+02  0.51100000000E-03 0. -1.
         22    1    1    0    0    0 -0.21961336593E+02 -0.97287390607E+01  0.14788814142E+02  0.28207404921E+02  0.00000000000E+00 0. -1.
</event>
<event>
 5    1  0.1282529E-003  0.9118800E+02  0.7818608E-02  0.1130116E+00
         25   -1    0    0    0    0  0.00000000000E+00  0.00000000000E+00  0.99999998245E-14  0.12500000000E+03  0.12500000000E+03 0.  0.
        -11    1    3    3    0    0 -0.31695598795E+01  0.22253378853E+02 -0.23411618689E+02  0.32455552223E+02  0.51100000000E-03 0. -1.
         23    2    1    0    0    0 -0.33849187257E+01 -0.13259027105E+02  0.27356491723E+02  0.94411814145E+02  0.89319390595E+02 0.  0.
         11    1    3    3    0    0 -0.21535884620E+00 -0.35512405957E+02  0.50768110412E+02  0.61956261922E+02  0.51100000000E-03 0.  1.
         22    1    1    0    0    0  0.33849187257E+01  0.13259027105E+02 -0.27356491723E+02  0.30588185855E+02  0.00000000000E+00 0.  1.
</event>
<event>
 5    1  0.1282529E-003  0.9118800E+02  0.7818608E-02  0.1130116E+00
         25   -1    0    0    0    0  0.00000000000E+00  0.00000000000E+00  0.99999998245E-14  0.12500000000E+03  0.12500000000E+03 0.  0.
        -11    1    3    3    0    0 -0.35019676433E+02 -0.48220804076E+02  0.56036929663E+01  0.59858375006E+02  0.51100000000E-03 0. -1.
         23    2    1    0    0    0 -0.25758179556E+02 -0.15228580669E+02  0.74085688473E+01  0.94173382028E+02  0.88985085868E+02 0.  0.
         11    1    3    3    0    0  0.92614968773E+01  0.32992223406E+02  0.18048758809E+01  0.34315007022E+02  0.51100000000E-03 0.  1.
         22    1    1    0    0    0  0.25758179556E+02  0.15228580669E+02 -0.74085688473E+01  0.30826617972E+02  0.00000000000E+00 0. -1.
</event>
<event>
 5    1  0.1282529E-003  0.9118800E+02  0.7818608E-02  0.1130116E+00
         25   -1    0    0    0    0  0.00000000000E+00  0.00000000000E+00  0.99999998245E-14  0.12500000000E+03  0.12500000000E+03 0.  0.
        -11    1    3    3    0    0  0.26376164219E+02 -0.12930027479E+02  0.19215849847E+02  0.35101802448E+02  0.51100000000E-03 0.  1.
         23    2    1    0    0    0 -0.15544817827E+02  0.19484774173E+02 -0.12764890766E+02  0.96995710648E+02  0.92865104652E+02 0.  0.
         11    1    3    3    0    0 -0.41920982046E+02  0.32414801652E+02 -0.31980740613E+02  0.61893908200E+02  0.51100000000E-03 0. -1.
         22    1    1    0    0    0  0.15544817827E+02 -0.19484774173E+02  0.12764890766E+02  0.28004289352E+02  0.00000000000E+00 0. -1.
</event>
<event>
 5    1  0.1282529E-003  0.9118800E+02  0.7818608E-02  0.1130116E+00
         25   -1    0    0    0    0  0.00000000000E+00  0.00000000000E+00  0.99999998245E-14  0.12500000000E+03  0.12500000000E+03 0.  0.
        -11    1    3    3    0    0 -0.93354641367E+01  0.13742030695E+02 -0.51074655640E+02  0.53708609619E+02  0.51100000000E-03 0.  1.
         23    2    1    0    0    0  0.14369025444E+02  0.19718035874E+02 -0.18787316076E+02  0.94206606613E+02  0.89031745199E+02 0.  0.
         11    1    3    3    0    0  0.23704489581E+02  0.59760051791E+01  0.32287339563E+02  0.40497996994E+02  0.51100000000E-03 0. -1.
         22    1    1    0    0    0 -0.14369025444E+02 -0.19718035874E+02  0.18787316076E+02  0.30793393387E+02  0.00000000000E+00 0. -1.
</event>
<event>
 5    1  0.1282529E-003  0.9118800E+02  0.7818608E-02  0.1130116E+00
         25   -1    0    0    0    0  0.00000000000E+00  0.00000000000E+00  0.99999998245E-14  0.12500000000E+03  0.12500000000E+03 0.  0.
        -11    1    3    3    0    0 -0.19853993860E+02  0.29412257757E+02 -0.21320168911E+02  0.41398207464E+02  0.51100000000E-03 0. -1.
         23    2    1    0    0    0 -0.17360914014E+02  0.25384088949E+01  0.24672496593E+02  0.94724978229E+02  0.89756585035E+02 0.  0.
         11    1    3    3    0    0  0.24930798461E+01 -0.26873848862E+02  0.45992665504E+02  0.53326770765E+02  0.51100000000E-03 0.  1.
         22    1    1    0    0    0  0.17360914014E+02 -0.25384088949E+01 -0.24672496593E+02  0.30275021771E+02  0.00000000000E+00 0.  1.
</event>
<event>
 5    1  0.1282529E-003  0.9118800E+02  0.7818608E-02  0.1130116E+00
         25   -1    0    0    0    0  0.00000000000E+00  0.00000000000E+00  0.99999998245E-14  0.12500000000E+03  0.12500000000E+03 0.  0.
        -11    1    3    3    0    0  0.50591127463E+01  0.43467197538E+02 -0.16507028545E+01  0.43791742416E+02  0.51100000000E-03 0.  1.
         23    2    1    0    0    0 -0.38450413616E+01  0.47804789379E+01  0.29885299649E+02  0.94491501888E+02  0.89430841839E+02 0.  0.
         11    1    3    3    0    0 -0.89041541079E+01 -0.38686718601E+02  0.31536002503E+02  0.50699759473E+02  0.51100000000E-03 0. -1.
         22    1    1    0    0    0  0.38450413616E+01 -0.47804789379E+01 -0.29885299649E+02  0.30508498112E+02  0.00000000000E+00 0. -1.
</event>
<event>
 5    1  0.1282529E-003  0.9118800E+02  0.7818608E-02  0.1130116E+00
         25   -1    0    0    0    0  0.00000000000E+00  0.00000000000E+00  0.99999998245E-14  0.12500000000E+03  0.12500000000E+03 0.  0.
        -11    1    3    3    0    0 -0.47899625535E+02  0.66056407929E+01  0.79912651001E+00  0.48359561827E+02  0.51100000000E-03 0.  1.
         23    2    1    0    0    0 -0.92474237785E+01  0.53054882334E+01  0.27600031604E+02  0.95412421585E+02  0.90708904724E+02 0.  0.
         11    1    3    3    0    0  0.38652201757E+02 -0.13001525595E+01  0.26800905094E+02  0.47052859758E+02  0.51100000000E-03 0. -1.
         22    1    1    0    0    0  0.92474237785E+01 -0.53054882334E+01 -0.27600031604E+02  0.29587578415E+02  0.00000000000E+00 0. -1.
</event>
<event>
 5    1  0.1282529E-003  0.9118800E+02  0.7818608E-02  0.1130116E+00
         25   -1    0    0    0    0  0.00000000000E+00  0.00000000000E+00  0.99999998245E-14  0.12500000000E+03  0.12500000000E+03 0.  0.
        -11    1    3    3    0    0  0.10529943902E+02  0.33011726370E+02  0.17443472736E+02  0.38793408433E+02  0.51100000000E-03 0. -1.
         23    2    1    0    0    0  0.17255209972E+02 -0.10157528992E+02 -0.20269119787E+02  0.96508687582E+02  0.92207222577E+02 0.  0.
         11    1    3    3    0    0  0.67252660700E+01 -0.43169255361E+02 -0.37712592523E+02  0.57715279149E+02  0.51100000000E-03 0.  1.
         22    1    1    0    0    0 -0.17255209972E+02  0.10157528992E+02  0.20269119787E+02  0.28491312418E+02  0.00000000000E+00 0.  1.
</event>
<event>
 5    1  0.1282529E-003  0.9118800E+02  0.7818608E-02  0.1130116E+00
         25   -1    0    0    0    0  0.00000000000E+00  0.00000000000E+00  0.99999998245E-14  0.12500000000E+03  0.12500000000E+03 0.  0.
        -11    1    3    3    0    0  0.15677185233E+02  0.15785918781E+02  0.36001986478E+02  0.42321535880E+02  0.51100000000E-03 0.  1.
         23    2    1    0    0    0  0.14000439555E+02 -0.24967768404E+02  0.54031346771E+00  0.96369706508E+02  0.92018621088E+02 0.  0.
         11    1    3    3    0    0 -0.16767456780E+01 -0.40753687185E+02 -0.35461673011E+02  0.54048170628E+02  0.51100000000E-03 0. -1.
         22    1    1    0    0    0 -0.14000439555E+02  0.24967768404E+02 -0.54031346771E+00  0.28630293492E+02  0.00000000000E+00 0. -1.
</event>
<event>
 5    1  0.1282529E-003  0.9118800E+02  0.7818608E-02  0.1130116E+00
         25   -1    0    0    0    0  0.00000000000E+00  0.00000000000E+00  0.99999998245E-14  0.12500000000E+03  0.12500000000E+03 0.  0.
        -11    1    3    3    0    0 -0.22992231573E+02 -0.20914869944E+02  0.30570979570E+02  0.43596551350E+02  0.51100000000E-03 0.  1.
         23    2    1    0    0    0  0.93225276610E+00 -0.24787756745E+02 -0.15568352465E+02  0.95713901281E+02  0.91123407094E+02 0.  0.
         11    1    3    3    0    0  0.23924484339E+02 -0.38728868014E+01 -0.46139332035E+02  0.52117349932E+02  0.51100000000E-03 0. -1.
         22    1    1    0    0    0 -0.93225276610E+00  0.24787756745E+02  0.15568352465E+02  0.29286098719E+02  0.00000000000E+00 0. -1.
</event>
<event>
 5    1  0.1282529E-003  0.9118800E+02  0.7818608E-02  0.1130116E+00
         25   -1    0    0    0    0  0.00000000000E+00  0.00000000000E+00  0.99999998245E-14  0.12500000000E+03  0.12500000000E+03 0.  0.
        -11    1    3    3    0    0 -0.23312994035E+00  0.18892133954E+02 -0.51185644533E+02  0.54561316713E+02  0.51100000000E-03 0.  1.
         23    2    1    0    0    0  0.21185417686E+02  0.27955510653E+01 -0.19340037334E+02  0.96178583096E+02  0.91758627790E+02 0.  0.
         11    1    3    3    0    0  0.21418547626E+02 -0.16096582889E+02  0.31845607198E+02  0.41617266383E+02  0.51100000000E-03 0. -1.
         22    1    1    0    0    0 -0.21185417686E+02 -0.27955510653E+01  0.19340037334E+02  0.28821416904E+02  0.00000000000E+00 0.  1.
</event>
<event>
 5    1  0.1282529E-003  0.9118800E+02  0.7818608E-02  0.1130116E+00
         25   -1    0    0    0    0  0.00000000000E+00  0.00000000000E+00  0.99999998245E-14  0.12500000000E+03  0.12500000000E+03 0.  0.
        -11    1    3    3    0    0 -0.40471813331E+02 -0.13243407188E+02  0.36351955659E+02  0.55989464980E+02  0.51100000000E-03 0. -1.
         23    2    1    0    0    0 -0.17556293728E+02  0.13987339405E+02  0.19035346974E+02  0.95568493964E+02  0.90923723478E+02 0.  0.
         11    1    3    3    0    0  0.22915519603E+02  0.27230746593E+02 -0.17316608685E+02  0.39579028984E+02  0.51100000000E-03 0.  1.
         22    1    1    0    0    0  0.17556293728E+02 -0.13987339405E+02 -0.19035346974E+02  0.29431506036E+02  0.00000000000E+00 0. -1.
</event>
<event>
 5    1  0.1282529E-003  0.9118800E+02  0.7818608E-02  0.1130116E+00
         25   -1    0    0    0    0  0.00000000000E+00  0.00000000000E+00  0.99999998245E-14  0.12500000000E+03  0.12500000000E+03 0.  0.
        -11    1    3    3    0    0 -0.52446950477E+02 -0.20483896808E+02  0.21312417968E+02  0.60203752397E+02  0.51100000000E-03 0. -1.
         23    2    1    0    0    0 -0.25711186644E+02  0.21093980104E+01  0.12672297843E+02  0.96258013096E+02  0.91866769149E+02 0.  0.
         11    1    3    3    0    0  0.26735763833E+02  0.22593294818E+02 -0.86401201254E+01  0.36054260699E+02  0.51100000000E-03 0.  1.
         22    1    1    0    0    0  0.25711186644E+02 -0.21093980104E+01 -0.12672297843E+02  0.28741986904E+02  0.00000000000E+00 0. -1.
</event>
<event>
 5    1  0.1282529E-003  0.9118800E+02  0.7818608E-02  0.1130116E+00
         25   -1    0    0    0    0  0.00000000000E+00  0.00000000000E+00  0.99999998245E-14  0.12500000000E+03  0.12500000000E+03 0.  0.
        -11    1    3    3    0    0 -0.68091904352E+01  0.34051771923E+02  0.10137351543E+02  0.36175325044E+02  0.51100000000E-03 0.  1.
         23    2    1    0    0    0  0.20155684984E+02 -0.19005045324E+02 -0.30352820353E+01  0.97131445643E+02  0.93047629796E+02 0.  0.
         11    1    3    3    0    0  0.26964875419E+02 -0.53056817247E+02 -0.13172633579E+02  0.60956120598E+02  0.51100000000E-03 0. -1.
         22    1    1    0    0    0 -0.20155684984E+02  0.19005045324E+02  0.30352820353E+01  0.27868554357E+02  0.00000000000E+00 0. -1.
</event>
<event>
 5    1  0.1282529E-003  0.9118800E+02  0.7818608E-02  0.1130116E+00
         25   -1    0    0    0    0  0.00000000000E+00  0.00000000000E+00  0.99999998245E-14  0.12500000000E+03  0.12500000000E+03 0.  0.
        -11    1    3    3    0    0 -0.15133647347E+02  0.48095616094E+02  0.13254958978E+02  0.52133573705E+02  0.51100000000E-03 0. -1.
         23    2    1    0    0    0  0.96707504540E+01  0.25288521558E+02 -0.13110060976E+02  0.94918337218E+02  0.90025464756E+02 0.  0.
         11    1    3    3    0    0  0.24804397801E+02 -0.22807094536E+02 -0.26365019954E+02  0.42784763513E+02  0.51100000000E-03 0.  1.
         22    1    1    0    0    0 -0.96707504540E+01 -0.25288521558E+02  0.13110060976E+02  0.30081662782E+02  0.00000000000E+00 0.  1.
</event>
<event>
 5    1  0.1282529E-003  0.9118800E+02  0.7818608E-02  0.1130116E+00
         25   -1    0    0    0    0  0.00000000000E+00  0.00000000000E+00  0.99999998245E-14  0.12500000000E+03  0.12500000000E+03 0.  0.
        -11    1    3    3    0    0  0.45788889036E+02 -0.52143783054E+01 -0.19339026640E+02  0.49978095721E+02  0.51100000000E-03 0.  1.
         23    2    1    0    0    0  0.13346028879E+02  0.24224575090E+02 -0.14316687324E+01  0.97305303748E+02  0.93280898028E+02 0.  0.
         11    1    3    3    0    0 -0.32442860156E+02  0.29438953396E+02  0.17907357907E+02  0.47327208027E+02  0.51100000000E-03 0. -1.
         22    1    1    0    0    0 -0.13346028879E+02 -0.24224575090E+02  0.14316687324E+01  0.27694696252E+02  0.00000000000E+00 0.  1.
</event>
<event>
 5    1  0.1282529E-003  0.9118800E+02  0.7818608E-02  0.1130116E+00
         25   -1    0    0    0    0  0.00000000000E+00  0.00000000000E+00  0.99999998245E-14  0.12500000000E+03  0.12500000000E+03 0.  0.
        -11    1    3    3    0    0  0.19681592259E+02 -0.14036747549E+02  0.49341210232E+02  0.54944975958E+02  0.51100000000E-03 0.  1.
         23    2    1    0    0    0  0.36313347795E+01  0.14649610433E+02  0.24806042089E+02  0.95963171622E+02  0.91464708524E+02 0.  0.
         11    1    3    3    0    0 -0.16050257480E+02  0.28686357982E+02 -0.24535168143E+02  0.41018195664E+02  0.51100000000E-03 0. -1.
         22    1    1    0    0    0 -0.36313347795E+01 -0.14649610433E+02 -0.24806042089E+02  0.29036828378E+02  0.00000000000E+00 0.  1.
</event>
<event>
 5    1  0.1282529E-003  0.9118800E+02  0.7818608E-02  0.1130116E+00
         25   -1    0    0    0    0  0.00000000000E+00  0.00000000000E+00  0.99999998245E-14  0.12500000000E+03  0.12500000000E+03 0.  0.
        -11    1    3    3    0    0  0.30849803402E+02 -0.15013073809E+00  0.35109787000E+02  0.46737886694E+02  0.51100000000E-03 0. -1.
         23    2    1    0    0    0  0.20573502402E+02  0.28457017146E+02  0.49864099201E+01  0.89532619072E+02  0.82207996984E+02 0.  0.
         11    1    3    3    0    0 -0.10276301000E+02  0.28607147885E+02 -0.30123377080E+02  0.42794732378E+02  0.51100000000E-03 0.  1.
         22    1    1    0    0    0 -0.20573502402E+02 -0.28457017146E+02 -0.49864099201E+01  0.35467380928E+02  0.00000000000E+00 0. -1.
</event>
<event>
 5    1  0.1282529E-003  0.9118800E+02  0.7818608E-02  0.1130116E+00
         25   -1    0    0    0    0  0.00000000000E+00  0.00000000000E+00  0.99999998245E-14  0.12500000000E+03  0.12500000000E+03 0.  0.
        -11    1    3    3    0    0  0.14868548806E+02  0.23302637147E+02  0.50833723072E+02  0.57863235679E+02  0.51100000000E-03 0. -1.
         23    2    1    0    0    0 -0.39813992769E+01  0.23035829605E+02  0.18934902646E+02  0.94916258144E+02  0.90022577924E+02 0.  0.
         11    1    3    3    0    0 -0.18849948083E+02 -0.26680754208E+00 -0.31898820426E+02  0.37053022465E+02  0.51100000000E-03 0.  1.
         22    1    1    0    0    0  0.39813992769E+01 -0.23035829605E+02 -0.18934902646E+02  0.30083741856E+02  0.00000000000E+00 0. -1.
</event>
<event>
 5    1  0.1282529E-003  0.9118800E+02  0.7818608E-02  0.1130116E+00
         25   -1    0    0    0    0  0.00000000000E+00  0.00000000000E+00  0.99999998245E-14  0.12500000000E+03  0.12500000000E+03 0.  0.
        -11    1    3    3    0    0 -0.13599049944E+02 -0.49714340839E+02  0.64494462246E+01  0.51942710762E+02  0.51100000000E-03 0. -1.
         23    2    1    0    0    0  0.85704608121E+00 -0.13590507046E+02  0.26121543185E+02  0.95542039648E+02  0.90887347370E+02 0.  0.
         11    1    3    3    0    0  0.14456096025E+02  0.36123833793E+02  0.19672096961E+02  0.43599328886E+02  0.51100000000E-03 0.  1.
         22    1    1    0    0    0 -0.85704608121E+00  0.13590507046E+02 -0.26121543185E+02  0.29457960352E+02  0.00000000000E+00 0. -1.
</event>
<event>
 5    1  0.1282529E-003  0.9118800E+02  0.7818608E-02  0.1130116E+00
         25   -1    0    0    0    0  0.00000000000E+00  0.00000000000E+00  0.99999998245E-14  0.12500000000E+03  0.12500000000E+03 0.  0.
        -11    1    3    3    0    0  0.11400416043E+01  0.35211848075E+02 -0.24774361161E+02  0.43069048178E+02  0.51100000000E-03 0.  1.
         23    2    1    0    0    0  0.27745299168E+02  0.49282701196E+01  0.87446272578E+01  0.95494780493E+02  0.90822327228E+02 0.  0.
         11    1    3    3    0    0  0.26605257564E+02 -0.30283577956E+02  0.33518988419E+02  0.52425732315E+02  0.51100000000E-03 0. -1.
         22    1    1    0    0    0 -0.27745299168E+02 -0.49282701196E+01 -0.87446272578E+01  0.29505219507E+02  0.00000000000E+00 0.  1.
</event>
<event>
 5    1  0.1282529E-003  0.9118800E+02  0.7818608E-02  0.1130116E+00
         25   -1    0    0    0    0  0.00000000000E+00  0.00000000000E+00  0.99999998245E-14  0.12500000000E+03  0.12500000000E+03 0.  0.
        -11    1    3    3    0    0  0.14995448302E+02  0.26123102894E+02  0.39723597842E+02  0.49852223625E+02  0.51100000000E-03 0. -1.
         23    2    1    0    0    0 -0.20977425558E+02  0.91543692838E+01  0.21482119782E+02  0.93609932617E+02  0.88190039994E+02 0.  0.
         11    1    3    3    0    0 -0.35972873860E+02 -0.16968733610E+02 -0.18241478060E+02  0.43757708991E+02  0.51100000000E-03 0.  1.
         22    1    1    0    0    0  0.20977425558E+02 -0.91543692838E+01 -0.21482119782E+02  0.31390067383E+02  0.00000000000E+00 0. -1.
</event>
<event>
 5    1  0.1282529E-003  0.9118800E+02  0.7818608E-02  0.1130116E+00
         25   -1    0    0    0    0  0.00000000000E+00  0.00000000000E+00  0.99999998245E-14  0.12500000000E+03  0.12500000000E+03 0.  0.
        -11    1    3    3    0    0 -0.38359643106E+02 -0.19952927383E+02  0.34115988356E+02  0.55077056858E+02  0.51100000000E-03 0.  1.
         23    2    1    0    0    0 -0.17387944312E+02  0.34753174244E+01  0.34150348445E+02  0.86520593332E+02  0.77492892145E+02 0.  0.
         11    1    3    3    0    0  0.20971698794E+02  0.23428244808E+02  0.34360088864E-01  0.31443536473E+02  0.51100000000E-03 0. -1.
         22    1    1    0    0    0  0.17387944312E+02 -0.34753174244E+01 -0.34150348445E+02  0.38479406668E+02  0.00000000000E+00 0.  1.
</event>
<event>
 5    1  0.1282529E-003  0.9118800E+02  0.7818608E-02  0.1130116E+00
         25   -1    0    0    0    0  0.00000000000E+00  0.00000000000E+00  0.99999998245E-14  0.12500000000E+03  0.12500000000E+03 0.  0.
        -11    1    3    3    0    0  0.27744723710E+02  0.20405448092E+02  0.11077423577E+02  0.36178188442E+02  0.51100000000E-03 0.  1.
         23    2    1    0    0    0 -0.22603660159E+00 -0.99311364949E+01 -0.29391961096E+02  0.93974753157E+02  0.88705627156E+02 0.  0.
         11    1    3    3    0    0 -0.27970760311E+02 -0.30336584587E+02 -0.40469384673E+02  0.57796564715E+02  0.51100000000E-03 0. -1.
         22    1    1    0    0    0  0.22603660159E+00  0.99311364949E+01  0.29391961096E+02  0.31025246843E+02  0.00000000000E+00 0.  1.
</event>
<event>
 5    1  0.1282529E-003  0.9118800E+02  0.7818608E-02  0.1130116E+00
         25   -1    0    0    0    0  0.00000000000E+00  0.00000000000E+00  0.99999998245E-14  0.12500000000E+03  0.12500000000E+03 0.  0.
        -11    1    3    3    0    0 -0.46128340370E+01  0.55750050742E-01 -0.39634753604E+02  0.39902318723E+02  0.51100000000E-03 0. -1.
         23    2    1    0    0    0  0.15376016633E+02 -0.25606514192E+02  0.45685161209E+01  0.94784328633E+02  0.89839201679E+02 0.  0.
         11    1    3    3    0    0  0.19988850670E+02 -0.25662264243E+02  0.44203269725E+02  0.54882009911E+02  0.51100000000E-03 0.  1.
         22    1    1    0    0    0 -0.15376016633E+02  0.25606514192E+02 -0.45685161209E+01  0.30215671367E+02  0.00000000000E+00 0. -1.
</event>
<event>
 5    1  0.1282529E-003  0.9118800E+02  0.7818608E-02  0.1130116E+00
         25   -1    0    0    0    0  0.00000000000E+00  0.00000000000E+00  0.99999998245E-14  0.12500000000E+03  0.12500000000E+03 0.  0.
        -11    1    3    3    0    0  0.24923753038E+02  0.44979993172E+02  0.35304545635E+02  0.62376311161E+02  0.51100000000E-03 0. -1.
         23    2    1    0    0    0  0.14154255286E+02  0.20739168523E+02  0.15333099133E+02  0.95579599208E+02  0.90938989449E+02 0.  0.
         11    1    3    3    0    0 -0.10769497752E+02 -0.24240824649E+02 -0.19971446502E+02  0.33203288047E+02  0.51100000000E-03 0.  1.
         22    1    1    0    0    0 -0.14154255286E+02 -0.20739168523E+02 -0.15333099133E+02  0.29420400792E+02  0.00000000000E+00 0. -1.
</event>
<event>
 5    1  0.1282529E-003  0.9118800E+02  0.7818608E-02  0.1130116E+00
         25   -1    0    0    0    0  0.00000000000E+00  0.00000000000E+00  0.99999998245E-14  0.12500000000E+03  0.12500000000E+03 0.  0.
        -11    1    3    3    0    0 -0.75302839097E+01  0.20415714391E+02  0.29768715256E+02  0.36873879348E+02  0.51100000000E-03 0. -1.
         23    2    1    0    0    0  0.16230433768E+02 -0.22242509656E+02 -0.52592511425E+01  0.96967591279E+02  0.92827247184E+02 0.  0.
         11    1    3    3    0    0  0.23760717677E+02 -0.42658224048E+02 -0.35027966399E+02  0.60093711932E+02  0.51100000000E-03 0.  1.
         22    1    1    0    0    0 -0.16230433768E+02  0.22242509656E+02  0.52592511425E+01  0.28032408721E+02  0.00000000000E+00 0.  1.
</event>
<event>
 5    1  0.1282529E-003  0.9118800E+02  0.7818608E-02  0.1130116E+00
         25   -1    0    0    0    0  0.00000000000E+00  0.00000000000E+00  0.99999998245E-14  0.12500000000E+03  0.12500000000E+03 0.  0.
        -11    1    3    3    0    0 -0.10168739588E+02  0.12648124002E+02  0.19409155104E+02  0.25300071298E+02  0.51100000000E-03 0. -1.
         23    2    1    0    0    0 -0.40255876214E+01 -0.29723214036E+02 -0.24234961530E+02  0.86438255114E+02  0.77359962373E+02 0.  0.
         11    1    3    3    0    0  0.61431519668E+01 -0.42371338038E+02 -0.43644116634E+02  0.61138183815E+02  0.51100000000E-03 0.  1.
         22    1    1    0    0    0  0.40255876214E+01  0.29723214036E+02  0.24234961530E+02  0.38561744886E+02  0.00000000000E+00 0.  1.
</event>
<event>
 5    1  0.1282529E-003  0.9118800E+02  0.7818608E-02  0.1130116E+00
         25   -1    0    0    0    0  0.00000000000E+00  0.00000000000E+00  0.99999998245E-14  0.12500000000E+03  0.12500000000E+03 0.  0.
        -11    1    3    3    0    0 -0.24616676821E+02 -0.27156665583E+02  0.16977957708E+02  0.40394508433E+02  0.51100000000E-03 0.  1.
         23    2    1    0    0    0  0.11003879603E+02  0.20134988705E+02  0.98561077158E+01  0.10002709477E+03  0.96859556533E+02 0.  0.
         11    1    3    3    0    0  0.35620556424E+02  0.47291654289E+02 -0.71218499920E+01  0.59632586334E+02  0.51100000000E-03 0. -1.
         22    1    1    0    0    0 -0.11003879603E+02 -0.20134988705E+02 -0.98561077158E+01  0.24972905233E+02  0.00000000000E+00 0. -1.
</event>
<event>
 5    1  0.1282529E-003  0.9118800E+02  0.7818608E-02  0.1130116E+00
         25   -1    0    0    0    0  0.00000000000E+00  0.00000000000E+00  0.99999998245E-14  0.12500000000E+03  0.12500000000E+03 0.  0.
        -11    1    3    3    0    0 -0.37971353620E+02 -0.21945221215E+02  0.31772137919E+02  0.54156118566E+02  0.51100000000E-03 0.  1.
         23    2    1    0    0    0 -0.15441581290E+02  0.12136242703E+02  0.20657900531E+02  0.96495970916E+02  0.92189981717E+02 0.  0.
         11    1    3    3    0    0  0.22529772330E+02  0.34081463918E+02 -0.11114237388E+02  0.42339852350E+02  0.51100000000E-03 0. -1.
         22    1    1    0    0    0  0.15441581290E+02 -0.12136242703E+02 -0.20657900531E+02  0.28504029084E+02  0.00000000000E+00 0. -1.
</event>
<event>
 5    1  0.1282529E-003  0.9118800E+02  0.7818608E-02  0.1130116E+00
         25   -1    0    0    0    0  0.00000000000E+00  0.00000000000E+00  0.99999998245E-14  0.12500000000E+03  0.12500000000E+03 0.  0.
        -11    1    3    3    0    0  0.18360255198E+02  0.96983611569E+01  0.46372919481E+02  0.50809495584E+02  0.51100000000E-03 0. -1.
         23    2    1    0    0    0  0.13878380083E+01  0.27658111735E+02  0.84980120252E+01  0.96032545030E+02  0.91559468420E+02 0.  0.
         11    1    3    3    0    0 -0.16972417190E+02  0.17959750578E+02 -0.37874907456E+02  0.45223049445E+02  0.51100000000E-03 0.  1.
         22    1    1    0    0    0 -0.13878380083E+01 -0.27658111735E+02 -0.84980120252E+01  0.28967454970E+02  0.00000000000E+00 0. -1.
</event>
<event>
 5    1  0.1282529E-003  0.9118800E+02  0.7818608E-02  0.1130116E+00
         25   -1    0    0    0    0  0.00000000000E+00  0.00000000000E+00  0.99999998245E-14  0.12500000000E+03  0.12500000000E+03 0.  0.
        -11    1    3    3    0    0  0.59666505229E+01  0.53383144117E+02  0.31425633539E+02  0.62232880681E+02  0.51100000000E-03 0. -1.
         23    2    1    0    0    0  0.61999572482E+01  0.25602328525E+02  0.12545958104E+02  0.95822615598E+02  0.91272415875E+02 0.  0.
         11    1    3    3    0    0  0.23330672529E+00 -0.27780815592E+02 -0.18879675435E+02  0.33589734917E+02  0.51100000000E-03 0.  1.
         22    1    1    0    0    0 -0.61999572482E+01 -0.25602328525E+02 -0.12545958104E+02  0.29177384402E+02  0.00000000000E+00 0. -1.
</event>
<event>
 5    1  0.1282529E-003  0.9118800E+02  0.7818608E-02  0.1130116E+00
         25   -1    0    0    0    0  0.00000000000E+00  0.00000000000E+00  0.99999998245E-14  0.12500000000E+03  0.12500000000E+03 0.  0.
        -11    1    3    3    0    0 -0.81145174117E+01  0.34267950639E+02 -0.44433543366E+02  0.56696363289E+02  0.51100000000E-03 0. -1.
         23    2    1    0    0    0  0.15109242026E+02  0.17629718042E+02 -0.17950312629E+02  0.95651918694E+02  0.91038341777E+02 0.  0.
         11    1    3    3    0    0  0.23223759438E+02 -0.16638232597E+02  0.26483230738E+02  0.38955555405E+02  0.51100000000E-03 0.  1.
         22    1    1    0    0    0 -0.15109242026E+02 -0.17629718042E+02  0.17950312629E+02  0.29348081306E+02  0.00000000000E+00 0. -1.
</event>
<event>
 5    1  0.1282529E-003  0.9118800E+02  0.7818608E-02  0.1130116E+00
         25   -1    0    0    0    0  0.00000000000E+00  0.00000000000E+00  0.99999998245E-14  0.12500000000E+03  0.12500000000E+03 0.  0.
        -11    1    3    3    0    0 -0.35267683289E+02  0.35431914841E+01  0.10194784967E+02  0.36882208872E+02  0.51100000000E-03 0.  1.
         23    2    1    0    0    0  0.20807482386E+02 -0.17867641980E+02  0.49041763705E+01  0.97138648650E+02  0.93057305799E+02 0.  0.
         11    1    3    3    0    0  0.56075165675E+02 -0.21410833464E+02 -0.52906085963E+01  0.60256439778E+02  0.51100000000E-03 0. -1.
         22    1    1    0    0    0 -0.20807482386E+02  0.17867641980E+02 -0.49041763705E+01  0.27861351350E+02  0.00000000000E+00 0. -1.
</event>
<event>
 5    1  0.1282529E-003  0.9118800E+02  0.7818608E-02  0.1130116E+00
         25   -1    0    0    0    0  0.00000000000E+00  0.00000000000E+00  0.99999998245E-14  0.12500000000E+03  0.12500000000E+03 0.  0.
        -11    1    3    3    0    0  0.49228071482E+02  0.23476542686E+02  0.85552281654E+01  0.55206367455E+02  0.51100000000E-03 0.  1.
         23    2    1    0    0    0  0.17595788186E+02  0.18928438496E+02 -0.15192553848E+02  0.95021487058E+02  0.90168574152E+02 0.  0.
         11    1    3    3    0    0 -0.31632283296E+02 -0.45481041902E+01 -0.23747782013E+02  0.39815119603E+02  0.51100000000E-03 0. -1.
         22    1    1    0    0    0 -0.17595788186E+02 -0.18928438496E+02  0.15192553848E+02  0.29978512942E+02  0.00000000000E+00 0.  1.
</event>
<event>
 5    1  0.1282529E-003  0.9118800E+02  0.7818608E-02  0.1130116E+00
         25   -1    0    0    0    0  0.00000000000E+00  0.00000000000E+00  0.99999998245E-14  0.12500000000E+03  0.12500000000E+03 0.  0.
        -11    1    3    3    0    0 -0.31573316797E+02  0.39509688634E+02 -0.13313366669E+02  0.52298523515E+02  0.51100000000E-03 0.  1.
         23    2    1    0    0    0 -0.35306033007E+02  0.20843708871E+02 -0.27144965592E+02  0.75828612759E+02  0.57724805672E+02 0.  0.
         11    1    3    3    0    0 -0.37327162102E+01 -0.18665979763E+02 -0.13831598923E+02  0.23530089244E+02  0.51100000000E-03 0. -1.
         22    1    1    0    0    0  0.35306033007E+02 -0.20843708871E+02  0.27144965592E+02  0.49171387241E+02  0.00000000000E+00 0.  1.
</event>
<event>
 5    1  0.1282529E-003  0.9118800E+02  0.7818608E-02  0.1130116E+00
         25   -1    0    0    0    0  0.00000000000E+00  0.00000000000E+00  0.99999998245E-14  0.12500000000E+03  0.12500000000E+03 0.  0.
        -11    1    3    3    0    0  0.13910598885E+02 -0.33562030810E+02  0.20797106422E+01  0.36390106760E+02  0.51100000000E-03 0.  1.
         23    2    1    0    0    0 -0.18737347393E+02  0.84779590905E+01 -0.22063364762E+02  0.94837837573E+02  0.89913621845E+02 0.  0.
         11    1    3    3    0    0 -0.32647946278E+02  0.42039989900E+02 -0.24143075404E+02  0.58447730813E+02  0.51100000000E-03 0. -1.
         22    1    1    0    0    0  0.18737347393E+02 -0.84779590905E+01  0.22063364762E+02  0.30162162427E+02  0.00000000000E+00 0. -1.
</event>
<event>
 5    1  0.1282529E-003  0.9118800E+02  0.7818608E-02  0.1130116E+00
         25   -1    0    0    0    0  0.00000000000E+00  0.00000000000E+00  0.99999998245E-14  0.12500000000E+03  0.12500000000E+03 0.  0.
        -11    1    3    3    0    0  0.47330381484E-01  0.53219052609E+02  0.15140428773E+02  0.55330844783E+02  0.51100000000E-03 0.  1.
         23    2    1    0    0    0 -0.22297477214E+00  0.14301159317E+02  0.25639439364E+02  0.95640951540E+02  0.91023282105E+02 0.  0.
         11    1    3    3    0    0 -0.27030515362E+00 -0.38917893291E+02  0.10499010591E+02  0.40310106757E+02  0.51100000000E-03 0. -1.
         22    1    1    0    0    0  0.22297477214E+00 -0.14301159317E+02 -0.25639439364E+02  0.29359048460E+02  0.00000000000E+00 0.  1.
</event>
<event>
 5    1  0.1282529E-003  0.9118800E+02  0.7818608E-02  0.1130116E+00
         25   -1    0    0    0    0  0.00000000000E+00  0.00000000000E+00  0.99999998245E-14  0.12500000000E+03  0.12500000000E+03 0.  0.
        -11    1    3    3    0    0 -0.14032180364E+02 -0.30842227116E+01  0.23926664423E+02  0.27908776149E+02  0.51100000000E-03 0. -1.
         23    2    1    0    0    0  0.27225829761E+02  0.24185287647E+02 -0.92067637626E+01  0.87437539434E+02  0.78958120916E+02 0.  0.
         11    1    3    3    0    0  0.41258010125E+02  0.27269510359E+02 -0.33133428185E+02  0.59528763285E+02  0.51100000000E-03 0.  1.
         22    1    1    0    0    0 -0.27225829761E+02 -0.24185287647E+02  0.92067637626E+01  0.37562460566E+02  0.00000000000E+00 0.  1.
</event>
<event>
 5    1  0.1282529E-003  0.9118800E+02  0.7818608E-02  0.1130116E+00
         25   -1    0    0    0    0  0.00000000000E+00  0.00000000000E+00  0.99999998245E-14  0.12500000000E+03  0.12500000000E+03 0.  0.
        -11    1    3    3    0    0  0.10240371966E+02 -0.12737668931E+02 -0.30785387941E+02  0.34854749156E+02  0.51100000000E-03 0.  1.
         23    2    1    0    0    0 -0.44022687355E+01  0.25054064670E+02  0.14573852249E+02  0.95683054459E+02  0.91081082639E+02 0.  0.
         11    1    3    3    0    0 -0.14642640702E+02  0.37791733600E+02  0.45359240189E+02  0.60828305303E+02  0.51100000000E-03 0. -1.
         22    1    1    0    0    0  0.44022687355E+01 -0.25054064670E+02 -0.14573852249E+02  0.29316945541E+02  0.00000000000E+00 0. -1.
</event>
<event>
 5    1  0.1282529E-003  0.9118800E+02  0.7818608E-02  0.1130116E+00
         25   -1    0    0    0    0  0.00000000000E+00  0.00000000000E+00  0.99999998245E-14  0.12500000000E+03  0.12500000000E+03 0.  0.
        -11    1    3    3    0    0  0.51627761273E+02  0.13791846301E+02  0.26860768883E+02  0.59809210525E+02  0.51100000000E-03 0.  1.
         23    2    1    0    0    0  0.17952512572E+02 -0.46680005982E+01  0.17853832871E+02  0.99254276366E+02  0.95857024216E+02 0.  0.
         11    1    3    3    0    0 -0.33675248701E+02 -0.18459846899E+02 -0.90069360111E+01  0.39445065841E+02  0.51100000000E-03 0. -1.
         22    1    1    0    0    0 -0.17952512572E+02  0.46680005982E+01 -0.17853832871E+02  0.25745723634E+02  0.00000000000E+00 0.  1.
</event>
<event>
 5    1  0.1282529E-003  0.9118800E+02  0.7818608E-02  0.1130116E+00
         25   -1    0    0    0    0  0.00000000000E+00  0.00000000000E+00  0.99999998245E-14  0.12500000000E+03  0.12500000000E+03 0.  0.
        -11    1    3    3    0    0 -0.18138950325E+02  0.12635823185E+02  0.33162884320E+02  0.39855519608E+02  0.51100000000E-03 0.  1.
         23    2    1    0    0    0  0.14271548115E+02  0.23401652030E+02 -0.10812144380E+02  0.95534479990E+02  0.90876949760E+02 0.  0.
         11    1    3    3    0    0  0.32410498440E+02  0.10765828845E+02 -0.43975028700E+02  0.55678960383E+02  0.51100000000E-03 0. -1.
         22    1    1    0    0    0 -0.14271548115E+02 -0.23401652030E+02  0.10812144380E+02  0.29465520010E+02  0.00000000000E+00 0. -1.
</event>
<event>
 5    1  0.1282529E-003  0.9118800E+02  0.7818608E-02  0.1130116E+00
         25   -1    0    0    0    0  0.00000000000E+00  0.00000000000E+00  0.99999998245E-14  0.12500000000E+03  0.12500000000E+03 0.  0.
        -11    1    3    3    0    0 -0.27261990986E+02  0.22001979882E+02 -0.41504008551E+02  0.54312852966E+02  0.51100000000E-03 0.  1.
         23    2    1    0    0    0  0.26503678508E+01 -0.37322039570E+01 -0.28905776859E+02  0.95734017496E+02  0.91150997657E+02 0.  0.
         11    1    3    3    0    0  0.29912358837E+02 -0.25734183839E+02  0.12598231692E+02  0.41421164530E+02  0.51100000000E-03 0. -1.
         22    1    1    0    0    0 -0.26503678508E+01  0.37322039570E+01  0.28905776859E+02  0.29265982504E+02  0.00000000000E+00 0.  1.
</event>
<event>
 5    1  0.1282529E-003  0.9118800E+02  0.7818608E-02  0.1130116E+00
         25   -1    0    0    0    0  0.00000000000E+00  0.00000000000E+00  0.99999998245E-14  0.12500000000E+03  0.12500000000E+03 0.  0.
        -11    1    3    3    0    0  0.22039443226E+02  0.12273336983E+02 -0.38942983641E+02  0.46399653377E+02  0.51100000000E-03 0.  1.
         23    2    1    0    0    0  0.31519838604E+01 -0.25658797811E+02 -0.13320019655E+02  0.95918531142E+02  0.91403680371E+02 0.  0.
         11    1    3    3    0    0 -0.18887459365E+02 -0.37932134794E+02  0.25622963987E+02  0.49518877764E+02  0.51100000000E-03 0. -1.
         22    1    1    0    0    0 -0.31519838604E+01  0.25658797811E+02  0.13320019655E+02  0.29081468858E+02  0.00000000000E+00 0. -1.
</event>
<event>
 5    1  0.1282529E-003  0.9118800E+02  0.7818608E-02  0.1130116E+00
         25   -1    0    0    0    0  0.00000000000E+00  0.00000000000E+00  0.99999998245E-14  0.12500000000E+03  0.12500000000E+03 0.  0.
        -11    1    3    3    0    0  0.15892051967E+02  0.11902550295E+02 -0.30218101036E+02  0.36157456350E+02  0.51100000000E-03 0.  1.
         23    2    1    0    0    0  0.61139301410E+01 -0.26988470175E+02  0.12400352987E+02  0.94676305991E+02  0.89688775762E+02 0.  0.
         11    1    3    3    0    0 -0.97781218264E+01 -0.38891020470E+02  0.42618454023E+02  0.58518849640E+02  0.51100000000E-03 0. -1.
         22    1    1    0    0    0 -0.61139301410E+01  0.26988470175E+02 -0.12400352987E+02  0.30323694009E+02  0.00000000000E+00 0. -1.
</event>
<event>
 5    1  0.1282529E-003  0.9118800E+02  0.7818608E-02  0.1130116E+00
         25   -1    0    0    0    0  0.00000000000E+00  0.00000000000E+00  0.99999998245E-14  0.12500000000E+03  0.12500000000E+03 0.  0.
        -11    1    3    3    0    0 -0.39103024764E+02 -0.25750596774E+02  0.36684573736E+02  0.59480229744E+02  0.51100000000E-03 0. -1.
         23    2    1    0    0    0 -0.23535978018E+02  0.73249967627E+00  0.15034826516E+02  0.97062125610E+02  0.92954458756E+02 0.  0.
         11    1    3    3    0    0  0.15567046747E+02  0.26483096450E+02 -0.21649747220E+02  0.37581895866E+02  0.51100000000E-03 0.  1.
         22    1    1    0    0    0  0.23535978018E+02 -0.73249967627E+00 -0.15034826516E+02  0.27937874390E+02  0.00000000000E+00 0. -1.
</event>
<event>
 5    1  0.1282529E-003  0.9118800E+02  0.7818608E-02  0.1130116E+00
         25   -1    0    0    0    0  0.00000000000E+00  0.00000000000E+00  0.99999998245E-14  0.12500000000E+03  0.12500000000E+03 0.  0.
        -11    1    3    3    0    0 -0.26384486652E+01  0.31254968261E+02  0.42246682237E+02  0.52617645449E+02  0.51100000000E-03 0.  1.
         23    2    1    0    0    0 -0.80382329746E+01 -0.83460071997E+01  0.27394813807E+02  0.95255339151E+02  0.90492180810E+02 0.  0.
         11    1    3    3    0    0 -0.53997843094E+01 -0.39600975461E+02 -0.14851868430E+02  0.42637693701E+02  0.51100000000E-03 0. -1.
         22    1    1    0    0    0  0.80382329746E+01  0.83460071997E+01 -0.27394813807E+02  0.29744660849E+02  0.00000000000E+00 0.  1.
</event>
<event>
 5    1  0.1282529E-003  0.9118800E+02  0.7818608E-02  0.1130116E+00
         25   -1    0    0    0    0  0.00000000000E+00  0.00000000000E+00  0.99999998245E-14  0.12500000000E+03  0.12500000000E+03 0.  0.
        -11    1    3    3    0    0  0.49724727863E+02 -0.19440776655E+02 -0.21920371375E+02  0.57714773147E+02  0.51100000000E-03 0.  1.
         23    2    1    0    0    0  0.20746325362E+02  0.42916210305E+01 -0.20981788985E+02  0.95182832191E+02  0.90391968935E+02 0.  0.
         11    1    3    3    0    0 -0.28978402501E+02  0.23732397685E+02  0.93858238984E+00  0.37468059044E+02  0.51100000000E-03 0. -1.
         22    1    1    0    0    0 -0.20746325362E+02 -0.42916210305E+01  0.20981788985E+02  0.29817167809E+02  0.00000000000E+00 0.  1.
</event>
<event>
 5    1  0.1282529E-003  0.9118800E+02  0.7818608E-02  0.1130116E+00
         25   -1    0    0    0    0  0.00000000000E+00  0.00000000000E+00  0.99999998245E-14  0.12500000000E+03  0.12500000000E+03 0.  0.
        -11    1    3    3    0    0  0.43887087846E+02  0.17980167009E+02  0.30803357173E+02  0.56552716103E+02  0.51100000000E-03 0.  1.
         23    2    1    0    0    0  0.19608965640E+02  0.22455849768E+02  0.11116404589E+01  0.95166923276E+02  0.90369966355E+02 0.  0.
         11    1    3    3    0    0 -0.24278122205E+02  0.44756827593E+01 -0.29691716714E+02  0.38614207174E+02  0.51100000000E-03 0. -1.
         22    1    1    0    0    0 -0.19608965640E+02 -0.22455849768E+02 -0.11116404589E+01  0.29833076724E+02  0.00000000000E+00 0.  1.
</event>
<event>
 5    1  0.1282529E-003  0.9118800E+02  0.7818608E-02  0.1130116E+00
         25   -1    0    0    0    0  0.00000000000E+00  0.00000000000E+00  0.99999998245E-14  0.12500000000E+03  0.12500000000E+03 0.  0.
        -11    1    3    3    0    0 -0.21532133100E+02 -0.36447445936E+02 -0.36536611092E+02  0.55919343893E+02  0.51100000000E-03 0.  1.
         23    2    1    0    0    0  0.81846147040E+01 -0.12475906682E+02 -0.25142490734E+02  0.95763361929E+02  0.91191230293E+02 0.  0.
         11    1    3    3    0    0  0.29716747804E+02  0.23971539254E+02  0.11394120359E+02  0.39844018036E+02  0.51100000000E-03 0. -1.
         22    1    1    0    0    0 -0.81846147040E+01  0.12475906682E+02  0.25142490734E+02  0.29236638071E+02  0.00000000000E+00 0.  1.
</event>
<event>
 5    1  0.1282529E-003  0.9118800E+02  0.7818608E-02  0.1130116E+00
         25   -1    0    0    0    0  0.00000000000E+00  0.00000000000E+00  0.99999998245E-14  0.12500000000E+03  0.12500000000E+03 0.  0.
        -11    1    3    3    0    0  0.25648711943E+02  0.38558558365E+02 -0.35187434812E+02  0.58161623228E+02  0.51100000000E-03 0.  1.
         23    2    1    0    0    0  0.95951470121E+01  0.48708606126E+01 -0.26387996767E+02  0.96502307064E+02  0.92198572473E+02 0.  0.
         11    1    3    3    0    0 -0.16053564931E+02 -0.33687697753E+02  0.87994380449E+01  0.38340683836E+02  0.51100000000E-03 0. -1.
         22    1    1    0    0    0 -0.95951470121E+01 -0.48708606126E+01  0.26387996767E+02  0.28497692936E+02  0.00000000000E+00 0.  1.
</event>
<event>
 5    1  0.1282529E-003  0.9118800E+02  0.7818608E-02  0.1130116E+00
         25   -1    0    0    0    0  0.00000000000E+00  0.00000000000E+00  0.99999998245E-14  0.12500000000E+03  0.12500000000E+03 0.  0.
        -11    1    3    3    0    0 -0.48427196782E+02  0.18549957396E+02 -0.29940394577E+02  0.59880894576E+02  0.51100000000E-03 0.  1.
         23    2    1    0    0    0 -0.18758506136E+02  0.19936292123E+02 -0.19608128093E+02  0.91327815881E+02  0.84893780515E+02 0.  0.
         11    1    3    3    0    0  0.29668690646E+02  0.13863347273E+01  0.10332266484E+02  0.31446921305E+02  0.51100000000E-03 0. -1.
         22    1    1    0    0    0  0.18758506136E+02 -0.19936292123E+02  0.19608128093E+02  0.33672184119E+02  0.00000000000E+00 0.  1.
</event>
<event>
 5    1  0.1282529E-003  0.9118800E+02  0.7818608E-02  0.1130116E+00
         25   -1    0    0    0    0  0.00000000000E+00  0.00000000000E+00  0.99999998245E-14  0.12500000000E+03  0.12500000000E+03 0.  0.
        -11    1    3    3    0    0  0.17347101882E+02  0.30619075598E+02 -0.31486881790E+02  0.47221535969E+02  0.51100000000E-03 0.  1.
         23    2    1    0    0    0  0.16890526801E+02 -0.66878386490E+01 -0.35874253221E+02  0.84788321030E+02  0.74646368013E+02 0.  0.
         11    1    3    3    0    0 -0.45657508062E+00 -0.37306914247E+02 -0.43873714313E+01  0.37566785061E+02  0.51100000000E-03 0. -1.
         22    1    1    0    0    0 -0.16890526801E+02  0.66878386490E+01  0.35874253221E+02  0.40211678970E+02  0.00000000000E+00 0. -1.
</event>
<event>
 5    1  0.1282529E-003  0.9118800E+02  0.7818608E-02  0.1130116E+00
         25   -1    0    0    0    0  0.00000000000E+00  0.00000000000E+00  0.99999998245E-14  0.12500000000E+03  0.12500000000E+03 0.  0.
        -11    1    3    3    0    0  0.35600203285E+02  0.43705596181E+00  0.22668050017E+02  0.42206705435E+02  0.51100000000E-03 0.  1.
         23    2    1    0    0    0 -0.54333150014E+01 -0.26688596265E+02 -0.28401694658E+01  0.97616270431E+02  0.93696678745E+02 0.  0.
         11    1    3    3    0    0 -0.41033518286E+02 -0.27125652227E+02 -0.25508219483E+02  0.55409564997E+02  0.51100000000E-03 0. -1.
         22    1    1    0    0    0  0.54333150014E+01  0.26688596265E+02  0.28401694658E+01  0.27383729569E+02  0.00000000000E+00 0.  1.
</event>
<event>
 5    1  0.1282529E-003  0.9118800E+02  0.7818608E-02  0.1130116E+00
         25   -1    0    0    0    0  0.00000000000E+00  0.00000000000E+00  0.99999998245E-14  0.12500000000E+03  0.12500000000E+03 0.  0.
        -11    1    3    3    0    0  0.42086580465E+02 -0.24756143254E+02 -0.35679055335E+02  0.60474307552E+02  0.51100000000E-03 0.  1.
         23    2    1    0    0    0  0.26404749847E+02 -0.57041348721E+01 -0.97185721457E+01  0.96291140502E+02  0.91911833435E+02 0.  0.
         11    1    3    3    0    0 -0.15681830617E+02  0.19052008381E+02  0.25960483189E+02  0.35816832950E+02  0.51100000000E-03 0. -1.
         22    1    1    0    0    0 -0.26404749847E+02  0.57041348721E+01  0.97185721457E+01  0.28708859498E+02  0.00000000000E+00 0.  1.
</event>
<event>
 5    1  0.1282529E-003  0.9118800E+02  0.7818608E-02  0.1130116E+00
         25   -1    0    0    0    0  0.00000000000E+00  0.00000000000E+00  0.99999998245E-14  0.12500000000E+03  0.12500000000E+03 0.  0.
        -11    1    3    3    0    0 -0.78245872664E+00  0.10656072539E+01  0.47929657946E+02  0.47947887039E+02  0.51100000000E-03 0. -1.
         23    2    1    0    0    0 -0.10145442177E+02 -0.25403797873E+02  0.84947949608E+01  0.96356597885E+02  0.92000812340E+02 0.  0.
         11    1    3    3    0    0 -0.93629834500E+01 -0.26469405126E+02 -0.39434862985E+02  0.48408710846E+02  0.51100000000E-03 0.  1.
         22    1    1    0    0    0  0.10145442177E+02  0.25403797873E+02 -0.84947949608E+01  0.28643402115E+02  0.00000000000E+00 0. -1.
</event>
<event>
 5    1  0.1282529E-003  0.9118800E+02  0.7818608E-02  0.1130116E+00
         25   -1    0    0    0    0  0.00000000000E+00  0.00000000000E+00  0.99999998245E-14  0.12500000000E+03  0.12500000000E+03 0.  0.
        -11    1    3    3    0    0 -0.31697536130E+02 -0.10710810297E+02  0.29581338944E+02  0.44659947021E+02  0.51100000000E-03 0.  1.
         23    2    1    0    0    0 -0.16226735410E+02  0.15133827579E+02 -0.14822226147E+02  0.98315958566E+02  0.94625523204E+02 0.  0.
         11    1    3    3    0    0  0.15470800720E+02  0.25844637876E+02 -0.44403565092E+02  0.53656011545E+02  0.51100000000E-03 0. -1.
         22    1    1    0    0    0  0.16226735410E+02 -0.15133827579E+02  0.14822226147E+02  0.26684041434E+02  0.00000000000E+00 0.  1.
</event>
<event>
 5    1  0.1282529E-003  0.9118800E+02  0.7818608E-02  0.1130116E+00
         25   -1    0    0    0    0  0.00000000000E+00  0.00000000000E+00  0.99999998245E-14  0.12500000000E+03  0.12500000000E+03 0.  0.
        -11    1    3    3    0    0 -0.22310512584E+02 -0.27963925743E+02 -0.26961699441E+02  0.44795907757E+02  0.51100000000E-03 0. -1.
         23    2    1    0    0    0  0.20705174996E+02 -0.13123047964E+02 -0.24462920311E+02  0.90368321876E+02  0.83469038985E+02 0.  0.
         11    1    3    3    0    0  0.43015687580E+02  0.14840877779E+02  0.24987791301E+01  0.45572414119E+02  0.51100000000E-03 0.  1.
         22    1    1    0    0    0 -0.20705174996E+02  0.13123047964E+02  0.24462920311E+02  0.34631678124E+02  0.00000000000E+00 0. -1.
</event>
<event>
 5    1  0.1282529E-003  0.9118800E+02  0.7818608E-02  0.1130116E+00
         25   -1    0    0    0    0  0.00000000000E+00  0.00000000000E+00  0.99999998245E-14  0.12500000000E+03  0.12500000000E+03 0.  0.
        -11    1    3    3    0    0 -0.15974780325E+02 -0.30907060027E+02  0.16691836207E+02  0.38588306029E+02  0.51100000000E-03 0. -1.
         23    2    1    0    0    0  0.18069359167E+02 -0.58825138089E+01 -0.22034709318E+02  0.95903022078E+02  0.91382468338E+02 0.  0.
         11    1    3    3    0    0  0.34044139492E+02  0.25024546218E+02 -0.38726545525E+02  0.57314716049E+02  0.51100000000E-03 0.  1.
         22    1    1    0    0    0 -0.18069359167E+02  0.58825138089E+01  0.22034709318E+02  0.29096977922E+02  0.00000000000E+00 0.  1.
</event>
<event>
 5    1  0.1282529E-003  0.9118800E+02  0.7818608E-02  0.1130116E+00
         25   -1    0    0    0    0  0.00000000000E+00  0.00000000000E+00  0.99999998245E-14  0.12500000000E+03  0.12500000000E+03 0.  0.
        -11    1    3    3    0    0 -0.38634527690E+02  0.36034170429E+02  0.23740599962E+02  0.57919808832E+02  0.51100000000E-03 0. -1.
         23    2    1    0    0    0 -0.25628121743E+02  0.13453319941E+02 -0.37674995264E+01  0.95811192313E+02  0.91256770041E+02 0.  0.
         11    1    3    3    0    0  0.13006405946E+02 -0.22580850488E+02 -0.27508099489E+02  0.37891383481E+02  0.51100000000E-03 0.  1.
         22    1    1    0    0    0  0.25628121743E+02 -0.13453319941E+02  0.37674995264E+01  0.29188807687E+02  0.00000000000E+00 0. -1.
</event>
<event>
 5    1  0.1282529E-003  0.9118800E+02  0.7818608E-02  0.1130116E+00
         25   -1    0    0    0    0  0.00000000000E+00  0.00000000000E+00  0.99999998245E-14  0.12500000000E+03  0.12500000000E+03 0.  0.
        -11    1    3    3    0    0 -0.39040851828E+02 -0.23920105831E+01 -0.48194942400E+02  0.62069817941E+02  0.51100000000E-03 0.  1.
         23    2    1    0    0    0 -0.19730811138E+02  0.37342004697E+01 -0.21512134892E+02  0.95571763408E+02  0.90928218129E+02 0.  0.
         11    1    3    3    0    0  0.19310040690E+02  0.61262110528E+01  0.26682807508E+02  0.33501945467E+02  0.51100000000E-03 0. -1.
         22    1    1    0    0    0  0.19730811138E+02 -0.37342004697E+01  0.21512134892E+02  0.29428236592E+02  0.00000000000E+00 0.  1.
</event>
<event>
 5    1  0.1282529E-003  0.9118800E+02  0.7818608E-02  0.1130116E+00
         25   -1    0    0    0    0  0.00000000000E+00  0.00000000000E+00  0.99999998245E-14  0.12500000000E+03  0.12500000000E+03 0.  0.
        -11    1    3    3    0    0 -0.63545636116E+00  0.45242266794E+02  0.24291959404E+02  0.51355289906E+02  0.51100000000E-03 0.  1.
         23    2    1    0    0    0 -0.10068998626E+02  0.48352314116E+01  0.29764893985E+02  0.93208285512E+02  0.87618898521E+02 0.  0.
         11    1    3    3    0    0 -0.94335422647E+01 -0.40407035382E+02  0.54729345812E+01  0.41852995606E+02  0.51100000000E-03 0. -1.
         22    1    1    0    0    0  0.10068998626E+02 -0.48352314116E+01 -0.29764893985E+02  0.31791714488E+02  0.00000000000E+00 0.  1.
</event>
<event>
 5    1  0.1282529E-003  0.9118800E+02  0.7818608E-02  0.1130116E+00
         25   -1    0    0    0    0  0.00000000000E+00  0.00000000000E+00  0.99999998245E-14  0.12500000000E+03  0.12500000000E+03 0.  0.
        -11    1    3    3    0    0 -0.48583263981E+02 -0.12814757954E+01  0.19614154896E+01  0.48639725228E+02  0.51100000000E-03 0.  1.
         23    2    1    0    0    0 -0.11765055732E+02  0.93172514879E+01  0.26788697942E+02  0.94293941166E+02  0.89154278033E+02 0.  0.
         11    1    3    3    0    0  0.36818208249E+02  0.10598727283E+02  0.24827282453E+02  0.45654215938E+02  0.51100000000E-03 0. -1.
         22    1    1    0    0    0  0.11765055732E+02 -0.93172514879E+01 -0.26788697942E+02  0.30706058834E+02  0.00000000000E+00 0.  1.
</event>
<event>
 5    1  0.1282529E-003  0.9118800E+02  0.7818608E-02  0.1130116E+00
         25   -1    0    0    0    0  0.00000000000E+00  0.00000000000E+00  0.99999998245E-14  0.12500000000E+03  0.12500000000E+03 0.  0.
        -11    1    3    3    0    0  0.31626021951E+02 -0.26027798194E+02  0.45606613305E+02  0.61299385973E+02  0.51100000000E-03 0.  1.
         23    2    1    0    0    0  0.16342184771E+02 -0.64457747710E+01  0.28709747637E+02  0.91341945617E+02  0.84914582989E+02 0.  0.
         11    1    3    3    0    0 -0.15283837179E+02  0.19582023423E+02 -0.16896865668E+02  0.30042559643E+02  0.51100000000E-03 0. -1.
         22    1    1    0    0    0 -0.16342184771E+02  0.64457747710E+01 -0.28709747637E+02  0.33658054383E+02  0.00000000000E+00 0.  1.
</event>
<event>
 5    1  0.1282529E-003  0.9118800E+02  0.7818608E-02  0.1130116E+00
         25   -1    0    0    0    0  0.00000000000E+00  0.00000000000E+00  0.99999998245E-14  0.12500000000E+03  0.12500000000E+03 0.  0.
        -11    1    3    3    0    0 -0.51017074684E+02 -0.10608502055E+02 -0.41309185601E+01  0.52271853933E+02  0.51100000000E-03 0. -1.
         23    2    1    0    0    0 -0.14547284704E+02 -0.15218971491E+02  0.19770414100E+02  0.96119039850E+02  0.91677477946E+02 0.  0.
         11    1    3    3    0    0  0.36469789981E+02 -0.46104694354E+01  0.23901332660E+02  0.43847185917E+02  0.51100000000E-03 0.  1.
         22    1    1    0    0    0  0.14547284704E+02  0.15218971491E+02 -0.19770414100E+02  0.28880960150E+02  0.00000000000E+00 0. -1.
</event>
<event>
 5    1  0.1282529E-003  0.9118800E+02  0.7818608E-02  0.1130116E+00
         25   -1    0    0    0    0  0.00000000000E+00  0.00000000000E+00  0.99999998245E-14  0.12500000000E+03  0.12500000000E+03 0.  0.
        -11    1    3    3    0    0  0.13597228323E+02 -0.45051021605E+02  0.26941053823E+01  0.47135309162E+02  0.51100000000E-03 0. -1.
         23    2    1    0    0    0 -0.22957822969E+02 -0.15118013990E+02 -0.94755291697E+01  0.95924208772E+02  0.91411444541E+02 0.  0.
         11    1    3    3    0    0 -0.36555051292E+02  0.29933007614E+02 -0.12169634552E+02  0.48788899611E+02  0.51100000000E-03 0.  1.
         22    1    1    0    0    0  0.22957822969E+02  0.15118013990E+02  0.94755291697E+01  0.29075791228E+02  0.00000000000E+00 0.  1.
</event>
<event>
 5    1  0.1282529E-003  0.9118800E+02  0.7818608E-02  0.1130116E+00
         25   -1    0    0    0    0  0.00000000000E+00  0.00000000000E+00  0.99999998245E-14  0.12500000000E+03  0.12500000000E+03 0.  0.
        -11    1    3    3    0    0 -0.35875547631E+02 -0.41299515759E+01 -0.34951141045E+02  0.50256279990E+02  0.51100000000E-03 0. -1.
         23    2    1    0    0    0  0.80760670833E+01 -0.90623318730E+00 -0.29188673796E+02  0.94701108996E+02  0.89723337259E+02 0.  0.
         11    1    3    3    0    0  0.43951614714E+02  0.32237183886E+01  0.57624672490E+01  0.44444829005E+02  0.51100000000E-03 0.  1.
         22    1    1    0    0    0 -0.80760670833E+01  0.90623318730E+00  0.29188673796E+02  0.30298891004E+02  0.00000000000E+00 0. -1.
</event>
<event>
 5    1  0.1282529E-003  0.9118800E+02  0.7818608E-02  0.1130116E+00
         25   -1    0    0    0    0  0.00000000000E+00  0.00000000000E+00  0.99999998245E-14  0.12500000000E+03  0.12500000000E+03 0.  0.
        -11    1    3    3    0    0  0.21402696140E+02  0.34958975112E+02 -0.41806371939E+02  0.58548937462E+02  0.51100000000E-03 0.  1.
         23    2    1    0    0    0  0.21073664468E+02  0.51526775536E+01 -0.20126718851E+02  0.95407192904E+02  0.90701699136E+02 0.  0.
         11    1    3    3    0    0 -0.32903167213E+00 -0.29806297559E+02  0.21679653088E+02  0.36858255442E+02  0.51100000000E-03 0. -1.
         22    1    1    0    0    0 -0.21073664468E+02 -0.51526775536E+01  0.20126718851E+02  0.29592807096E+02  0.00000000000E+00 0.  1.
</event>
<event>
 5    1  0.1282529E-003  0.9118800E+02  0.7818608E-02  0.1130116E+00
         25   -1    0    0    0    0  0.00000000000E+00  0.00000000000E+00  0.99999998245E-14  0.12500000000E+03  0.12500000000E+03 0.  0.
        -11    1    3    3    0    0 -0.97438679698E+00 -0.17209062587E+02  0.57391856063E+02  0.59924339024E+02  0.51100000000E-03 0.  1.
         23    2    1    0    0    0 -0.65787988631E+01 -0.18307561225E+02  0.22606084289E+02  0.95175807817E+02  0.90382254642E+02 0.  0.
         11    1    3    3    0    0 -0.56044120661E+01 -0.10984986386E+01 -0.34785771775E+02  0.35251468793E+02  0.51100000000E-03 0. -1.
         22    1    1    0    0    0  0.65787988631E+01  0.18307561225E+02 -0.22606084289E+02  0.29824192183E+02  0.00000000000E+00 0.  1.
</event>
<event>
 5    1  0.1282529E-003  0.9118800E+02  0.7818608E-02  0.1130116E+00
         25   -1    0    0    0    0  0.00000000000E+00  0.00000000000E+00  0.99999998245E-14  0.12500000000E+03  0.12500000000E+03 0.  0.
        -11    1    3    3    0    0 -0.23013171835E+02  0.17781787758E+02  0.52971814710E+02  0.60430217670E+02  0.51100000000E-03 0.  1.
         23    2    1    0    0    0 -0.43254150024E+01 -0.10454134731E+01  0.27280112847E+02  0.97359329581E+02  0.93353266656E+02 0.  0.
         11    1    3    3    0    0  0.18687756833E+02 -0.18827201231E+02 -0.25691701863E+02  0.36929111911E+02  0.51100000000E-03 0. -1.
         22    1    1    0    0    0  0.43254150024E+01  0.10454134731E+01 -0.27280112847E+02  0.27640670419E+02  0.00000000000E+00 0.  1.
</event>
<event>
 5    1  0.1282529E-003  0.9118800E+02  0.7818608E-02  0.1130116E+00
         25   -1    0    0    0    0  0.00000000000E+00  0.00000000000E+00  0.99999998245E-14  0.12500000000E+03  0.12500000000E+03 0.  0.
        -11    1    3    3    0    0  0.11357202219E+00  0.39043980244E+02 -0.23340527545E+02  0.45488740565E+02  0.51100000000E-03 0. -1.
         23    2    1    0    0    0 -0.67239867263E+01  0.26518033774E+02  0.19995729536E+02  0.91114201907E+02  0.84578664430E+02 0.  0.
         11    1    3    3    0    0 -0.68375587485E+01 -0.12525946470E+02  0.43336257081E+02  0.45625461342E+02  0.51100000000E-03 0.  1.
         22    1    1    0    0    0  0.67239867263E+01 -0.26518033774E+02 -0.19995729536E+02  0.33885798093E+02  0.00000000000E+00 0. -1.
</event>
<event>
 5    1  0.1282529E-003  0.9118800E+02  0.7818608E-02  0.1130116E+00
         25   -1    0    0    0    0  0.00000000000E+00  0.00000000000E+00  0.99999998245E-14  0.12500000000E+03  0.12500000000E+03 0.  0.
        -11    1    3    3    0    0  0.84967729573E+01 -0.86921705594E+01 -0.54139297892E+02  0.55487048545E+02  0.51100000000E-03 0.  1.
         23    2    1    0    0    0  0.22822036388E+02  0.13322303001E+01 -0.17081793399E+02  0.96462168124E+02  0.92144137258E+02 0.  0.
         11    1    3    3    0    0  0.14325263431E+02  0.10024400860E+02  0.37057504493E+02  0.40975119579E+02  0.51100000000E-03 0. -1.
         22    1    1    0    0    0 -0.22822036388E+02 -0.13322303001E+01  0.17081793399E+02  0.28537831876E+02  0.00000000000E+00 0.  1.
</event>
<event>
 5    1  0.1282529E-003  0.9118800E+02  0.7818608E-02  0.1130116E+00
         25   -1    0    0    0    0  0.00000000000E+00  0.00000000000E+00  0.99999998245E-14  0.12500000000E+03  0.12500000000E+03 0.  0.
        -11    1    3    3    0    0  0.15037962324E+02  0.30106480839E+02  0.24079723671E+01  0.33739277268E+02  0.51100000000E-03 0.  1.
         23    2    1    0    0    0 -0.13534009289E+02 -0.24329230575E+02 -0.78648770588E+01  0.96070133789E+02  0.91610771459E+02 0.  0.
         11    1    3    3    0    0 -0.28571971613E+02 -0.54435711415E+02 -0.10272849426E+02  0.62330856521E+02  0.51100000000E-03 0. -1.
         22    1    1    0    0    0  0.13534009289E+02  0.24329230575E+02  0.78648770588E+01  0.28929866211E+02  0.00000000000E+00 0. -1.
</event>
<event>
 5    1  0.1282529E-003  0.9118800E+02  0.7818608E-02  0.1130116E+00
         25   -1    0    0    0    0  0.00000000000E+00  0.00000000000E+00  0.99999998245E-14  0.12500000000E+03  0.12500000000E+03 0.  0.
        -11    1    3    3    0    0 -0.43071598415E+02  0.37974963880E+02 -0.16326462861E+02  0.59697687238E+02  0.51100000000E-03 0. -1.
         23    2    1    0    0    0 -0.93383231178E+01  0.23491429823E+02 -0.13039495652E+02  0.96555668392E+02  0.92270889765E+02 0.  0.
         11    1    3    3    0    0  0.33733275297E+02 -0.14483534057E+02  0.32869672089E+01  0.36857981154E+02  0.51100000000E-03 0.  1.
         22    1    1    0    0    0  0.93383231178E+01 -0.23491429823E+02  0.13039495652E+02  0.28444331608E+02  0.00000000000E+00 0. -1.
</event>
<event>
 5    1  0.1282529E-003  0.9118800E+02  0.7818608E-02  0.1130116E+00
         25   -1    0    0    0    0  0.00000000000E+00  0.00000000000E+00  0.99999998245E-14  0.12500000000E+03  0.12500000000E+03 0.  0.
        -11    1    3    3    0    0 -0.17895064275E+02  0.28874759671E+02  0.20111289563E+02  0.39477196451E+02  0.51100000000E-03 0.  1.
         23    2    1    0    0    0  0.26206745169E+02  0.57884537001E+01 -0.84435873279E+01  0.96864722223E+02  0.92688621501E+02 0.  0.
         11    1    3    3    0    0  0.44101809445E+02 -0.23086305971E+02 -0.28554876891E+02  0.57387525772E+02  0.51100000000E-03 0. -1.
         22    1    1    0    0    0 -0.26206745169E+02 -0.57884537001E+01  0.84435873279E+01  0.28135277777E+02  0.00000000000E+00 0. -1.
</event>
<event>
 5    1  0.1282529E-003  0.9118800E+02  0.7818608E-02  0.1130116E+00
         25   -1    0    0    0    0  0.00000000000E+00  0.00000000000E+00  0.99999998245E-14  0.12500000000E+03  0.12500000000E+03 0.  0.
        -11    1    3    3    0    0  0.46789548802E+02  0.25190307018E+01 -0.10365190195E+02  0.47990046477E+02  0.51100000000E-03 0. -1.
         23    2    1    0    0    0  0.28933827664E+01  0.13829598152E+02 -0.25556589299E+02  0.95797796222E+02  0.91238418748E+02 0.  0.
         11    1    3    3    0    0 -0.43896166036E+02  0.11310567451E+02 -0.15191399104E+02  0.47807749745E+02  0.51100000000E-03 0.  1.
         22    1    1    0    0    0 -0.28933827664E+01 -0.13829598152E+02  0.25556589299E+02  0.29202203778E+02  0.00000000000E+00 0.  1.
</event>
<event>
 5    1  0.1282529E-003  0.9118800E+02  0.7818608E-02  0.1130116E+00
         25   -1    0    0    0    0  0.00000000000E+00  0.00000000000E+00  0.99999998245E-14  0.12500000000E+03  0.12500000000E+03 0.  0.
        -11    1    3    3    0    0 -0.42184451879E+02  0.37311638445E+01 -0.36601637297E+02  0.55974363927E+02  0.51100000000E-03 0.  1.
         23    2    1    0    0    0 -0.32243932397E+01 -0.13550427548E+01 -0.28745205843E+02  0.96042795169E+02  0.91573461179E+02 0.  0.
         11    1    3    3    0    0  0.38960058640E+02 -0.50862065992E+01  0.78564314535E+01  0.40068431242E+02  0.51100000000E-03 0. -1.
         22    1    1    0    0    0  0.32243932397E+01  0.13550427548E+01  0.28745205843E+02  0.28957204831E+02  0.00000000000E+00 0.  1.
</event>
<event>
 5    1  0.1282529E-003  0.9118800E+02  0.7818608E-02  0.1130116E+00
         25   -1    0    0    0    0  0.00000000000E+00  0.00000000000E+00  0.99999998245E-14  0.12500000000E+03  0.12500000000E+03 0.  0.
        -11    1    3    3    0    0 -0.22403839555E+02 -0.16445108829E+02 -0.52194010881E+02  0.59131957547E+02  0.51100000000E-03 0. -1.
         23    2    1    0    0    0  0.27829754749E+01 -0.51948182013E+01 -0.29685939406E+02  0.94734737948E+02  0.89770175933E+02 0.  0.
         11    1    3    3    0    0  0.25186815030E+02  0.11250290628E+02  0.22508071475E+02  0.35602780402E+02  0.51100000000E-03 0.  1.
         22    1    1    0    0    0 -0.27829754749E+01  0.51948182013E+01  0.29685939406E+02  0.30265262052E+02  0.00000000000E+00 0. -1.
</event>
<event>
 5    1  0.1282529E-003  0.9118800E+02  0.7818608E-02  0.1130116E+00
         25   -1    0    0    0    0  0.00000000000E+00  0.00000000000E+00  0.99999998245E-14  0.12500000000E+03  0.12500000000E+03 0.  0.
        -11    1    3    3    0    0 -0.55195193033E+02  0.23679697138E+02  0.23176201269E+01  0.60104981107E+02  0.51100000000E-03 0. -1.
         23    2    1    0    0    0 -0.18690979753E+02  0.21203445039E+02  0.10282406217E+01  0.96715797970E+02  0.92487563989E+02 0.  0.
         11    1    3    3    0    0  0.36504213280E+02 -0.24762520990E+01 -0.12893795052E+01  0.36610816864E+02  0.51100000000E-03 0.  1.
         22    1    1    0    0    0  0.18690979753E+02 -0.21203445039E+02 -0.10282406217E+01  0.28284202030E+02  0.00000000000E+00 0. -1.
</event>
<event>
 5    1  0.1282529E-003  0.9118800E+02  0.7818608E-02  0.1130116E+00
         25   -1    0    0    0    0  0.00000000000E+00  0.00000000000E+00  0.99999998245E-14  0.12500000000E+03  0.12500000000E+03 0.  0.
        -11    1    3    3    0    0  0.49112476982E+02 -0.25726672634E+02  0.16874511245E+02  0.57953828261E+02  0.51100000000E-03 0.  1.
         23    2    1    0    0    0  0.15764826652E+02 -0.79304414629E+01  0.22751137794E+02  0.96207015922E+02  0.91797352797E+02 0.  0.
         11    1    3    3    0    0 -0.33347650330E+02  0.17796231171E+02  0.58766265495E+01  0.38253187661E+02  0.51100000000E-03 0. -1.
         22    1    1    0    0    0 -0.15764826652E+02  0.79304414629E+01 -0.22751137794E+02  0.28792984078E+02  0.00000000000E+00 0.  1.
</event>
<event>
 5    1  0.1282529E-003  0.9118800E+02  0.7818608E-02  0.1130116E+00
         25   -1    0    0    0    0  0.00000000000E+00  0.00000000000E+00  0.99999998245E-14  0.12500000000E+03  0.12500000000E+03 0.  0.
        -11    1    3    3    0    0 -0.37757657788E+02 -0.56920719867E+01 -0.31400570337E+02  0.49437194731E+02  0.51100000000E-03 0.  1.
         23    2    1    0    0    0 -0.21663703943E+02 -0.15682400367E+02  0.11158343532E+02  0.96021346129E+02  0.91544178036E+02 0.  0.
         11    1    3    3    0    0  0.16093953846E+02 -0.99903283800E+01  0.42558913869E+02  0.46584151398E+02  0.51100000000E-03 0. -1.
         22    1    1    0    0    0  0.21663703943E+02  0.15682400367E+02 -0.11158343532E+02  0.28978653871E+02  0.00000000000E+00 0.  1.
</event>
<event>
 5    1  0.1282529E-003  0.9118800E+02  0.7818608E-02  0.1130116E+00
         25   -1    0    0    0    0  0.00000000000E+00  0.00000000000E+00  0.99999998245E-14  0.12500000000E+03  0.12500000000E+03 0.  0.
        -11    1    3    3    0    0 -0.27176834113E+02 -0.22972928855E+02 -0.35917629381E+02  0.50560971838E+02  0.51100000000E-03 0.  1.
         23    2    1    0    0    0  0.10203852807E+01  0.13177570795E+02 -0.23464532254E+02  0.98069091510E+02  0.94298848760E+02 0.  0.
         11    1    3    3    0    0  0.28197219393E+02  0.36150499650E+02  0.12453097127E+02  0.47508119672E+02  0.51100000000E-03 0. -1.
         22    1    1    0    0    0 -0.10203852807E+01 -0.13177570795E+02  0.23464532254E+02  0.26930908490E+02  0.00000000000E+00 0.  1.
</event>
<event>
 5    1  0.1282529E-003  0.9118800E+02  0.7818608E-02  0.1130116E+00
         25   -1    0    0    0    0  0.00000000000E+00  0.00000000000E+00  0.99999998245E-14  0.12500000000E+03  0.12500000000E+03 0.  0.
        -11    1    3    3    0    0 -0.13871194760E+02  0.23523048084E+02  0.17788329741E+02  0.32590926812E+02  0.51100000000E-03 0. -1.
         23    2    1    0    0    0 -0.69745732381E-01 -0.18016850745E+02 -0.25252194095E+02  0.93979279798E+02  0.88712005667E+02 0.  0.
         11    1    3    3    0    0  0.13801449027E+02 -0.41539898829E+02 -0.43040523836E+02  0.61388352986E+02  0.51100000000E-03 0.  1.
         22    1    1    0    0    0  0.69745732381E-01  0.18016850745E+02  0.25252194095E+02  0.31020720202E+02  0.00000000000E+00 0.  1.
</event>
<event>
 5    1  0.1282529E-003  0.9118800E+02  0.7818608E-02  0.1130116E+00
         25   -1    0    0    0    0  0.00000000000E+00  0.00000000000E+00  0.99999998245E-14  0.12500000000E+03  0.12500000000E+03 0.  0.
        -11    1    3    3    0    0  0.28100233465E+02  0.16195571320E+02 -0.22821901241E+02  0.39658023497E+02  0.51100000000E-03 0. -1.
         23    2    1    0    0    0  0.14209311590E+02  0.15955227022E+02  0.26534857928E+02  0.90932823856E+02  0.84310177108E+02 0.  0.
         11    1    3    3    0    0 -0.13890921875E+02 -0.24034429762E+00  0.49356759169E+02  0.51274800359E+02  0.51100000000E-03 0.  1.
         22    1    1    0    0    0 -0.14209311590E+02 -0.15955227022E+02 -0.26534857928E+02  0.34067176144E+02  0.00000000000E+00 0.  1.
</event>
<event>
 5    1  0.1282529E-003  0.9118800E+02  0.7818608E-02  0.1130116E+00
         25   -1    0    0    0    0  0.00000000000E+00  0.00000000000E+00  0.99999998245E-14  0.12500000000E+03  0.12500000000E+03 0.  0.
        -11    1    3    3    0    0  0.52796376203E+02  0.95436925082E+01  0.11136285789E+02  0.54795586212E+02  0.51100000000E-03 0. -1.
         23    2    1    0    0    0  0.25422709540E+02 -0.17253842392E+02  0.18073664949E+01  0.94222153888E+02  0.89053570799E+02 0.  0.
         11    1    3    3    0    0 -0.27373666663E+02 -0.26797534900E+02 -0.93289192939E+01  0.39426567677E+02  0.51100000000E-03 0.  1.
         22    1    1    0    0    0 -0.25422709540E+02  0.17253842392E+02 -0.18073664949E+01  0.30777846112E+02  0.00000000000E+00 0. -1.
</event>
<event>
 5    1  0.1282529E-003  0.9118800E+02  0.7818608E-02  0.1130116E+00
         25   -1    0    0    0    0  0.00000000000E+00  0.00000000000E+00  0.99999998245E-14  0.12500000000E+03  0.12500000000E+03 0.  0.
        -11    1    3    3    0    0  0.40775444987E+02  0.92955103131E+01 -0.12616568074E+02  0.43683191460E+02  0.51100000000E-03 0.  1.
         23    2    1    0    0    0 -0.33251233225E+01 -0.18822645323E+02 -0.20945352201E+02  0.96644115234E+02  0.92390631605E+02 0.  0.
         11    1    3    3    0    0 -0.44100568310E+02 -0.28118155636E+02 -0.83287841266E+01  0.52960923774E+02  0.51100000000E-03 0. -1.
         22    1    1    0    0    0  0.33251233225E+01  0.18822645323E+02  0.20945352201E+02  0.28355884766E+02  0.00000000000E+00 0. -1.
</event>
<event>
 5    1  0.1282529E-003  0.9118800E+02  0.7818608E-02  0.1130116E+00
         25   -1    0    0    0    0  0.00000000000E+00  0.00000000000E+00  0.99999998245E-14  0.12500000000E+03  0.12500000000E+03 0.  0.
        -11    1    3    3    0    0 -0.15637766841E+02 -0.21954512054E+02  0.46666033866E+02  0.53891178020E+02  0.51100000000E-03 0.  1.
         23    2    1    0    0    0 -0.10178467564E+02  0.12499376986E+02  0.25916308018E+02  0.94479668281E+02  0.89414300143E+02 0.  0.
         11    1    3    3    0    0  0.54592992774E+01  0.34453889041E+02 -0.20749725848E+02  0.40588490261E+02  0.51100000000E-03 0. -1.
         22    1    1    0    0    0  0.10178467564E+02 -0.12499376986E+02 -0.25916308018E+02  0.30520331719E+02  0.00000000000E+00 0.  1.
</event>
<event>
 5    1  0.1282529E-003  0.9118800E+02  0.7818608E-02  0.1130116E+00
         25   -1    0    0    0    0  0.00000000000E+00  0.00000000000E+00  0.99999998245E-14  0.12500000000E+03  0.12500000000E+03 0.  0.
        -11    1    3    3    0    0 -0.14394816679E+02  0.11289584596E+02 -0.50976667467E+02  0.54159819921E+02  0.51100000000E-03 0.  1.
         23    2    1    0    0    0  0.61033900059E+01 -0.14119349407E+02 -0.23920625759E+02  0.96560525076E+02  0.92277468913E+02 0.  0.
         11    1    3    3    0    0  0.20498206685E+02 -0.25408934003E+02  0.27056041708E+02  0.42400705155E+02  0.51100000000E-03 0. -1.
         22    1    1    0    0    0 -0.61033900059E+01  0.14119349407E+02  0.23920625759E+02  0.28439474924E+02  0.00000000000E+00 0.  1.
</event>
<event>
 5    1  0.1282529E-003  0.9118800E+02  0.7818608E-02  0.1130116E+00
         25   -1    0    0    0    0  0.00000000000E+00  0.00000000000E+00  0.99999998245E-14  0.12500000000E+03  0.12500000000E+03 0.  0.
        -11    1    3    3    0    0 -0.90549745980E+01  0.17729005972E+02 -0.34000775563E+02  0.39400037524E+02  0.51100000000E-03 0. -1.
         23    2    1    0    0    0  0.30774230427E+02 -0.50597745396E+01 -0.57500077541E+01  0.93286955902E+02  0.87731060494E+02 0.  0.
         11    1    3    3    0    0  0.39829205026E+02 -0.22788780512E+02  0.28250767809E+02  0.53886918378E+02  0.51100000000E-03 0.  1.
         22    1    1    0    0    0 -0.30774230427E+02  0.50597745396E+01  0.57500077541E+01  0.31713044098E+02  0.00000000000E+00 0.  1.
</event>
<event>
 5    1  0.1282529E-003  0.9118800E+02  0.7818608E-02  0.1130116E+00
         25   -1    0    0    0    0  0.00000000000E+00  0.00000000000E+00  0.99999998245E-14  0.12500000000E+03  0.12500000000E+03 0.  0.
        -11    1    3    3    0    0  0.23250816697E+02 -0.21823392558E+02 -0.25835073650E+02  0.41040370010E+02  0.51100000000E-03 0.  1.
         23    2    1    0    0    0 -0.22748733036E+02 -0.19836877068E+02  0.18416222138E+01  0.94760983499E+02  0.89806713974E+02 0.  0.
         11    1    3    3    0    0 -0.45999549733E+02  0.19865154901E+01  0.27676695864E+02  0.53720613489E+02  0.51100000000E-03 0. -1.
         22    1    1    0    0    0  0.22748733036E+02  0.19836877068E+02 -0.18416222138E+01  0.30239016501E+02  0.00000000000E+00 0. -1.
</event>
<event>
 5    1  0.1282529E-003  0.9118800E+02  0.7818608E-02  0.1130116E+00
         25   -1    0    0    0    0  0.00000000000E+00  0.00000000000E+00  0.99999998245E-14  0.12500000000E+03  0.12500000000E+03 0.  0.
        -11    1    3    3    0    0 -0.50323748648E+02  0.18244437701E+02  0.87070045645E+01  0.54232380676E+02  0.51100000000E-03 0. -1.
         23    2    1    0    0    0 -0.14247626813E+02  0.24088546186E+02 -0.99900032054E+01  0.95283790766E+02  0.90531473486E+02 0.  0.
         11    1    3    3    0    0  0.36076121835E+02  0.58441084857E+01 -0.18697007770E+02  0.41051410091E+02  0.51100000000E-03 0.  1.
         22    1    1    0    0    0  0.14247626813E+02 -0.24088546186E+02  0.99900032054E+01  0.29716209234E+02  0.00000000000E+00 0.  1.
</event>
<event>
 5    1  0.1282529E-003  0.9118800E+02  0.7818608E-02  0.1130116E+00
         25   -1    0    0    0    0  0.00000000000E+00  0.00000000000E+00  0.99999998245E-14  0.12500000000E+03  0.12500000000E+03 0.  0.
        -11    1    3    3    0    0 -0.41779477798E+02 -0.14548409723E+02  0.81649047225E+01  0.44987183285E+02  0.51100000000E-03 0.  1.
         23    2    1    0    0    0  0.87703575607E+01 -0.25893932544E+02  0.68717196601E+01  0.96810721090E+02  0.92615766868E+02 0.  0.
         11    1    3    3    0    0  0.50549835358E+02 -0.11345522822E+02 -0.12931850624E+01  0.51823537806E+02  0.51100000000E-03 0. -1.
         22    1    1    0    0    0 -0.87703575607E+01  0.25893932544E+02 -0.68717196601E+01  0.28189278910E+02  0.00000000000E+00 0. -1.
</event>
<event>
 5    1  0.1282529E-003  0.9118800E+02  0.7818608E-02  0.1130116E+00
         25   -1    0    0    0    0  0.00000000000E+00  0.00000000000E+00  0.99999998245E-14  0.12500000000E+03  0.12500000000E+03 0.  0.
        -11    1    3    3    0    0  0.81779371030E+01  0.27951638640E+02 -0.16933071977E+02  0.33688301898E+02  0.51100000000E-03 0.  1.
         23    2    1    0    0    0  0.39389737591E+01 -0.21299278655E+02  0.20096674480E+02  0.95452561690E+02  0.90764202319E+02 0.  0.
         11    1    3    3    0    0 -0.42389633439E+01 -0.49250917295E+02  0.37029746458E+02  0.61764259792E+02  0.51100000000E-03 0. -1.
         22    1    1    0    0    0 -0.39389737591E+01  0.21299278655E+02 -0.20096674480E+02  0.29547438310E+02  0.00000000000E+00 0. -1.
</event>
<event>
 5    1  0.1282529E-003  0.9118800E+02  0.7818608E-02  0.1130116E+00
         25   -1    0    0    0    0  0.00000000000E+00  0.00000000000E+00  0.99999998245E-14  0.12500000000E+03  0.12500000000E+03 0.  0.
        -11    1    3    3    0    0 -0.14237207317E+02 -0.37459284995E+02  0.17163355584E+01  0.40110371633E+02  0.51100000000E-03 0. -1.
         23    2    1    0    0    0 -0.11132884051E+02  0.12589547297E+02  0.24581718680E+02  0.95222513509E+02  0.90446826243E+02 0.  0.
         11    1    3    3    0    0  0.31043232663E+01  0.50048832291E+02  0.22865383122E+02  0.55112141877E+02  0.51100000000E-03 0.  1.
         22    1    1    0    0    0  0.11132884051E+02 -0.12589547297E+02 -0.24581718680E+02  0.29777486491E+02  0.00000000000E+00 0.  1.
</event>
<event>
 5    1  0.1282529E-003  0.9118800E+02  0.7818608E-02  0.1130116E+00
         25   -1    0    0    0    0  0.00000000000E+00  0.00000000000E+00  0.99999998245E-14  0.12500000000E+03  0.12500000000E+03 0.  0.
        -11    1    3    3    0    0 -0.29641792929E+02 -0.11013007139E+02 -0.36792026220E+02  0.48513662075E+02  0.51100000000E-03 0. -1.
         23    2    1    0    0    0  0.12278670367E+02  0.70815708039E+01 -0.25932889651E+02  0.95446165111E+02  0.90755392554E+02 0.  0.
         11    1    3    3    0    0  0.41920463296E+02  0.18094577943E+02  0.10859136569E+02  0.46932503036E+02  0.51100000000E-03 0.  1.
         22    1    1    0    0    0 -0.12278670367E+02 -0.70815708039E+01  0.25932889651E+02  0.29553834889E+02  0.00000000000E+00 0. -1.
</event>
<event>
 5    1  0.1282529E-003  0.9118800E+02  0.7818608E-02  0.1130116E+00
         25   -1    0    0    0    0  0.00000000000E+00  0.00000000000E+00  0.99999998245E-14  0.12500000000E+03  0.12500000000E+03 0.  0.
        -11    1    3    3    0    0  0.53170914210E+02  0.28453814245E+02  0.51516337834E+01  0.60525242617E+02  0.51100000000E-03 0.  1.
         23    2    1    0    0    0  0.23678193515E+02  0.13047911872E+02  0.13428720126E+02  0.94813324519E+02  0.89879536769E+02 0.  0.
         11    1    3    3    0    0 -0.29492720695E+02 -0.15405902373E+02  0.82770863428E+01  0.34288081902E+02  0.51100000000E-03 0. -1.
         22    1    1    0    0    0 -0.23678193515E+02 -0.13047911872E+02 -0.13428720126E+02  0.30186675481E+02  0.00000000000E+00 0.  1.
</event>
<event>
 5    1  0.1282529E-003  0.9118800E+02  0.7818608E-02  0.1130116E+00
         25   -1    0    0    0    0  0.00000000000E+00  0.00000000000E+00  0.99999998245E-14  0.12500000000E+03  0.12500000000E+03 0.  0.
        -11    1    3    3    0    0 -0.19553337254E+02  0.18844476843E+02 -0.18850086317E+02  0.33057118140E+02  0.51100000000E-03 0. -1.
         23    2    1    0    0    0  0.93607847961E+01 -0.23276293808E+02  0.16309744367E+02  0.95076465671E+02  0.90244758394E+02 0.  0.
         11    1    3    3    0    0  0.28914122050E+02 -0.42120770652E+02  0.35159830684E+02  0.62019347531E+02  0.51100000000E-03 0.  1.
         22    1    1    0    0    0 -0.93607847961E+01  0.23276293808E+02 -0.16309744367E+02  0.29923534329E+02  0.00000000000E+00 0.  1.
</event>
<event>
 5    1  0.1282529E-003  0.9118800E+02  0.7818608E-02  0.1130116E+00
         25   -1    0    0    0    0  0.00000000000E+00  0.00000000000E+00  0.99999998245E-14  0.12500000000E+03  0.12500000000E+03 0.  0.
        -11    1    3    3    0    0 -0.30958429995E+02 -0.38643052320E+02  0.18184960941E+02  0.52748485144E+02  0.51100000000E-03 0. -1.
         23    2    1    0    0    0 -0.18970496847E+02 -0.16158900198E+02 -0.16000850318E+02  0.95385526898E+02  0.90671835343E+02 0.  0.
         11    1    3    3    0    0  0.11987933148E+02  0.22484152122E+02 -0.34185811259E+02  0.42637041753E+02  0.51100000000E-03 0.  1.
         22    1    1    0    0    0  0.18970496847E+02  0.16158900198E+02  0.16000850318E+02  0.29614473102E+02  0.00000000000E+00 0. -1.
</event>
<event>
 5    1  0.1282529E-003  0.9118800E+02  0.7818608E-02  0.1130116E+00
         25   -1    0    0    0    0  0.00000000000E+00  0.00000000000E+00  0.99999998245E-14  0.12500000000E+03  0.12500000000E+03 0.  0.
        -11    1    3    3    0    0  0.16450766175E+02 -0.19048332078E+02  0.24010422407E+02  0.34784580595E+02  0.51100000000E-03 0.  1.
         23    2    1    0    0    0 -0.22270456305E+02  0.15787623351E+02 -0.87704726484E+01  0.96326955767E+02  0.91960529260E+02 0.  0.
         11    1    3    3    0    0 -0.38721222480E+02  0.34835955429E+02 -0.32780895056E+02  0.61542375173E+02  0.51100000000E-03 0. -1.
         22    1    1    0    0    0  0.22270456305E+02 -0.15787623351E+02  0.87704726484E+01  0.28673044233E+02  0.00000000000E+00 0. -1.
</event>
<event>
 5    1  0.1282529E-003  0.9118800E+02  0.7818608E-02  0.1130116E+00
         25   -1    0    0    0    0  0.00000000000E+00  0.00000000000E+00  0.99999998245E-14  0.12500000000E+03  0.12500000000E+03 0.  0.
        -11    1    3    3    0    0  0.70195695702E+01  0.41036227730E+02 -0.32202899385E+02  0.52633383629E+02  0.51100000000E-03 0. -1.
         23    2    1    0    0    0 -0.58372704606E+01  0.27841897240E+02  0.67851259329E+01  0.95754779839E+02  0.91179465669E+02 0.  0.
         11    1    3    3    0    0 -0.12856840031E+02 -0.13194330489E+02  0.38988025318E+02  0.43121396210E+02  0.51100000000E-03 0.  1.
         22    1    1    0    0    0  0.58372704606E+01 -0.27841897240E+02 -0.67851259329E+01  0.29245220161E+02  0.00000000000E+00 0. -1.
</event>
<event>
 5    1  0.1282529E-003  0.9118800E+02  0.7818608E-02  0.1130116E+00
         25   -1    0    0    0    0  0.00000000000E+00  0.00000000000E+00  0.99999998245E-14  0.12500000000E+03  0.12500000000E+03 0.  0.
        -11    1    3    3    0    0  0.40710302161E+02 -0.23823955297E+02  0.32246745046E+02  0.57138096874E+02  0.51100000000E-03 0. -1.
         23    2    1    0    0    0  0.26287459265E+02 -0.14277450160E+02 -0.14881987109E+01  0.95048525361E+02  0.90206049355E+02 0.  0.
         11    1    3    3    0    0 -0.14422842896E+02  0.95465051372E+01 -0.33734943757E+02  0.37910428487E+02  0.51100000000E-03 0.  1.
         22    1    1    0    0    0 -0.26287459265E+02  0.14277450160E+02  0.14881987109E+01  0.29951474639E+02  0.00000000000E+00 0. -1.
</event>
<event>
 5    1  0.1282529E-003  0.9118800E+02  0.7818608E-02  0.1130116E+00
         25   -1    0    0    0    0  0.00000000000E+00  0.00000000000E+00  0.99999998245E-14  0.12500000000E+03  0.12500000000E+03 0.  0.
        -11    1    3    3    0    0 -0.39881177436E+02 -0.29382626953E+02 -0.30298675495E+02  0.58067691683E+02  0.51100000000E-03 0. -1.
         23    2    1    0    0    0 -0.66985902020E+01 -0.10147894200E+02 -0.25536218184E+02  0.96716624909E+02  0.92488681617E+02 0.  0.
         11    1    3    3    0    0  0.33182587234E+02  0.19234732754E+02  0.47624573109E+01  0.38648933227E+02  0.51100000000E-03 0.  1.
         22    1    1    0    0    0  0.66985902020E+01  0.10147894200E+02  0.25536218184E+02  0.28283375091E+02  0.00000000000E+00 0.  1.
</event>
<event>
 5    1  0.1282529E-003  0.9118800E+02  0.7818608E-02  0.1130116E+00
         25   -1    0    0    0    0  0.00000000000E+00  0.00000000000E+00  0.99999998245E-14  0.12500000000E+03  0.12500000000E+03 0.  0.
        -11    1    3    3    0    0  0.46924208206E+02 -0.40491386764E+02 -0.51103941276E+01  0.62189628124E+02  0.51100000000E-03 0.  1.
         23    2    1    0    0    0  0.18343328094E+02 -0.21619543835E+02 -0.22834019730E+01  0.96555382130E+02  0.92270501963E+02 0.  0.
         11    1    3    3    0    0 -0.28580880112E+02  0.18871842930E+02  0.28269921546E+01  0.34365754006E+02  0.51100000000E-03 0. -1.
         22    1    1    0    0    0 -0.18343328094E+02  0.21619543835E+02  0.22834019730E+01  0.28444617870E+02  0.00000000000E+00 0.  1.
</event>
<event>
 5    1  0.1282529E-003  0.9118800E+02  0.7818608E-02  0.1130116E+00
         25   -1    0    0    0    0  0.00000000000E+00  0.00000000000E+00  0.99999998245E-14  0.12500000000E+03  0.12500000000E+03 0.  0.
        -11    1    3    3    0    0  0.32631294615E+01 -0.51262443736E+02 -0.25333293489E+02  0.57273570789E+02  0.51100000000E-03 0. -1.
         23    2    1    0    0    0  0.14274572403E+02 -0.19425104267E+02 -0.23994154419E+02  0.90987979487E+02  0.84391912360E+02 0.  0.
         11    1    3    3    0    0  0.11011442942E+02  0.31837339469E+02  0.13391390706E+01  0.33714408698E+02  0.51100000000E-03 0.  1.
         22    1    1    0    0    0 -0.14274572403E+02  0.19425104267E+02  0.23994154419E+02  0.34012020513E+02  0.00000000000E+00 0. -1.
</event>
<event>
 5    1  0.1282529E-003  0.9118800E+02  0.7818608E-02  0.1130116E+00
         25   -1    0    0    0    0  0.00000000000E+00  0.00000000000E+00  0.99999998245E-14  0.12500000000E+03  0.12500000000E+03 0.  0.
        -11    1    3    3    0    0 -0.34195467935E+02 -0.57403044016E+01  0.76067815701E+01  0.35498510504E+02  0.51100000000E-03 0.  1.
         23    2    1    0    0    0  0.19949856916E+02  0.52874467533E+01  0.24201301410E+02  0.93193446051E+02  0.87597725500E+02 0.  0.
         11    1    3    3    0    0  0.54145324851E+02  0.11027751155E+02  0.16594519840E+02  0.57694935547E+02  0.51100000000E-03 0. -1.
         22    1    1    0    0    0 -0.19949856916E+02 -0.52874467533E+01 -0.24201301410E+02  0.31806553949E+02  0.00000000000E+00 0.  1.
</event>
<event>
 5    1  0.1282529E-003  0.9118800E+02  0.7818608E-02  0.1130116E+00
         25   -1    0    0    0    0  0.00000000000E+00  0.00000000000E+00  0.99999998245E-14  0.12500000000E+03  0.12500000000E+03 0.  0.
        -11    1    3    3    0    0  0.44267577064E+02 -0.18835921312E+02 -0.19400135847E+02  0.51872686280E+02  0.51100000000E-03 0.  1.
         23    2    1    0    0    0  0.44971866712E+01 -0.25936344293E+02 -0.19447499634E+02  0.92271970953E+02  0.86272780982E+02 0.  0.
         11    1    3    3    0    0 -0.39770390393E+02 -0.71004229815E+01 -0.47363787028E-01  0.40399284673E+02  0.51100000000E-03 0. -1.
         22    1    1    0    0    0 -0.44971866712E+01  0.25936344293E+02  0.19447499634E+02  0.32728029047E+02  0.00000000000E+00 0.  1.
</event>
<event>
 5    1  0.1282529E-003  0.9118800E+02  0.7818608E-02  0.1130116E+00
         25   -1    0    0    0    0  0.00000000000E+00  0.00000000000E+00  0.99999998245E-14  0.12500000000E+03  0.12500000000E+03 0.  0.
        -11    1    3    3    0    0  0.40089013464E+02 -0.35552274594E+02  0.19073364668E+02  0.56876062358E+02  0.51100000000E-03 0.  1.
         23    2    1    0    0    0  0.18359737770E+02 -0.19636864292E+02 -0.98229795672E+01  0.96378725783E+02  0.92030872243E+02 0.  0.
         11    1    3    3    0    0 -0.21729275694E+02  0.15915410302E+02 -0.28896344236E+02  0.39502663426E+02  0.51100000000E-03 0. -1.
         22    1    1    0    0    0 -0.18359737770E+02  0.19636864292E+02  0.98229795672E+01  0.28621274217E+02  0.00000000000E+00 0. -1.
</event>
<event>
 5    1  0.1282529E-003  0.9118800E+02  0.7818608E-02  0.1130116E+00
         25   -1    0    0    0    0  0.00000000000E+00  0.00000000000E+00  0.99999998245E-14  0.12500000000E+03  0.12500000000E+03 0.  0.
        -11    1    3    3    0    0 -0.11224771064E+02 -0.37204568594E+02 -0.20322400970E+02  0.43854023660E+02  0.51100000000E-03 0.  1.
         23    2    1    0    0    0  0.12931426748E+02 -0.16978561410E+02  0.20491060203E+02  0.95413231106E+02  0.90710020266E+02 0.  0.
         11    1    3    3    0    0  0.24156197812E+02  0.20226007184E+02  0.40813461173E+02  0.51559207447E+02  0.51100000000E-03 0. -1.
         22    1    1    0    0    0 -0.12931426748E+02  0.16978561410E+02 -0.20491060203E+02  0.29586768894E+02  0.00000000000E+00 0. -1.
</event>
<event>
 5    1  0.1282529E-003  0.9118800E+02  0.7818608E-02  0.1130116E+00
         25   -1    0    0    0    0  0.00000000000E+00  0.00000000000E+00  0.99999998245E-14  0.12500000000E+03  0.12500000000E+03 0.  0.
        -11    1    3    3    0    0  0.32928123864E+02 -0.56629634097E+01  0.26268795293E+02  0.42501530586E+02  0.51100000000E-03 0.  1.
         23    2    1    0    0    0 -0.19230984494E+02 -0.13233060655E+02  0.17251980412E+02  0.95972849140E+02  0.91477933322E+02 0.  0.
         11    1    3    3    0    0 -0.52159108358E+02 -0.75700972457E+01 -0.90168148802E+01  0.53471318554E+02  0.51100000000E-03 0. -1.
         22    1    1    0    0    0  0.19230984494E+02  0.13233060655E+02 -0.17251980412E+02  0.29027150860E+02  0.00000000000E+00 0. -1.
</event>
<event>
 5    1  0.1282529E-003  0.9118800E+02  0.7818608E-02  0.1130116E+00
         25   -1    0    0    0    0  0.00000000000E+00  0.00000000000E+00  0.99999998245E-14  0.12500000000E+03  0.12500000000E+03 0.  0.
        -11    1    3    3    0    0  0.52848770708E+02 -0.18073270125E+02  0.27535370102E+02  0.62272243137E+02  0.51100000000E-03 0.  1.
         23    2    1    0    0    0  0.23630649564E+02 -0.11378840228E+02  0.15198745842E+02  0.94686843138E+02  0.89703460271E+02 0.  0.
         11    1    3    3    0    0 -0.29218121144E+02  0.66944298973E+01 -0.12336624261E+02  0.32414600001E+02  0.51100000000E-03 0. -1.
         22    1    1    0    0    0 -0.23630649564E+02  0.11378840228E+02 -0.15198745842E+02  0.30313156862E+02  0.00000000000E+00 0.  1.
</event>
<event>
 5    1  0.1282529E-003  0.9118800E+02  0.7818608E-02  0.1130116E+00
         25   -1    0    0    0    0  0.00000000000E+00  0.00000000000E+00  0.99999998245E-14  0.12500000000E+03  0.12500000000E+03 0.  0.
        -11    1    3    3    0    0 -0.21603688514E+02 -0.31485550791E+02 -0.32473012937E+02  0.50125401100E+02  0.51100000000E-03 0. -1.
         23    2    1    0    0    0 -0.17384087926E+02  0.13384696773E+02 -0.14800479270E+02  0.98534724499E+02  0.94914072322E+02 0.  0.
         11    1    3    3    0    0  0.42196005876E+01  0.44870247563E+02  0.17672533667E+02  0.48409323399E+02  0.51100000000E-03 0.  1.
         22    1    1    0    0    0  0.17384087926E+02 -0.13384696773E+02  0.14800479270E+02  0.26465275501E+02  0.00000000000E+00 0. -1.
</event>
<event>
 5    1  0.1282529E-003  0.9118800E+02  0.7818608E-02  0.1130116E+00
         25   -1    0    0    0    0  0.00000000000E+00  0.00000000000E+00  0.99999998245E-14  0.12500000000E+03  0.12500000000E+03 0.  0.
        -11    1    3    3    0    0 -0.24522551658E+02 -0.12832689294E+02 -0.25254808631E+02  0.37467837055E+02  0.51100000000E-03 0. -1.
         23    2    1    0    0    0  0.17306356899E+02 -0.13875893945E+02  0.17089985755E+02  0.96997892312E+02  0.92868041209E+02 0.  0.
         11    1    3    3    0    0  0.41828908557E+02 -0.10432046511E+01  0.42344794386E+02  0.59530055257E+02  0.51100000000E-03 0.  1.
         22    1    1    0    0    0 -0.17306356899E+02  0.13875893945E+02 -0.17089985755E+02  0.28002107688E+02  0.00000000000E+00 0.  1.
</event>
<event>
 5    1  0.1282529E-003  0.9118800E+02  0.7818608E-02  0.1130116E+00
         25   -1    0    0    0    0  0.00000000000E+00  0.00000000000E+00  0.99999998245E-14  0.12500000000E+03  0.12500000000E+03 0.  0.
        -11    1    3    3    0    0  0.39515476133E+02 -0.33148369973E+02  0.17893611537E+02  0.54593668314E+02  0.51100000000E-03 0. -1.
         23    2    1    0    0    0  0.75442015409E+01 -0.91315957318E+01  0.26922157571E+02  0.95587356702E+02  0.90949651872E+02 0.  0.
         11    1    3    3    0    0 -0.31971274592E+02  0.24016774241E+02  0.90285460334E+01  0.40993688389E+02  0.51100000000E-03 0.  1.
         22    1    1    0    0    0 -0.75442015409E+01  0.91315957318E+01 -0.26922157571E+02  0.29412643298E+02  0.00000000000E+00 0. -1.
</event>
<event>
 5    1  0.1282529E-003  0.9118800E+02  0.7818608E-02  0.1130116E+00
         25   -1    0    0    0    0  0.00000000000E+00  0.00000000000E+00  0.99999998245E-14  0.12500000000E+03  0.12500000000E+03 0.  0.
        -11    1    3    3    0    0 -0.19399423023E+02 -0.21652589887E+02 -0.23240591498E+02  0.37219582962E+02  0.51100000000E-03 0. -1.
         23    2    1    0    0    0  0.35152042983E+01 -0.30995971093E+01  0.28147456475E+02  0.96465048283E+02  0.92148044313E+02 0.  0.
         11    1    3    3    0    0  0.22914627321E+02  0.18552992777E+02  0.51388047973E+02  0.59245465320E+02  0.51100000000E-03 0.  1.
         22    1    1    0    0    0 -0.35152042983E+01  0.30995971093E+01 -0.28147456475E+02  0.28534951717E+02  0.00000000000E+00 0.  1.
</event>
<event>
 5    1  0.1282529E-003  0.9118800E+02  0.7818608E-02  0.1130116E+00
         25   -1    0    0    0    0  0.00000000000E+00  0.00000000000E+00  0.99999998245E-14  0.12500000000E+03  0.12500000000E+03 0.  0.
        -11    1    3    3    0    0 -0.44956412521E+02 -0.14143341834E+02 -0.74817455967E+01  0.47718860657E+02  0.51100000000E-03 0.  1.
         23    2    1    0    0    0 -0.11574298081E+01 -0.29916910785E+02  0.10284018156E+01  0.95043050807E+02  0.90198462857E+02 0.  0.
         11    1    3    3    0    0  0.43798982713E+02 -0.15773568950E+02  0.85101474123E+01  0.47324190150E+02  0.51100000000E-03 0. -1.
         22    1    1    0    0    0  0.11574298081E+01  0.29916910785E+02 -0.10284018156E+01  0.29956949193E+02  0.00000000000E+00 0. -1.
</event>
<event>
 5    1  0.1282529E-003  0.9118800E+02  0.7818608E-02  0.1130116E+00
         25   -1    0    0    0    0  0.00000000000E+00  0.00000000000E+00  0.99999998245E-14  0.12500000000E+03  0.12500000000E+03 0.  0.
        -11    1    3    3    0    0 -0.50289943544E+02  0.32992126188E+01  0.47001204235E+01  0.50616739897E+02  0.51100000000E-03 0. -1.
         23    2    1    0    0    0 -0.25829612077E+02 -0.22194772243E+02 -0.10906345798E+02  0.89240733318E+02  0.81762970405E+02 0.  0.
         11    1    3    3    0    0  0.24460331467E+02 -0.25493984861E+02 -0.15606466221E+02  0.38623993421E+02  0.51100000000E-03 0.  1.
         22    1    1    0    0    0  0.25829612077E+02  0.22194772243E+02  0.10906345798E+02  0.35759266682E+02  0.00000000000E+00 0. -1.
</event>
<event>
 5    1  0.1282529E-003  0.9118800E+02  0.7818608E-02  0.1130116E+00
         25   -1    0    0    0    0  0.00000000000E+00  0.00000000000E+00  0.99999998245E-14  0.12500000000E+03  0.12500000000E+03 0.  0.
        -11    1    3    3    0    0  0.24300399326E+02  0.35092359726E+01  0.55032105678E+02  0.60260740123E+02  0.51100000000E-03 0.  1.
         23    2    1    0    0    0  0.17150702499E+01 -0.38652425496E+01  0.29736059074E+02  0.94964774428E+02  0.90089919563E+02 0.  0.
         11    1    3    3    0    0 -0.22585329076E+02 -0.73744785223E+01 -0.25296046604E+02  0.34704034305E+02  0.51100000000E-03 0. -1.
         22    1    1    0    0    0 -0.17150702499E+01  0.38652425496E+01 -0.29736059074E+02  0.30035225572E+02  0.00000000000E+00 0.  1.
</event>
<event>
 5    1  0.1282529E-003  0.9118800E+02  0.7818608E-02  0.1130116E+00
         25   -1    0    0    0    0  0.00000000000E+00  0.00000000000E+00  0.99999998245E-14  0.12500000000E+03  0.12500000000E+03 0.  0.
        -11    1    3    3    0    0 -0.52366274366E+02  0.10518397712E+01 -0.11054990850E+01  0.52388502425E+02  0.51100000000E-03 0.  1.
         23    2    1    0    0    0 -0.17258128764E+02 -0.22880533148E+02 -0.75476223993E+01  0.95363394097E+02  0.90641317975E+02 0.  0.
         11    1    3    3    0    0  0.35108145602E+02 -0.23932372919E+02 -0.64421233142E+01  0.42974891672E+02  0.51100000000E-03 0. -1.
         22    1    1    0    0    0  0.17258128764E+02  0.22880533148E+02  0.75476223993E+01  0.29636605903E+02  0.00000000000E+00 0.  1.
</event>
<event>
 5    1  0.1282529E-003  0.9118800E+02  0.7818608E-02  0.1130116E+00
         25   -1    0    0    0    0  0.00000000000E+00  0.00000000000E+00  0.99999998245E-14  0.12500000000E+03  0.12500000000E+03 0.  0.
        -11    1    3    3    0    0  0.59202459116E+02 -0.14121733430E+02 -0.74842475355E+01  0.61321843432E+02  0.51100000000E-03 0.  1.
         23    2    1    0    0    0  0.27983976466E+02  0.57684454625E-01 -0.88882905697E+01  0.95638324714E+02  0.91019674678E+02 0.  0.
         11    1    3    3    0    0 -0.31218482650E+02  0.14179417884E+02 -0.14040430342E+01  0.34316481282E+02  0.51100000000E-03 0. -1.
         22    1    1    0    0    0 -0.27983976466E+02 -0.57684454625E-01  0.88882905697E+01  0.29361675286E+02  0.00000000000E+00 0.  1.
</event>
<event>
 5    1  0.1282529E-003  0.9118800E+02  0.7818608E-02  0.1130116E+00
         25   -1    0    0    0    0  0.00000000000E+00  0.00000000000E+00  0.99999998245E-14  0.12500000000E+03  0.12500000000E+03 0.  0.
        -11    1    3    3    0    0  0.27666083222E+02  0.16786024002E+02  0.26907717578E+02  0.42085722379E+02  0.51100000000E-03 0.  1.
         23    2    1    0    0    0 -0.64931568732E+01 -0.18850743171E+02  0.26983075955E+02  0.91450067179E+02  0.85073596344E+02 0.  0.
         11    1    3    3    0    0 -0.34159240096E+02 -0.35636767173E+02  0.75358377011E-01  0.49364344800E+02  0.51100000000E-03 0. -1.
         22    1    1    0    0    0  0.64931568732E+01  0.18850743171E+02 -0.26983075955E+02  0.33549932821E+02  0.00000000000E+00 0.  1.
</event>
<event>
 5    1  0.1282529E-003  0.9118800E+02  0.7818608E-02  0.1130116E+00
         25   -1    0    0    0    0  0.00000000000E+00  0.00000000000E+00  0.99999998245E-14  0.12500000000E+03  0.12500000000E+03 0.  0.
        -11    1    3    3    0    0  0.12899151534E+02 -0.28986938699E+02  0.50678128245E+01  0.32129635113E+02  0.51100000000E-03 0. -1.
         23    2    1    0    0    0 -0.24314228189E+02  0.19738302871E+02  0.37955236194E+01  0.93453394918E+02  0.87967884648E+02 0.  0.
         11    1    3    3    0    0 -0.37213379723E+02  0.48725241570E+02 -0.12722892050E+01  0.61323759805E+02  0.51100000000E-03 0.  1.
         22    1    1    0    0    0  0.24314228189E+02 -0.19738302871E+02 -0.37955236194E+01  0.31546605082E+02  0.00000000000E+00 0.  1.
</event>
<event>
 5    1  0.1282529E-003  0.9118800E+02  0.7818608E-02  0.1130116E+00
         25   -1    0    0    0    0  0.00000000000E+00  0.00000000000E+00  0.99999998245E-14  0.12500000000E+03  0.12500000000E+03 0.  0.
        -11    1    3    3    0    0 -0.42796076976E+02 -0.17718019744E+02  0.32752498735E+02  0.56728816327E+02  0.51100000000E-03 0. -1.
         23    2    1    0    0    0 -0.24931642988E+02 -0.11432348355E+02 -0.32219695760E+01  0.97383582800E+02  0.93385736063E+02 0.  0.
         11    1    3    3    0    0  0.17864433988E+02  0.62856713887E+01 -0.35974468311E+02  0.40654766474E+02  0.51100000000E-03 0.  1.
         22    1    1    0    0    0  0.24931642988E+02  0.11432348355E+02  0.32219695760E+01  0.27616417200E+02  0.00000000000E+00 0.  1.
</event>
<event>
 5    1  0.1282529E-003  0.9118800E+02  0.7818608E-02  0.1130116E+00
         25   -1    0    0    0    0  0.00000000000E+00  0.00000000000E+00  0.99999998245E-14  0.12500000000E+03  0.12500000000E+03 0.  0.
        -11    1    3    3    0    0 -0.12767055861E+02 -0.31272351303E+02 -0.49872967746E+02  0.60235127488E+02  0.51100000000E-03 0.  1.
         23    2    1    0    0    0 -0.19196903685E+01 -0.12420368417E+02 -0.37916540573E+02  0.85054852463E+02  0.75091365121E+02 0.  0.
         11    1    3    3    0    0  0.10847365493E+02  0.18851982885E+02  0.11956427173E+02  0.24819724975E+02  0.51100000000E-03 0. -1.
         22    1    1    0    0    0  0.19196903685E+01  0.12420368417E+02  0.37916540573E+02  0.39945147537E+02  0.00000000000E+00 0.  1.
</event>
<event>
 5    1  0.1282529E-003  0.9118800E+02  0.7818608E-02  0.1130116E+00
         25   -1    0    0    0    0  0.00000000000E+00  0.00000000000E+00  0.99999998245E-14  0.12500000000E+03  0.12500000000E+03 0.  0.
        -11    1    3    3    0    0 -0.20970508734E+02 -0.30038320454E+02  0.45786380072E+02  0.58638345241E+02  0.51100000000E-03 0. -1.
         23    2    1    0    0    0  0.52432146264E+01 -0.18046422752E+02  0.22419435151E+02  0.95746013156E+02  0.91167446433E+02 0.  0.
         11    1    3    3    0    0  0.26213723360E+02  0.11991897702E+02 -0.23366944921E+02  0.37107667915E+02  0.51100000000E-03 0.  1.
         22    1    1    0    0    0 -0.52432146264E+01  0.18046422752E+02 -0.22419435151E+02  0.29253986844E+02  0.00000000000E+00 0. -1.
</event>
<event>
 5    1  0.1282529E-003  0.9118800E+02  0.7818608E-02  0.1130116E+00
         25   -1    0    0    0    0  0.00000000000E+00  0.00000000000E+00  0.99999998245E-14  0.12500000000E+03  0.12500000000E+03 0.  0.
        -11    1    3    3    0    0 -0.13973065087E+02 -0.31224264321E+02  0.83795631240E+01  0.35219572807E+02  0.51100000000E-03 0.  1.
         23    2    1    0    0    0  0.13415496130E+02  0.12773328729E+02 -0.22739497425E+02  0.95670523251E+02  0.91063883141E+02 0.  0.
         11    1    3    3    0    0  0.27388561217E+02  0.43997593050E+02 -0.31119060549E+02  0.60450950443E+02  0.51100000000E-03 0. -1.
         22    1    1    0    0    0 -0.13415496130E+02 -0.12773328729E+02  0.22739497425E+02  0.29329476749E+02  0.00000000000E+00 0. -1.
</event>
<event>
 5    1  0.1282529E-003  0.9118800E+02  0.7818608E-02  0.1130116E+00
         25   -1    0    0    0    0  0.00000000000E+00  0.00000000000E+00  0.99999998245E-14  0.12500000000E+03  0.12500000000E+03 0.  0.
        -11    1    3    3    0    0  0.31331448282E+02  0.46148495010E+02  0.20529132885E+01  0.55817181014E+02  0.51100000000E-03 0.  1.
         23    2    1    0    0    0  0.18841734800E+02  0.13500925142E+02  0.19338672321E+02  0.94812747772E+02  0.89878734654E+02 0.  0.
         11    1    3    3    0    0 -0.12489713483E+02 -0.32647569868E+02  0.17285759032E+02  0.38995566758E+02  0.51100000000E-03 0. -1.
         22    1    1    0    0    0 -0.18841734800E+02 -0.13500925142E+02 -0.19338672321E+02  0.30187252228E+02  0.00000000000E+00 0.  1.
</event>
<event>
 5    1  0.1282529E-003  0.9118800E+02  0.7818608E-02  0.1130116E+00
         25   -1    0    0    0    0  0.00000000000E+00  0.00000000000E+00  0.99999998245E-14  0.12500000000E+03  0.12500000000E+03 0.  0.
        -11    1    3    3    0    0 -0.30841151241E+02  0.54257128045E+02  0.27344121403E+01  0.62469909265E+02  0.51100000000E-03 0. -1.
         23    2    1    0    0    0 -0.15949394424E+02  0.25289792341E+02  0.13773483010E+01  0.95069181977E+02  0.90234669027E+02 0.  0.
         11    1    3    3    0    0  0.14891756816E+02 -0.28967335704E+02 -0.13570638393E+01  0.32599272713E+02  0.51100000000E-03 0.  1.
         22    1    1    0    0    0  0.15949394424E+02 -0.25289792341E+02 -0.13773483010E+01  0.29930818023E+02  0.00000000000E+00 0. -1.
</event>
<event>
 5    1  0.1282529E-003  0.9118800E+02  0.7818608E-02  0.1130116E+00
         25   -1    0    0    0    0  0.00000000000E+00  0.00000000000E+00  0.99999998245E-14  0.12500000000E+03  0.12500000000E+03 0.  0.
        -11    1    3    3    0    0 -0.31959367988E+02 -0.69114048050E+01  0.22474094057E+02  0.39676865079E+02  0.51100000000E-03 0.  1.
         23    2    1    0    0    0  0.20155942516E+02  0.13228368361E+02  0.16320739075E+02  0.95886115474E+02  0.91359339252E+02 0.  0.
         11    1    3    3    0    0  0.52115310505E+02  0.20139773166E+02 -0.61533549816E+01  0.56209250395E+02  0.51100000000E-03 0. -1.
         22    1    1    0    0    0 -0.20155942516E+02 -0.13228368361E+02 -0.16320739075E+02  0.29113884526E+02  0.00000000000E+00 0. -1.
</event>
<event>
 5    1  0.1282529E-003  0.9118800E+02  0.7818608E-02  0.1130116E+00
         25   -1    0    0    0    0  0.00000000000E+00  0.00000000000E+00  0.99999998245E-14  0.12500000000E+03  0.12500000000E+03 0.  0.
        -11    1    3    3    0    0  0.36781629416E+02 -0.30380326535E+02  0.36941086805E+02  0.60336526230E+02  0.51100000000E-03 0.  1.
         23    2    1    0    0    0  0.72650856891E+01 -0.20292023326E+02  0.18657466905E+02  0.96493005208E+02  0.92185960439E+02 0.  0.
         11    1    3    3    0    0 -0.29516543726E+02  0.10088303209E+02 -0.18283619900E+02  0.36156478978E+02  0.51100000000E-03 0. -1.
         22    1    1    0    0    0 -0.72650856891E+01  0.20292023326E+02 -0.18657466905E+02  0.28506994792E+02  0.00000000000E+00 0.  1.
</event>
<event>
 4    1  0.1282529E-003  0.9118800E+02  0.7818608E-02  0.1130116E+00
         25   -1    0    0    0    0  0.00000000000E+00  0.00000000000E+00  0.99999998245E-14  0.12500000000E+03  0.12500000000E+03 0.  0.
        -11    1    1    0    0    0  0.13383752638E+02 -0.15988699988E+02 -0.27126031686E+02  0.34213812375E+02  0.51100000000E-03 0.  1.
         11    1    1    0    0    0 -0.17226214989E+02 -0.33144729147E+02  0.11968162554E+02  0.39224386143E+02  0.51100000000E-03 0. -1.
         22    1    1    0    0    0  0.38424623518E+01  0.49133429135E+02  0.15157869132E+02  0.51561801482E+02  0.00000000000E+00 0.  1.
</event>
<event>
 5    1  0.1282529E-003  0.9118800E+02  0.7818608E-02  0.1130116E+00
         25   -1    0    0    0    0  0.00000000000E+00  0.00000000000E+00  0.99999998245E-14  0.12500000000E+03  0.12500000000E+03 0.  0.
        -11    1    3    3    0    0 -0.11986722481E+02  0.19509702828E+02 -0.37481329912E+02  0.43922205232E+02  0.51100000000E-03 0.  1.
         23    2    1    0    0    0 -0.20192231244E+02 -0.21558129024E+02 -0.10953124133E+02  0.93496824638E+02  0.88029575482E+02 0.  0.
         11    1    3    3    0    0 -0.82055087628E+01 -0.41067831852E+02  0.26528205779E+02  0.49574619406E+02  0.51100000000E-03 0. -1.
         22    1    1    0    0    0  0.20192231244E+02  0.21558129024E+02  0.10953124133E+02  0.31503175362E+02  0.00000000000E+00 0. -1.
</event>
<event>
 5    1  0.1282529E-003  0.9118800E+02  0.7818608E-02  0.1130116E+00
         25   -1    0    0    0    0  0.00000000000E+00  0.00000000000E+00  0.99999998245E-14  0.12500000000E+03  0.12500000000E+03 0.  0.
        -11    1    3    3    0    0  0.32141610694E+02 -0.37145291173E+02 -0.37827640711E+01  0.49266267350E+02  0.51100000000E-03 0.  1.
         23    2    1    0    0    0  0.91894290551E+00 -0.10605416144E+02 -0.26727254998E+02  0.96230824354E+02  0.91829766897E+02 0.  0.
         11    1    3    3    0    0 -0.31222667789E+02  0.26539875029E+02 -0.22944490927E+02  0.46964557004E+02  0.51100000000E-03 0. -1.
         22    1    1    0    0    0 -0.91894290551E+00  0.10605416144E+02  0.26727254998E+02  0.28769175646E+02  0.00000000000E+00 0.  1.
</event>
<event>
 5    1  0.1282529E-003  0.9118800E+02  0.7818608E-02  0.1130116E+00
         25   -1    0    0    0    0  0.00000000000E+00  0.00000000000E+00  0.99999998245E-14  0.12500000000E+03  0.12500000000E+03 0.  0.
        -11    1    3    3    0    0  0.33959975069E+02  0.29199177571E+02  0.39078298521E+02  0.59438920692E+02  0.51100000000E-03 0.  1.
         23    2    1    0    0    0  0.19022953787E+02 -0.89404284710E+00  0.14359789085E+02  0.10114888627E+03  0.98296599985E+02 0.  0.
         11    1    3    3    0    0 -0.14937021281E+02 -0.30093220418E+02 -0.24718509436E+02  0.41709965582E+02  0.51100000000E-03 0. -1.
         22    1    1    0    0    0 -0.19022953787E+02  0.89404284710E+00 -0.14359789085E+02  0.23851113726E+02  0.00000000000E+00 0. -1.
</event>
<event>
 5    1  0.1282529E-003  0.9118800E+02  0.7818608E-02  0.1130116E+00
         25   -1    0    0    0    0  0.00000000000E+00  0.00000000000E+00  0.99999998245E-14  0.12500000000E+03  0.12500000000E+03 0.  0.
        -11    1    3    3    0    0 -0.50824920918E+02 -0.12338368871E+02 -0.83747310979E+01  0.52967386701E+02  0.51100000000E-03 0.  1.
         23    2    1    0    0    0 -0.41341940907E+02 -0.52013018928E+01  0.16228228573E+02  0.80283503917E+02  0.66677402314E+02 0.  0.
         11    1    3    3    0    0  0.94829800112E+01  0.71370669778E+01  0.24602959671E+02  0.27316117216E+02  0.51100000000E-03 0. -1.
         22    1    1    0    0    0  0.41341940907E+02  0.52013018928E+01 -0.16228228573E+02  0.44716496083E+02  0.00000000000E+00 0.  1.
</event>
<event>
 5    1  0.1282529E-003  0.9118800E+02  0.7818608E-02  0.1130116E+00
         25   -1    0    0    0    0  0.00000000000E+00  0.00000000000E+00  0.99999998245E-14  0.12500000000E+03  0.12500000000E+03 0.  0.
        -11    1    3    3    0    0 -0.26378073826E+02  0.54674689395E+01  0.32102815793E+02  0.41908075326E+02  0.51100000000E-03 0. -1.
         23    2    1    0    0    0  0.11747263301E+02 -0.25103486999E+02  0.10107010111E+02  0.95498560917E+02  0.90827530129E+02 0.  0.
         11    1    3    3    0    0  0.38125337127E+02 -0.30570955939E+02 -0.21995805682E+02  0.53590485591E+02  0.51100000000E-03 0.  1.
         22    1    1    0    0    0 -0.11747263301E+02  0.25103486999E+02 -0.10107010111E+02  0.29501439083E+02  0.00000000000E+00 0. -1.
</event>
<event>
 5    1  0.1282529E-003  0.9118800E+02  0.7818608E-02  0.1130116E+00
         25   -1    0    0    0    0  0.00000000000E+00  0.00000000000E+00  0.99999998245E-14  0.12500000000E+03  0.12500000000E+03 0.  0.
        -11    1    3    3    0    0  0.32185050411E+02  0.26336662416E+02  0.10439116805E+02  0.42877411502E+02  0.51100000000E-03 0. -1.
         23    2    1    0    0    0  0.10522291896E+02 -0.71895379357E+01 -0.25438681091E+02  0.96547678863E+02  0.92260065660E+02 0.  0.
         11    1    3    3    0    0 -0.21662758515E+02 -0.33526200352E+02 -0.35877797896E+02  0.53670267361E+02  0.51100000000E-03 0.  1.
         22    1    1    0    0    0 -0.10522291896E+02  0.71895379357E+01  0.25438681091E+02  0.28452321137E+02  0.00000000000E+00 0.  1.
</event>
<event>
 5    1  0.1282529E-003  0.9118800E+02  0.7818608E-02  0.1130116E+00
         25   -1    0    0    0    0  0.00000000000E+00  0.00000000000E+00  0.99999998245E-14  0.12500000000E+03  0.12500000000E+03 0.  0.
        -11    1    3    3    0    0  0.28951177115E+02 -0.94461794115E+01 -0.38825921165E+02  0.49344230832E+02  0.51100000000E-03 0. -1.
         23    2    1    0    0    0 -0.13976458222E+02 -0.11934462973E+02 -0.23878200380E+02  0.94867936608E+02  0.89955456488E+02 0.  0.
         11    1    3    3    0    0 -0.42927635337E+02 -0.24882835617E+01  0.14947720784E+02  0.45523705776E+02  0.51100000000E-03 0.  1.
         22    1    1    0    0    0  0.13976458222E+02  0.11934462973E+02  0.23878200380E+02  0.30132063392E+02  0.00000000000E+00 0.  1.
</event>
<event>
 5    1  0.1282529E-003  0.9118800E+02  0.7818608E-02  0.1130116E+00
         25   -1    0    0    0    0  0.00000000000E+00  0.00000000000E+00  0.99999998245E-14  0.12500000000E+03  0.12500000000E+03 0.  0.
        -11    1    3    3    0    0 -0.10981906984E+02  0.91673049298E+00 -0.38815351259E+02  0.40349401104E+02  0.51100000000E-03 0.  1.
         23    2    1    0    0    0 -0.16102470729E+02 -0.19620895190E+02  0.13116314018E+02  0.96428916977E+02  0.92099018694E+02 0.  0.
         11    1    3    3    0    0 -0.51205637452E+01 -0.20537625683E+02  0.51931665278E+02  0.56079515873E+02  0.51100000000E-03 0. -1.
         22    1    1    0    0    0  0.16102470729E+02  0.19620895190E+02 -0.13116314018E+02  0.28571083023E+02  0.00000000000E+00 0.  1.
</event>
<event>
 5    1  0.1282529E-003  0.9118800E+02  0.7818608E-02  0.1130116E+00
         25   -1    0    0    0    0  0.00000000000E+00  0.00000000000E+00  0.99999998245E-14  0.12500000000E+03  0.12500000000E+03 0.  0.
        -11    1    3    3    0    0 -0.39895091801E+02 -0.27742082172E+02 -0.38074149087E+02  0.61732344050E+02  0.51100000000E-03 0. -1.
         23    2    1    0    0    0 -0.19566755593E+02 -0.73984100478E+01 -0.21842529887E+02  0.94756149261E+02  0.89799985051E+02 0.  0.
         11    1    3    3    0    0  0.20328336208E+02  0.20343672124E+02  0.16231619200E+02  0.33023805210E+02  0.51100000000E-03 0.  1.
         22    1    1    0    0    0  0.19566755593E+02  0.73984100478E+01  0.21842529887E+02  0.30243850739E+02  0.00000000000E+00 0. -1.
</event>
<event>
 5    1  0.1282529E-003  0.9118800E+02  0.7818608E-02  0.1130116E+00
         25   -1    0    0    0    0  0.00000000000E+00  0.00000000000E+00  0.99999998245E-14  0.12500000000E+03  0.12500000000E+03 0.  0.
        -11    1    3    3    0    0 -0.39219454075E+02 -0.35619125917E+02  0.25326204677E+02  0.58722264539E+02  0.51100000000E-03 0.  1.
         23    2    1    0    0    0 -0.26794901798E+02 -0.43141066149E+01  0.15206906712E+02  0.93890061234E+02  0.88586202699E+02 0.  0.
         11    1    3    3    0    0  0.12424552277E+02  0.31305019303E+02 -0.10119297964E+02  0.35167796695E+02  0.51100000000E-03 0. -1.
         22    1    1    0    0    0  0.26794901798E+02  0.43141066149E+01 -0.15206906712E+02  0.31109938766E+02  0.00000000000E+00 0.  1.
</event>
<event>
 5    1  0.1282529E-003  0.9118800E+02  0.7818608E-02  0.1130116E+00
         25   -1    0    0    0    0  0.00000000000E+00  0.00000000000E+00  0.99999998245E-14  0.12500000000E+03  0.12500000000E+03 0.  0.
        -11    1    3    3    0    0 -0.15270727778E+02 -0.81940494131E+00 -0.53797306688E+02  0.55928675636E+02  0.51100000000E-03 0.  1.
         23    2    1    0    0    0 -0.56689718776E+01  0.19642091892E+02 -0.21688566849E+02  0.95194917414E+02  0.90408679635E+02 0.  0.
         11    1    3    3    0    0  0.96017559005E+01  0.20461496833E+02  0.32108739839E+02  0.39266241777E+02  0.51100000000E-03 0. -1.
         22    1    1    0    0    0  0.56689718776E+01 -0.19642091892E+02  0.21688566849E+02  0.29805082586E+02  0.00000000000E+00 0.  1.
</event>
<event>
 5    1  0.1282529E-003  0.9118800E+02  0.7818608E-02  0.1130116E+00
         25   -1    0    0    0    0  0.00000000000E+00  0.00000000000E+00  0.99999998245E-14  0.12500000000E+03  0.12500000000E+03 0.  0.
        -11    1    3    3    0    0  0.26749465320E+02 -0.13175370382E+02 -0.26158525316E+02  0.39666014755E+02  0.51100000000E-03 0.  1.
         23    2    1    0    0    0 -0.68956988898E+01  0.25912042006E+02  0.14168637272E+01  0.98148704186E+02  0.94404322181E+02 0.  0.
         11    1    3    3    0    0 -0.33645164210E+02  0.39087412388E+02  0.27575389043E+02  0.58482689430E+02  0.51100000000E-03 0. -1.
         22    1    1    0    0    0  0.68956988898E+01 -0.25912042006E+02 -0.14168637272E+01  0.26851295814E+02  0.00000000000E+00 0. -1.
</event>
<event>
 5    1  0.1282529E-003  0.9118800E+02  0.7818608E-02  0.1130116E+00
         25   -1    0    0    0    0  0.00000000000E+00  0.00000000000E+00  0.99999998245E-14  0.12500000000E+03  0.12500000000E+03 0.  0.
        -11    1    3    3    0    0  0.28331675864E+02  0.12612339794E+02 -0.12297623774E+02  0.33361452653E+02  0.51100000000E-03 0. -1.
         23    2    1    0    0    0 -0.20852816402E+02 -0.18333609406E+02  0.98347849762E+01  0.95543520556E+02  0.90889384083E+02 0.  0.
         11    1    3    3    0    0 -0.49184492266E+02 -0.30945949200E+02  0.22132408750E+02  0.62182067903E+02  0.51100000000E-03 0.  1.
         22    1    1    0    0    0  0.20852816402E+02  0.18333609406E+02 -0.98347849762E+01  0.29456479444E+02  0.00000000000E+00 0.  1.
</event>
<event>
 5    1  0.1282529E-003  0.9118800E+02  0.7818608E-02  0.1130116E+00
         25   -1    0    0    0    0  0.00000000000E+00  0.00000000000E+00  0.99999998245E-14  0.12500000000E+03  0.12500000000E+03 0.  0.
        -11    1    3    3    0    0 -0.22575023671E+02  0.50132134985E+01 -0.57738809657E+02  0.62197541304E+02  0.51100000000E-03 0.  1.
         23    2    1    0    0    0 -0.11980432297E+02  0.64671249577E+01 -0.26656737917E+02  0.95067807637E+02  0.90232765165E+02 0.  0.
         11    1    3    3    0    0  0.10594591374E+02  0.14539114592E+01  0.31082071740E+02  0.32870266333E+02  0.51100000000E-03 0. -1.
         22    1    1    0    0    0  0.11980432297E+02 -0.64671249577E+01  0.26656737917E+02  0.29932192363E+02  0.00000000000E+00 0.  1.
</event>
<event>
 5    1  0.1282529E-003  0.9118800E+02  0.7818608E-02  0.1130116E+00
         25   -1    0    0    0    0  0.00000000000E+00  0.00000000000E+00  0.99999998245E-14  0.12500000000E+03  0.12500000000E+03 0.  0.
        -11    1    3    3    0    0  0.10820223827E+02 -0.42541778571E+02 -0.40126010393E+02  0.59472488413E+02  0.51100000000E-03 0.  1.
         23    2    1    0    0    0  0.17979491582E+02 -0.30560277284E+02 -0.19054260384E+02  0.84747577663E+02  0.74578109494E+02 0.  0.
         11    1    3    3    0    0  0.71592677546E+01  0.11981501287E+02  0.21071750010E+02  0.25275089250E+02  0.51100000000E-03 0. -1.
         22    1    1    0    0    0 -0.17979491582E+02  0.30560277284E+02  0.19054260384E+02  0.40252422337E+02  0.00000000000E+00 0.  1.
</event>
<event>
 5    1  0.1282529E-003  0.9118800E+02  0.7818608E-02  0.1130116E+00
         25   -1    0    0    0    0  0.00000000000E+00  0.00000000000E+00  0.99999998245E-14  0.12500000000E+03  0.12500000000E+03 0.  0.
        -11    1    3    3    0    0 -0.33044788749E+02 -0.24210173909E+02  0.17252720011E+02  0.44449374936E+02  0.51100000000E-03 0. -1.
         23    2    1    0    0    0 -0.18791040662E+02  0.21913198248E+02  0.14221748502E+02  0.92820043551E+02  0.87063257966E+02 0.  0.
         11    1    3    3    0    0  0.14253748088E+02  0.46123372157E+02 -0.30309715089E+01  0.48370668615E+02  0.51100000000E-03 0.  1.
         22    1    1    0    0    0  0.18791040662E+02 -0.21913198248E+02 -0.14221748502E+02  0.32179956449E+02  0.00000000000E+00 0.  1.
</event>
<event>
 5    1  0.1282529E-003  0.9118800E+02  0.7818608E-02  0.1130116E+00
         25   -1    0    0    0    0  0.00000000000E+00  0.00000000000E+00  0.99999998245E-14  0.12500000000E+03  0.12500000000E+03 0.  0.
        -11    1    3    3    0    0 -0.33022689070E+02 -0.44964776336E+02 -0.19886563628E+02  0.59226721314E+02  0.51100000000E-03 0.  1.
         23    2    1    0    0    0 -0.47513422317E+01 -0.29471824285E+02 -0.50166308162E+01  0.94729052468E+02  0.89762258868E+02 0.  0.
         11    1    3    3    0    0  0.28271346838E+02  0.15492952051E+02  0.14869932812E+02  0.35502331154E+02  0.51100000000E-03 0. -1.
         22    1    1    0    0    0  0.47513422317E+01  0.29471824285E+02  0.50166308162E+01  0.30270947532E+02  0.00000000000E+00 0.  1.
</event>
<event>
 5    1  0.1282529E-003  0.9118800E+02  0.7818608E-02  0.1130116E+00
         25   -1    0    0    0    0  0.00000000000E+00  0.00000000000E+00  0.99999998245E-14  0.12500000000E+03  0.12500000000E+03 0.  0.
        -11    1    3    3    0    0  0.33309110616E+01 -0.41834036998E+02 -0.38843600161E+02  0.57183974099E+02  0.51100000000E-03 0. -1.
         23    2    1    0    0    0 -0.11795646814E+02 -0.92421522945E+01 -0.25324249112E+02  0.95574292602E+02  0.90931694972E+02 0.  0.
         11    1    3    3    0    0 -0.15126557876E+02  0.32591884704E+02  0.13519351049E+02  0.38390318503E+02  0.51100000000E-03 0.  1.
         22    1    1    0    0    0  0.11795646814E+02  0.92421522945E+01  0.25324249112E+02  0.29425707398E+02  0.00000000000E+00 0. -1.
</event>
<event>
 5    1  0.1282529E-003  0.9118800E+02  0.7818608E-02  0.1130116E+00
         25   -1    0    0    0    0  0.00000000000E+00  0.00000000000E+00  0.99999998245E-14  0.12500000000E+03  0.12500000000E+03 0.  0.
        -11    1    3    3    0    0 -0.30071598941E+02 -0.38635395820E+02  0.96468533655E+01  0.49900467464E+02  0.51100000000E-03 0. -1.
         23    2    1    0    0    0  0.40221629436E+01 -0.24960130834E+02 -0.16339875991E+02  0.94897218178E+02  0.89996136276E+02 0.  0.
         11    1    3    3    0    0  0.34093761884E+02  0.13675264986E+02 -0.25986729357E+02  0.44996750714E+02  0.51100000000E-03 0.  1.
         22    1    1    0    0    0 -0.40221629436E+01  0.24960130834E+02  0.16339875991E+02  0.30102781822E+02  0.00000000000E+00 0.  1.
</event>
<event>
 5    1  0.1282529E-003  0.9118800E+02  0.7818608E-02  0.1130116E+00
         25   -1    0    0    0    0  0.00000000000E+00  0.00000000000E+00  0.99999998245E-14  0.12500000000E+03  0.12500000000E+03 0.  0.
        -11    1    3    3    0    0  0.42809943540E+02 -0.10225409996E+02 -0.33692744065E+02  0.55429696719E+02  0.51100000000E-03 0.  1.
         23    2    1    0    0    0  0.31112895200E+01 -0.80883592811E+01 -0.28120493138E+02  0.95574436069E+02  0.90931892190E+02 0.  0.
         11    1    3    3    0    0 -0.39698654020E+02  0.21370507153E+01  0.55722509269E+01  0.40144739350E+02  0.51100000000E-03 0. -1.
         22    1    1    0    0    0 -0.31112895200E+01  0.80883592811E+01  0.28120493138E+02  0.29425563931E+02  0.00000000000E+00 0. -1.
</event>
<event>
 5    1  0.1282529E-003  0.9118800E+02  0.7818608E-02  0.1130116E+00
         25   -1    0    0    0    0  0.00000000000E+00  0.00000000000E+00  0.99999998245E-14  0.12500000000E+03  0.12500000000E+03 0.  0.
        -11    1    3    3    0    0 -0.46128472704E+02 -0.88684029977E+01 -0.30445069737E+02  0.55976663328E+02  0.51100000000E-03 0.  1.
         23    2    1    0    0    0 -0.24341298400E+02 -0.18441015085E+02 -0.20016479860E+00  0.94461337437E+02  0.89388670196E+02 0.  0.
         11    1    3    3    0    0  0.21787174304E+02 -0.95726120876E+01  0.30244904939E+02  0.38484674110E+02  0.51100000000E-03 0. -1.
         22    1    1    0    0    0  0.24341298400E+02  0.18441015085E+02  0.20016479860E+00  0.30538662563E+02  0.00000000000E+00 0. -1.
</event>
<event>
 5    1  0.1282529E-003  0.9118800E+02  0.7818608E-02  0.1130116E+00
         25   -1    0    0    0    0  0.00000000000E+00  0.00000000000E+00  0.99999998245E-14  0.12500000000E+03  0.12500000000E+03 0.  0.
        -11    1    3    3    0    0 -0.23294759021E+02 -0.30703666847E+01 -0.21531559611E+02  0.31869750689E+02  0.51100000000E-03 0. -1.
         23    2    1    0    0    0  0.21272767875E+02  0.14614633053E+02  0.17601473657E+02  0.93760121203E+02  0.88402660032E+02 0.  0.
         11    1    3    3    0    0  0.44567526896E+02  0.17684999738E+02  0.39133033268E+02  0.61890370514E+02  0.51100000000E-03 0.  1.
         22    1    1    0    0    0 -0.21272767875E+02 -0.14614633053E+02 -0.17601473657E+02  0.31239878797E+02  0.00000000000E+00 0.  1.
</event>
<event>
 5    1  0.1282529E-003  0.9118800E+02  0.7818608E-02  0.1130116E+00
         25   -1    0    0    0    0  0.00000000000E+00  0.00000000000E+00  0.99999998245E-14  0.12500000000E+03  0.12500000000E+03 0.  0.
        -11    1    3    3    0    0 -0.22471285647E+02  0.52195131080E+02 -0.19684747338E+02  0.60139667983E+02  0.51100000000E-03 0.  1.
         23    2    1    0    0    0 -0.14044277814E+02  0.24361262986E+02  0.25752644517E+01  0.96762704439E+02  0.92550937920E+02 0.  0.
         11    1    3    3    0    0  0.84270078331E+01 -0.27833868094E+02  0.22260011790E+02  0.36623036456E+02  0.51100000000E-03 0. -1.
         22    1    1    0    0    0  0.14044277814E+02 -0.24361262986E+02 -0.25752644517E+01  0.28237295561E+02  0.00000000000E+00 0.  1.
</event>
<event>
 5    1  0.1282529E-003  0.9118800E+02  0.7818608E-02  0.1130116E+00
         25   -1    0    0    0    0  0.00000000000E+00  0.00000000000E+00  0.99999998245E-14  0.12500000000E+03  0.12500000000E+03 0.  0.
        -11    1    3    3    0    0 -0.11188710971E+02 -0.55130281055E+02 -0.63565711550E+01  0.56612199564E+02  0.51100000000E-03 0.  1.
         23    2    1    0    0    0 -0.64353317492E+01 -0.19663474181E+02 -0.21222475350E+02  0.95361188088E+02  0.90638275700E+02 0.  0.
         11    1    3    3    0    0  0.47533792223E+01  0.35466806873E+02 -0.14865904195E+02  0.38748988524E+02  0.51100000000E-03 0. -1.
         22    1    1    0    0    0  0.64353317492E+01  0.19663474181E+02  0.21222475350E+02  0.29638811912E+02  0.00000000000E+00 0.  1.
</event>
<event>
 5    1  0.1282529E-003  0.9118800E+02  0.7818608E-02  0.1130116E+00
         25   -1    0    0    0    0  0.00000000000E+00  0.00000000000E+00  0.99999998245E-14  0.12500000000E+03  0.12500000000E+03 0.  0.
        -11    1    3    3    0    0 -0.45328682306E+02 -0.22663131947E+02  0.21677168976E+02  0.55119929647E+02  0.51100000000E-03 0. -1.
         23    2    1    0    0    0 -0.13306788739E+02 -0.11537181576E+01  0.27780743924E+02  0.94175149229E+02  0.88987568273E+02 0.  0.
         11    1    3    3    0    0  0.32021893567E+02  0.21509413789E+02  0.61035749478E+01  0.39055219582E+02  0.51100000000E-03 0.  1.
         22    1    1    0    0    0  0.13306788739E+02  0.11537181576E+01 -0.27780743924E+02  0.30824850771E+02  0.00000000000E+00 0. -1.
</event>
<event>
 5    1  0.1282529E-003  0.9118800E+02  0.7818608E-02  0.1130116E+00
         25   -1    0    0    0    0  0.00000000000E+00  0.00000000000E+00  0.99999998245E-14  0.12500000000E+03  0.12500000000E+03 0.  0.
        -11    1    3    3    0    0 -0.58948806632E+02  0.10723599589E+01  0.97442151897E+01  0.59758359157E+02  0.51100000000E-03 0. -1.
         23    2    1    0    0    0 -0.28771183181E+02 -0.48169813309E+01 -0.73211802949E+01  0.94923697507E+02  0.90032907188E+02 0.  0.
         11    1    3    3    0    0  0.30177623451E+02 -0.58893412898E+01 -0.17065395485E+02  0.35165338350E+02  0.51100000000E-03 0.  1.
         22    1    1    0    0    0  0.28771183181E+02  0.48169813309E+01  0.73211802949E+01  0.30076302493E+02  0.00000000000E+00 0. -1.
</event>
<event>
 4    1  0.1282529E-003  0.9118800E+02  0.7818608E-02  0.1130116E+00
         25   -1    0    0    0    0  0.00000000000E+00  0.00000000000E+00  0.99999998245E-14  0.12500000000E+03  0.12500000000E+03 0.  0.
        -11    1    1    0    0    0  0.44550129314E+01  0.58148490543E+02 -0.82087160917E+01  0.58893778218E+02  0.51100000000E-03 0. -1.
         11    1    1    0    0    0  0.81448380120E+01 -0.25624987299E+01  0.20278801326E+01  0.87759377890E+01  0.51100000000E-03 0.  1.
         22    1    1    0    0    0 -0.12599850943E+02 -0.55585991813E+02  0.61808359590E+01  0.57330283993E+02  0.00000000000E+00 0. -1.
</event>
<event>
 5    1  0.1282529E-003  0.9118800E+02  0.7818608E-02  0.1130116E+00
         25   -1    0    0    0    0  0.00000000000E+00  0.00000000000E+00  0.99999998245E-14  0.12500000000E+03  0.12500000000E+03 0.  0.
        -11    1    3    3    0    0 -0.29001351740E+01 -0.51827977949E+02  0.15531500056E+02  0.54182816248E+02  0.51100000000E-03 0. -1.
         23    2    1    0    0    0  0.18683237685E+02 -0.16297551895E+02  0.15511010596E+02  0.95755085606E+02  0.91179884852E+02 0.  0.
         11    1    3    3    0    0  0.21583372859E+02  0.35530426054E+02 -0.20489459978E-01  0.41572269359E+02  0.51100000000E-03 0.  1.
         22    1    1    0    0    0 -0.18683237685E+02  0.16297551895E+02 -0.15511010596E+02  0.29244914394E+02  0.00000000000E+00 0. -1.
</event>
<event>
 5    1  0.1282529E-003  0.9118800E+02  0.7818608E-02  0.1130116E+00
         25   -1    0    0    0    0  0.00000000000E+00  0.00000000000E+00  0.99999998245E-14  0.12500000000E+03  0.12500000000E+03 0.  0.
        -11    1    3    3    0    0 -0.95975461860E+01  0.56956358362E+02 -0.19185850781E+02  0.60862439329E+02  0.51100000000E-03 0. -1.
         23    2    1    0    0    0 -0.59554902148E+01  0.22093901853E+02 -0.17916912790E+02  0.95937582229E+02  0.91429730161E+02 0.  0.
         11    1    3    3    0    0  0.36420559712E+01 -0.34862456509E+02  0.12689379912E+01  0.35075142900E+02  0.51100000000E-03 0.  1.
         22    1    1    0    0    0  0.59554902148E+01 -0.22093901853E+02  0.17916912790E+02  0.29062417771E+02  0.00000000000E+00 0. -1.
</event>
<event>
 5    1  0.1282529E-003  0.9118800E+02  0.7818608E-02  0.1130116E+00
         25   -1    0    0    0    0  0.00000000000E+00  0.00000000000E+00  0.99999998245E-14  0.12500000000E+03  0.12500000000E+03 0.  0.
        -11    1    3    3    0    0 -0.26926094842E+02 -0.76785929698E+01  0.23260170826E+02  0.36400699452E+02  0.51100000000E-03 0. -1.
         23    2    1    0    0    0  0.17466455538E+02 -0.17941162156E+02 -0.14925746083E+02  0.95849695290E+02  0.91309494700E+02 0.  0.
         11    1    3    3    0    0  0.44392550381E+02 -0.10262569186E+02 -0.38185916910E+02  0.59448995838E+02  0.51100000000E-03 0.  1.
         22    1    1    0    0    0 -0.17466455538E+02  0.17941162156E+02  0.14925746083E+02  0.29150304710E+02  0.00000000000E+00 0.  1.
</event>
<event>
 5    1  0.1282529E-003  0.9118800E+02  0.7818608E-02  0.1130116E+00
         25   -1    0    0    0    0  0.00000000000E+00  0.00000000000E+00  0.99999998245E-14  0.12500000000E+03  0.12500000000E+03 0.  0.
        -11    1    3    3    0    0 -0.25136176814E+02  0.16662802438E+02  0.27686510833E+01  0.30284349077E+02  0.51100000000E-03 0. -1.
         23    2    1    0    0    0  0.19232219114E+02 -0.25932644234E+02  0.71015734448E+01  0.91942283285E+02  0.85793769128E+02 0.  0.
         11    1    3    3    0    0  0.44368395928E+02 -0.42595446672E+02  0.43329223615E+01  0.61657934208E+02  0.51100000000E-03 0.  1.
         22    1    1    0    0    0 -0.19232219114E+02  0.25932644234E+02 -0.71015734448E+01  0.33057716715E+02  0.00000000000E+00 0.  1.
</event>
<event>
 5    1  0.1282529E-003  0.9118800E+02  0.7818608E-02  0.1130116E+00
         25   -1    0    0    0    0  0.00000000000E+00  0.00000000000E+00  0.99999998245E-14  0.12500000000E+03  0.12500000000E+03 0.  0.
        -11    1    3    3    0    0  0.36702147697E+02 -0.19574333482E+02 -0.70058915371E+01  0.42181568170E+02  0.51100000000E-03 0.  1.
         23    2    1    0    0    0 -0.41450494317E+00  0.21718697991E+02  0.11131199519E+02  0.10059145110E+03  0.97585156528E+02 0.  0.
         11    1    3    3    0    0 -0.37116652640E+02  0.41293031473E+02  0.18137091056E+02  0.58409882928E+02  0.51100000000E-03 0. -1.
         22    1    1    0    0    0  0.41450494317E+00 -0.21718697991E+02 -0.11131199519E+02  0.24408548902E+02  0.00000000000E+00 0. -1.
</event>
<event>
 5    1  0.1282529E-003  0.9118800E+02  0.7818608E-02  0.1130116E+00
         25   -1    0    0    0    0  0.00000000000E+00  0.00000000000E+00  0.99999998245E-14  0.12500000000E+03  0.12500000000E+03 0.  0.
        -11    1    3    3    0    0 -0.28649263232E+02 -0.25267952321E+02  0.52973150105E+00  0.38203799731E+02  0.51100000000E-03 0. -1.
         23    2    1    0    0    0  0.56650352602E+01  0.41638547072E+01  0.31319969599E+02  0.92900610501E+02  0.87178854232E+02 0.  0.
         11    1    3    3    0    0  0.34314298492E+02  0.29431807028E+02  0.30790238098E+02  0.54696810769E+02  0.51100000000E-03 0.  1.
         22    1    1    0    0    0 -0.56650352602E+01 -0.41638547072E+01 -0.31319969599E+02  0.32099389499E+02  0.00000000000E+00 0.  1.
</event>
<event>
 5    1  0.1282529E-003  0.9118800E+02  0.7818608E-02  0.1130116E+00
         25   -1    0    0    0    0  0.00000000000E+00  0.00000000000E+00  0.99999998245E-14  0.12500000000E+03  0.12500000000E+03 0.  0.
        -11    1    3    3    0    0 -0.44793732084E+02  0.60555533796E+01 -0.24298833998E+02  0.51318432309E+02  0.51100000000E-03 0. -1.
         23    2    1    0    0    0  0.75400340486E-02  0.11265395418E+02 -0.26219836320E+02  0.96462498227E+02  0.92144585065E+02 0.  0.
         11    1    3    3    0    0  0.44801272118E+02  0.52098420385E+01 -0.19210023226E+01  0.45144065918E+02  0.51100000000E-03 0.  1.
         22    1    1    0    0    0 -0.75400340486E-02 -0.11265395418E+02  0.26219836320E+02  0.28537501773E+02  0.00000000000E+00 0.  1.
</event>
<event>
 5    1  0.1282529E-003  0.9118800E+02  0.7818608E-02  0.1130116E+00
         25   -1    0    0    0    0  0.00000000000E+00  0.00000000000E+00  0.99999998245E-14  0.12500000000E+03  0.12500000000E+03 0.  0.
        -11    1    3    3    0    0  0.20865483661E+02  0.81908037930E+01 -0.48357606137E+02  0.53300241526E+02  0.51100000000E-03 0.  1.
         23    2    1    0    0    0 -0.12840843166E+02  0.13181965688E+02 -0.21594279955E+02  0.96628105467E+02  0.92368968636E+02 0.  0.
         11    1    3    3    0    0 -0.33706326826E+02  0.49911618948E+01  0.26763326182E+02  0.43327863941E+02  0.51100000000E-03 0. -1.
         22    1    1    0    0    0  0.12840843166E+02 -0.13181965688E+02  0.21594279955E+02  0.28371894533E+02  0.00000000000E+00 0.  1.
</event>
<event>
 5    1  0.1282529E-003  0.9118800E+02  0.7818608E-02  0.1130116E+00
         25   -1    0    0    0    0  0.00000000000E+00  0.00000000000E+00  0.99999998245E-14  0.12500000000E+03  0.12500000000E+03 0.  0.
        -11    1    3    3    0    0  0.22745289228E+02  0.39552147183E+02  0.40872242956E+02  0.61255699926E+02  0.51100000000E-03 0.  1.
         23    2    1    0    0    0  0.98102140840E+01  0.13507986585E+02  0.26467259151E+02  0.93707479984E+02  0.88328194797E+02 0.  0.
         11    1    3    3    0    0 -0.12935075144E+02 -0.26044160598E+02 -0.14404983806E+02  0.32451780058E+02  0.51100000000E-03 0. -1.
         22    1    1    0    0    0 -0.98102140840E+01 -0.13507986585E+02 -0.26467259151E+02  0.31292520016E+02  0.00000000000E+00 0.  1.
</event>
<event>
 5    1  0.1282529E-003  0.9118800E+02  0.7818608E-02  0.1130116E+00
         25   -1    0    0    0    0  0.00000000000E+00  0.00000000000E+00  0.99999998245E-14  0.12500000000E+03  0.12500000000E+03 0.  0.
        -11    1    3    3    0    0 -0.24707668410E+02  0.11533072150E+02 -0.38200404896E+02  0.46933480224E+02  0.51100000000E-03 0. -1.
         23    2    1    0    0    0  0.15057560486E+02 -0.11819767154E+02 -0.22061404337E+02  0.95791395365E+02  0.91229648916E+02 0.  0.
         11    1    3    3    0    0  0.39765228896E+02 -0.23352839304E+02  0.16139000558E+02  0.48857915142E+02  0.51100000000E-03 0.  1.
         22    1    1    0    0    0 -0.15057560486E+02  0.11819767154E+02  0.22061404337E+02  0.29208604635E+02  0.00000000000E+00 0.  1.
</event>
<event>
 5    1  0.1282529E-003  0.9118800E+02  0.7818608E-02  0.1130116E+00
         25   -1    0    0    0    0  0.00000000000E+00  0.00000000000E+00  0.99999998245E-14  0.12500000000E+03  0.12500000000E+03 0.  0.
        -11    1    3    3    0    0 -0.15183695406E+02  0.29365148835E+02  0.45072482718E+02  0.55896200863E+02  0.51100000000E-03 0. -1.
         23    2    1    0    0    0 -0.19373365979E+02 -0.24611992222E+01  0.22865723602E+02  0.94929647046E+02  0.90041167037E+02 0.  0.
         11    1    3    3    0    0 -0.41896705735E+01 -0.31826348058E+02 -0.22206759116E+02  0.39033446183E+02  0.51100000000E-03 0.  1.
         22    1    1    0    0    0  0.19373365979E+02  0.24611992222E+01 -0.22865723602E+02  0.30070352954E+02  0.00000000000E+00 0. -1.
</event>
<event>
 5    1  0.1282529E-003  0.9118800E+02  0.7818608E-02  0.1130116E+00
         25   -1    0    0    0    0  0.00000000000E+00  0.00000000000E+00  0.99999998245E-14  0.12500000000E+03  0.12500000000E+03 0.  0.
        -11    1    3    3    0    0 -0.36094675440E+02  0.64316945853E+01  0.41220571775E+02  0.55166365007E+02  0.51100000000E-03 0.  1.
         23    2    1    0    0    0 -0.16518244351E+01  0.11773498626E+02  0.31470029730E+02  0.91359153324E+02  0.84939910119E+02 0.  0.
         11    1    3    3    0    0  0.34442851005E+02  0.53418040404E+01 -0.97505420451E+01  0.36192788317E+02  0.51100000000E-03 0. -1.
         22    1    1    0    0    0  0.16518244351E+01 -0.11773498626E+02 -0.31470029730E+02  0.33640846676E+02  0.00000000000E+00 0. -1.
</event>
<event>
 5    1  0.1282529E-003  0.9118800E+02  0.7818608E-02  0.1130116E+00
         25   -1    0    0    0    0  0.00000000000E+00  0.00000000000E+00  0.99999998245E-14  0.12500000000E+03  0.12500000000E+03 0.  0.
        -11    1    3    3    0    0 -0.42151934787E+02  0.26530331735E+02  0.19286486411E+02  0.53409855519E+02  0.51100000000E-03 0. -1.
         23    2    1    0    0    0 -0.54111303209E+01  0.29476335768E+02 -0.46379919306E-01  0.95031068541E+02  0.90181855910E+02 0.  0.
         11    1    3    3    0    0  0.36740804466E+02  0.29460040336E+01 -0.19332866331E+02  0.41621213022E+02  0.51100000000E-03 0.  1.
         22    1    1    0    0    0  0.54111303209E+01 -0.29476335768E+02  0.46379919306E-01  0.29968931459E+02  0.00000000000E+00 0. -1.
</event>
<event>
 5    1  0.1282529E-003  0.9118800E+02  0.7818608E-02  0.1130116E+00
         25   -1    0    0    0    0  0.00000000000E+00  0.00000000000E+00  0.99999998245E-14  0.12500000000E+03  0.12500000000E+03 0.  0.
        -11    1    3    3    0    0  0.94524400460E+01  0.10712745168E+02  0.35530408939E+02  0.38295188882E+02  0.51100000000E-03 0.  1.
         23    2    1    0    0    0 -0.28840292580E+02  0.12281169999E+01 -0.59361755302E+01  0.95529524479E+02  0.90870133266E+02 0.  0.
         11    1    3    3    0    0 -0.38292732626E+02 -0.94846281676E+01 -0.41466584469E+02  0.57234335598E+02  0.51100000000E-03 0. -1.
         22    1    1    0    0    0  0.28840292580E+02 -0.12281169999E+01  0.59361755302E+01  0.29470475521E+02  0.00000000000E+00 0. -1.
</event>
<event>
 5    1  0.1282529E-003  0.9118800E+02  0.7818608E-02  0.1130116E+00
         25   -1    0    0    0    0  0.00000000000E+00  0.00000000000E+00  0.99999998245E-14  0.12500000000E+03  0.12500000000E+03 0.  0.
        -11    1    3    3    0    0  0.17993219103E+02  0.66965138907E+01 -0.43606039103E+02  0.47645418231E+02  0.51100000000E-03 0. -1.
         23    2    1    0    0    0 -0.12370738077E+02  0.24046982635E+02 -0.99390922743E+01  0.96188924185E+02  0.91772714061E+02 0.  0.
         11    1    3    3    0    0 -0.30363957179E+02  0.17350468744E+02  0.33666946828E+02  0.48543505953E+02  0.51100000000E-03 0.  1.
         22    1    1    0    0    0  0.12370738077E+02 -0.24046982635E+02  0.99390922743E+01  0.28811075815E+02  0.00000000000E+00 0.  1.
</event>
<event>
 5    1  0.1282529E-003  0.9118800E+02  0.7818608E-02  0.1130116E+00
         25   -1    0    0    0    0  0.00000000000E+00  0.00000000000E+00  0.99999998245E-14  0.12500000000E+03  0.12500000000E+03 0.  0.
        -11    1    3    3    0    0 -0.24619765424E+01  0.26519678054E+02  0.26624042800E+02  0.37658920694E+02  0.51100000000E-03 0. -1.
         23    2    1    0    0    0  0.47858535776E+01 -0.26124631059E+02 -0.26141993448E+01  0.98312272846E+02  0.94620654254E+02 0.  0.
         11    1    3    3    0    0  0.72478301200E+01 -0.52644309112E+02 -0.29238242144E+02  0.60653352152E+02  0.51100000000E-03 0.  1.
         22    1    1    0    0    0 -0.47858535776E+01  0.26124631059E+02  0.26141993448E+01  0.26687727154E+02  0.00000000000E+00 0.  1.
</event>
<event>
 5    1  0.1282529E-003  0.9118800E+02  0.7818608E-02  0.1130116E+00
         25   -1    0    0    0    0  0.00000000000E+00  0.00000000000E+00  0.99999998245E-14  0.12500000000E+03  0.12500000000E+03 0.  0.
        -11    1    3    3    0    0 -0.19655808089E+02 -0.34834463900E+02  0.96506796282E+01  0.41145185434E+02  0.51100000000E-03 0.  1.
         23    2    1    0    0    0  0.94260908714E+01 -0.22668319983E+02 -0.26342242813E+02  0.88991422183E+02  0.81380928636E+02 0.  0.
         11    1    3    3    0    0  0.29081898960E+02  0.12166143917E+02 -0.35992922441E+02  0.47846236749E+02  0.51100000000E-03 0. -1.
         22    1    1    0    0    0 -0.94260908714E+01  0.22668319983E+02  0.26342242813E+02  0.36008577817E+02  0.00000000000E+00 0. -1.
</event>
<event>
 5    1  0.1282529E-003  0.9118800E+02  0.7818608E-02  0.1130116E+00
         25   -1    0    0    0    0  0.00000000000E+00  0.00000000000E+00  0.99999998245E-14  0.12500000000E+03  0.12500000000E+03 0.  0.
        -11    1    3    3    0    0 -0.18073776091E+02  0.17316970364E+02  0.29998767697E+02  0.39070000107E+02  0.51100000000E-03 0. -1.
         23    2    1    0    0    0  0.25910951736E+02 -0.98762290455E+01  0.38903179177E+01  0.96999073345E+02  0.92869630861E+02 0.  0.
         11    1    3    3    0    0  0.43984727827E+02 -0.27193199410E+02 -0.26108449779E+02  0.57929073238E+02  0.51100000000E-03 0.  1.
         22    1    1    0    0    0 -0.25910951736E+02  0.98762290455E+01 -0.38903179177E+01  0.28000926655E+02  0.00000000000E+00 0.  1.
</event>
<event>
 5    1  0.1282529E-003  0.9118800E+02  0.7818608E-02  0.1130116E+00
         25   -1    0    0    0    0  0.00000000000E+00  0.00000000000E+00  0.99999998245E-14  0.12500000000E+03  0.12500000000E+03 0.  0.
        -11    1    3    3    0    0  0.54765128185E+02  0.26575458282E+02  0.33941275100E+01  0.60967157961E+02  0.51100000000E-03 0.  1.
         23    2    1    0    0    0  0.24616669858E+02  0.17182804979E+02  0.10245069649E+02  0.93279491272E+02  0.87720424179E+02 0.  0.
         11    1    3    3    0    0 -0.30148458327E+02 -0.93926533039E+01  0.68509421393E+01  0.32312333311E+02  0.51100000000E-03 0. -1.
         22    1    1    0    0    0 -0.24616669858E+02 -0.17182804979E+02 -0.10245069649E+02  0.31720508728E+02  0.00000000000E+00 0.  1.
</event>
<event>
 5    1  0.1282529E-003  0.9118800E+02  0.7818608E-02  0.1130116E+00
         25   -1    0    0    0    0  0.00000000000E+00  0.00000000000E+00  0.99999998245E-14  0.12500000000E+03  0.12500000000E+03 0.  0.
        -11    1    3    3    0    0 -0.53746081579E+02 -0.33940062805E+01  0.24078668236E+02  0.58991040235E+02  0.51100000000E-03 0.  1.
         23    2    1    0    0    0 -0.23649867841E+02  0.11884642354E+02  0.17191358764E+02  0.93438888027E+02  0.87947268330E+02 0.  0.
         11    1    3    3    0    0  0.30096213738E+02  0.15278648635E+02 -0.68873094712E+01  0.34447847792E+02  0.51100000000E-03 0. -1.
         22    1    1    0    0    0  0.23649867841E+02 -0.11884642354E+02 -0.17191358764E+02  0.31561111973E+02  0.00000000000E+00 0.  1.
</event>
<event>
 5    1  0.1282529E-003  0.9118800E+02  0.7818608E-02  0.1130116E+00
         25   -1    0    0    0    0  0.00000000000E+00  0.00000000000E+00  0.99999998245E-14  0.12500000000E+03  0.12500000000E+03 0.  0.
        -11    1    3    3    0    0 -0.39455757289E+02 -0.32493551199E+02  0.47684712425E+01  0.51335426082E+02  0.51100000000E-03 0. -1.
         23    2    1    0    0    0 -0.25270676492E+02  0.61537825336E+01 -0.12699087830E+02  0.96056210312E+02  0.91591771344E+02 0.  0.
         11    1    3    3    0    0  0.14185080798E+02  0.38647333733E+02 -0.17467559072E+02  0.44720784229E+02  0.51100000000E-03 0.  1.
         22    1    1    0    0    0  0.25270676492E+02 -0.61537825336E+01  0.12699087830E+02  0.28943789688E+02  0.00000000000E+00 0. -1.
</event>
<event>
 5    1  0.1282529E-003  0.9118800E+02  0.7818608E-02  0.1130116E+00
         25   -1    0    0    0    0  0.00000000000E+00  0.00000000000E+00  0.99999998245E-14  0.12500000000E+03  0.12500000000E+03 0.  0.
        -11    1    3    3    0    0 -0.18817110987E+02  0.72602711077E+01  0.24628329993E+02  0.31833156315E+02  0.51100000000E-03 0.  1.
         23    2    1    0    0    0 -0.74494903813E+01  0.63574953028E+01 -0.32999247957E+02  0.90578160724E+02  0.83782696190E+02 0.  0.
         11    1    3    3    0    0  0.11367620606E+02 -0.90277580491E+00 -0.57627577950E+02  0.58745004409E+02  0.51100000000E-03 0. -1.
         22    1    1    0    0    0  0.74494903813E+01 -0.63574953028E+01  0.32999247957E+02  0.34421839276E+02  0.00000000000E+00 0. -1.
</event>
<event>
 5    1  0.1282529E-003  0.9118800E+02  0.7818608E-02  0.1130116E+00
         25   -1    0    0    0    0  0.00000000000E+00  0.00000000000E+00  0.99999998245E-14  0.12500000000E+03  0.12500000000E+03 0.  0.
        -11    1    3    3    0    0 -0.33834902709E+02 -0.31456642794E+02  0.32603363957E+02  0.56544675778E+02  0.51100000000E-03 0.  1.
         23    2    1    0    0    0 -0.16934276509E+02  0.51040760130E+01  0.18961322236E+02  0.99070228428E+02  0.95616719809E+02 0.  0.
         11    1    3    3    0    0  0.16900626200E+02  0.36560718807E+02 -0.13642041721E+02  0.42525552651E+02  0.51100000000E-03 0. -1.
         22    1    1    0    0    0  0.16934276509E+02 -0.51040760130E+01 -0.18961322236E+02  0.25929771572E+02  0.00000000000E+00 0.  1.
</event>
<event>
 5    1  0.1282529E-003  0.9118800E+02  0.7818608E-02  0.1130116E+00
         25   -1    0    0    0    0  0.00000000000E+00  0.00000000000E+00  0.99999998245E-14  0.12500000000E+03  0.12500000000E+03 0.  0.
        -11    1    3    3    0    0  0.54572043816E+02 -0.86962751858E+01  0.54536123576E+01  0.55529046961E+02  0.51100000000E-03 0.  1.
         23    2    1    0    0    0  0.18335213166E+02 -0.34518041783E+01  0.22377080060E+02  0.95865334978E+02  0.91330902462E+02 0.  0.
         11    1    3    3    0    0 -0.36236830650E+02  0.52444710074E+01  0.16923467702E+02  0.40336288017E+02  0.51100000000E-03 0. -1.
         22    1    1    0    0    0 -0.18335213166E+02  0.34518041783E+01 -0.22377080060E+02  0.29134665022E+02  0.00000000000E+00 0. -1.
</event>
<event>
 5    1  0.1282529E-003  0.9118800E+02  0.7818608E-02  0.1130116E+00
         25   -1    0    0    0    0  0.00000000000E+00  0.00000000000E+00  0.99999998245E-14  0.12500000000E+03  0.12500000000E+03 0.  0.
        -11    1    3    3    0    0  0.48371506736E+02 -0.34320937802E+02 -0.12967180536E+02  0.60711425670E+02  0.51100000000E-03 0.  1.
         23    2    1    0    0    0  0.27019259605E+02 -0.70501801728E+01 -0.94290136373E+01  0.95527101802E+02  0.90866800595E+02 0.  0.
         11    1    3    3    0    0 -0.21352247132E+02  0.27270757629E+02  0.35381668991E+01  0.34815676132E+02  0.51100000000E-03 0. -1.
         22    1    1    0    0    0 -0.27019259605E+02  0.70501801728E+01  0.94290136373E+01  0.29472898198E+02  0.00000000000E+00 0.  1.
</event>
<event>
 5    1  0.1282529E-003  0.9118800E+02  0.7818608E-02  0.1130116E+00
         25   -1    0    0    0    0  0.00000000000E+00  0.00000000000E+00  0.99999998245E-14  0.12500000000E+03  0.12500000000E+03 0.  0.
        -11    1    3    3    0    0  0.32078922065E+02 -0.43199985444E+01  0.36953241699E+02  0.49124960057E+02  0.51100000000E-03 0.  1.
         23    2    1    0    0    0  0.16189580668E+02  0.24291082051E+02  0.40573140555E+01  0.95527623327E+02  0.90867518024E+02 0.  0.
         11    1    3    3    0    0 -0.15889341396E+02  0.28611080595E+02 -0.32895927643E+02  0.46402663270E+02  0.51100000000E-03 0. -1.
         22    1    1    0    0    0 -0.16189580668E+02 -0.24291082051E+02 -0.40573140555E+01  0.29472376673E+02  0.00000000000E+00 0. -1.
</event>
<event>
 5    1  0.1282529E-003  0.9118800E+02  0.7818608E-02  0.1130116E+00
         25   -1    0    0    0    0  0.00000000000E+00  0.00000000000E+00  0.99999998245E-14  0.12500000000E+03  0.12500000000E+03 0.  0.
        -11    1    3    3    0    0  0.55975116803E+00  0.36905828851E+02  0.19078729525E+02  0.41549385616E+02  0.51100000000E-03 0. -1.
         23    2    1    0    0    0 -0.20642274420E+02  0.47981133176E+01 -0.19619339663E+02  0.96120182247E+02  0.91679035563E+02 0.  0.
         11    1    3    3    0    0 -0.21202025588E+02 -0.32107715534E+02 -0.38698069188E+02  0.54570796631E+02  0.51100000000E-03 0.  1.
         22    1    1    0    0    0  0.20642274420E+02 -0.47981133176E+01  0.19619339663E+02  0.28879817753E+02  0.00000000000E+00 0.  1.
</event>
<event>
 5    1  0.1282529E-003  0.9118800E+02  0.7818608E-02  0.1130116E+00
         25   -1    0    0    0    0  0.00000000000E+00  0.00000000000E+00  0.99999998245E-14  0.12500000000E+03  0.12500000000E+03 0.  0.
        -11    1    3    3    0    0 -0.32623343194E+02 -0.51498971352E+02  0.19852677619E+01  0.60994818303E+02  0.51100000000E-03 0.  1.
         23    2    1    0    0    0 -0.20074792119E+02 -0.21601392943E+02 -0.71003777581E+01  0.94667957207E+02  0.89677139238E+02 0.  0.
         11    1    3    3    0    0  0.12548551076E+02  0.29897578410E+02 -0.90856455199E+01  0.33673138904E+02  0.51100000000E-03 0. -1.
         22    1    1    0    0    0  0.20074792119E+02  0.21601392943E+02  0.71003777581E+01  0.30332042793E+02  0.00000000000E+00 0.  1.
</event>
<event>
 5    1  0.1282529E-003  0.9118800E+02  0.7818608E-02  0.1130116E+00
         25   -1    0    0    0    0  0.00000000000E+00  0.00000000000E+00  0.99999998245E-14  0.12500000000E+03  0.12500000000E+03 0.  0.
        -11    1    3    3    0    0  0.37576281877E+02 -0.80043151694E+00  0.13145409507E+02  0.39817325898E+02  0.51100000000E-03 0. -1.
         23    2    1    0    0    0 -0.13585345650E+02  0.20029364265E+02  0.17357542678E+02  0.95217096563E+02  0.90439339564E+02 0.  0.
         11    1    3    3    0    0 -0.51161627528E+02  0.20829795782E+02  0.42121331716E+01  0.55399770665E+02  0.51100000000E-03 0.  1.
         22    1    1    0    0    0  0.13585345650E+02 -0.20029364265E+02 -0.17357542678E+02  0.29782903437E+02  0.00000000000E+00 0.  1.
</event>
<event>
 5    1  0.1282529E-003  0.9118800E+02  0.7818608E-02  0.1130116E+00
         25   -1    0    0    0    0  0.00000000000E+00  0.00000000000E+00  0.99999998245E-14  0.12500000000E+03  0.12500000000E+03 0.  0.
        -11    1    3    3    0    0  0.37787857243E+02 -0.13624034063E+02  0.47688881250E+02  0.62351951488E+02  0.51100000000E-03 0. -1.
         23    2    1    0    0    0  0.18871700066E+02 -0.98705520158E+01  0.26493429782E+02  0.91007784978E+02  0.84421242851E+02 0.  0.
         11    1    3    3    0    0 -0.18916157177E+02  0.37534820471E+01 -0.21195451468E+02  0.28655833490E+02  0.51100000000E-03 0.  1.
         22    1    1    0    0    0 -0.18871700066E+02  0.98705520158E+01 -0.26493429782E+02  0.33992215022E+02  0.00000000000E+00 0. -1.
</event>
<event>
 5    1  0.1282529E-003  0.9118800E+02  0.7818608E-02  0.1130116E+00
         25   -1    0    0    0    0  0.00000000000E+00  0.00000000000E+00  0.99999998245E-14  0.12500000000E+03  0.12500000000E+03 0.  0.
        -11    1    3    3    0    0 -0.16511777466E+02  0.33591528617E+02 -0.56922476184E+01  0.37860682418E+02  0.51100000000E-03 0. -1.
         23    2    1    0    0    0  0.23769870033E+02 -0.31173859972E+01  0.15628928513E+02  0.96382029713E+02  0.92035359663E+02 0.  0.
         11    1    3    3    0    0  0.40281647499E+02 -0.36708914614E+02  0.21321176132E+02  0.58521347296E+02  0.51100000000E-03 0.  1.
         22    1    1    0    0    0 -0.23769870033E+02  0.31173859972E+01 -0.15628928513E+02  0.28617970287E+02  0.00000000000E+00 0.  1.
</event>
<event>
 5    1  0.1282529E-003  0.9118800E+02  0.7818608E-02  0.1130116E+00
         25   -1    0    0    0    0  0.00000000000E+00  0.00000000000E+00  0.99999998245E-14  0.12500000000E+03  0.12500000000E+03 0.  0.
        -11    1    3    3    0    0 -0.32265754514E+02 -0.27348891584E+02 -0.24436902980E+02  0.48848776984E+02  0.51100000000E-03 0. -1.
         23    2    1    0    0    0  0.11506919079E+02 -0.25827847302E+02 -0.82124966534E+01  0.95556291263E+02  0.90906945915E+02 0.  0.
         11    1    3    3    0    0  0.43772673593E+02  0.15210442824E+01  0.16224406327E+02  0.46707514279E+02  0.51100000000E-03 0.  1.
         22    1    1    0    0    0 -0.11506919079E+02  0.25827847302E+02  0.82124966534E+01  0.29443708737E+02  0.00000000000E+00 0.  1.
</event>
<event>
 5    1  0.1282529E-003  0.9118800E+02  0.7818608E-02  0.1130116E+00
         25   -1    0    0    0    0  0.00000000000E+00  0.00000000000E+00  0.99999998245E-14  0.12500000000E+03  0.12500000000E+03 0.  0.
        -11    1    3    3    0    0  0.61834130834E+01  0.18349478925E+02  0.42791307497E+02  0.46968435909E+02  0.51100000000E-03 0.  1.
         23    2    1    0    0    0 -0.25834849319E+02  0.42046766335E+01  0.52365913517E+01  0.98306543238E+02  0.94613084769E+02 0.  0.
         11    1    3    3    0    0 -0.32018262402E+02 -0.14144802291E+02 -0.37554716145E+02  0.51338107329E+02  0.51100000000E-03 0. -1.
         22    1    1    0    0    0  0.25834849319E+02 -0.42046766335E+01 -0.52365913517E+01  0.26693456762E+02  0.00000000000E+00 0.  1.
</event>
<event>
 5    1  0.1282529E-003  0.9118800E+02  0.7818608E-02  0.1130116E+00
         25   -1    0    0    0    0  0.00000000000E+00  0.00000000000E+00  0.99999998245E-14  0.12500000000E+03  0.12500000000E+03 0.  0.
        -11    1    3    3    0    0  0.34861891574E+02 -0.41526842065E+02  0.17505461851E+02  0.56976058927E+02  0.51100000000E-03 0. -1.
         23    2    1    0    0    0  0.36188585077E+01 -0.27274446900E+02 -0.35515251698E+01  0.97258245880E+02  0.93217817342E+02 0.  0.
         11    1    3    3    0    0 -0.31243033066E+02  0.14252395164E+02 -0.21056987021E+02  0.40282186953E+02  0.51100000000E-03 0.  1.
         22    1    1    0    0    0 -0.36188585077E+01  0.27274446900E+02  0.35515251698E+01  0.27741754120E+02  0.00000000000E+00 0. -1.
</event>
<event>
 5    1  0.1282529E-003  0.9118800E+02  0.7818608E-02  0.1130116E+00
         25   -1    0    0    0    0  0.00000000000E+00  0.00000000000E+00  0.99999998245E-14  0.12500000000E+03  0.12500000000E+03 0.  0.
        -11    1    3    3    0    0  0.44925115435E+02 -0.75085177610E+01  0.36282847636E+02  0.58233056494E+02  0.51100000000E-03 0.  1.
         23    2    1    0    0    0  0.93339206828E+01 -0.12259543187E+02  0.24562879783E+02  0.96004249661E+02  0.91520830500E+02 0.  0.
         11    1    3    3    0    0 -0.35591194753E+02 -0.47510254264E+01 -0.11719967853E+02  0.37771193167E+02  0.51100000000E-03 0. -1.
         22    1    1    0    0    0 -0.93339206828E+01  0.12259543187E+02 -0.24562879783E+02  0.28995750339E+02  0.00000000000E+00 0.  1.
</event>
<event>
 5    1  0.1282529E-003  0.9118800E+02  0.7818608E-02  0.1130116E+00
         25   -1    0    0    0    0  0.00000000000E+00  0.00000000000E+00  0.99999998245E-14  0.12500000000E+03  0.12500000000E+03 0.  0.
        -11    1    3    3    0    0 -0.30004089664E+02 -0.43489028822E+02  0.21250606798E+02  0.56948479470E+02  0.51100000000E-03 0.  1.
         23    2    1    0    0    0  0.22429897123E+01 -0.29331217879E+02  0.89809732540E+01  0.94242737025E+02  0.89082457623E+02 0.  0.
         11    1    3    3    0    0  0.32247079376E+02  0.14157810942E+02 -0.12269633544E+02  0.37294257555E+02  0.51100000000E-03 0. -1.
         22    1    1    0    0    0 -0.22429897123E+01  0.29331217879E+02 -0.89809732540E+01  0.30757262975E+02  0.00000000000E+00 0.  1.
</event>
<event>
 5    1  0.1282529E-003  0.9118800E+02  0.7818608E-02  0.1130116E+00
         25   -1    0    0    0    0  0.00000000000E+00  0.00000000000E+00  0.99999998245E-14  0.12500000000E+03  0.12500000000E+03 0.  0.
        -11    1    3    3    0    0 -0.16839573853E+02 -0.36080697945E+02  0.27872287122E+02  0.48603008152E+02  0.51100000000E-03 0.  1.
         23    2    1    0    0    0  0.14708784992E+02 -0.11099426583E+01  0.25228816137E+02  0.95775464207E+02  0.91207817931E+02 0.  0.
         11    1    3    3    0    0  0.31548358846E+02  0.34970755286E+02 -0.26434709854E+01  0.47172456055E+02  0.51100000000E-03 0. -1.
         22    1    1    0    0    0 -0.14708784992E+02  0.11099426583E+01 -0.25228816137E+02  0.29224535793E+02  0.00000000000E+00 0.  1.
</event>
<event>
 5    1  0.1282529E-003  0.9118800E+02  0.7818608E-02  0.1130116E+00
         25   -1    0    0    0    0  0.00000000000E+00  0.00000000000E+00  0.99999998245E-14  0.12500000000E+03  0.12500000000E+03 0.  0.
        -11    1    3    3    0    0  0.27629572520E+02 -0.88830480446E+01  0.37370814681E+02  0.47316800509E+02  0.51100000000E-03 0.  1.
         23    2    1    0    0    0  0.22335398971E+02 -0.11354984716E+02 -0.12130669167E+02  0.97161917100E+02  0.93088556090E+02 0.  0.
         11    1    3    3    0    0 -0.52941735493E+01 -0.24719366719E+01 -0.49501483848E+02  0.49845116591E+02  0.51100000000E-03 0. -1.
         22    1    1    0    0    0 -0.22335398971E+02  0.11354984716E+02  0.12130669167E+02  0.27838082900E+02  0.00000000000E+00 0. -1.
</event>
<event>
 5    1  0.1282529E-003  0.9118800E+02  0.7818608E-02  0.1130116E+00
         25   -1    0    0    0    0  0.00000000000E+00  0.00000000000E+00  0.99999998245E-14  0.12500000000E+03  0.12500000000E+03 0.  0.
        -11    1    3    3    0    0 -0.14571592766E+02 -0.43631784317E+02 -0.42191567040E+02  0.62419486124E+02  0.51100000000E-03 0.  1.
         23    2    1    0    0    0 -0.54747583191E+01 -0.16736318628E+02 -0.19147024165E+02  0.98986813455E+02  0.95507608931E+02 0.  0.
         11    1    3    3    0    0  0.90968344466E+01  0.26895465689E+02  0.23044542875E+02  0.36567327331E+02  0.51100000000E-03 0. -1.
         22    1    1    0    0    0  0.54747583191E+01  0.16736318628E+02  0.19147024165E+02  0.26013186545E+02  0.00000000000E+00 0.  1.
</event>
<event>
 5    1  0.1282529E-003  0.9118800E+02  0.7818608E-02  0.1130116E+00
         25   -1    0    0    0    0  0.00000000000E+00  0.00000000000E+00  0.99999998245E-14  0.12500000000E+03  0.12500000000E+03 0.  0.
        -11    1    3    3    0    0 -0.90199061415E+01  0.10387103668E+02 -0.56031697433E+02  0.57695768882E+02  0.51100000000E-03 0. -1.
         23    2    1    0    0    0 -0.17318244915E+02 -0.59681406405E+01 -0.21844019729E+02  0.96492079915E+02  0.92184705774E+02 0.  0.
         11    1    3    3    0    0 -0.82983387737E+01 -0.16355244308E+02  0.34187677703E+02  0.38796311033E+02  0.51100000000E-03 0.  1.
         22    1    1    0    0    0  0.17318244915E+02  0.59681406405E+01  0.21844019729E+02  0.28507920085E+02  0.00000000000E+00 0. -1.
</event>
<event>
 5    1  0.1282529E-003  0.9118800E+02  0.7818608E-02  0.1130116E+00
         25   -1    0    0    0    0  0.00000000000E+00  0.00000000000E+00  0.99999998245E-14  0.12500000000E+03  0.12500000000E+03 0.  0.
        -11    1    3    3    0    0  0.18872434401E+02 -0.41080987016E+02  0.11687859886E+02  0.46694992702E+02  0.51100000000E-03 0.  1.
         23    2    1    0    0    0  0.10095025873E+01 -0.14452904904E+02 -0.25422448706E+02  0.95738994313E+02  0.91157822365E+02 0.  0.
         11    1    3    3    0    0 -0.17862931814E+02  0.26628082112E+02 -0.37110308592E+02  0.49044001611E+02  0.51100000000E-03 0. -1.
         22    1    1    0    0    0 -0.10095025873E+01  0.14452904904E+02  0.25422448706E+02  0.29261005687E+02  0.00000000000E+00 0. -1.
</event>
<event>
 5    1  0.1282529E-003  0.9118800E+02  0.7818608E-02  0.1130116E+00
         25   -1    0    0    0    0  0.00000000000E+00  0.00000000000E+00  0.99999998245E-14  0.12500000000E+03  0.12500000000E+03 0.  0.
        -11    1    3    3    0    0  0.42361080109E+02  0.30757016192E+01 -0.32333460238E+02  0.53379525097E+02  0.51100000000E-03 0.  1.
         23    2    1    0    0    0  0.28446119262E+02  0.34233262395E+01  0.73395538631E+01  0.95423490495E+02  0.90724156782E+02 0.  0.
         11    1    3    3    0    0 -0.13914960847E+02  0.34762462027E+00  0.39673014101E+02  0.42043965397E+02  0.51100000000E-03 0. -1.
         22    1    1    0    0    0 -0.28446119262E+02 -0.34233262395E+01 -0.73395538631E+01  0.29576509505E+02  0.00000000000E+00 0. -1.
</event>
<event>
 5    1  0.1282529E-003  0.9118800E+02  0.7818608E-02  0.1130116E+00
         25   -1    0    0    0    0  0.00000000000E+00  0.00000000000E+00  0.99999998245E-14  0.12500000000E+03  0.12500000000E+03 0.  0.
        -11    1    3    3    0    0 -0.12308647673E+02  0.15162192750E+02  0.52027052101E+02  0.55571656869E+02  0.51100000000E-03 0. -1.
         23    2    1    0    0    0  0.13221816198E+02  0.15277260197E+02  0.26516543108E+02  0.91663261090E+02  0.85386270984E+02 0.  0.
         11    1    3    3    0    0  0.25530463871E+02  0.11506744728E+00 -0.25510508993E+02  0.36091604222E+02  0.51100000000E-03 0.  1.
         22    1    1    0    0    0 -0.13221816198E+02 -0.15277260197E+02 -0.26516543108E+02  0.33336738910E+02  0.00000000000E+00 0. -1.
</event>
<event>
 5    1  0.1282529E-003  0.9118800E+02  0.7818608E-02  0.1130116E+00
         25   -1    0    0    0    0  0.00000000000E+00  0.00000000000E+00  0.99999998245E-14  0.12500000000E+03  0.12500000000E+03 0.  0.
        -11    1    3    3    0    0  0.13509090969E+02  0.55990209641E+02 -0.19479591591E+01  0.57629798365E+02  0.51100000000E-03 0.  1.
         23    2    1    0    0    0 -0.10616212053E+02  0.25738772113E+02  0.43105762497E+01  0.96826086253E+02  0.92636502326E+02 0.  0.
         11    1    3    3    0    0 -0.24125303022E+02 -0.30251437529E+02  0.62585354088E+01  0.39196287888E+02  0.51100000000E-03 0. -1.
         22    1    1    0    0    0  0.10616212053E+02 -0.25738772113E+02 -0.43105762497E+01  0.28173913747E+02  0.00000000000E+00 0.  1.
</event>
<event>
 5    1  0.1282529E-003  0.9118800E+02  0.7818608E-02  0.1130116E+00
         25   -1    0    0    0    0  0.00000000000E+00  0.00000000000E+00  0.99999998245E-14  0.12500000000E+03  0.12500000000E+03 0.  0.
        -11    1    3    3    0    0 -0.35115745511E+02  0.23144535805E+01 -0.45607712016E+02  0.57606732886E+02  0.51100000000E-03 0.  1.
         23    2    1    0    0    0 -0.28692859973E+02 -0.48021777946E+01 -0.10386036688E+02  0.94109695970E+02  0.88895579150E+02 0.  0.
         11    1    3    3    0    0  0.64228855388E+01 -0.71166313751E+01  0.35221675328E+02  0.36502963084E+02  0.51100000000E-03 0. -1.
         22    1    1    0    0    0  0.28692859973E+02  0.48021777946E+01  0.10386036688E+02  0.30890304030E+02  0.00000000000E+00 0. -1.
</event>
<event>
 5    1  0.1282529E-003  0.9118800E+02  0.7818608E-02  0.1130116E+00
         25   -1    0    0    0    0  0.00000000000E+00  0.00000000000E+00  0.99999998245E-14  0.12500000000E+03  0.12500000000E+03 0.  0.
        -11    1    3    3    0    0  0.21284210497E+02 -0.27181684490E+02 -0.48972806575E+02  0.59918255752E+02  0.51100000000E-03 0.  1.
         23    2    1    0    0    0  0.21805556767E+02 -0.11464776681E+02 -0.18562969264E+02  0.94153489044E+02  0.88957137212E+02 0.  0.
         11    1    3    3    0    0  0.52134626971E+00  0.15716907809E+02  0.30409837311E+02  0.34235233292E+02  0.51100000000E-03 0. -1.
         22    1    1    0    0    0 -0.21805556767E+02  0.11464776681E+02  0.18562969264E+02  0.30846510956E+02  0.00000000000E+00 0.  1.
</event>
<event>
 5    1  0.1282529E-003  0.9118800E+02  0.7818608E-02  0.1130116E+00
         25   -1    0    0    0    0  0.00000000000E+00  0.00000000000E+00  0.99999998245E-14  0.12500000000E+03  0.12500000000E+03 0.  0.
        -11    1    3    3    0    0  0.31948250014E+02  0.20506616820E+02  0.14610291473E+01  0.37991401906E+02  0.51100000000E-03 0. -1.
         23    2    1    0    0    0 -0.24869994458E+02  0.15473202648E+02 -0.45891128369E+01  0.95352123497E+02  0.90625773785E+02 0.  0.
         11    1    3    3    0    0 -0.56818244472E+02 -0.50334141716E+01 -0.60501419842E+01  0.57360721591E+02  0.51100000000E-03 0.  1.
         22    1    1    0    0    0  0.24869994458E+02 -0.15473202648E+02  0.45891128369E+01  0.29647876503E+02  0.00000000000E+00 0.  1.
</event>
<event>
 5    1  0.1282529E-003  0.9118800E+02  0.7818608E-02  0.1130116E+00
         25   -1    0    0    0    0  0.00000000000E+00  0.00000000000E+00  0.99999998245E-14  0.12500000000E+03  0.12500000000E+03 0.  0.
        -11    1    3    3    0    0  0.24636748596E+02  0.44822419387E+02  0.90006485321E+01  0.51932940754E+02  0.51100000000E-03 0.  1.
         23    2    1    0    0    0  0.23795035173E+02  0.63347334576E+01 -0.13897466488E+02  0.96725061952E+02  0.92500083719E+02 0.  0.
         11    1    3    3    0    0 -0.84171342309E+00 -0.38487685930E+02 -0.22898115020E+02  0.44792121198E+02  0.51100000000E-03 0. -1.
         22    1    1    0    0    0 -0.23795035173E+02 -0.63347334576E+01  0.13897466488E+02  0.28274938048E+02  0.00000000000E+00 0.  1.
</event>
<event>
 5    1  0.1282529E-003  0.9118800E+02  0.7818608E-02  0.1130116E+00
         25   -1    0    0    0    0  0.00000000000E+00  0.00000000000E+00  0.99999998245E-14  0.12500000000E+03  0.12500000000E+03 0.  0.
        -11    1    3    3    0    0 -0.16684732519E+02 -0.71985619681E+01 -0.42131267981E+02  0.45882930765E+02  0.51100000000E-03 0.  1.
         23    2    1    0    0    0  0.19345865765E+01  0.27500105523E+02 -0.16412735433E+02  0.92916105078E+02  0.87201068052E+02 0.  0.
         11    1    3    3    0    0  0.18619319096E+02  0.34698667491E+02  0.25718532548E+02  0.47033174313E+02  0.51100000000E-03 0. -1.
         22    1    1    0    0    0 -0.19345865765E+01 -0.27500105523E+02  0.16412735433E+02  0.32083894922E+02  0.00000000000E+00 0.  1.
</event>
<event>
 5    1  0.1282529E-003  0.9118800E+02  0.7818608E-02  0.1130116E+00
         25   -1    0    0    0    0  0.00000000000E+00  0.00000000000E+00  0.99999998245E-14  0.12500000000E+03  0.12500000000E+03 0.  0.
        -11    1    3    3    0    0  0.40592711860E+02  0.12381979056E+01  0.37440054909E+02  0.55236392913E+02  0.51100000000E-03 0.  1.
         23    2    1    0    0    0  0.26996834506E+02 -0.12142465296E+02  0.21896892600E+01  0.95317289951E+02  0.90577715183E+02 0.  0.
         11    1    3    3    0    0 -0.13595877354E+02 -0.13380663202E+02 -0.35250365649E+02  0.40080897038E+02  0.51100000000E-03 0. -1.
         22    1    1    0    0    0 -0.26996834506E+02  0.12142465296E+02 -0.21896892600E+01  0.29682710049E+02  0.00000000000E+00 0.  1.
</event>
<event>
 5    1  0.1282529E-003  0.9118800E+02  0.7818608E-02  0.1130116E+00
         25   -1    0    0    0    0  0.00000000000E+00  0.00000000000E+00  0.99999998245E-14  0.12500000000E+03  0.12500000000E+03 0.  0.
        -11    1    3    3    0    0  0.32103274268E+02 -0.18051123164E+02  0.44256407950E+02  0.57576843532E+02  0.51100000000E-03 0. -1.
         23    2    1    0    0    0  0.10880754448E+02 -0.23708219961E+02  0.12798055887E+02  0.95943834638E+02  0.91438277868E+02 0.  0.
         11    1    3    3    0    0 -0.21222519821E+02 -0.56570967974E+01 -0.31458352063E+02  0.38366991105E+02  0.51100000000E-03 0.  1.
         22    1    1    0    0    0 -0.10880754448E+02  0.23708219961E+02 -0.12798055887E+02  0.29056165362E+02  0.00000000000E+00 0. -1.
</event>
<event>
 5    1  0.1282529E-003  0.9118800E+02  0.7818608E-02  0.1130116E+00
         25   -1    0    0    0    0  0.00000000000E+00  0.00000000000E+00  0.99999998245E-14  0.12500000000E+03  0.12500000000E+03 0.  0.
        -11    1    3    3    0    0  0.33610392021E+02  0.29505038009E+01  0.22682181083E+02  0.40655199710E+02  0.51100000000E-03 0. -1.
         23    2    1    0    0    0  0.11359707231E+02 -0.76045959773E+01 -0.26232291074E+02  0.95419500962E+02  0.90718659825E+02 0.  0.
         11    1    3    3    0    0 -0.22250684790E+02 -0.10555099778E+02 -0.48914472157E+02  0.54764301252E+02  0.51100000000E-03 0.  1.
         22    1    1    0    0    0 -0.11359707231E+02  0.76045959773E+01  0.26232291074E+02  0.29580499038E+02  0.00000000000E+00 0.  1.
</event>
<event>
 5    1  0.1282529E-003  0.9118800E+02  0.7818608E-02  0.1130116E+00
         25   -1    0    0    0    0  0.00000000000E+00  0.00000000000E+00  0.99999998245E-14  0.12500000000E+03  0.12500000000E+03 0.  0.
        -11    1    3    3    0    0  0.67206146456E+01 -0.46319507760E+02  0.21052541192E+02  0.51321271918E+02  0.51100000000E-03 0.  1.
         23    2    1    0    0    0 -0.18016414703E+02 -0.19955532797E+02 -0.71585653699E+01  0.97178074364E+02  0.93110249655E+02 0.  0.
         11    1    3    3    0    0 -0.24737029348E+02  0.26363974963E+02 -0.28211106562E+02  0.45856802446E+02  0.51100000000E-03 0. -1.
         22    1    1    0    0    0  0.18016414703E+02  0.19955532797E+02  0.71585653699E+01  0.27821925636E+02  0.00000000000E+00 0.  1.
</event>
<event>
 5    1  0.1282529E-003  0.9118800E+02  0.7818608E-02  0.1130116E+00
         25   -1    0    0    0    0  0.00000000000E+00  0.00000000000E+00  0.99999998245E-14  0.12500000000E+03  0.12500000000E+03 0.  0.
        -11    1    3    3    0    0 -0.30106760779E+02  0.23657815019E+02 -0.12432303366E+02  0.40257563554E+02  0.51100000000E-03 0. -1.
         23    2    1    0    0    0  0.15531542109E+02  0.25330015010E+02  0.13042226746E+02  0.92550991708E+02  0.86676109320E+02 0.  0.
         11    1    3    3    0    0  0.45638302888E+02  0.16721999907E+01  0.25474530112E+02  0.52293428153E+02  0.51100000000E-03 0.  1.
         22    1    1    0    0    0 -0.15531542109E+02 -0.25330015010E+02 -0.13042226746E+02  0.32449008292E+02  0.00000000000E+00 0.  1.
</event>
<event>
 5    1  0.1282529E-003  0.9118800E+02  0.7818608E-02  0.1130116E+00
         25   -1    0    0    0    0  0.00000000000E+00  0.00000000000E+00  0.99999998245E-14  0.12500000000E+03  0.12500000000E+03 0.  0.
        -11    1    3    3    0    0  0.11263905178E+02 -0.72541114783E+01 -0.60169525137E+02  0.61643081109E+02  0.51100000000E-03 0.  1.
         23    2    1    0    0    0 -0.11054873540E+01 -0.51595817978E+01 -0.33144941879E+02  0.91437661602E+02  0.85055366676E+02 0.  0.
         11    1    3    3    0    0 -0.12369392532E+02  0.20945296805E+01  0.27024583258E+02  0.29794580492E+02  0.51100000000E-03 0. -1.
         22    1    1    0    0    0  0.11054873540E+01  0.51595817978E+01  0.33144941879E+02  0.33562338398E+02  0.00000000000E+00 0.  1.
</event>
<event>
 5    1  0.1282529E-003  0.9118800E+02  0.7818608E-02  0.1130116E+00
         25   -1    0    0    0    0  0.00000000000E+00  0.00000000000E+00  0.99999998245E-14  0.12500000000E+03  0.12500000000E+03 0.  0.
        -11    1    3    3    0    0  0.60616824900E+02 -0.10630314739E+02 -0.64842750353E+01  0.61882540958E+02  0.51100000000E-03 0. -1.
         23    2    1    0    0    0  0.30023989270E+02 -0.96082469163E+01  0.12389098058E+01  0.93451731616E+02  0.87965521109E+02 0.  0.
         11    1    3    3    0    0 -0.30592835629E+02  0.10220678225E+01  0.77231848411E+01  0.31569190659E+02  0.51100000000E-03 0.  1.
         22    1    1    0    0    0 -0.30023989270E+02  0.96082469163E+01 -0.12389098058E+01  0.31548268384E+02  0.00000000000E+00 0. -1.
</event>
<event>
 5    1  0.1282529E-003  0.9118800E+02  0.7818608E-02  0.1130116E+00
         25   -1    0    0    0    0  0.00000000000E+00  0.00000000000E+00  0.99999998245E-14  0.12500000000E+03  0.12500000000E+03 0.  0.
        -11    1    3    3    0    0  0.17447187400E+02  0.11359837114E+02  0.18632073766E+01  0.20902674217E+02  0.51100000000E-03 0. -1.
         23    2    1    0    0    0 -0.14827639826E+02 -0.35758501690E+02  0.20777728353E+02  0.81065465276E+02  0.68127573853E+02 0.  0.
         11    1    3    3    0    0 -0.32274827226E+02 -0.47118338804E+02  0.18914520976E+02  0.60162791060E+02  0.51100000000E-03 0.  1.
         22    1    1    0    0    0  0.14827639826E+02  0.35758501690E+02 -0.20777728353E+02  0.43934534724E+02  0.00000000000E+00 0.  1.
</event>
<event>
 5    1  0.1282529E-003  0.9118800E+02  0.7818608E-02  0.1130116E+00
         25   -1    0    0    0    0  0.00000000000E+00  0.00000000000E+00  0.99999998245E-14  0.12500000000E+03  0.12500000000E+03 0.  0.
        -11    1    3    3    0    0 -0.20126065958E+02 -0.29211781299E+02 -0.26658202145E+02  0.44373938742E+02  0.51100000000E-03 0. -1.
         23    2    1    0    0    0 -0.96138587115E+00  0.18567581031E+02 -0.22194927771E+02  0.96046690225E+02  0.91578777871E+02 0.  0.
         11    1    3    3    0    0  0.19164680087E+02  0.47779362330E+02  0.44632743732E+01  0.51672751484E+02  0.51100000000E-03 0.  1.
         22    1    1    0    0    0  0.96138587115E+00 -0.18567581031E+02  0.22194927771E+02  0.28953309775E+02  0.00000000000E+00 0. -1.
</event>
<event>
 5    1  0.1282529E-003  0.9118800E+02  0.7818608E-02  0.1130116E+00
         25   -1    0    0    0    0  0.00000000000E+00  0.00000000000E+00  0.99999998245E-14  0.12500000000E+03  0.12500000000E+03 0.  0.
        -11    1    3    3    0    0  0.37066725107E+01  0.53821138503E+02  0.11513435562E+02  0.55163516653E+02  0.51100000000E-03 0.  1.
         23    2    1    0    0    0 -0.93781504228E+01  0.17339137801E+02  0.22144325893E+02  0.95352629556E+02  0.90626471789E+02 0.  0.
         11    1    3    3    0    0 -0.13084822934E+02 -0.36482000702E+02  0.10630890331E+02  0.40189112903E+02  0.51100000000E-03 0. -1.
         22    1    1    0    0    0  0.93781504228E+01 -0.17339137801E+02 -0.22144325893E+02  0.29647370444E+02  0.00000000000E+00 0.  1.
</event>
<event>
 5    1  0.1282529E-003  0.9118800E+02  0.7818608E-02  0.1130116E+00
         25   -1    0    0    0    0  0.00000000000E+00  0.00000000000E+00  0.99999998245E-14  0.12500000000E+03  0.12500000000E+03 0.  0.
        -11    1    3    3    0    0 -0.14602207999E+02  0.56595687558E+01  0.29982695154E+02  0.33826279811E+02  0.51100000000E-03 0.  1.
         23    2    1    0    0    0  0.11724113083E+02 -0.12941798515E+02 -0.23167932782E+02  0.95987966535E+02  0.91498588151E+02 0.  0.
         11    1    3    3    0    0  0.26326321082E+02 -0.18601367271E+02 -0.53150627936E+02  0.62161686723E+02  0.51100000000E-03 0. -1.
         22    1    1    0    0    0 -0.11724113083E+02  0.12941798515E+02  0.23167932782E+02  0.29012033465E+02  0.00000000000E+00 0. -1.
</event>
<event>
 5    1  0.1282529E-003  0.9118800E+02  0.7818608E-02  0.1130116E+00
         25   -1    0    0    0    0  0.00000000000E+00  0.00000000000E+00  0.99999998245E-14  0.12500000000E+03  0.12500000000E+03 0.  0.
        -11    1    3    3    0    0 -0.15068102335E+02 -0.24555978733E+02 -0.26276551034E+02  0.38993601194E+02  0.51100000000E-03 0.  1.
         23    2    1    0    0    0  0.17124724212E+02  0.20360325613E+02 -0.95944595234E+01  0.96718332935E+02  0.92490990014E+02 0.  0.
         11    1    3    3    0    0  0.32192826547E+02  0.44916304346E+02  0.16682091511E+02  0.57724731742E+02  0.51100000000E-03 0. -1.
         22    1    1    0    0    0 -0.17124724212E+02 -0.20360325613E+02  0.95944595234E+01  0.28281667065E+02  0.00000000000E+00 0. -1.
</event>
<event>
 5    1  0.1282529E-003  0.9118800E+02  0.7818608E-02  0.1130116E+00
         25   -1    0    0    0    0  0.00000000000E+00  0.00000000000E+00  0.99999998245E-14  0.12500000000E+03  0.12500000000E+03 0.  0.
        -11    1    3    3    0    0  0.20845595727E+02 -0.16915933105E+02 -0.47994685389E+02  0.54992522036E+02  0.51100000000E-03 0.  1.
         23    2    1    0    0    0 -0.81064108876E+01  0.32723701224E+01 -0.28234486359E+02  0.95443130686E+02  0.90751213058E+02 0.  0.
         11    1    3    3    0    0 -0.28952006614E+02  0.20188303227E+02  0.19760199031E+02  0.40450608650E+02  0.51100000000E-03 0. -1.
         22    1    1    0    0    0  0.81064108876E+01 -0.32723701224E+01  0.28234486359E+02  0.29556869314E+02  0.00000000000E+00 0.  1.
</event>
<event>
 5    1  0.1282529E-003  0.9118800E+02  0.7818608E-02  0.1130116E+00
         25   -1    0    0    0    0  0.00000000000E+00  0.00000000000E+00  0.99999998245E-14  0.12500000000E+03  0.12500000000E+03 0.  0.
        -11    1    3    3    0    0  0.27100538077E+02 -0.19076058866E+02  0.40143363543E+01  0.33383380334E+02  0.51100000000E-03 0. -1.
         23    2    1    0    0    0 -0.29484672728E+02  0.33071362032E+01 -0.50421939256E+01  0.94905037044E+02  0.90006995622E+02 0.  0.
         11    1    3    3    0    0 -0.56585210805E+02  0.22383195069E+02 -0.90565302800E+01  0.61521656710E+02  0.51100000000E-03 0.  1.
         22    1    1    0    0    0  0.29484672728E+02 -0.33071362032E+01  0.50421939256E+01  0.30094962956E+02  0.00000000000E+00 0.  1.
</event>
<event>
 5    1  0.1282529E-003  0.9118800E+02  0.7818608E-02  0.1130116E+00
         25   -1    0    0    0    0  0.00000000000E+00  0.00000000000E+00  0.99999998245E-14  0.12500000000E+03  0.12500000000E+03 0.  0.
        -11    1    3    3    0    0  0.19089049819E+02  0.38014546695E+02 -0.18070126482E+02  0.46217172725E+02  0.51100000000E-03 0.  1.
         23    2    1    0    0    0  0.37052618438E+01 -0.84543260348E+01 -0.27434728056E+02  0.96054034866E+02  0.91588802354E+02 0.  0.
         11    1    3    3    0    0 -0.15383787975E+02 -0.46468872729E+02 -0.93646015738E+01  0.49836862141E+02  0.51100000000E-03 0. -1.
         22    1    1    0    0    0 -0.37052618438E+01  0.84543260348E+01  0.27434728056E+02  0.28945965134E+02  0.00000000000E+00 0. -1.
</event>
<event>
 5    1  0.1282529E-003  0.9118800E+02  0.7818608E-02  0.1130116E+00
         25   -1    0    0    0    0  0.00000000000E+00  0.00000000000E+00  0.99999998245E-14  0.12500000000E+03  0.12500000000E+03 0.  0.
        -11    1    3    3    0    0  0.94590106729E+01 -0.31544900356E+02  0.35552050689E+02  0.48461344697E+02  0.51100000000E-03 0. -1.
         23    2    1    0    0    0 -0.77355192012E+01  0.77641665500E+01  0.31606050581E+02  0.91547601389E+02  0.85216784422E+02 0.  0.
         11    1    3    3    0    0 -0.17194529874E+02  0.39309066906E+02 -0.39460001077E+01  0.43086256692E+02  0.51100000000E-03 0.  1.
         22    1    1    0    0    0  0.77355192012E+01 -0.77641665500E+01 -0.31606050581E+02  0.33452398611E+02  0.00000000000E+00 0.  1.
</event>
<event>
 5    1  0.1282529E-003  0.9118800E+02  0.7818608E-02  0.1130116E+00
         25   -1    0    0    0    0  0.00000000000E+00  0.00000000000E+00  0.99999998245E-14  0.12500000000E+03  0.12500000000E+03 0.  0.
        -11    1    3    3    0    0 -0.70040573082E-01 -0.35824397171E+02  0.23423120030E+01  0.35900957704E+02  0.51100000000E-03 0. -1.
         23    2    1    0    0    0 -0.44423378460E+01  0.18199364976E+02 -0.22667325299E+02  0.95593216986E+02  0.90957705811E+02 0.  0.
         11    1    3    3    0    0 -0.43722972729E+01  0.54023762146E+02 -0.25009637302E+02  0.59692259281E+02  0.51100000000E-03 0.  1.
         22    1    1    0    0    0  0.44423378460E+01 -0.18199364976E+02  0.22667325299E+02  0.29406783014E+02  0.00000000000E+00 0.  1.
</event>
<event>
 5    1  0.1282529E-003  0.9118800E+02  0.7818608E-02  0.1130116E+00
         25   -1    0    0    0    0  0.00000000000E+00  0.00000000000E+00  0.99999998245E-14  0.12500000000E+03  0.12500000000E+03 0.  0.
        -11    1    3    3    0    0  0.52920837423E+02  0.77774239644E+01  0.27796655405E-01  0.53489289863E+02  0.51100000000E-03 0.  1.
         23    2    1    0    0    0  0.17587324356E+02  0.63740693428E+00  0.22853141469E+02  0.96155826575E+02  0.91727622032E+02 0.  0.
         11    1    3    3    0    0 -0.35333513068E+02 -0.71400170301E+01  0.22825344813E+02  0.42666536712E+02  0.51100000000E-03 0. -1.
         22    1    1    0    0    0 -0.17587324356E+02 -0.63740693428E+00 -0.22853141469E+02  0.28844173425E+02  0.00000000000E+00 0.  1.
</event>
<event>
 4    1  0.1282529E-003  0.9118800E+02  0.7818608E-02  0.1130116E+00
         25   -1    0    0    0    0  0.00000000000E+00  0.00000000000E+00  0.99999998245E-14  0.12500000000E+03  0.12500000000E+03 0.  0.
        -11    1    1    0    0    0  0.31290108497E+02  0.46781984561E+02 -0.16942044671E+02  0.58776337476E+02  0.51100000000E-03 0.  1.
         11    1    1    0    0    0  0.54593278101E+01 -0.12731916374E+02  0.24256438964E+01  0.14063772726E+02  0.51100000000E-03 0. -1.
         22    1    1    0    0    0 -0.36749436307E+02 -0.34050068186E+02  0.14516400775E+02  0.52159889799E+02  0.00000000000E+00 0.  1.
</event>
<event>
 5    1  0.1282529E-003  0.9118800E+02  0.7818608E-02  0.1130116E+00
         25   -1    0    0    0    0  0.00000000000E+00  0.00000000000E+00  0.99999998245E-14  0.12500000000E+03  0.12500000000E+03 0.  0.
        -11    1    3    3    0    0  0.59019359725E+02  0.56368219633E+01  0.11740726869E+02  0.60439252575E+02  0.51100000000E-03 0. -1.
         23    2    1    0    0    0  0.34618682613E+02 -0.69803496317E+01  0.11328535843E+02  0.87912074860E+02  0.79705826105E+02 0.  0.
         11    1    3    3    0    0 -0.24400677112E+02 -0.12617171595E+02 -0.41219102542E+00  0.27472822285E+02  0.51100000000E-03 0.  1.
         22    1    1    0    0    0 -0.34618682613E+02  0.69803496317E+01 -0.11328535843E+02  0.37087925140E+02  0.00000000000E+00 0. -1.
</event>
<event>
 5    1  0.1282529E-003  0.9118800E+02  0.7818608E-02  0.1130116E+00
         25   -1    0    0    0    0  0.00000000000E+00  0.00000000000E+00  0.99999998245E-14  0.12500000000E+03  0.12500000000E+03 0.  0.
        -11    1    3    3    0    0 -0.90210492753E+01  0.19945093073E+02 -0.36875005224E+02  0.42883004539E+02  0.51100000000E-03 0.  1.
         23    2    1    0    0    0  0.10347396686E+02 -0.23561444520E+02 -0.13740703343E+02  0.95827800658E+02  0.91279516676E+02 0.  0.
         11    1    3    3    0    0  0.19368445962E+02 -0.43506537593E+02  0.23134301881E+02  0.52944796119E+02  0.51100000000E-03 0. -1.
         22    1    1    0    0    0 -0.10347396686E+02  0.23561444520E+02  0.13740703343E+02  0.29172199342E+02  0.00000000000E+00 0.  1.
</event>
<event>
 5    1  0.1282529E-003  0.9118800E+02  0.7818608E-02  0.1130116E+00
         25   -1    0    0    0    0  0.00000000000E+00  0.00000000000E+00  0.99999998245E-14  0.12500000000E+03  0.12500000000E+03 0.  0.
        -11    1    3    3    0    0 -0.12769073282E+02 -0.15806562429E+02 -0.56458497149E+02  0.60003821119E+02  0.51100000000E-03 0. -1.
         23    2    1    0    0    0 -0.40677520990E+00 -0.17411080940E+02 -0.20288575115E+02  0.98261685062E+02  0.94553800904E+02 0.  0.
         11    1    3    3    0    0  0.12362298072E+02 -0.16045185108E+01  0.36169922034E+02  0.38257863943E+02  0.51100000000E-03 0.  1.
         22    1    1    0    0    0  0.40677520990E+00  0.17411080940E+02  0.20288575115E+02  0.26738314938E+02  0.00000000000E+00 0. -1.
</event>
<event>
 5    1  0.1282529E-003  0.9118800E+02  0.7818608E-02  0.1130116E+00
         25   -1    0    0    0    0  0.00000000000E+00  0.00000000000E+00  0.99999998245E-14  0.12500000000E+03  0.12500000000E+03 0.  0.
        -11    1    3    3    0    0 -0.30158752197E+02  0.38327323081E+02 -0.38110620608E+02  0.61894696316E+02  0.51100000000E-03 0. -1.
         23    2    1    0    0    0 -0.12059919186E+02  0.21967004059E+02 -0.13557869108E+02  0.96507777678E+02  0.92205989065E+02 0.  0.
         11    1    3    3    0    0  0.18098833011E+02 -0.16360319022E+02  0.24552751500E+02  0.34613081361E+02  0.51100000000E-03 0.  1.
         22    1    1    0    0    0  0.12059919186E+02 -0.21967004059E+02  0.13557869108E+02  0.28492222322E+02  0.00000000000E+00 0. -1.
</event>
<event>
 5    1  0.1282529E-003  0.9118800E+02  0.7818608E-02  0.1130116E+00
         25   -1    0    0    0    0  0.00000000000E+00  0.00000000000E+00  0.99999998245E-14  0.12500000000E+03  0.12500000000E+03 0.  0.
        -11    1    3    3    0    0 -0.50614513895E+01  0.36371691510E+02 -0.19091854570E+02  0.41388611292E+02  0.51100000000E-03 0.  1.
         23    2    1    0    0    0 -0.24323695786E+02  0.17778109529E+01  0.17245315931E+02  0.95130220790E+02  0.90319185102E+02 0.  0.
         11    1    3    3    0    0 -0.19262244397E+02 -0.34593880557E+02  0.36337170501E+02  0.53741609498E+02  0.51100000000E-03 0. -1.
         22    1    1    0    0    0  0.24323695786E+02 -0.17778109529E+01 -0.17245315931E+02  0.29869779210E+02  0.00000000000E+00 0. -1.
</event>
<event>
 4    1  0.1282529E-003  0.9118800E+02  0.7818608E-02  0.1130116E+00
         25   -1    0    0    0    0  0.00000000000E+00  0.00000000000E+00  0.99999998245E-14  0.12500000000E+03  0.12500000000E+03 0.  0.
        -11    1    1    0    0    0 -0.91730617523E+01  0.79311192195E+00 -0.62620629991E+01  0.11134968419E+02  0.51100000000E-03 0. -1.
         11    1    1    0    0    0  0.36809287285E+02 -0.43445181559E+02 -0.14826289846E+02  0.58840685771E+02  0.51100000000E-03 0.  1.
         22    1    1    0    0    0 -0.27636225533E+02  0.42652069637E+02  0.21088352845E+02  0.55024345810E+02  0.00000000000E+00 0.  1.
</event>
<event>
 5    1  0.1282529E-003  0.9118800E+02  0.7818608E-02  0.1130116E+00
         25   -1    0    0    0    0  0.00000000000E+00  0.00000000000E+00  0.99999998245E-14  0.12500000000E+03  0.12500000000E+03 0.  0.
        -11    1    3    3    0    0  0.29008435613E+02 -0.17470441068E+02 -0.49514126496E+02  0.59986284856E+02  0.51100000000E-03 0.  1.
         23    2    1    0    0    0  0.56086011635E+01 -0.17820236994E+02 -0.23526210992E+02  0.94958364605E+02  0.90081025479E+02 0.  0.
         11    1    3    3    0    0 -0.23399834450E+02 -0.34979592658E+00  0.25987915505E+02  0.34972079750E+02  0.51100000000E-03 0. -1.
         22    1    1    0    0    0 -0.56086011635E+01  0.17820236994E+02  0.23526210992E+02  0.30041635395E+02  0.00000000000E+00 0.  1.
</event>
<event>
 5    1  0.1282529E-003  0.9118800E+02  0.7818608E-02  0.1130116E+00
         25   -1    0    0    0    0  0.00000000000E+00  0.00000000000E+00  0.99999998245E-14  0.12500000000E+03  0.12500000000E+03 0.  0.
        -11    1    3    3    0    0  0.59008273336E+01 -0.12800510182E+02 -0.43191758239E+02  0.45433476690E+02  0.51100000000E-03 0.  1.
         23    2    1    0    0    0 -0.10904756594E+01 -0.30290518015E+02  0.22321688823E+01  0.94607777365E+02  0.89593215933E+02 0.  0.
         11    1    3    3    0    0 -0.69913029929E+01 -0.17490007833E+02  0.45423927121E+02  0.49174300675E+02  0.51100000000E-03 0. -1.
         22    1    1    0    0    0  0.10904756594E+01  0.30290518015E+02 -0.22321688823E+01  0.30392222635E+02  0.00000000000E+00 0. -1.
</event>
<event>
 5    1  0.1282529E-003  0.9118800E+02  0.7818608E-02  0.1130116E+00
         25   -1    0    0    0    0  0.00000000000E+00  0.00000000000E+00  0.99999998245E-14  0.12500000000E+03  0.12500000000E+03 0.  0.
        -11    1    3    3    0    0 -0.15289758743E+02  0.61730801911E+01 -0.21692024308E+02  0.27247523930E+02  0.51100000000E-03 0.  1.
         23    2    1    0    0    0  0.29739960170E+02  0.28562844920E+02  0.37299843595E+01  0.83596930981E+02  0.72623913040E+02 0.  0.
         11    1    3    3    0    0  0.45029718914E+02  0.22389764729E+02  0.25422008667E+02  0.56349407051E+02  0.51100000000E-03 0. -1.
         22    1    1    0    0    0 -0.29739960170E+02 -0.28562844920E+02 -0.37299843595E+01  0.41403069019E+02  0.00000000000E+00 0. -1.
</event>
<event>
 5    1  0.1282529E-003  0.9118800E+02  0.7818608E-02  0.1130116E+00
         25   -1    0    0    0    0  0.00000000000E+00  0.00000000000E+00  0.99999998245E-14  0.12500000000E+03  0.12500000000E+03 0.  0.
        -11    1    3    3    0    0 -0.26105050142E+02 -0.19154752408E+02 -0.30005003332E+02  0.44143837712E+02  0.51100000000E-03 0.  1.
         23    2    1    0    0    0 -0.91534570429E+01  0.25542365986E+02 -0.13303872926E+02  0.94780945236E+02  0.89834493983E+02 0.  0.
         11    1    3    3    0    0  0.16951593099E+02  0.44697118394E+02  0.16701130407E+02  0.50637107524E+02  0.51100000000E-03 0. -1.
         22    1    1    0    0    0  0.91534570429E+01 -0.25542365986E+02  0.13303872926E+02  0.30219054764E+02  0.00000000000E+00 0.  1.
</event>
<event>
 5    1  0.1282529E-003  0.9118800E+02  0.7818608E-02  0.1130116E+00
         25   -1    0    0    0    0  0.00000000000E+00  0.00000000000E+00  0.99999998245E-14  0.12500000000E+03  0.12500000000E+03 0.  0.
        -11    1    3    3    0    0 -0.72454389019E+01  0.14062273068E+02  0.43410488909E+02  0.46202970211E+02  0.51100000000E-03 0.  1.
         23    2    1    0    0    0  0.24144165687E+02 -0.10016081273E+02  0.18935098011E+02  0.92723064620E+02  0.86923910146E+02 0.  0.
         11    1    3    3    0    0  0.31389604589E+02 -0.24078354341E+02 -0.24475390898E+02  0.46520094410E+02  0.51100000000E-03 0. -1.
         22    1    1    0    0    0 -0.24144165687E+02  0.10016081273E+02 -0.18935098011E+02  0.32276935380E+02  0.00000000000E+00 0.  1.
</event>
<event>
 5    1  0.1282529E-003  0.9118800E+02  0.7818608E-02  0.1130116E+00
         25   -1    0    0    0    0  0.00000000000E+00  0.00000000000E+00  0.99999998245E-14  0.12500000000E+03  0.12500000000E+03 0.  0.
        -11    1    3    3    0    0 -0.30414424516E+02 -0.62405898372E+01 -0.29167591102E+01  0.31184766539E+02  0.51100000000E-03 0.  1.
         23    2    1    0    0    0  0.28665587098E+02 -0.88486025804E+01  0.12812402703E+02  0.92378361256E+02  0.86426791645E+02 0.  0.
         11    1    3    3    0    0  0.59080011614E+02 -0.26080127432E+01  0.15729161813E+02  0.61193594717E+02  0.51100000000E-03 0. -1.
         22    1    1    0    0    0 -0.28665587098E+02  0.88486025804E+01 -0.12812402703E+02  0.32621638744E+02  0.00000000000E+00 0. -1.
</event>
<event>
 5    1  0.1282529E-003  0.9118800E+02  0.7818608E-02  0.1130116E+00
         25   -1    0    0    0    0  0.00000000000E+00  0.00000000000E+00  0.99999998245E-14  0.12500000000E+03  0.12500000000E+03 0.  0.
        -11    1    3    3    0    0 -0.11016772066E+02  0.24457425242E+02  0.90134614702E+01  0.28298010604E+02  0.51100000000E-03 0.  1.
         23    2    1    0    0    0  0.17496368537E+02 -0.29778644262E+02  0.78374112876E+01  0.89583681985E+02  0.82285603214E+02 0.  0.
         11    1    3    3    0    0  0.28513140603E+02 -0.54236069504E+02 -0.11760501827E+01  0.61285671381E+02  0.51100000000E-03 0. -1.
         22    1    1    0    0    0 -0.17496368537E+02  0.29778644262E+02 -0.78374112876E+01  0.35416318015E+02  0.00000000000E+00 0. -1.
</event>
<event>
 5    1  0.1282529E-003  0.9118800E+02  0.7818608E-02  0.1130116E+00
         25   -1    0    0    0    0  0.00000000000E+00  0.00000000000E+00  0.99999998245E-14  0.12500000000E+03  0.12500000000E+03 0.  0.
        -11    1    3    3    0    0 -0.15157694715E+02  0.37780615436E+02  0.45253680025E+02  0.60868926127E+02  0.51100000000E-03 0. -1.
         23    2    1    0    0    0 -0.55114847519E+00  0.12341261267E+02  0.26705792699E+02  0.95575352883E+02  0.90933152484E+02 0.  0.
         11    1    3    3    0    0  0.14606546240E+02 -0.25439354170E+02 -0.18547887326E+02  0.34706426756E+02  0.51100000000E-03 0.  1.
         22    1    1    0    0    0  0.55114847519E+00 -0.12341261267E+02 -0.26705792699E+02  0.29424647117E+02  0.00000000000E+00 0. -1.
</event>
<event>
 5    1  0.1282529E-003  0.9118800E+02  0.7818608E-02  0.1130116E+00
         25   -1    0    0    0    0  0.00000000000E+00  0.00000000000E+00  0.99999998245E-14  0.12500000000E+03  0.12500000000E+03 0.  0.
        -11    1    3    3    0    0 -0.45594492235E+01 -0.45008180612E+00 -0.43059552928E+02  0.43302612502E+02  0.51100000000E-03 0. -1.
         23    2    1    0    0    0  0.31410471519E+02 -0.10515926071E+01 -0.10386757682E+02  0.91900025632E+02  0.85732178370E+02 0.  0.
         11    1    3    3    0    0  0.35969920742E+02 -0.60151080101E+00  0.32672795247E+02  0.48597413130E+02  0.51100000000E-03 0.  1.
         22    1    1    0    0    0 -0.31410471519E+02  0.10515926071E+01  0.10386757682E+02  0.33099974368E+02  0.00000000000E+00 0. -1.
</event>
<event>
 5    1  0.1282529E-003  0.9118800E+02  0.7818608E-02  0.1130116E+00
         25   -1    0    0    0    0  0.00000000000E+00  0.00000000000E+00  0.99999998245E-14  0.12500000000E+03  0.12500000000E+03 0.  0.
        -11    1    3    3    0    0 -0.39702926443E+02 -0.72922600257E+00  0.34104796126E+02  0.52344925807E+02  0.51100000000E-03 0.  1.
         23    2    1    0    0    0 -0.27872692273E+02 -0.20912197426E+02  0.48266115235E+01  0.89821836965E+02  0.82646592436E+02 0.  0.
         11    1    3    3    0    0  0.11830234171E+02 -0.20182971424E+02 -0.29278184603E+02  0.37476911158E+02  0.51100000000E-03 0. -1.
         22    1    1    0    0    0  0.27872692273E+02  0.20912197426E+02 -0.48266115235E+01  0.35178163035E+02  0.00000000000E+00 0. -1.
</event>
<event>
 5    1  0.1282529E-003  0.9118800E+02  0.7818608E-02  0.1130116E+00
         25   -1    0    0    0    0  0.00000000000E+00  0.00000000000E+00  0.99999998245E-14  0.12500000000E+03  0.12500000000E+03 0.  0.
        -11    1    3    3    0    0 -0.54634861288E+02  0.15253310615E+02  0.94437413109E+01  0.57504919815E+02  0.51100000000E-03 0. -1.
         23    2    1    0    0    0 -0.31800527408E+02 -0.39350024502E+01 -0.78869401883E+01  0.92000581623E+02  0.85878666767E+02 0.  0.
         11    1    3    3    0    0  0.22834333880E+02 -0.19188313066E+02 -0.17330681499E+02  0.34495661808E+02  0.51100000000E-03 0.  1.
         22    1    1    0    0    0  0.31800527408E+02  0.39350024502E+01  0.78869401883E+01  0.32999418377E+02  0.00000000000E+00 0. -1.
</event>
<event>
 5    1  0.1282529E-003  0.9118800E+02  0.7818608E-02  0.1130116E+00
         25   -1    0    0    0    0  0.00000000000E+00  0.00000000000E+00  0.99999998245E-14  0.12500000000E+03  0.12500000000E+03 0.  0.
        -11    1    3    3    0    0 -0.16410274772E+02 -0.29229115972E+02  0.95117006668E+01  0.34844092590E+02  0.51100000000E-03 0.  1.
         23    2    1    0    0    0  0.13400329033E+02  0.18076017102E+02 -0.17070858325E+02  0.96755966711E+02  0.92541837446E+02 0.  0.
         11    1    3    3    0    0  0.29810603805E+02  0.47305133074E+02 -0.26582558992E+02  0.61911874121E+02  0.51100000000E-03 0. -1.
         22    1    1    0    0    0 -0.13400329033E+02 -0.18076017102E+02  0.17070858325E+02  0.28244033289E+02  0.00000000000E+00 0. -1.
</event>
<event>
 5    1  0.1282529E-003  0.9118800E+02  0.7818608E-02  0.1130116E+00
         25   -1    0    0    0    0  0.00000000000E+00  0.00000000000E+00  0.99999998245E-14  0.12500000000E+03  0.12500000000E+03 0.  0.
        -11    1    3    3    0    0 -0.21746527191E+02 -0.97823837353E+01 -0.24067417201E+02  0.33879891490E+02  0.51100000000E-03 0.  1.
         23    2    1    0    0    0 -0.12748008756E+02  0.39522721710E+01  0.30949774169E+02  0.91295093775E+02  0.84845585882E+02 0.  0.
         11    1    3    3    0    0  0.89985184347E+01  0.13734655906E+02  0.55017191370E+02  0.57415202284E+02  0.51100000000E-03 0. -1.
         22    1    1    0    0    0  0.12748008756E+02 -0.39522721710E+01 -0.30949774169E+02  0.33704906225E+02  0.00000000000E+00 0. -1.
</event>
<event>
 5    1  0.1282529E-003  0.9118800E+02  0.7818608E-02  0.1130116E+00
         25   -1    0    0    0    0  0.00000000000E+00  0.00000000000E+00  0.99999998245E-14  0.12500000000E+03  0.12500000000E+03 0.  0.
        -11    1    3    3    0    0  0.33195547184E+02 -0.33772523706E+01 -0.17725968847E+02  0.37783067083E+02  0.51100000000E-03 0.  1.
         23    2    1    0    0    0 -0.19200529150E+02 -0.22028492029E+02 -0.10875239348E+02  0.93820108858E+02  0.88487440999E+02 0.  0.
         11    1    3    3    0    0 -0.52396076334E+02 -0.18651239659E+02  0.68507294984E+01  0.56037041775E+02  0.51100000000E-03 0. -1.
         22    1    1    0    0    0  0.19200529150E+02  0.22028492029E+02  0.10875239348E+02  0.31179891142E+02  0.00000000000E+00 0. -1.
</event>
<event>
 5    1  0.1282529E-003  0.9118800E+02  0.7818608E-02  0.1130116E+00
         25   -1    0    0    0    0  0.00000000000E+00  0.00000000000E+00  0.99999998245E-14  0.12500000000E+03  0.12500000000E+03 0.  0.
        -11    1    3    3    0    0  0.12885863723E+01 -0.27710460697E+02 -0.21920850250E+02  0.35356099372E+02  0.51100000000E-03 0. -1.
         23    2    1    0    0    0 -0.35721463751E+01  0.24425562969E+02  0.11802547015E+02  0.97638193186E+02  0.93725921156E+02 0.  0.
         11    1    3    3    0    0 -0.48607327474E+01  0.52136023666E+02  0.33723397264E+02  0.62282093814E+02  0.51100000000E-03 0.  1.
         22    1    1    0    0    0  0.35721463751E+01 -0.24425562969E+02 -0.11802547015E+02  0.27361806814E+02  0.00000000000E+00 0.  1.
</event>
<event>
 5    1  0.1282529E-003  0.9118800E+02  0.7818608E-02  0.1130116E+00
         25   -1    0    0    0    0  0.00000000000E+00  0.00000000000E+00  0.99999998245E-14  0.12500000000E+03  0.12500000000E+03 0.  0.
        -11    1    3    3    0    0 -0.46051431005E+02 -0.33029564819E+01 -0.98290665801E+01  0.47204389301E+02  0.51100000000E-03 0. -1.
         23    2    1    0    0    0  0.14432853812E+01 -0.19095474693E+02 -0.18925914470E+02  0.98075838640E+02  0.94307792148E+02 0.  0.
         11    1    3    3    0    0  0.47494716386E+02 -0.15792518211E+02 -0.90968478896E+01  0.50871449339E+02  0.51100000000E-03 0.  1.
         22    1    1    0    0    0 -0.14432853812E+01  0.19095474693E+02  0.18925914470E+02  0.26924161360E+02  0.00000000000E+00 0. -1.
</event>
<event>
 5    1  0.1282529E-003  0.9118800E+02  0.7818608E-02  0.1130116E+00
         25   -1    0    0    0    0  0.00000000000E+00  0.00000000000E+00  0.99999998245E-14  0.12500000000E+03  0.12500000000E+03 0.  0.
        -11    1    3    3    0    0 -0.24946602645E+02  0.41674808692E+01  0.52880171274E+02  0.58617517813E+02  0.51100000000E-03 0.  1.
         23    2    1    0    0    0 -0.12928759296E+02 -0.13430386979E+02  0.21584998490E+02  0.96479125694E+02  0.92167138523E+02 0.  0.
         11    1    3    3    0    0  0.12017843349E+02 -0.17597867849E+02 -0.31295172784E+02  0.37861607882E+02  0.51100000000E-03 0. -1.
         22    1    1    0    0    0  0.12928759296E+02  0.13430386979E+02 -0.21584998490E+02  0.28520874306E+02  0.00000000000E+00 0.  1.
</event>
<event>
 5    1  0.1282529E-003  0.9118800E+02  0.7818608E-02  0.1130116E+00
         25   -1    0    0    0    0  0.00000000000E+00  0.00000000000E+00  0.99999998245E-14  0.12500000000E+03  0.12500000000E+03 0.  0.
        -11    1    3    3    0    0  0.31983484300E+02  0.48115593875E+02 -0.14395234696E+02  0.59542223876E+02  0.51100000000E-03 0. -1.
         23    2    1    0    0    0  0.32199263191E+01  0.27640478720E+02 -0.11234901015E+02  0.94990218425E+02  0.90125216262E+02 0.  0.
         11    1    3    3    0    0 -0.28763557981E+02 -0.20475115155E+02  0.31603336811E+01  0.35447994549E+02  0.51100000000E-03 0.  1.
         22    1    1    0    0    0 -0.32199263191E+01 -0.27640478720E+02  0.11234901015E+02  0.30009781575E+02  0.00000000000E+00 0. -1.
</event>
<event>
 5    1  0.1282529E-003  0.9118800E+02  0.7818608E-02  0.1130116E+00
         25   -1    0    0    0    0  0.00000000000E+00  0.00000000000E+00  0.99999998245E-14  0.12500000000E+03  0.12500000000E+03 0.  0.
        -11    1    3    3    0    0 -0.30758719314E+02 -0.30757384720E+02  0.38363889391E+02  0.57999168426E+02  0.51100000000E-03 0.  1.
         23    2    1    0    0    0 -0.58155123053E+01 -0.27041322640E+02  0.10940371930E+02  0.95255335748E+02  0.90492176110E+02 0.  0.
         11    1    3    3    0    0  0.24943207009E+02  0.37160620796E+01 -0.27423517462E+02  0.37256167322E+02  0.51100000000E-03 0. -1.
         22    1    1    0    0    0  0.58155123053E+01  0.27041322640E+02 -0.10940371930E+02  0.29744664252E+02  0.00000000000E+00 0.  1.
</event>
<event>
 5    1  0.1282529E-003  0.9118800E+02  0.7818608E-02  0.1130116E+00
         25   -1    0    0    0    0  0.00000000000E+00  0.00000000000E+00  0.99999998245E-14  0.12500000000E+03  0.12500000000E+03 0.  0.
        -11    1    3    3    0    0  0.23150423960E+02 -0.32068678612E+01  0.43368971289E+02  0.49265543759E+02  0.51100000000E-03 0. -1.
         23    2    1    0    0    0 -0.76984989521E+01  0.21237707846E+02  0.18266399769E+02  0.95948864373E+02  0.91445153471E+02 0.  0.
         11    1    3    3    0    0 -0.30848922912E+02  0.24444575708E+02 -0.25102571520E+02  0.46683320614E+02  0.51100000000E-03 0.  1.
         22    1    1    0    0    0  0.76984989521E+01 -0.21237707846E+02 -0.18266399769E+02  0.29051135627E+02  0.00000000000E+00 0. -1.
</event>
<event>
 5    1  0.1282529E-003  0.9118800E+02  0.7818608E-02  0.1130116E+00
         25   -1    0    0    0    0  0.00000000000E+00  0.00000000000E+00  0.99999998245E-14  0.12500000000E+03  0.12500000000E+03 0.  0.
        -11    1    3    3    0    0  0.32589408594E+02 -0.51431893806E+01 -0.19115508458E+02  0.38130363405E+02  0.51100000000E-03 0.  1.
         23    2    1    0    0    0 -0.14105645693E+02  0.23602333475E+02  0.31740809032E+01  0.97321232407E+02  0.93302240604E+02 0.  0.
         11    1    3    3    0    0 -0.46695054287E+02  0.28745522856E+02  0.22289589361E+02  0.59190869002E+02  0.51100000000E-03 0. -1.
         22    1    1    0    0    0  0.14105645693E+02 -0.23602333475E+02 -0.31740809032E+01  0.27678767593E+02  0.00000000000E+00 0. -1.
</event>
<event>
 5    1  0.1282529E-003  0.9118800E+02  0.7818608E-02  0.1130116E+00
         25   -1    0    0    0    0  0.00000000000E+00  0.00000000000E+00  0.99999998245E-14  0.12500000000E+03  0.12500000000E+03 0.  0.
        -11    1    3    3    0    0  0.69345368845E+01  0.39106227871E+02 -0.19659312586E+02  0.44315611603E+02  0.51100000000E-03 0.  1.
         23    2    1    0    0    0 -0.43284797506E+01  0.11575190314E+02  0.24500398715E+02  0.97559331186E+02  0.93620685730E+02 0.  0.
         11    1    3    3    0    0 -0.11263016635E+02 -0.27531037557E+02  0.44159711301E+02  0.53243719584E+02  0.51100000000E-03 0. -1.
         22    1    1    0    0    0  0.43284797506E+01 -0.11575190314E+02 -0.24500398715E+02  0.27440668814E+02  0.00000000000E+00 0. -1.
</event>
<event>
 5    1  0.1282529E-003  0.9118800E+02  0.7818608E-02  0.1130116E+00
         25   -1    0    0    0    0  0.00000000000E+00  0.00000000000E+00  0.99999998245E-14  0.12500000000E+03  0.12500000000E+03 0.  0.
        -11    1    3    3    0    0  0.52925334583E+02  0.18518990197E+02 -0.11653215913E+02  0.57269900297E+02  0.51100000000E-03 0. -1.
         23    2    1    0    0    0  0.26604630039E+02 -0.89736218242E+01 -0.54920743883E+00  0.96917374464E+02  0.92759601207E+02 0.  0.
         11    1    3    3    0    0 -0.26320704544E+02 -0.27492612021E+02  0.11104008474E+02  0.39647474168E+02  0.51100000000E-03 0.  1.
         22    1    1    0    0    0 -0.26604630039E+02  0.89736218242E+01  0.54920743883E+00  0.28082625536E+02  0.00000000000E+00 0. -1.
</event>
<event>
 5    1  0.1282529E-003  0.9118800E+02  0.7818608E-02  0.1130116E+00
         25   -1    0    0    0    0  0.00000000000E+00  0.00000000000E+00  0.99999998245E-14  0.12500000000E+03  0.12500000000E+03 0.  0.
        -11    1    3    3    0    0 -0.20878970661E+02  0.12153365701E+02 -0.54821972811E+02  0.59908967750E+02  0.51100000000E-03 0.  1.
         23    2    1    0    0    0 -0.20914936512E+02  0.78817068410E+00 -0.22037896408E+02  0.94607161034E+02  0.89592356028E+02 0.  0.
         11    1    3    3    0    0 -0.35965850289E-01 -0.11365195017E+02  0.32784076403E+02  0.34698193284E+02  0.51100000000E-03 0. -1.
         22    1    1    0    0    0  0.20914936512E+02 -0.78817068410E+00  0.22037896408E+02  0.30392838966E+02  0.00000000000E+00 0.  1.
</event>
<event>
 5    1  0.1282529E-003  0.9118800E+02  0.7818608E-02  0.1130116E+00
         25   -1    0    0    0    0  0.00000000000E+00  0.00000000000E+00  0.99999998245E-14  0.12500000000E+03  0.12500000000E+03 0.  0.
        -11    1    3    3    0    0 -0.36637887918E+02  0.16841977474E+02  0.11446278194E+02  0.41916635374E+02  0.51100000000E-03 0. -1.
         23    2    1    0    0    0  0.12616968142E+02  0.28841531821E+02  0.65248301353E+01  0.92850423779E+02  0.87106865085E+02 0.  0.
         11    1    3    3    0    0  0.49254856060E+02  0.11999554347E+02 -0.49214480587E+01  0.50933788405E+02  0.51100000000E-03 0.  1.
         22    1    1    0    0    0 -0.12616968142E+02 -0.28841531821E+02 -0.65248301353E+01  0.32149576221E+02  0.00000000000E+00 0.  1.
</event>
<event>
 5    1  0.1282529E-003  0.9118800E+02  0.7818608E-02  0.1130116E+00
         25   -1    0    0    0    0  0.00000000000E+00  0.00000000000E+00  0.99999998245E-14  0.12500000000E+03  0.12500000000E+03 0.  0.
        -11    1    3    3    0    0 -0.56473954520E+02  0.10883624730E+02  0.21498378632E+02  0.61399846176E+02  0.51100000000E-03 0. -1.
         23    2    1    0    0    0 -0.40940293600E+02  0.14527985289E+02  0.12153820386E+02  0.79890296536E+02  0.65936136784E+02 0.  0.
         11    1    3    3    0    0  0.15533660920E+02  0.36443605597E+01 -0.93445582455E+01  0.18490450360E+02  0.51100000000E-03 0.  1.
         22    1    1    0    0    0  0.40940293600E+02 -0.14527985289E+02 -0.12153820386E+02  0.45109703464E+02  0.00000000000E+00 0. -1.
</event>
<event>
 5    1  0.1282529E-003  0.9118800E+02  0.7818608E-02  0.1130116E+00
         25   -1    0    0    0    0  0.00000000000E+00  0.00000000000E+00  0.99999998245E-14  0.12500000000E+03  0.12500000000E+03 0.  0.
        -11    1    3    3    0    0 -0.97238889712E+00 -0.70225413511E+01  0.54855673878E+02  0.55311902735E+02  0.51100000000E-03 0. -1.
         23    2    1    0    0    0  0.12433846044E+02  0.13473358773E+02  0.20585261212E+02  0.97433990073E+02  0.93453183565E+02 0.  0.
         11    1    3    3    0    0  0.13406234941E+02  0.20495900125E+02 -0.34270412666E+02  0.42122087339E+02  0.51100000000E-03 0.  1.
         22    1    1    0    0    0 -0.12433846044E+02 -0.13473358773E+02 -0.20585261212E+02  0.27566009927E+02  0.00000000000E+00 0. -1.
</event>
<event>
 5    1  0.1282529E-003  0.9118800E+02  0.7818608E-02  0.1130116E+00
         25   -1    0    0    0    0  0.00000000000E+00  0.00000000000E+00  0.99999998245E-14  0.12500000000E+03  0.12500000000E+03 0.  0.
        -11    1    3    3    0    0 -0.31259507963E+02  0.25124440155E+02 -0.56997108908E+01  0.40507789814E+02  0.51100000000E-03 0.  1.
         23    2    1    0    0    0 -0.14222869664E+02 -0.20038429370E+02  0.18249238121E+02  0.94391776185E+02  0.89291343625E+02 0.  0.
         11    1    3    3    0    0  0.17036638298E+02 -0.45162869524E+02  0.23948949012E+02  0.53883986371E+02  0.51100000000E-03 0. -1.
         22    1    1    0    0    0  0.14222869664E+02  0.20038429370E+02 -0.18249238121E+02  0.30608223815E+02  0.00000000000E+00 0. -1.
</event>
<event>
 4    1  0.1282529E-003  0.9118800E+02  0.7818608E-02  0.1130116E+00
         25   -1    0    0    0    0  0.00000000000E+00  0.00000000000E+00  0.99999998245E-14  0.12500000000E+03  0.12500000000E+03 0.  0.
        -11    1    1    0    0    0  0.84911656569E+01  0.13818967416E+02  0.75008738461E+01  0.17869719174E+02  0.51100000000E-03 0.  1.
         11    1    1    0    0    0  0.32641628721E+02 -0.94620606723E+01 -0.41462671636E+02  0.53611189664E+02  0.51100000000E-03 0. -1.
         22    1    1    0    0    0 -0.41132794378E+02 -0.43569067434E+01  0.33961797790E+02  0.53519091162E+02  0.00000000000E+00 0. -1.
</event>
<event>
 5    1  0.1282529E-003  0.9118800E+02  0.7818608E-02  0.1130116E+00
         25   -1    0    0    0    0  0.00000000000E+00  0.00000000000E+00  0.99999998245E-14  0.12500000000E+03  0.12500000000E+03 0.  0.
        -11    1    3    3    0    0 -0.46999286866E+02 -0.24610272214E+02 -0.30280593274E+02  0.61086109663E+02  0.51100000000E-03 0. -1.
         23    2    1    0    0    0 -0.26672957109E+02 -0.21687268354E+02 -0.25572959472E+02  0.82154224178E+02  0.70096762011E+02 0.  0.
         11    1    3    3    0    0  0.20326329757E+02  0.29230038600E+01  0.47076338021E+01  0.21068114515E+02  0.51100000000E-03 0.  1.
         22    1    1    0    0    0  0.26672957109E+02  0.21687268354E+02  0.25572959472E+02  0.42845775822E+02  0.00000000000E+00 0. -1.
</event>
<event>
 5    1  0.1282529E-003  0.9118800E+02  0.7818608E-02  0.1130116E+00
         25   -1    0    0    0    0  0.00000000000E+00  0.00000000000E+00  0.99999998245E-14  0.12500000000E+03  0.12500000000E+03 0.  0.
        -11    1    3    3    0    0  0.39660961421E+02  0.13312130972E+02 -0.51412926582E+01  0.42150178912E+02  0.51100000000E-03 0. -1.
         23    2    1    0    0    0 -0.11472131149E+02  0.27087497902E+02 -0.53171182323E+01  0.95106621436E+02  0.90286518146E+02 0.  0.
         11    1    3    3    0    0 -0.51133092571E+02  0.13775366930E+02 -0.17582557414E+00  0.52956442524E+02  0.51100000000E-03 0.  1.
         22    1    1    0    0    0  0.11472131149E+02 -0.27087497902E+02  0.53171182323E+01  0.29893378564E+02  0.00000000000E+00 0.  1.
</event>
<event>
 5    1  0.1282529E-003  0.9118800E+02  0.7818608E-02  0.1130116E+00
         25   -1    0    0    0    0  0.00000000000E+00  0.00000000000E+00  0.99999998245E-14  0.12500000000E+03  0.12500000000E+03 0.  0.
        -11    1    3    3    0    0 -0.30120712818E+02  0.16001876357E+02  0.22877318483E+02  0.41069320531E+02  0.51100000000E-03 0. -1.
         23    2    1    0    0    0  0.11088879643E+02 -0.19693681653E+02  0.18551213296E+02  0.95760440093E+02  0.91187225109E+02 0.  0.
         11    1    3    3    0    0  0.41209592462E+02 -0.35695558011E+02 -0.43261051868E+01  0.54691119562E+02  0.51100000000E-03 0.  1.
         22    1    1    0    0    0 -0.11088879643E+02  0.19693681653E+02 -0.18551213296E+02  0.29239559907E+02  0.00000000000E+00 0.  1.
</event>
<event>
 5    1  0.1282529E-003  0.9118800E+02  0.7818608E-02  0.1130116E+00
         25   -1    0    0    0    0  0.00000000000E+00  0.00000000000E+00  0.99999998245E-14  0.12500000000E+03  0.12500000000E+03 0.  0.
        -11    1    3    3    0    0 -0.12061490490E+02  0.35935910387E+02  0.96277111413E+01  0.39109615573E+02  0.51100000000E-03 0.  1.
         23    2    1    0    0    0  0.93030227699E+01  0.98158020822E+01 -0.30557292705E+02  0.91583771298E+02  0.85269823646E+02 0.  0.
         11    1    3    3    0    0  0.21364513260E+02 -0.26120108305E+02 -0.40185003847E+02  0.52474155725E+02  0.51100000000E-03 0. -1.
         22    1    1    0    0    0 -0.93030227699E+01 -0.98158020822E+01  0.30557292705E+02  0.33416228702E+02  0.00000000000E+00 0. -1.
</event>
<event>
 5    1  0.1282529E-003  0.9118800E+02  0.7818608E-02  0.1130116E+00
         25   -1    0    0    0    0  0.00000000000E+00  0.00000000000E+00  0.99999998245E-14  0.12500000000E+03  0.12500000000E+03 0.  0.
        -11    1    3    3    0    0  0.42677400172E+01  0.28109578862E+02 -0.45613985097E+02  0.53749396883E+02  0.51100000000E-03 0.  1.
         23    2    1    0    0    0  0.22181767542E+02  0.15939707505E+02 -0.90883504611E+01  0.96212794496E+02  0.91805221115E+02 0.  0.
         11    1    3    3    0    0  0.17914027525E+02 -0.12169871357E+02  0.36525634636E+02  0.42463397613E+02  0.51100000000E-03 0. -1.
         22    1    1    0    0    0 -0.22181767542E+02 -0.15939707505E+02  0.90883504611E+01  0.28787205504E+02  0.00000000000E+00 0.  1.
</event>
<event>
 5    1  0.1282529E-003  0.9118800E+02  0.7818608E-02  0.1130116E+00
         25   -1    0    0    0    0  0.00000000000E+00  0.00000000000E+00  0.99999998245E-14  0.12500000000E+03  0.12500000000E+03 0.  0.
        -11    1    3    3    0    0 -0.12050404843E+02  0.32009038158E+02  0.34013437345E+02  0.48235927491E+02  0.51100000000E-03 0. -1.
         23    2    1    0    0    0 -0.24655957306E+02  0.10946282108E+02 -0.79717145244E+01  0.96870201652E+02  0.92696010771E+02 0.  0.
         11    1    3    3    0    0 -0.12605552463E+02 -0.21062756050E+02 -0.41985151870E+02  0.48634274160E+02  0.51100000000E-03 0.  1.
         22    1    1    0    0    0  0.24655957306E+02 -0.10946282108E+02  0.79717145244E+01  0.28129798348E+02  0.00000000000E+00 0.  1.
</event>
<event>
 5    1  0.1282529E-003  0.9118800E+02  0.7818608E-02  0.1130116E+00
         25   -1    0    0    0    0  0.00000000000E+00  0.00000000000E+00  0.99999998245E-14  0.12500000000E+03  0.12500000000E+03 0.  0.
        -11    1    3    3    0    0 -0.36193027423E+02 -0.36610456793E+02 -0.11991291918E+02  0.52858791726E+02  0.51100000000E-03 0.  1.
         23    2    1    0    0    0 -0.39986848780E+02 -0.93372861142E+01 -0.16472128329E+02  0.80756763239E+02  0.67558795207E+02 0.  0.
         11    1    3    3    0    0 -0.37938213573E+01  0.27273170678E+02 -0.44808364110E+01  0.27897971513E+02  0.51100000000E-03 0. -1.
         22    1    1    0    0    0  0.39986848780E+02  0.93372861142E+01  0.16472128329E+02  0.44243236761E+02  0.00000000000E+00 0.  1.
</event>
<event>
 5    1  0.1282529E-003  0.9118800E+02  0.7818608E-02  0.1130116E+00
         25   -1    0    0    0    0  0.00000000000E+00  0.00000000000E+00  0.99999998245E-14  0.12500000000E+03  0.12500000000E+03 0.  0.
        -11    1    3    3    0    0 -0.11496775122E+02  0.33931748907E+02 -0.49484178511E+02  0.61091925369E+02  0.51100000000E-03 0. -1.
         23    2    1    0    0    0 -0.21080542606E+01  0.87914706034E+01 -0.28327491584E+02  0.95264825079E+02  0.90505283104E+02 0.  0.
         11    1    3    3    0    0  0.93887208613E+01 -0.25140278303E+02  0.21156686927E+02  0.34172899710E+02  0.51100000000E-03 0.  1.
         22    1    1    0    0    0  0.21080542606E+01 -0.87914706034E+01  0.28327491584E+02  0.29735174921E+02  0.00000000000E+00 0. -1.
</event>
<event>
 5    1  0.1282529E-003  0.9118800E+02  0.7818608E-02  0.1130116E+00
         25   -1    0    0    0    0  0.00000000000E+00  0.00000000000E+00  0.99999998245E-14  0.12500000000E+03  0.12500000000E+03 0.  0.
        -11    1    3    3    0    0  0.14913365790E+02 -0.21831232703E+02 -0.19423006898E+02  0.32806468840E+02  0.51100000000E-03 0.  1.
         23    2    1    0    0    0 -0.27890286011E+02  0.11987095613E+02  0.76318956364E+01  0.93698173439E+02  0.88315023410E+02 0.  0.
         11    1    3    3    0    0 -0.42803651802E+02  0.33818328316E+02  0.27054902534E+02  0.60891704600E+02  0.51100000000E-03 0. -1.
         22    1    1    0    0    0  0.27890286011E+02 -0.11987095613E+02 -0.76318956364E+01  0.31301826561E+02  0.00000000000E+00 0. -1.
</event>
<event>
 5    1  0.1282529E-003  0.9118800E+02  0.7818608E-02  0.1130116E+00
         25   -1    0    0    0    0  0.00000000000E+00  0.00000000000E+00  0.99999998245E-14  0.12500000000E+03  0.12500000000E+03 0.  0.
        -11    1    3    3    0    0  0.15490607737E+02 -0.26654771078E+02 -0.16978867781E+02  0.35195421587E+02  0.51100000000E-03 0. -1.
         23    2    1    0    0    0  0.90154993498E+01  0.15546105370E+02  0.24429619862E+02  0.94672340227E+02  0.89683248473E+02 0.  0.
         11    1    3    3    0    0 -0.64751083868E+01  0.42200876449E+02  0.41408487644E+02  0.59476918640E+02  0.51100000000E-03 0.  1.
         22    1    1    0    0    0 -0.90154993498E+01 -0.15546105370E+02 -0.24429619862E+02  0.30327659773E+02  0.00000000000E+00 0.  1.
</event>
<event>
 5    1  0.1282529E-003  0.9118800E+02  0.7818608E-02  0.1130116E+00
         25   -1    0    0    0    0  0.00000000000E+00  0.00000000000E+00  0.99999998245E-14  0.12500000000E+03  0.12500000000E+03 0.  0.
        -11    1    3    3    0    0  0.32770748220E+02 -0.14541018658E+02  0.16420029672E+02  0.39433241525E+02  0.51100000000E-03 0.  1.
         23    2    1    0    0    0 -0.88622012271E+01  0.22391802294E+02  0.17718711245E+02  0.95102104610E+02  0.90280264469E+02 0.  0.
         11    1    3    3    0    0 -0.41632949447E+02  0.36932820952E+02  0.12986815721E+01  0.55668863085E+02  0.51100000000E-03 0. -1.
         22    1    1    0    0    0  0.88622012271E+01 -0.22391802294E+02 -0.17718711245E+02  0.29897895390E+02  0.00000000000E+00 0. -1.
</event>
<event>
 5    1  0.1282529E-003  0.9118800E+02  0.7818608E-02  0.1130116E+00
         25   -1    0    0    0    0  0.00000000000E+00  0.00000000000E+00  0.99999998245E-14  0.12500000000E+03  0.12500000000E+03 0.  0.
        -11    1    3    3    0    0  0.92494561416E+01  0.52349079248E+02  0.23470911931E+02  0.58110775628E+02  0.51100000000E-03 0.  1.
         23    2    1    0    0    0  0.31088496024E+01  0.31317794240E+02 -0.40290720665E+01  0.93271422918E+02  0.87708926168E+02 0.  0.
         11    1    3    3    0    0 -0.61406065391E+01 -0.21031285008E+02 -0.27499983997E+02  0.35160647290E+02  0.51100000000E-03 0. -1.
         22    1    1    0    0    0 -0.31088496024E+01 -0.31317794240E+02  0.40290720665E+01  0.31728577082E+02  0.00000000000E+00 0.  1.
</event>
<event>
 5    1  0.1282529E-003  0.9118800E+02  0.7818608E-02  0.1130116E+00
         25   -1    0    0    0    0  0.00000000000E+00  0.00000000000E+00  0.99999998245E-14  0.12500000000E+03  0.12500000000E+03 0.  0.
        -11    1    3    3    0    0  0.97256065369E+01  0.18378026077E+02  0.29292412890E+02  0.35921925313E+02  0.51100000000E-03 0.  1.
         23    2    1    0    0    0 -0.29277887210E+01  0.40669325762E+01 -0.28124147860E+02  0.96432893387E+02  0.92104415458E+02 0.  0.
         11    1    3    3    0    0 -0.12653395258E+02 -0.14311093501E+02 -0.57416560750E+02  0.60510968075E+02  0.51100000000E-03 0. -1.
         22    1    1    0    0    0  0.29277887210E+01 -0.40669325762E+01  0.28124147860E+02  0.28567106613E+02  0.00000000000E+00 0. -1.
</event>
<event>
 5    1  0.1282529E-003  0.9118800E+02  0.7818608E-02  0.1130116E+00
         25   -1    0    0    0    0  0.00000000000E+00  0.00000000000E+00  0.99999998245E-14  0.12500000000E+03  0.12500000000E+03 0.  0.
        -11    1    3    3    0    0 -0.79983567340E+01  0.19792804851E+02  0.32658403637E+02  0.39016665192E+02  0.51100000000E-03 0.  1.
         23    2    1    0    0    0 -0.10971128717E+02  0.51660385585E+01 -0.24269929609E+02  0.97869148503E+02  0.94033436211E+02 0.  0.
         11    1    3    3    0    0 -0.29727719831E+01 -0.14626766293E+02 -0.56928333246E+02  0.58852483311E+02  0.51100000000E-03 0. -1.
         22    1    1    0    0    0  0.10971128717E+02 -0.51660385585E+01  0.24269929609E+02  0.27130851497E+02  0.00000000000E+00 0. -1.
</event>
<event>
 5    1  0.1282529E-003  0.9118800E+02  0.7818608E-02  0.1130116E+00
         25   -1    0    0    0    0  0.00000000000E+00  0.00000000000E+00  0.99999998245E-14  0.12500000000E+03  0.12500000000E+03 0.  0.
        -11    1    3    3    0    0 -0.70324690422E+01  0.24072407850E+02  0.46044038083E+02  0.52430810444E+02  0.51100000000E-03 0.  1.
         23    2    1    0    0    0  0.17368787706E+02  0.20816605567E+02  0.99496725770E+01  0.96120910020E+02  0.91680027841E+02 0.  0.
         11    1    3    3    0    0  0.24401256748E+02 -0.32558022834E+01 -0.36094365506E+02  0.43690099576E+02  0.51100000000E-03 0. -1.
         22    1    1    0    0    0 -0.17368787706E+02 -0.20816605567E+02 -0.99496725770E+01  0.28879089980E+02  0.00000000000E+00 0. -1.
</event>
<event>
 5    1  0.1282529E-003  0.9118800E+02  0.7818608E-02  0.1130116E+00
         25   -1    0    0    0    0  0.00000000000E+00  0.00000000000E+00  0.99999998245E-14  0.12500000000E+03  0.12500000000E+03 0.  0.
        -11    1    3    3    0    0  0.24368757893E+02  0.34280766658E+02 -0.51139441405E+01  0.42369325565E+02  0.51100000000E-03 0.  1.
         23    2    1    0    0    0  0.20117013732E+01 -0.21410906318E+02  0.41681287431E+01  0.10309458631E+03  0.10074049125E+03 0.  0.
         11    1    3    3    0    0 -0.22357056520E+02 -0.55691672976E+02  0.92820728836E+01  0.60725260743E+02  0.51100000000E-03 0. -1.
         22    1    1    0    0    0 -0.20117013732E+01  0.21410906318E+02 -0.41681287431E+01  0.21905413692E+02  0.00000000000E+00 0. -1.
</event>
<event>
 5    1  0.1282529E-003  0.9118800E+02  0.7818608E-02  0.1130116E+00
         25   -1    0    0    0    0  0.00000000000E+00  0.00000000000E+00  0.99999998245E-14  0.12500000000E+03  0.12500000000E+03 0.  0.
        -11    1    3    3    0    0  0.32053492883E+02  0.30888926636E+01  0.32672596257E+02  0.45874461418E+02  0.51100000000E-03 0.  1.
         23    2    1    0    0    0 -0.17990616131E+02  0.32915985762E+01  0.20789862850E+02  0.97310375818E+02  0.93287694551E+02 0.  0.
         11    1    3    3    0    0 -0.50044109015E+02  0.20270591268E+00 -0.11882733407E+02  0.51435914401E+02  0.51100000000E-03 0. -1.
         22    1    1    0    0    0  0.17990616131E+02 -0.32915985762E+01 -0.20789862850E+02  0.27689624182E+02  0.00000000000E+00 0.  1.
</event>
<event>
 5    1  0.1282529E-003  0.9118800E+02  0.7818608E-02  0.1130116E+00
         25   -1    0    0    0    0  0.00000000000E+00  0.00000000000E+00  0.99999998245E-14  0.12500000000E+03  0.12500000000E+03 0.  0.
        -11    1    3    3    0    0  0.27936675474E+02 -0.21289158350E+02 -0.12107371047E+02  0.37152046158E+02  0.51100000000E-03 0.  1.
         23    2    1    0    0    0  0.61540297921E+00  0.28111765662E+02  0.56254405321E+01  0.96324301741E+02  0.91956921628E+02 0.  0.
         11    1    3    3    0    0 -0.27321272495E+02  0.49400924012E+02  0.17732811579E+02  0.59172255583E+02  0.51100000000E-03 0. -1.
         22    1    1    0    0    0 -0.61540297921E+00 -0.28111765662E+02 -0.56254405321E+01  0.28675698259E+02  0.00000000000E+00 0. -1.
</event>
<event>
 5    1  0.1282529E-003  0.9118800E+02  0.7818608E-02  0.1130116E+00
         25   -1    0    0    0    0  0.00000000000E+00  0.00000000000E+00  0.99999998245E-14  0.12500000000E+03  0.12500000000E+03 0.  0.
        -11    1    3    3    0    0 -0.52475734280E+02 -0.40781527733E+01 -0.40070207463E+01  0.52786269368E+02  0.51100000000E-03 0. -1.
         23    2    1    0    0    0 -0.15843033219E+02 -0.18325309917E+02 -0.18332090277E+02  0.94620990486E+02  0.89611648916E+02 0.  0.
         11    1    3    3    0    0  0.36632701061E+02 -0.14247157144E+02 -0.14325069531E+02  0.41834721118E+02  0.51100000000E-03 0.  1.
         22    1    1    0    0    0  0.15843033219E+02  0.18325309917E+02  0.18332090277E+02  0.30379009514E+02  0.00000000000E+00 0. -1.
</event>
<event>
 5    1  0.1282529E-003  0.9118800E+02  0.7818608E-02  0.1130116E+00
         25   -1    0    0    0    0  0.00000000000E+00  0.00000000000E+00  0.99999998245E-14  0.12500000000E+03  0.12500000000E+03 0.  0.
        -11    1    3    3    0    0  0.10250110525E+02 -0.32249979117E+02 -0.26348766468E+02  0.42888033453E+02  0.51100000000E-03 0. -1.
         23    2    1    0    0    0 -0.24531614802E+02  0.66131536374E+01 -0.11470352771E+02  0.97123434241E+02  0.93036866673E+02 0.  0.
         11    1    3    3    0    0 -0.34781725327E+02  0.38863132755E+02  0.14878413698E+02  0.54235400788E+02  0.51100000000E-03 0.  1.
         22    1    1    0    0    0  0.24531614802E+02 -0.66131536374E+01  0.11470352771E+02  0.27876565759E+02  0.00000000000E+00 0.  1.
</event>
<event>
 5    1  0.1282529E-003  0.9118800E+02  0.7818608E-02  0.1130116E+00
         25   -1    0    0    0    0  0.00000000000E+00  0.00000000000E+00  0.99999998245E-14  0.12500000000E+03  0.12500000000E+03 0.  0.
        -11    1    3    3    0    0 -0.64889364666E+01 -0.38750754932E+02 -0.12738657384E+02  0.41303761287E+02  0.51100000000E-03 0.  1.
         23    2    1    0    0    0  0.14392183808E+02 -0.33109244348E+01  0.24239848229E+02  0.96615718830E+02  0.92352204671E+02 0.  0.
         11    1    3    3    0    0  0.20881120274E+02  0.35439830497E+02  0.36978505613E+02  0.55311957543E+02  0.51100000000E-03 0. -1.
         22    1    1    0    0    0 -0.14392183808E+02  0.33109244348E+01 -0.24239848229E+02  0.28384281170E+02  0.00000000000E+00 0. -1.
</event>
<event>
 5    1  0.1282529E-003  0.9118800E+02  0.7818608E-02  0.1130116E+00
         25   -1    0    0    0    0  0.00000000000E+00  0.00000000000E+00  0.99999998245E-14  0.12500000000E+03  0.12500000000E+03 0.  0.
        -11    1    3    3    0    0  0.42016688580E+02  0.14417792161E+02  0.33063189497E+02  0.55375530246E+02  0.51100000000E-03 0.  1.
         23    2    1    0    0    0  0.10825413016E+02  0.25718468704E+02  0.12357095459E+02  0.94482349245E+02  0.89418048017E+02 0.  0.
         11    1    3    3    0    0 -0.31191275564E+02  0.11300676543E+02 -0.20706094038E+02  0.39106818999E+02  0.51100000000E-03 0. -1.
         22    1    1    0    0    0 -0.10825413016E+02 -0.25718468704E+02 -0.12357095459E+02  0.30517650755E+02  0.00000000000E+00 0.  1.
</event>
<event>
 5    1  0.1282529E-003  0.9118800E+02  0.7818608E-02  0.1130116E+00
         25   -1    0    0    0    0  0.00000000000E+00  0.00000000000E+00  0.99999998245E-14  0.12500000000E+03  0.12500000000E+03 0.  0.
        -11    1    3    3    0    0 -0.48707865309E+02  0.15097288462E+02  0.35564782338E+02  0.62171038313E+02  0.51100000000E-03 0.  1.
         23    2    1    0    0    0 -0.24733760672E+02  0.31188426554E+01  0.15575715293E+02  0.95604609147E+02  0.90973360314E+02 0.  0.
         11    1    3    3    0    0  0.23974104637E+02 -0.11978445807E+02 -0.19989067046E+02  0.33433570834E+02  0.51100000000E-03 0. -1.
         22    1    1    0    0    0  0.24733760672E+02 -0.31188426554E+01 -0.15575715293E+02  0.29395390853E+02  0.00000000000E+00 0.  1.
</event>
<event>
 5    1  0.1282529E-003  0.9118800E+02  0.7818608E-02  0.1130116E+00
         25   -1    0    0    0    0  0.00000000000E+00  0.00000000000E+00  0.99999998245E-14  0.12500000000E+03  0.12500000000E+03 0.  0.
        -11    1    3    3    0    0 -0.12075843073E+02 -0.11158407486E+02 -0.24939574540E+02  0.29871699350E+02  0.51100000000E-03 0. -1.
         23    2    1    0    0    0  0.68163258943E+01 -0.45785191969E+02  0.36174682520E+01  0.78569060112E+02  0.63381898268E+02 0.  0.
         11    1    3    3    0    0  0.18892168968E+02 -0.34626784482E+02  0.28557042792E+02  0.48697360762E+02  0.51100000000E-03 0.  1.
         22    1    1    0    0    0 -0.68163258943E+01  0.45785191969E+02 -0.36174682520E+01  0.46430939888E+02  0.00000000000E+00 0. -1.
</event>
<event>
 5    1  0.1282529E-003  0.9118800E+02  0.7818608E-02  0.1130116E+00
         25   -1    0    0    0    0  0.00000000000E+00  0.00000000000E+00  0.99999998245E-14  0.12500000000E+03  0.12500000000E+03 0.  0.
        -11    1    3    3    0    0 -0.19237432479E+02  0.39470528514E+01  0.33842796254E+02  0.39127904277E+02  0.51100000000E-03 0.  1.
         23    2    1    0    0    0  0.14404721737E+02 -0.26549839988E+02  0.17275504727E+01  0.94744844368E+02  0.89784247460E+02 0.  0.
         11    1    3    3    0    0  0.33642154216E+02 -0.30496892839E+02 -0.32115245781E+02  0.55616940090E+02  0.51100000000E-03 0. -1.
         22    1    1    0    0    0 -0.14404721737E+02  0.26549839988E+02 -0.17275504727E+01  0.30255155632E+02  0.00000000000E+00 0. -1.
</event>
<event>
 5    1  0.1282529E-003  0.9118800E+02  0.7818608E-02  0.1130116E+00
         25   -1    0    0    0    0  0.00000000000E+00  0.00000000000E+00  0.99999998245E-14  0.12500000000E+03  0.12500000000E+03 0.  0.
        -11    1    3    3    0    0 -0.25822022769E+02 -0.37198936039E+01  0.44660835691E+02  0.51722381163E+02  0.51100000000E-03 0. -1.
         23    2    1    0    0    0  0.71169020707E+01  0.15721978915E+02  0.24705643382E+02  0.94863647683E+02  0.89949496500E+02 0.  0.
         11    1    3    3    0    0  0.32938924839E+02  0.19441872519E+02 -0.19955192309E+02  0.43141266520E+02  0.51100000000E-03 0.  1.
         22    1    1    0    0    0 -0.71169020707E+01 -0.15721978915E+02 -0.24705643382E+02  0.30136352317E+02  0.00000000000E+00 0.  1.
</event>
<event>
 5    1  0.1282529E-003  0.9118800E+02  0.7818608E-02  0.1130116E+00
         25   -1    0    0    0    0  0.00000000000E+00  0.00000000000E+00  0.99999998245E-14  0.12500000000E+03  0.12500000000E+03 0.  0.
        -11    1    3    3    0    0 -0.45463645087E+02 -0.36289200692E+02 -0.13981950057E+02  0.59827619367E+02  0.51100000000E-03 0. -1.
         23    2    1    0    0    0 -0.21318864614E+02 -0.10136717733E+02 -0.17528454544E+02  0.95597725368E+02  0.90963901313E+02 0.  0.
         11    1    3    3    0    0  0.24144780473E+02  0.26152482959E+02 -0.35465044861E+01  0.35770106001E+02  0.51100000000E-03 0.  1.
         22    1    1    0    0    0  0.21318864614E+02  0.10136717733E+02  0.17528454544E+02  0.29402274632E+02  0.00000000000E+00 0. -1.
</event>
<event>
 5    1  0.1282529E-003  0.9118800E+02  0.7818608E-02  0.1130116E+00
         25   -1    0    0    0    0  0.00000000000E+00  0.00000000000E+00  0.99999998245E-14  0.12500000000E+03  0.12500000000E+03 0.  0.
        -11    1    3    3    0    0  0.37864321684E+02  0.19693197134E+02  0.11731891422E+01  0.42695494410E+02  0.51100000000E-03 0.  1.
         23    2    1    0    0    0 -0.97412843952E+01  0.12166716912E+02  0.24282203609E+02  0.96146108855E+02  0.91714378446E+02 0.  0.
         11    1    3    3    0    0 -0.47605606079E+02 -0.75264802218E+01  0.23109014467E+02  0.53450614445E+02  0.51100000000E-03 0. -1.
         22    1    1    0    0    0  0.97412843952E+01 -0.12166716912E+02 -0.24282203609E+02  0.28853891145E+02  0.00000000000E+00 0.  1.
</event>
<event>
 5    1  0.1282529E-003  0.9118800E+02  0.7818608E-02  0.1130116E+00
         25   -1    0    0    0    0  0.00000000000E+00  0.00000000000E+00  0.99999998245E-14  0.12500000000E+03  0.12500000000E+03 0.  0.
        -11    1    3    3    0    0  0.20570905092E+02  0.35106123757E+02  0.24207417508E+02  0.47345550205E+02  0.51100000000E-03 0.  1.
         23    2    1    0    0    0  0.99760774230E+01 -0.12197809096E+02  0.24556183626E+02  0.95822700232E+02  0.91272531782E+02 0.  0.
         11    1    3    3    0    0 -0.10594827669E+02 -0.47303932853E+02  0.34876611876E+00  0.48477150027E+02  0.51100000000E-03 0. -1.
         22    1    1    0    0    0 -0.99760774230E+01  0.12197809096E+02 -0.24556183626E+02  0.29177299768E+02  0.00000000000E+00 0. -1.
</event>
<event>
 5    1  0.1282529E-003  0.9118800E+02  0.7818608E-02  0.1130116E+00
         25   -1    0    0    0    0  0.00000000000E+00  0.00000000000E+00  0.99999998245E-14  0.12500000000E+03  0.12500000000E+03 0.  0.
        -11    1    3    3    0    0 -0.41883978875E+02 -0.12370871266E+02  0.13047696630E+02  0.45580133061E+02  0.51100000000E-03 0.  1.
         23    2    1    0    0    0  0.81339451741E+01 -0.15932748583E+02  0.22133449960E+02  0.96541202615E+02  0.92251290797E+02 0.  0.
         11    1    3    3    0    0  0.50017924049E+02 -0.35618773166E+01  0.90857533303E+01  0.50961069554E+02  0.51100000000E-03 0. -1.
         22    1    1    0    0    0 -0.81339451741E+01  0.15932748583E+02 -0.22133449960E+02  0.28458797385E+02  0.00000000000E+00 0. -1.
</event>
<event>
 5    1  0.1282529E-003  0.9118800E+02  0.7818608E-02  0.1130116E+00
         25   -1    0    0    0    0  0.00000000000E+00  0.00000000000E+00  0.99999998245E-14  0.12500000000E+03  0.12500000000E+03 0.  0.
        -11    1    3    3    0    0  0.14819852727E+01  0.20461729318E+02  0.45642428416E+02  0.50041082313E+02  0.51100000000E-03 0.  1.
         23    2    1    0    0    0 -0.24703865954E+01 -0.18795381618E+02  0.21669950341E+02  0.96208405256E+02  0.91799244627E+02 0.  0.
         11    1    3    3    0    0 -0.39523718681E+01 -0.39257110936E+02 -0.23972478076E+02  0.46167322944E+02  0.51100000000E-03 0. -1.
         22    1    1    0    0    0  0.24703865954E+01  0.18795381618E+02 -0.21669950341E+02  0.28791594744E+02  0.00000000000E+00 0.  1.
</event>
<event>
 5    1  0.1282529E-003  0.9118800E+02  0.7818608E-02  0.1130116E+00
         25   -1    0    0    0    0  0.00000000000E+00  0.00000000000E+00  0.99999998245E-14  0.12500000000E+03  0.12500000000E+03 0.  0.
        -11    1    3    3    0    0 -0.23036680540E+02  0.29128256485E+02  0.44201815003E+01  0.37398956949E+02  0.51100000000E-03 0. -1.
         23    2    1    0    0    0  0.18912543256E+02 -0.59229653790E+01  0.22537212535E+02  0.94988472879E+02  0.90122795228E+02 0.  0.
         11    1    3    3    0    0  0.41949223796E+02 -0.35051221864E+02  0.18117031034E+02  0.57589515930E+02  0.51100000000E-03 0.  1.
         22    1    1    0    0    0 -0.18912543256E+02  0.59229653790E+01 -0.22537212535E+02  0.30011527121E+02  0.00000000000E+00 0.  1.
</event>
<event>
 5    1  0.1282529E-003  0.9118800E+02  0.7818608E-02  0.1130116E+00
         25   -1    0    0    0    0  0.00000000000E+00  0.00000000000E+00  0.99999998245E-14  0.12500000000E+03  0.12500000000E+03 0.  0.
        -11    1    3    3    0    0  0.90742025568E+00 -0.19525623438E+02  0.28040583269E+02  0.34181101394E+02  0.51100000000E-03 0.  1.
         23    2    1    0    0    0 -0.67679149042E+00  0.54687306557E+01 -0.28474706321E+02  0.95997000814E+02  0.91510929421E+02 0.  0.
         11    1    3    3    0    0 -0.15842117461E+01  0.24994354094E+02 -0.56515289590E+02  0.61815899420E+02  0.51100000000E-03 0. -1.
         22    1    1    0    0    0  0.67679149042E+00 -0.54687306557E+01  0.28474706321E+02  0.29002999186E+02  0.00000000000E+00 0. -1.
</event>
<event>
 5    1  0.1282529E-003  0.9118800E+02  0.7818608E-02  0.1130116E+00
         25   -1    0    0    0    0  0.00000000000E+00  0.00000000000E+00  0.99999998245E-14  0.12500000000E+03  0.12500000000E+03 0.  0.
        -11    1    3    3    0    0 -0.27053784520E+02 -0.73954820993E+01 -0.19785168803E+02  0.34322781315E+02  0.51100000000E-03 0.  1.
         23    2    1    0    0    0  0.17552969114E+02 -0.28545999511E+02  0.74024847677E+01  0.90681235547E+02  0.83936338298E+02 0.  0.
         11    1    3    3    0    0  0.44606753634E+02 -0.21150517412E+02  0.27187653571E+02  0.56358454233E+02  0.51100000000E-03 0. -1.
         22    1    1    0    0    0 -0.17552969114E+02  0.28545999511E+02 -0.74024847677E+01  0.34318764453E+02  0.00000000000E+00 0. -1.
</event>
<event>
 5    1  0.1282529E-003  0.9118800E+02  0.7818608E-02  0.1130116E+00
         25   -1    0    0    0    0  0.00000000000E+00  0.00000000000E+00  0.99999998245E-14  0.12500000000E+03  0.12500000000E+03 0.  0.
        -11    1    3    3    0    0 -0.33201017703E+02  0.86294553315E+01  0.88007096813E+00  0.34315442603E+02  0.51100000000E-03 0.  1.
         23    2    1    0    0    0  0.27520604826E+02  0.19570890950E+01 -0.85261740600E+01  0.96122508215E+02  0.91682206855E+02 0.  0.
         11    1    3    3    0    0  0.60721622529E+02 -0.66723662364E+01 -0.94062450281E+01  0.61807065612E+02  0.51100000000E-03 0. -1.
         22    1    1    0    0    0 -0.27520604826E+02 -0.19570890950E+01  0.85261740600E+01  0.28877491785E+02  0.00000000000E+00 0. -1.
</event>
<event>
 5    1  0.1282529E-003  0.9118800E+02  0.7818608E-02  0.1130116E+00
         25   -1    0    0    0    0  0.00000000000E+00  0.00000000000E+00  0.99999998245E-14  0.12500000000E+03  0.12500000000E+03 0.  0.
        -11    1    3    3    0    0 -0.56909180051E+01  0.31032649124E+02  0.19654408294E+02  0.37171327997E+02  0.51100000000E-03 0.  1.
         23    2    1    0    0    0  0.13265657539E+01 -0.26814429751E+02  0.10572725142E+02  0.96145954591E+02  0.91714168195E+02 0.  0.
         11    1    3    3    0    0  0.70174837589E+01 -0.57847078875E+02 -0.90816831527E+01  0.58974626593E+02  0.51100000000E-03 0. -1.
         22    1    1    0    0    0 -0.13265657539E+01  0.26814429751E+02 -0.10572725142E+02  0.28854045409E+02  0.00000000000E+00 0. -1.
</event>
<event>
 5    1  0.1282529E-003  0.9118800E+02  0.7818608E-02  0.1130116E+00
         25   -1    0    0    0    0  0.00000000000E+00  0.00000000000E+00  0.99999998245E-14  0.12500000000E+03  0.12500000000E+03 0.  0.
        -11    1    3    3    0    0  0.14811899034E+02 -0.44537573951E+02  0.16237055460E+02  0.49665177103E+02  0.51100000000E-03 0.  1.
         23    2    1    0    0    0 -0.36321031038E+00 -0.26571999645E+02  0.35910446672E+02  0.80326033676E+02  0.66757085160E+02 0.  0.
         11    1    3    3    0    0 -0.15175109345E+02  0.17965574305E+02  0.19673391212E+02  0.30660856573E+02  0.51100000000E-03 0. -1.
         22    1    1    0    0    0  0.36321031038E+00  0.26571999645E+02 -0.35910446672E+02  0.44673966324E+02  0.00000000000E+00 0.  1.
</event>
<event>
 5    1  0.1282529E-003  0.9118800E+02  0.7818608E-02  0.1130116E+00
         25   -1    0    0    0    0  0.00000000000E+00  0.00000000000E+00  0.99999998245E-14  0.12500000000E+03  0.12500000000E+03 0.  0.
        -11    1    3    3    0    0 -0.44911894133E+02  0.23549218479E+02  0.81691356181E+01  0.51365150663E+02  0.51100000000E-03 0.  1.
         23    2    1    0    0    0 -0.24239377179E+02  0.37319099223E+01 -0.21343745981E+02  0.92488001442E+02  0.86585220220E+02 0.  0.
         11    1    3    3    0    0  0.20672516954E+02 -0.19817308557E+02 -0.29512881599E+02  0.41122850779E+02  0.51100000000E-03 0. -1.
         22    1    1    0    0    0  0.24239377179E+02 -0.37319099223E+01  0.21343745981E+02  0.32511998558E+02  0.00000000000E+00 0. -1.
</event>
<event>
 5    1  0.1282529E-003  0.9118800E+02  0.7818608E-02  0.1130116E+00
         25   -1    0    0    0    0  0.00000000000E+00  0.00000000000E+00  0.99999998245E-14  0.12500000000E+03  0.12500000000E+03 0.  0.
        -11    1    3    3    0    0 -0.38174360568E+02  0.41086312972E+01  0.30879319572E+02  0.49271645329E+02  0.51100000000E-03 0.  1.
         23    2    1    0    0    0 -0.44407410280E+00 -0.19719078438E+02  0.23194574581E+02  0.94552872939E+02  0.89516580781E+02 0.  0.
         11    1    3    3    0    0  0.37730286466E+02 -0.23827709736E+02 -0.76847449913E+01  0.45281227610E+02  0.51100000000E-03 0. -1.
         22    1    1    0    0    0  0.44407410280E+00  0.19719078438E+02 -0.23194574581E+02  0.30447127061E+02  0.00000000000E+00 0. -1.
</event>
<event>
 5    1  0.1282529E-003  0.9118800E+02  0.7818608E-02  0.1130116E+00
         25   -1    0    0    0    0  0.00000000000E+00  0.00000000000E+00  0.99999998245E-14  0.12500000000E+03  0.12500000000E+03 0.  0.
        -11    1    3    3    0    0 -0.28692522617E+01 -0.52533416861E+02  0.21259357294E+01  0.52654649354E+02  0.51100000000E-03 0. -1.
         23    2    1    0    0    0 -0.22387974068E+02 -0.16165428486E+02 -0.99308760984E+01  0.95654391111E+02  0.91041736460E+02 0.  0.
         11    1    3    3    0    0 -0.19518721806E+02  0.36367988375E+02 -0.12056811828E+02  0.42999741756E+02  0.51100000000E-03 0.  1.
         22    1    1    0    0    0  0.22387974068E+02  0.16165428486E+02  0.99308760984E+01  0.29345608889E+02  0.00000000000E+00 0. -1.
</event>
<event>
 5    1  0.1282529E-003  0.9118800E+02  0.7818608E-02  0.1130116E+00
         25   -1    0    0    0    0  0.00000000000E+00  0.00000000000E+00  0.99999998245E-14  0.12500000000E+03  0.12500000000E+03 0.  0.
        -11    1    3    3    0    0  0.14223732882E+02  0.32774831222E+02  0.22191221839E+02  0.42058940378E+02  0.51100000000E-03 0.  1.
         23    2    1    0    0    0  0.81653953244E+01 -0.21581453712E+02  0.15598651770E+02  0.97147697363E+02  0.93069459764E+02 0.  0.
         11    1    3    3    0    0 -0.60583375580E+01 -0.54356284934E+02 -0.65925700689E+01  0.55088756985E+02  0.51100000000E-03 0. -1.
         22    1    1    0    0    0 -0.81653953244E+01  0.21581453712E+02 -0.15598651770E+02  0.27852302637E+02  0.00000000000E+00 0. -1.
</event>
<event>
 5    1  0.1282529E-003  0.9118800E+02  0.7818608E-02  0.1130116E+00
         25   -1    0    0    0    0  0.00000000000E+00  0.00000000000E+00  0.99999998245E-14  0.12500000000E+03  0.12500000000E+03 0.  0.
        -11    1    3    3    0    0  0.58556998230E+02 -0.52557272797E+01  0.18191338439E+02  0.61542420373E+02  0.51100000000E-03 0.  1.
         23    2    1    0    0    0  0.31443513754E+02  0.46156370445E+01  0.11824437494E+02  0.91091063353E+02  0.84544460718E+02 0.  0.
         11    1    3    3    0    0 -0.27113484476E+02  0.98713643242E+01 -0.63669009450E+01  0.29548642980E+02  0.51100000000E-03 0. -1.
         22    1    1    0    0    0 -0.31443513754E+02 -0.46156370445E+01 -0.11824437494E+02  0.33908936647E+02  0.00000000000E+00 0.  1.
</event>
<event>
 5    1  0.1282529E-003  0.9118800E+02  0.7818608E-02  0.1130116E+00
         25   -1    0    0    0    0  0.00000000000E+00  0.00000000000E+00  0.99999998245E-14  0.12500000000E+03  0.12500000000E+03 0.  0.
        -11    1    3    3    0    0  0.36412171639E+02  0.30154935008E+02 -0.38769344203E+02  0.61141053303E+02  0.51100000000E-03 0. -1.
         23    2    1    0    0    0  0.24298414813E+02  0.11144367555E+02 -0.13337290600E+02  0.95125375129E+02  0.90312478552E+02 0.  0.
         11    1    3    3    0    0 -0.12113756826E+02 -0.19010567452E+02  0.25432053602E+02  0.33984321826E+02  0.51100000000E-03 0.  1.
         22    1    1    0    0    0 -0.24298414813E+02 -0.11144367555E+02  0.13337290600E+02  0.29874624871E+02  0.00000000000E+00 0. -1.
</event>
<event>
 5    1  0.1282529E-003  0.9118800E+02  0.7818608E-02  0.1130116E+00
         25   -1    0    0    0    0  0.00000000000E+00  0.00000000000E+00  0.99999998245E-14  0.12500000000E+03  0.12500000000E+03 0.  0.
        -11    1    3    3    0    0 -0.32749103567E+02  0.12247751311E+01  0.19054028136E+02  0.37908572210E+02  0.51100000000E-03 0.  1.
         23    2    1    0    0    0  0.21992876382E+02  0.17187616683E+02  0.76296505494E+01  0.96063650086E+02  0.91601924224E+02 0.  0.
         11    1    3    3    0    0  0.54741979950E+02  0.15962841552E+02 -0.11424377586E+02  0.58155077876E+02  0.51100000000E-03 0. -1.
         22    1    1    0    0    0 -0.21992876382E+02 -0.17187616683E+02 -0.76296505494E+01  0.28936349914E+02  0.00000000000E+00 0. -1.
</event>
<event>
 5    1  0.1282529E-003  0.9118800E+02  0.7818608E-02  0.1130116E+00
         25   -1    0    0    0    0  0.00000000000E+00  0.00000000000E+00  0.99999998245E-14  0.12500000000E+03  0.12500000000E+03 0.  0.
        -11    1    3    3    0    0 -0.31927189076E+02 -0.27531170541E+02  0.39108056488E+02  0.57504354933E+02  0.51100000000E-03 0. -1.
         23    2    1    0    0    0 -0.15549986350E+02 -0.24732826545E+02  0.51147705901E+01  0.95340673262E+02  0.90609979116E+02 0.  0.
         11    1    3    3    0    0  0.16377202727E+02  0.27983439959E+01 -0.33993285898E+02  0.37836318329E+02  0.51100000000E-03 0.  1.
         22    1    1    0    0    0  0.15549986350E+02  0.24732826545E+02 -0.51147705901E+01  0.29659326738E+02  0.00000000000E+00 0. -1.
</event>
<event>
 5    1  0.1282529E-003  0.9118800E+02  0.7818608E-02  0.1130116E+00
         25   -1    0    0    0    0  0.00000000000E+00  0.00000000000E+00  0.99999998245E-14  0.12500000000E+03  0.12500000000E+03 0.  0.
        -11    1    3    3    0    0  0.12333880634E+02  0.60197147712E+01  0.52606194425E+02  0.54367023733E+02  0.51100000000E-03 0. -1.
         23    2    1    0    0    0  0.84476280467E+01 -0.19123051912E+02  0.17418368706E+02  0.97788732068E+02  0.93926476656E+02 0.  0.
         11    1    3    3    0    0 -0.38862525870E+01 -0.25142766683E+02 -0.35187825719E+02  0.43421708335E+02  0.51100000000E-03 0.  1.
         22    1    1    0    0    0 -0.84476280467E+01  0.19123051912E+02 -0.17418368706E+02  0.27211267932E+02  0.00000000000E+00 0. -1.
</event>
<event>
 5    1  0.1282529E-003  0.9118800E+02  0.7818608E-02  0.1130116E+00
         25   -1    0    0    0    0  0.00000000000E+00  0.00000000000E+00  0.99999998245E-14  0.12500000000E+03  0.12500000000E+03 0.  0.
        -11    1    3    3    0    0 -0.24342755206E+02 -0.67275952017E+01  0.31967982221E+02  0.40740424099E+02  0.51100000000E-03 0.  1.
         23    2    1    0    0    0  0.38255248988E+00  0.30138016369E+02  0.10402582471E+01  0.94841609554E+02  0.89918865587E+02 0.  0.
         11    1    3    3    0    0  0.24725307696E+02  0.36865611571E+02 -0.30927723974E+02  0.54101185455E+02  0.51100000000E-03 0. -1.
         22    1    1    0    0    0 -0.38255248988E+00 -0.30138016369E+02 -0.10402582471E+01  0.30158390446E+02  0.00000000000E+00 0. -1.
</event>
<event>
 5    1  0.1282529E-003  0.9118800E+02  0.7818608E-02  0.1130116E+00
         25   -1    0    0    0    0  0.00000000000E+00  0.00000000000E+00  0.99999998245E-14  0.12500000000E+03  0.12500000000E+03 0.  0.
        -11    1    3    3    0    0 -0.24009496980E+02 -0.31163569567E+02 -0.10904091581E+02  0.40823072237E+02  0.51100000000E-03 0.  1.
         23    2    1    0    0    0  0.23854325867E+02 -0.73926915011E+00 -0.13468704594E+02  0.97595960428E+02  0.93669579411E+02 0.  0.
         11    1    3    3    0    0  0.47863822847E+02  0.30424300417E+02 -0.25646130129E+01  0.56772888191E+02  0.51100000000E-03 0. -1.
         22    1    1    0    0    0 -0.23854325867E+02  0.73926915011E+00  0.13468704594E+02  0.27404039572E+02  0.00000000000E+00 0. -1.
</event>
<event>
 5    1  0.1282529E-003  0.9118800E+02  0.7818608E-02  0.1130116E+00
         25   -1    0    0    0    0  0.00000000000E+00  0.00000000000E+00  0.99999998245E-14  0.12500000000E+03  0.12500000000E+03 0.  0.
        -11    1    3    3    0    0  0.31514554688E+02  0.48872563432E+01 -0.30311406914E+02  0.43998111563E+02  0.51100000000E-03 0.  1.
         23    2    1    0    0    0  0.22833141015E+02 -0.61777978778E+01  0.18611039007E+02  0.94902021859E+02  0.90002808094E+02 0.  0.
         11    1    3    3    0    0 -0.86814136729E+01 -0.11065054221E+02  0.48922445921E+02  0.50903910296E+02  0.51100000000E-03 0. -1.
         22    1    1    0    0    0 -0.22833141015E+02  0.61777978778E+01 -0.18611039007E+02  0.30097978141E+02  0.00000000000E+00 0. -1.
</event>
<event>
 5    1  0.1282529E-003  0.9118800E+02  0.7818608E-02  0.1130116E+00
         25   -1    0    0    0    0  0.00000000000E+00  0.00000000000E+00  0.99999998245E-14  0.12500000000E+03  0.12500000000E+03 0.  0.
        -11    1    3    3    0    0  0.30681542218E+01  0.20235222582E+02 -0.27176295178E+02  0.34021005616E+02  0.51100000000E-03 0.  1.
         23    2    1    0    0    0 -0.16216181322E+02 -0.14939197834E+02  0.19499506300E+02  0.95565752693E+02  0.90919954759E+02 0.  0.
         11    1    3    3    0    0 -0.19284335543E+02 -0.35174420416E+02  0.46675801477E+02  0.61544747077E+02  0.51100000000E-03 0. -1.
         22    1    1    0    0    0  0.16216181322E+02  0.14939197834E+02 -0.19499506300E+02  0.29434247307E+02  0.00000000000E+00 0. -1.
</event>
<event>
 5    1  0.1282529E-003  0.9118800E+02  0.7818608E-02  0.1130116E+00
         25   -1    0    0    0    0  0.00000000000E+00  0.00000000000E+00  0.99999998245E-14  0.12500000000E+03  0.12500000000E+03 0.  0.
        -11    1    3    3    0    0 -0.14003259044E+02 -0.10661449769E+00  0.58297841237E+02  0.59956158346E+02  0.51100000000E-03 0. -1.
         23    2    1    0    0    0 -0.16122704017E+02  0.69788885014E+01  0.22798263627E+02  0.96217934509E+02  0.91812219379E+02 0.  0.
         11    1    3    3    0    0 -0.21194449730E+01  0.70855029991E+01 -0.35499577610E+02  0.36261776163E+02  0.51100000000E-03 0.  1.
         22    1    1    0    0    0  0.16122704017E+02 -0.69788885014E+01 -0.22798263627E+02  0.28782065491E+02  0.00000000000E+00 0. -1.
</event>
<event>
 5    1  0.1282529E-003  0.9118800E+02  0.7818608E-02  0.1130116E+00
         25   -1    0    0    0    0  0.00000000000E+00  0.00000000000E+00  0.99999998245E-14  0.12500000000E+03  0.12500000000E+03 0.  0.
        -11    1    3    3    0    0 -0.37979106051E+02  0.23346567102E+02  0.14099953547E+02  0.46757709334E+02  0.51100000000E-03 0.  1.
         23    2    1    0    0    0  0.35423086238E+01  0.26763160646E+02 -0.11499928308E+02  0.95656123821E+02  0.91044115434E+02 0.  0.
         11    1    3    3    0    0  0.41521414675E+02  0.34165935441E+01 -0.25599881855E+02  0.48898414487E+02  0.51100000000E-03 0. -1.
         22    1    1    0    0    0 -0.35423086238E+01 -0.26763160646E+02  0.11499928308E+02  0.29343876179E+02  0.00000000000E+00 0.  1.
</event>
<event>
 5    1  0.1282529E-003  0.9118800E+02  0.7818608E-02  0.1130116E+00
         25   -1    0    0    0    0  0.00000000000E+00  0.00000000000E+00  0.99999998245E-14  0.12500000000E+03  0.12500000000E+03 0.  0.
        -11    1    3    3    0    0 -0.14112207747E+02 -0.42000833360E+02  0.27958228059E+02  0.52391668487E+02  0.51100000000E-03 0. -1.
         23    2    1    0    0    0  0.17342386639E+02 -0.22282284655E+02  0.42352486111E+01  0.96448364064E+02  0.92125409177E+02 0.  0.
         11    1    3    3    0    0  0.31454594387E+02  0.19718548705E+02 -0.23722979447E+02  0.44056695577E+02  0.51100000000E-03 0.  1.
         22    1    1    0    0    0 -0.17342386639E+02  0.22282284655E+02 -0.42352486111E+01  0.28551635936E+02  0.00000000000E+00 0.  1.
</event>
<event>
 5    1  0.1282529E-003  0.9118800E+02  0.7818608E-02  0.1130116E+00
         25   -1    0    0    0    0  0.00000000000E+00  0.00000000000E+00  0.99999998245E-14  0.12500000000E+03  0.12500000000E+03 0.  0.
        -11    1    3    3    0    0 -0.29014737907E+02 -0.33117594323E+02 -0.25373051750E+02  0.50817534621E+02  0.51100000000E-03 0.  1.
         23    2    1    0    0    0  0.13765675713E+02 -0.14397624253E+02 -0.18115355916E+02  0.98075076009E+02  0.94306781316E+02 0.  0.
         11    1    3    3    0    0  0.42780413620E+02  0.18719970070E+02  0.72576958340E+01  0.47257541388E+02  0.51100000000E-03 0. -1.
         22    1    1    0    0    0 -0.13765675713E+02  0.14397624253E+02  0.18115355916E+02  0.26924923991E+02  0.00000000000E+00 0.  1.
</event>
<event>
 5    1  0.1282529E-003  0.9118800E+02  0.7818608E-02  0.1130116E+00
         25   -1    0    0    0    0  0.00000000000E+00  0.00000000000E+00  0.99999998245E-14  0.12500000000E+03  0.12500000000E+03 0.  0.
        -11    1    3    3    0    0 -0.22316588674E+02 -0.52861926198E+02  0.22562097345E+02  0.61655994099E+02  0.51100000000E-03 0. -1.
         23    2    1    0    0    0 -0.13659981144E+02 -0.26937701037E+02  0.43844763157E+01  0.94480195699E+02  0.89415037464E+02 0.  0.
         11    1    3    3    0    0  0.86566075302E+01  0.25924225161E+02 -0.18177621030E+02  0.32824201600E+02  0.51100000000E-03 0.  1.
         22    1    1    0    0    0  0.13659981144E+02  0.26937701037E+02 -0.43844763157E+01  0.30519804301E+02  0.00000000000E+00 0. -1.
</event>
<event>
 5    1  0.1282529E-003  0.9118800E+02  0.7818608E-02  0.1130116E+00
         25   -1    0    0    0    0  0.00000000000E+00  0.00000000000E+00  0.99999998245E-14  0.12500000000E+03  0.12500000000E+03 0.  0.
        -11    1    3    3    0    0 -0.53822689413E+01  0.29976630326E+02 -0.21452139623E+02  0.37252670767E+02  0.51100000000E-03 0.  1.
         23    2    1    0    0    0  0.31597352120E+02 -0.82124129720E+00  0.62483418236E+01  0.92780303015E+02  0.87006182273E+02 0.  0.
         11    1    3    3    0    0  0.36979621062E+02 -0.30797871623E+02  0.27700481446E+02  0.55527632247E+02  0.51100000000E-03 0. -1.
         22    1    1    0    0    0 -0.31597352120E+02  0.82124129720E+00 -0.62483418236E+01  0.32219696985E+02  0.00000000000E+00 0. -1.
</event>
<event>
 5    1  0.1282529E-003  0.9118800E+02  0.7818608E-02  0.1130116E+00
         25   -1    0    0    0    0  0.00000000000E+00  0.00000000000E+00  0.99999998245E-14  0.12500000000E+03  0.12500000000E+03 0.  0.
        -11    1    3    3    0    0 -0.54379614260E+02 -0.15278205534E+02 -0.25453920341E+02  0.61955371619E+02  0.51100000000E-03 0.  1.
         23    2    1    0    0    0 -0.19986139180E+02 -0.10899158669E+02 -0.12932017536E+02  0.98818432122E+02  0.95286977234E+02 0.  0.
         11    1    3    3    0    0  0.34393475081E+02  0.43790468655E+01  0.12521902804E+02  0.36863060503E+02  0.51100000000E-03 0. -1.
         22    1    1    0    0    0  0.19986139180E+02  0.10899158669E+02  0.12932017536E+02  0.26181567878E+02  0.00000000000E+00 0.  1.
</event>
<event>
 5    1  0.1282529E-003  0.9118800E+02  0.7818608E-02  0.1130116E+00
         25   -1    0    0    0    0  0.00000000000E+00  0.00000000000E+00  0.99999998245E-14  0.12500000000E+03  0.12500000000E+03 0.  0.
        -11    1    3    3    0    0  0.50413789689E+02  0.25155632979E+02 -0.49579502780E+00  0.56343605443E+02  0.51100000000E-03 0. -1.
         23    2    1    0    0    0  0.32351175435E+02 -0.57438466401E+01 -0.68780340765E+00  0.92135681966E+02  0.86075086358E+02 0.  0.
         11    1    3    3    0    0 -0.18062614253E+02 -0.30899479619E+02 -0.19200837985E+00  0.35792076523E+02  0.51100000000E-03 0.  1.
         22    1    1    0    0    0 -0.32351175435E+02  0.57438466401E+01  0.68780340765E+00  0.32864318034E+02  0.00000000000E+00 0. -1.
</event>
<event>
 5    1  0.1282529E-003  0.9118800E+02  0.7818608E-02  0.1130116E+00
         25   -1    0    0    0    0  0.00000000000E+00  0.00000000000E+00  0.99999998245E-14  0.12500000000E+03  0.12500000000E+03 0.  0.
        -11    1    3    3    0    0 -0.30428057322E+02  0.11482119801E+02 -0.49986077325E+02  0.59634836078E+02  0.51100000000E-03 0. -1.
         23    2    1    0    0    0 -0.22602141674E+02 -0.32763108133E+01 -0.17276629433E+02  0.96363084220E+02  0.92009624796E+02 0.  0.
         11    1    3    3    0    0  0.78259156479E+01 -0.14758430615E+02  0.32709447892E+02  0.36728248142E+02  0.51100000000E-03 0.  1.
         22    1    1    0    0    0  0.22602141674E+02  0.32763108133E+01  0.17276629433E+02  0.28636915780E+02  0.00000000000E+00 0. -1.
</event>
<event>
 5    1  0.1282529E-003  0.9118800E+02  0.7818608E-02  0.1130116E+00
         25   -1    0    0    0    0  0.00000000000E+00  0.00000000000E+00  0.99999998245E-14  0.12500000000E+03  0.12500000000E+03 0.  0.
        -11    1    3    3    0    0  0.58473858786E+02  0.37470019798E+01  0.70418982782E+01  0.59015426092E+02  0.51100000000E-03 0.  1.
         23    2    1    0    0    0  0.26339629508E+02 -0.12989486002E+02  0.26440877334E+01  0.95512815849E+02  0.90847146142E+02 0.  0.
         11    1    3    3    0    0 -0.32134229278E+02 -0.16736487982E+02 -0.43978105448E+01  0.36497389757E+02  0.51100000000E-03 0. -1.
         22    1    1    0    0    0 -0.26339629508E+02  0.12989486002E+02 -0.26440877334E+01  0.29487184151E+02  0.00000000000E+00 0.  1.
</event>
<event>
 5    1  0.1282529E-003  0.9118800E+02  0.7818608E-02  0.1130116E+00
         25   -1    0    0    0    0  0.00000000000E+00  0.00000000000E+00  0.99999998245E-14  0.12500000000E+03  0.12500000000E+03 0.  0.
        -11    1    3    3    0    0 -0.25328556094E+02  0.28233265306E+01  0.41097637263E+02  0.48358274528E+02  0.51100000000E-03 0.  1.
         23    2    1    0    0    0 -0.25415019570E+02 -0.33268739321E+01 -0.82387691513E+01  0.98076615609E+02  0.94308821975E+02 0.  0.
         11    1    3    3    0    0 -0.86463476679E-01 -0.61502004627E+01 -0.49336406415E+02  0.49718341081E+02  0.51100000000E-03 0. -1.
         22    1    1    0    0    0  0.25415019570E+02  0.33268739321E+01  0.82387691513E+01  0.26923384391E+02  0.00000000000E+00 0.  1.
</event>
<event>
 5    1  0.1282529E-003  0.9118800E+02  0.7818608E-02  0.1130116E+00
         25   -1    0    0    0    0  0.00000000000E+00  0.00000000000E+00  0.99999998245E-14  0.12500000000E+03  0.12500000000E+03 0.  0.
        -11    1    3    3    0    0  0.32217826307E+02  0.92902638816E+01  0.22186304886E+02  0.40206087347E+02  0.51100000000E-03 0. -1.
         23    2    1    0    0    0  0.65098307602E+00  0.13039611267E+02 -0.24822019750E+02  0.96953825476E+02  0.92808708476E+02 0.  0.
         11    1    3    3    0    0 -0.31566843231E+02  0.37493473853E+01 -0.47008324636E+02  0.56747738129E+02  0.51100000000E-03 0.  1.
         22    1    1    0    0    0 -0.65098307602E+00 -0.13039611267E+02  0.24822019750E+02  0.28046174524E+02  0.00000000000E+00 0.  1.
</event>
<event>
 5    1  0.1282529E-003  0.9118800E+02  0.7818608E-02  0.1130116E+00
         25   -1    0    0    0    0  0.00000000000E+00  0.00000000000E+00  0.99999998245E-14  0.12500000000E+03  0.12500000000E+03 0.  0.
        -11    1    3    3    0    0  0.15598869118E+02 -0.21965038094E+02  0.21936738285E+02  0.34742022150E+02  0.51100000000E-03 0.  1.
         23    2    1    0    0    0 -0.24218114048E+02  0.16773182299E+02 -0.25068571176E+01  0.95434123976E+02  0.90738806439E+02 0.  0.
         11    1    3    3    0    0 -0.39816983165E+02  0.38738220393E+02 -0.24443595403E+02  0.60692101826E+02  0.51100000000E-03 0. -1.
         22    1    1    0    0    0  0.24218114048E+02 -0.16773182299E+02  0.25068571176E+01  0.29565876024E+02  0.00000000000E+00 0. -1.
</event>
<event>
 5    1  0.1282529E-003  0.9118800E+02  0.7818608E-02  0.1130116E+00
         25   -1    0    0    0    0  0.00000000000E+00  0.00000000000E+00  0.99999998245E-14  0.12500000000E+03  0.12500000000E+03 0.  0.
        -11    1    3    3    0    0  0.44920884965E+02 -0.17387172391E+02 -0.11471036180E+02  0.49515495970E+02  0.51100000000E-03 0.  1.
         23    2    1    0    0    0  0.43436142539E+01  0.12285983085E+01 -0.27637573870E+02  0.96996215827E+02  0.92865784640E+02 0.  0.
         11    1    3    3    0    0 -0.40577270711E+02  0.18615770700E+02 -0.16166537689E+02  0.47480719858E+02  0.51100000000E-03 0. -1.
         22    1    1    0    0    0 -0.43436142539E+01 -0.12285983085E+01  0.27637573870E+02  0.28003784173E+02  0.00000000000E+00 0.  1.
</event>
<event>
 5    1  0.1282529E-003  0.9118800E+02  0.7818608E-02  0.1130116E+00
         25   -1    0    0    0    0  0.00000000000E+00  0.00000000000E+00  0.99999998245E-14  0.12500000000E+03  0.12500000000E+03 0.  0.
        -11    1    3    3    0    0 -0.25848734716E+02  0.33016458073E+02 -0.40075823355E+02  0.58002717247E+02  0.51100000000E-03 0. -1.
         23    2    1    0    0    0 -0.25085477893E+02  0.10597310939E+02 -0.90196833857E+01  0.96313088548E+02  0.91941677910E+02 0.  0.
         11    1    3    3    0    0  0.76325682297E+00 -0.22419147134E+02  0.31056139969E+02  0.38310371301E+02  0.51100000000E-03 0.  1.
         22    1    1    0    0    0  0.25085477893E+02 -0.10597310939E+02  0.90196833857E+01  0.28686911452E+02  0.00000000000E+00 0. -1.
</event>
<event>
 5    1  0.1282529E-003  0.9118800E+02  0.7818608E-02  0.1130116E+00
         25   -1    0    0    0    0  0.00000000000E+00  0.00000000000E+00  0.99999998245E-14  0.12500000000E+03  0.12500000000E+03 0.  0.
        -11    1    3    3    0    0 -0.37712072346E+02  0.44855070394E+02 -0.19243329864E+02  0.61680495176E+02  0.51100000000E-03 0.  1.
         23    2    1    0    0    0 -0.13709735338E+02  0.24535908345E+02 -0.40604162618E+01  0.96601855314E+02  0.92333438301E+02 0.  0.
         11    1    3    3    0    0  0.24002337008E+02 -0.20319162048E+02  0.15182913602E+02  0.34921360138E+02  0.51100000000E-03 0. -1.
         22    1    1    0    0    0  0.13709735338E+02 -0.24535908345E+02  0.40604162618E+01  0.28398144686E+02  0.00000000000E+00 0.  1.
</event>
<event>
 5    1  0.1282529E-003  0.9118800E+02  0.7818608E-02  0.1130116E+00
         25   -1    0    0    0    0  0.00000000000E+00  0.00000000000E+00  0.99999998245E-14  0.12500000000E+03  0.12500000000E+03 0.  0.
        -11    1    3    3    0    0 -0.23596696847E+02  0.99957991140E+00 -0.20022459523E+02  0.30962915685E+02  0.51100000000E-03 0.  1.
         23    2    1    0    0    0  0.29595637873E+02 -0.17713652815E+02 -0.92908138304E+00  0.90495819538E+02  0.83659756660E+02 0.  0.
         11    1    3    3    0    0  0.53192334720E+02 -0.18713232726E+02  0.19093378140E+02  0.59532903853E+02  0.51100000000E-03 0. -1.
         22    1    1    0    0    0 -0.29595637873E+02  0.17713652815E+02  0.92908138304E+00  0.34504180462E+02  0.00000000000E+00 0. -1.
</event>
<event>
 5    1  0.1282529E-003  0.9118800E+02  0.7818608E-02  0.1130116E+00
         25   -1    0    0    0    0  0.00000000000E+00  0.00000000000E+00  0.99999998245E-14  0.12500000000E+03  0.12500000000E+03 0.  0.
        -11    1    3    3    0    0  0.25541291155E+01 -0.37487185839E+02  0.36587597199E+01  0.37751810560E+02  0.51100000000E-03 0.  1.
         23    2    1    0    0    0  0.45438010818E+01  0.12358771513E+02 -0.26048162670E+02  0.95812808631E+02  0.91258983983E+02 0.  0.
         11    1    3    3    0    0  0.19896719663E+01  0.49845957351E+02 -0.29706922390E+02  0.58060998070E+02  0.51100000000E-03 0. -1.
         22    1    1    0    0    0 -0.45438010818E+01 -0.12358771513E+02  0.26048162670E+02  0.29187191369E+02  0.00000000000E+00 0. -1.
</event>
<event>
 5    1  0.1282529E-003  0.9118800E+02  0.7818608E-02  0.1130116E+00
         25   -1    0    0    0    0  0.00000000000E+00  0.00000000000E+00  0.99999998245E-14  0.12500000000E+03  0.12500000000E+03 0.  0.
        -11    1    3    3    0    0 -0.38749043302E+02 -0.43660459508E+02 -0.31325806139E+01  0.58459705292E+02  0.51100000000E-03 0.  1.
         23    2    1    0    0    0 -0.22793097731E+02 -0.12966257426E+02 -0.14701972320E+02  0.94936781179E+02  0.90051070480E+02 0.  0.
         11    1    3    3    0    0  0.15955945571E+02  0.30694202082E+02 -0.11569391706E+02  0.36477075887E+02  0.51100000000E-03 0. -1.
         22    1    1    0    0    0  0.22793097731E+02  0.12966257426E+02  0.14701972320E+02  0.30063218821E+02  0.00000000000E+00 0.  1.
</event>
<event>
 5    1  0.1282529E-003  0.9118800E+02  0.7818608E-02  0.1130116E+00
         25   -1    0    0    0    0  0.00000000000E+00  0.00000000000E+00  0.99999998245E-14  0.12500000000E+03  0.12500000000E+03 0.  0.
        -11    1    3    3    0    0 -0.97877790473E+01  0.35290422265E+02  0.44815573582E+02  0.57876162261E+02  0.51100000000E-03 0.  1.
         23    2    1    0    0    0  0.92952151134E+01  0.56095887750E+01  0.23532233178E+02  0.99084087734E+02  0.95634836401E+02 0.  0.
         11    1    3    3    0    0  0.19082994161E+02 -0.29680833490E+02 -0.21283340404E+02  0.41207925473E+02  0.51100000000E-03 0. -1.
         22    1    1    0    0    0 -0.92952151134E+01 -0.56095887750E+01 -0.23532233178E+02  0.25915912266E+02  0.00000000000E+00 0.  1.
</event>
<event>
 5    1  0.1282529E-003  0.9118800E+02  0.7818608E-02  0.1130116E+00
         25   -1    0    0    0    0  0.00000000000E+00  0.00000000000E+00  0.99999998245E-14  0.12500000000E+03  0.12500000000E+03 0.  0.
        -11    1    3    3    0    0  0.21972096990E+02  0.91956993726E+01 -0.17706174579E+02  0.29678991754E+02  0.51100000000E-03 0.  1.
         23    2    1    0    0    0 -0.31634160300E+02 -0.12458317811E+02 -0.15758908359E+02  0.87526369628E+02  0.79098624558E+02 0.  0.
         11    1    3    3    0    0 -0.53606257290E+02 -0.21654017184E+02  0.19472662198E+01  0.57847377874E+02  0.51100000000E-03 0. -1.
         22    1    1    0    0    0  0.31634160300E+02  0.12458317811E+02  0.15758908359E+02  0.37473630372E+02  0.00000000000E+00 0. -1.
</event>
<event>
 5    1  0.1282529E-003  0.9118800E+02  0.7818608E-02  0.1130116E+00
         25   -1    0    0    0    0  0.00000000000E+00  0.00000000000E+00  0.99999998245E-14  0.12500000000E+03  0.12500000000E+03 0.  0.
        -11    1    3    3    0    0  0.33748907858E+02 -0.21003878397E+02 -0.31009258845E+02  0.50415531572E+02  0.51100000000E-03 0. -1.
         23    2    1    0    0    0  0.31062188620E+01  0.91977451171E+01 -0.30017659872E+02  0.93451513268E+02  0.87965210834E+02 0.  0.
         11    1    3    3    0    0 -0.30642688996E+02  0.30201623514E+02  0.99159897220E+00  0.43035981696E+02  0.51100000000E-03 0.  1.
         22    1    1    0    0    0 -0.31062188620E+01 -0.91977451171E+01  0.30017659872E+02  0.31548486732E+02  0.00000000000E+00 0. -1.
</event>
<event>
 5    1  0.1282529E-003  0.9118800E+02  0.7818608E-02  0.1130116E+00
         25   -1    0    0    0    0  0.00000000000E+00  0.00000000000E+00  0.99999998245E-14  0.12500000000E+03  0.12500000000E+03 0.  0.
        -11    1    3    3    0    0 -0.26773122144E+02  0.28337269964E+02 -0.17343510149E+02  0.42668469423E+02  0.51100000000E-03 0. -1.
         23    2    1    0    0    0 -0.21598137749E+02 -0.14428998917E+02  0.13573297895E+02  0.95692833987E+02  0.91094503109E+02 0.  0.
         11    1    3    3    0    0  0.51749843949E+01 -0.42766268881E+02  0.30916808044E+02  0.53024364564E+02  0.51100000000E-03 0.  1.
         22    1    1    0    0    0  0.21598137749E+02  0.14428998917E+02 -0.13573297895E+02  0.29307166013E+02  0.00000000000E+00 0.  1.
</event>
<event>
 5    1  0.1282529E-003  0.9118800E+02  0.7818608E-02  0.1130116E+00
         25   -1    0    0    0    0  0.00000000000E+00  0.00000000000E+00  0.99999998245E-14  0.12500000000E+03  0.12500000000E+03 0.  0.
        -11    1    3    3    0    0  0.85610804483E-01  0.87227874094E+01  0.60036995535E+02  0.60667414504E+02  0.51100000000E-03 0.  1.
         23    2    1    0    0    0 -0.33094203286E+01  0.14002946912E+02  0.25947977582E+02  0.95329605231E+02  0.90594709050E+02 0.  0.
         11    1    3    3    0    0 -0.33950311331E+01  0.52801595027E+01 -0.34089017953E+02  0.34662190728E+02  0.51100000000E-03 0. -1.
         22    1    1    0    0    0  0.33094203286E+01 -0.14002946912E+02 -0.25947977582E+02  0.29670394769E+02  0.00000000000E+00 0.  1.
</event>
<event>
 5    1  0.1282529E-003  0.9118800E+02  0.7818608E-02  0.1130116E+00
         25   -1    0    0    0    0  0.00000000000E+00  0.00000000000E+00  0.99999998245E-14  0.12500000000E+03  0.12500000000E+03 0.  0.
        -11    1    3    3    0    0  0.23982447081E+02 -0.25789062943E+02  0.18751306394E+01  0.35266834996E+02  0.51100000000E-03 0.  1.
         23    2    1    0    0    0 -0.16322973981E+02 -0.21679806714E+02 -0.28305571280E+02  0.85787006436E+02  0.76300403728E+02 0.  0.
         11    1    3    3    0    0 -0.40305421062E+02  0.41092562286E+01 -0.30180701919E+02  0.50520171440E+02  0.51100000000E-03 0. -1.
         22    1    1    0    0    0  0.16322973981E+02  0.21679806714E+02  0.28305571280E+02  0.39212993564E+02  0.00000000000E+00 0. -1.
</event>
<event>
 5    1  0.1282529E-003  0.9118800E+02  0.7818608E-02  0.1130116E+00
         25   -1    0    0    0    0  0.00000000000E+00  0.00000000000E+00  0.99999998245E-14  0.12500000000E+03  0.12500000000E+03 0.  0.
        -11    1    3    3    0    0  0.38044041007E+02  0.14696580790E+01 -0.15471556684E+02  0.41095961085E+02  0.51100000000E-03 0.  1.
         23    2    1    0    0    0 -0.81452961955E+00  0.25097218041E+01  0.26537967945E+02  0.98331181041E+02  0.94645629906E+02 0.  0.
         11    1    3    3    0    0 -0.38858570627E+02  0.10400637251E+01  0.42009524628E+02  0.57235219956E+02  0.51100000000E-03 0. -1.
         22    1    1    0    0    0  0.81452961955E+00 -0.25097218041E+01 -0.26537967945E+02  0.26668818959E+02  0.00000000000E+00 0. -1.
</event>
<event>
 5    1  0.1282529E-003  0.9118800E+02  0.7818608E-02  0.1130116E+00
         25   -1    0    0    0    0  0.00000000000E+00  0.00000000000E+00  0.99999998245E-14  0.12500000000E+03  0.12500000000E+03 0.  0.
        -11    1    3    3    0    0  0.19097345893E+02 -0.43860588727E+01  0.30916405794E+02  0.36602872566E+02  0.51100000000E-03 0.  1.
         23    2    1    0    0    0 -0.24331698143E+02 -0.19099319984E+02 -0.34078453508E+01  0.93880408610E+02  0.88572581268E+02 0.  0.
         11    1    3    3    0    0 -0.43429044035E+02 -0.14713261111E+02 -0.34324251145E+02  0.57277536044E+02  0.51100000000E-03 0. -1.
         22    1    1    0    0    0  0.24331698143E+02  0.19099319984E+02  0.34078453508E+01  0.31119591390E+02  0.00000000000E+00 0. -1.
</event>
<event>
 5    1  0.1282529E-003  0.9118800E+02  0.7818608E-02  0.1130116E+00
         25   -1    0    0    0    0  0.00000000000E+00  0.00000000000E+00  0.99999998245E-14  0.12500000000E+03  0.12500000000E+03 0.  0.
        -11    1    3    3    0    0 -0.15915401715E+02  0.28968748471E+02 -0.45444882220E+02  0.56193644836E+02  0.51100000000E-03 0. -1.
         23    2    1    0    0    0  0.10737125121E+02  0.21027941234E+02 -0.17567604140E+02  0.95570747824E+02  0.90926821984E+02 0.  0.
         11    1    3    3    0    0  0.26652526836E+02 -0.79408072371E+01  0.27877278080E+02  0.39377102988E+02  0.51100000000E-03 0.  1.
         22    1    1    0    0    0 -0.10737125121E+02 -0.21027941234E+02  0.17567604140E+02  0.29429252176E+02  0.00000000000E+00 0. -1.
</event>
<event>
 5    1  0.1282529E-003  0.9118800E+02  0.7818608E-02  0.1130116E+00
         25   -1    0    0    0    0  0.00000000000E+00  0.00000000000E+00  0.99999998245E-14  0.12500000000E+03  0.12500000000E+03 0.  0.
        -11    1    3    3    0    0  0.52817228582E+02  0.80188984964E+01  0.17665096274E+02  0.56267379491E+02  0.51100000000E-03 0. -1.
         23    2    1    0    0    0  0.16995250703E+02  0.21883729715E+02  0.41736726249E+01  0.96979369817E+02  0.92843106660E+02 0.  0.
         11    1    3    3    0    0 -0.35821977880E+02  0.13864831218E+02 -0.13491423649E+02  0.40711990325E+02  0.51100000000E-03 0.  1.
         22    1    1    0    0    0 -0.16995250703E+02 -0.21883729715E+02 -0.41736726249E+01  0.28020630183E+02  0.00000000000E+00 0. -1.
</event>
<event>
 5    1  0.1282529E-003  0.9118800E+02  0.7818608E-02  0.1130116E+00
         25   -1    0    0    0    0  0.00000000000E+00  0.00000000000E+00  0.99999998245E-14  0.12500000000E+03  0.12500000000E+03 0.  0.
        -11    1    3    3    0    0 -0.70583224060E+01 -0.36290193747E+02 -0.13659275361E+02  0.39412864411E+02  0.51100000000E-03 0. -1.
         23    2    1    0    0    0 -0.20563768886E+02  0.17782208396E+02 -0.12295049046E+02  0.95163047118E+02  0.90364604683E+02 0.  0.
         11    1    3    3    0    0 -0.13505446480E+02  0.54072402144E+02  0.13642263148E+01  0.55750182707E+02  0.51100000000E-03 0.  1.
         22    1    1    0    0    0  0.20563768886E+02 -0.17782208396E+02  0.12295049046E+02  0.29836952882E+02  0.00000000000E+00 0.  1.
</event>
<event>
 5    1  0.1282529E-003  0.9118800E+02  0.7818608E-02  0.1130116E+00
         25   -1    0    0    0    0  0.00000000000E+00  0.00000000000E+00  0.99999998245E-14  0.12500000000E+03  0.12500000000E+03 0.  0.
        -11    1    3    3    0    0  0.35908210371E+02 -0.38717668150E+01 -0.12114984190E+01  0.36136655614E+02  0.51100000000E-03 0.  1.
         23    2    1    0    0    0 -0.20114622248E+02  0.16306798922E+02  0.10905478637E+02  0.96903039603E+02  0.92740281975E+02 0.  0.
         11    1    3    3    0    0 -0.56022832619E+02  0.20178565737E+02  0.12116977056E+02  0.60766383989E+02  0.51100000000E-03 0. -1.
         22    1    1    0    0    0  0.20114622248E+02 -0.16306798922E+02 -0.10905478637E+02  0.28096960397E+02  0.00000000000E+00 0. -1.
</event>
<event>
 5    1  0.1282529E-003  0.9118800E+02  0.7818608E-02  0.1130116E+00
         25   -1    0    0    0    0  0.00000000000E+00  0.00000000000E+00  0.99999998245E-14  0.12500000000E+03  0.12500000000E+03 0.  0.
        -11    1    3    3    0    0  0.17715823859E+02 -0.27178899400E+02 -0.25712590475E+02  0.41396621804E+02  0.51100000000E-03 0.  1.
         23    2    1    0    0    0  0.84542128843E+01 -0.86348834283E+01  0.25574519766E+02  0.96714120332E+02  0.92485296577E+02 0.  0.
         11    1    3    3    0    0 -0.92616109749E+01  0.18544015971E+02  0.51287110242E+02  0.55317498528E+02  0.51100000000E-03 0. -1.
         22    1    1    0    0    0 -0.84542128843E+01  0.86348834283E+01 -0.25574519766E+02  0.28285879668E+02  0.00000000000E+00 0. -1.
</event>
<event>
 5    1  0.1282529E-003  0.9118800E+02  0.7818608E-02  0.1130116E+00
         25   -1    0    0    0    0  0.00000000000E+00  0.00000000000E+00  0.99999998245E-14  0.12500000000E+03  0.12500000000E+03 0.  0.
        -11    1    3    3    0    0  0.26551718073E+02 -0.29394314788E+02 -0.54551505732E+01  0.39984723864E+02  0.51100000000E-03 0.  1.
         23    2    1    0    0    0  0.13286374065E+02  0.17488482164E+02  0.20296530924E+02  0.95094751100E+02  0.90270082392E+02 0.  0.
         11    1    3    3    0    0 -0.13265344009E+02  0.46882796952E+02  0.25751681497E+02  0.55110027236E+02  0.51100000000E-03 0. -1.
         22    1    1    0    0    0 -0.13286374065E+02 -0.17488482164E+02 -0.20296530924E+02  0.29905248900E+02  0.00000000000E+00 0. -1.
</event>
<event>
 5    1  0.1282529E-003  0.9118800E+02  0.7818608E-02  0.1130116E+00
         25   -1    0    0    0    0  0.00000000000E+00  0.00000000000E+00  0.99999998245E-14  0.12500000000E+03  0.12500000000E+03 0.  0.
        -11    1    3    3    0    0 -0.40979882811E+01  0.23570988521E+02 -0.23690218572E+02  0.33669147065E+02  0.51100000000E-03 0. -1.
         23    2    1    0    0    0  0.10218246443E+02 -0.29537222982E+01  0.28855728342E+02  0.94246299508E+02  0.89087456339E+02 0.  0.
         11    1    3    3    0    0  0.14316234724E+02 -0.26524710819E+02  0.52545946914E+02  0.60577152443E+02  0.51100000000E-03 0.  1.
         22    1    1    0    0    0 -0.10218246443E+02  0.29537222982E+01 -0.28855728342E+02  0.30753700492E+02  0.00000000000E+00 0.  1.
</event>
<event>
 5    1  0.1282529E-003  0.9118800E+02  0.7818608E-02  0.1130116E+00
         25   -1    0    0    0    0  0.00000000000E+00  0.00000000000E+00  0.99999998245E-14  0.12500000000E+03  0.12500000000E+03 0.  0.
        -11    1    3    3    0    0  0.17897568448E+02 -0.29558521547E+02  0.37715610455E+02  0.51151700115E+02  0.51100000000E-03 0.  1.
         23    2    1    0    0    0 -0.18375381440E+02 -0.17187751722E+02  0.15427448729E+02  0.95485941881E+02  0.90810161713E+02 0.  0.
         11    1    3    3    0    0 -0.36272949888E+02  0.12370769824E+02 -0.22288161726E+02  0.44334241767E+02  0.51100000000E-03 0. -1.
         22    1    1    0    0    0  0.18375381440E+02  0.17187751722E+02 -0.15427448729E+02  0.29514058119E+02  0.00000000000E+00 0.  1.
</event>
<event>
 5    1  0.1282529E-003  0.9118800E+02  0.7818608E-02  0.1130116E+00
         25   -1    0    0    0    0  0.00000000000E+00  0.00000000000E+00  0.99999998245E-14  0.12500000000E+03  0.12500000000E+03 0.  0.
        -11    1    3    3    0    0  0.11558464022E+02  0.12731372019E+02  0.29262402435E+02  0.33940744255E+02  0.51100000000E-03 0.  1.
         23    2    1    0    0    0 -0.35911924423E+01 -0.26891566241E+02 -0.13948712275E+02  0.94493942041E+02  0.89434252444E+02 0.  0.
         11    1    3    3    0    0 -0.15149656464E+02 -0.39622938261E+02 -0.43211114710E+02  0.60553197786E+02  0.51100000000E-03 0. -1.
         22    1    1    0    0    0  0.35911924423E+01  0.26891566241E+02  0.13948712275E+02  0.30506057959E+02  0.00000000000E+00 0. -1.
</event>
<event>
 5    1  0.1282529E-003  0.9118800E+02  0.7818608E-02  0.1130116E+00
         25   -1    0    0    0    0  0.00000000000E+00  0.00000000000E+00  0.99999998245E-14  0.12500000000E+03  0.12500000000E+03 0.  0.
        -11    1    3    3    0    0 -0.14247096768E+02  0.33355419260E+01 -0.26254778841E+02  0.30056929625E+02  0.51100000000E-03 0. -1.
         23    2    1    0    0    0  0.79897028673E+00  0.27017253760E+02  0.24802702116E+02  0.88315611134E+02  0.80336186015E+02 0.  0.
         11    1    3    3    0    0  0.15046067055E+02  0.23681711834E+02  0.51057480957E+02  0.58258681508E+02  0.51100000000E-03 0.  1.
         22    1    1    0    0    0 -0.79897028673E+00 -0.27017253760E+02 -0.24802702116E+02  0.36684388866E+02  0.00000000000E+00 0.  1.
</event>
<event>
 5    1  0.1282529E-003  0.9118800E+02  0.7818608E-02  0.1130116E+00
         25   -1    0    0    0    0  0.00000000000E+00  0.00000000000E+00  0.99999998245E-14  0.12500000000E+03  0.12500000000E+03 0.  0.
        -11    1    3    3    0    0  0.77967499562E+01  0.32463199778E+02 -0.18393645501E+01  0.33436984193E+02  0.51100000000E-03 0. -1.
         23    2    1    0    0    0 -0.57473238083E+01 -0.27960549393E+02  0.59295035058E+01  0.95845530957E+02  0.91303793674E+02 0.  0.
         11    1    3    3    0    0 -0.13544073764E+02 -0.60423749172E+02  0.77688680559E+01  0.62408546764E+02  0.51100000000E-03 0.  1.
         22    1    1    0    0    0  0.57473238083E+01  0.27960549393E+02 -0.59295035058E+01  0.29154469043E+02  0.00000000000E+00 0.  1.
</event>
<event>
 5    1  0.1282529E-003  0.9118800E+02  0.7818608E-02  0.1130116E+00
         25   -1    0    0    0    0  0.00000000000E+00  0.00000000000E+00  0.99999998245E-14  0.12500000000E+03  0.12500000000E+03 0.  0.
        -11    1    3    3    0    0 -0.24639352229E+02  0.23586507447E+02  0.49350108451E+02  0.59990451042E+02  0.51100000000E-03 0.  1.
         23    2    1    0    0    0 -0.20411654020E+02  0.42533911222E+01  0.16209404573E+02  0.98590309497E+02  0.94987248482E+02 0.  0.
         11    1    3    3    0    0  0.42276982092E+01 -0.19333116325E+02 -0.33140703878E+02  0.38599858455E+02  0.51100000000E-03 0. -1.
         22    1    1    0    0    0  0.20411654020E+02 -0.42533911222E+01 -0.16209404573E+02  0.26409690503E+02  0.00000000000E+00 0.  1.
</event>
<event>
 5    1  0.1282529E-003  0.9118800E+02  0.7818608E-02  0.1130116E+00
         25   -1    0    0    0    0  0.00000000000E+00  0.00000000000E+00  0.99999998245E-14  0.12500000000E+03  0.12500000000E+03 0.  0.
        -11    1    3    3    0    0  0.35523452915E+01 -0.34406594782E+02  0.18316022983E+02  0.39139617011E+02  0.51100000000E-03 0.  1.
         23    2    1    0    0    0 -0.21086149754E+02  0.10657007229E+02 -0.11708978404E+02  0.98631501943E+02  0.95041440886E+02 0.  0.
         11    1    3    3    0    0 -0.24638495045E+02  0.45063602011E+02 -0.30025001387E+02  0.59491884933E+02  0.51100000000E-03 0. -1.
         22    1    1    0    0    0  0.21086149754E+02 -0.10657007229E+02  0.11708978404E+02  0.26368498057E+02  0.00000000000E+00 0. -1.
</event>
<event>
 5    1  0.1282529E-003  0.9118800E+02  0.7818608E-02  0.1130116E+00
         25   -1    0    0    0    0  0.00000000000E+00  0.00000000000E+00  0.99999998245E-14  0.12500000000E+03  0.12500000000E+03 0.  0.
        -11    1    3    3    0    0 -0.30017108169E+02 -0.40038372668E+02 -0.48507479077E+01  0.50275519135E+02  0.51100000000E-03 0.  1.
         23    2    1    0    0    0 -0.27947340124E+02  0.46707267937E+01 -0.91146484569E+01  0.95235149500E+02  0.90464287844E+02 0.  0.
         11    1    3    3    0    0  0.20697680449E+01  0.44709099462E+02 -0.42639005492E+01  0.44959630366E+02  0.51100000000E-03 0. -1.
         22    1    1    0    0    0  0.27947340124E+02 -0.46707267937E+01  0.91146484569E+01  0.29764850500E+02  0.00000000000E+00 0.  1.
</event>
<event>
 5    1  0.1282529E-003  0.9118800E+02  0.7818608E-02  0.1130116E+00
         25   -1    0    0    0    0  0.00000000000E+00  0.00000000000E+00  0.99999998245E-14  0.12500000000E+03  0.12500000000E+03 0.  0.
        -11    1    3    3    0    0  0.38877021046E+01  0.24749678273E+02 -0.23545753938E+02  0.34381147902E+02  0.51100000000E-03 0.  1.
         23    2    1    0    0    0 -0.16158479343E+02 -0.24666430641E+02  0.53451770680E+01  0.95031680508E+02  0.90182704146E+02 0.  0.
         11    1    3    3    0    0 -0.20046181448E+02 -0.49416108914E+02  0.28890931006E+02  0.60650532607E+02  0.51100000000E-03 0. -1.
         22    1    1    0    0    0  0.16158479343E+02  0.24666430641E+02 -0.53451770680E+01  0.29968319492E+02  0.00000000000E+00 0. -1.
</event>
<event>
 5    1  0.1282529E-003  0.9118800E+02  0.7818608E-02  0.1130116E+00
         25   -1    0    0    0    0  0.00000000000E+00  0.00000000000E+00  0.99999998245E-14  0.12500000000E+03  0.12500000000E+03 0.  0.
        -11    1    3    3    0    0 -0.28827171469E+00 -0.23941969041E+02 -0.39280523035E+02  0.46002831134E+02  0.51100000000E-03 0.  1.
         23    2    1    0    0    0  0.64049617829E+01 -0.24100417945E+02  0.11723718271E+02  0.97444614852E+02  0.93467393849E+02 0.  0.
         11    1    3    3    0    0  0.66932334976E+01 -0.15844890364E+00  0.51004241306E+02  0.51441783718E+02  0.51100000000E-03 0. -1.
         22    1    1    0    0    0 -0.64049617829E+01  0.24100417945E+02 -0.11723718271E+02  0.27555385148E+02  0.00000000000E+00 0. -1.
</event>
<event>
 5    1  0.1282529E-003  0.9118800E+02  0.7818608E-02  0.1130116E+00
         25   -1    0    0    0    0  0.00000000000E+00  0.00000000000E+00  0.99999998245E-14  0.12500000000E+03  0.12500000000E+03 0.  0.
        -11    1    3    3    0    0  0.24009711220E+02  0.22348011355E+02 -0.24665702021E+02  0.41040183977E+02  0.51100000000E-03 0.  1.
         23    2    1    0    0    0  0.96616960977E+01  0.90315695384E+01  0.26259416766E+02  0.95598051277E+02  0.90964349166E+02 0.  0.
         11    1    3    3    0    0 -0.14348015123E+02 -0.13316441816E+02  0.50925118787E+02  0.54557867300E+02  0.51100000000E-03 0. -1.
         22    1    1    0    0    0 -0.96616960977E+01 -0.90315695384E+01 -0.26259416766E+02  0.29401948723E+02  0.00000000000E+00 0. -1.
</event>
<event>
 5    1  0.1282529E-003  0.9118800E+02  0.7818608E-02  0.1130116E+00
         25   -1    0    0    0    0  0.00000000000E+00  0.00000000000E+00  0.99999998245E-14  0.12500000000E+03  0.12500000000E+03 0.  0.
        -11    1    3    3    0    0  0.53248248304E+01 -0.19231120577E+02 -0.32056798554E+02  0.37760138928E+02  0.51100000000E-03 0. -1.
         23    2    1    0    0    0 -0.63335467874E+01  0.22355340754E+02  0.11478226263E+02  0.99084275945E+02  0.95635082404E+02 0.  0.
         11    1    3    3    0    0 -0.11658371618E+02  0.41586461331E+02  0.43535024817E+02  0.61324137017E+02  0.51100000000E-03 0.  1.
         22    1    1    0    0    0  0.63335467874E+01 -0.22355340754E+02 -0.11478226263E+02  0.25915724055E+02  0.00000000000E+00 0.  1.
</event>
<event>
 5    1  0.1282529E-003  0.9118800E+02  0.7818608E-02  0.1130116E+00
         25   -1    0    0    0    0  0.00000000000E+00  0.00000000000E+00  0.99999998245E-14  0.12500000000E+03  0.12500000000E+03 0.  0.
        -11    1    3    3    0    0 -0.50691182608E+02  0.29335629986E+02 -0.58050795181E+01  0.58854686554E+02  0.51100000000E-03 0. -1.
         23    2    1    0    0    0 -0.23270440693E+02  0.61272726490E+01 -0.15885271024E+02  0.96166014572E+02  0.91741504473E+02 0.  0.
         11    1    3    3    0    0  0.27420741915E+02 -0.23208357337E+02 -0.10080191506E+02  0.37311328018E+02  0.51100000000E-03 0.  1.
         22    1    1    0    0    0  0.23270440693E+02 -0.61272726490E+01  0.15885271024E+02  0.28833985428E+02  0.00000000000E+00 0. -1.
</event>
<event>
 5    1  0.1282529E-003  0.9118800E+02  0.7818608E-02  0.1130116E+00
         25   -1    0    0    0    0  0.00000000000E+00  0.00000000000E+00  0.99999998245E-14  0.12500000000E+03  0.12500000000E+03 0.  0.
        -11    1    3    3    0    0 -0.28952783066E+02 -0.34669484751E+02 -0.14454028092E+02  0.47425264875E+02  0.51100000000E-03 0. -1.
         23    2    1    0    0    0 -0.27622098762E+02  0.10957893895E+02 -0.73588324494E-01  0.95283654433E+02  0.90531285246E+02 0.  0.
         11    1    3    3    0    0  0.13306843038E+01  0.45627378646E+02  0.14380439768E+02  0.47858389557E+02  0.51100000000E-03 0.  1.
         22    1    1    0    0    0  0.27622098762E+02 -0.10957893895E+02  0.73588324494E-01  0.29716345567E+02  0.00000000000E+00 0.  1.
</event>
<event>
 5    1  0.1282529E-003  0.9118800E+02  0.7818608E-02  0.1130116E+00
         25   -1    0    0    0    0  0.00000000000E+00  0.00000000000E+00  0.99999998245E-14  0.12500000000E+03  0.12500000000E+03 0.  0.
        -11    1    3    3    0    0  0.34934194070E+01 -0.14890029669E+02  0.59192331121E+02  0.61136315120E+02  0.51100000000E-03 0. -1.
         23    2    1    0    0    0  0.83097121497E+01 -0.42228366088E+00  0.26798079838E+02  0.96939944360E+02  0.92790010723E+02 0.  0.
         11    1    3    3    0    0  0.48162927427E+01  0.14467746008E+02 -0.32394251283E+02  0.35803629240E+02  0.51100000000E-03 0.  1.
         22    1    1    0    0    0 -0.83097121497E+01  0.42228366088E+00 -0.26798079838E+02  0.28060055640E+02  0.00000000000E+00 0. -1.
</event>
<event>
 5    1  0.1282529E-003  0.9118800E+02  0.7818608E-02  0.1130116E+00
         25   -1    0    0    0    0  0.00000000000E+00  0.00000000000E+00  0.99999998245E-14  0.12500000000E+03  0.12500000000E+03 0.  0.
        -11    1    3    3    0    0  0.34095037299E+02 -0.12185288675E+02 -0.57215681911E+01  0.36656366041E+02  0.51100000000E-03 0. -1.
         23    2    1    0    0    0 -0.12476201231E+02  0.53385808878E+01  0.26003401237E+02  0.95668567731E+02  0.91061198832E+02 0.  0.
         11    1    3    3    0    0 -0.46571238531E+02  0.17523869562E+02  0.31724969428E+02  0.59012201689E+02  0.51100000000E-03 0.  1.
         22    1    1    0    0    0  0.12476201231E+02 -0.53385808878E+01 -0.26003401237E+02  0.29331432269E+02  0.00000000000E+00 0.  1.
</event>
<event>
 5    1  0.1282529E-003  0.9118800E+02  0.7818608E-02  0.1130116E+00
         25   -1    0    0    0    0  0.00000000000E+00  0.00000000000E+00  0.99999998245E-14  0.12500000000E+03  0.12500000000E+03 0.  0.
        -11    1    3    3    0    0  0.24918896065E+02  0.56438233551E+02 -0.80602493077E+01  0.62218913576E+02  0.51100000000E-03 0.  1.
         23    2    1    0    0    0  0.12574103771E+02  0.24696105229E+02 -0.75345300853E+01  0.96281106520E+02  0.91898186217E+02 0.  0.
         11    1    3    3    0    0 -0.12344792294E+02 -0.31742128322E+02  0.52571922237E+00  0.34062192944E+02  0.51100000000E-03 0. -1.
         22    1    1    0    0    0 -0.12574103771E+02 -0.24696105229E+02  0.75345300853E+01  0.28718893480E+02  0.00000000000E+00 0.  1.
</event>
<event>
 5    1  0.1282529E-003  0.9118800E+02  0.7818608E-02  0.1130116E+00
         25   -1    0    0    0    0  0.00000000000E+00  0.00000000000E+00  0.99999998245E-14  0.12500000000E+03  0.12500000000E+03 0.  0.
        -11    1    3    3    0    0  0.40056643102E+02 -0.37925541836E+02  0.17912504495E+02  0.57997751661E+02  0.51100000000E-03 0.  1.
         23    2    1    0    0    0  0.23695176482E+02 -0.40808174666E+01  0.16913430867E+02  0.95603085138E+02  0.90971266258E+02 0.  0.
         11    1    3    3    0    0 -0.16361466620E+02  0.33844724369E+02 -0.99907362782E+00  0.37605333478E+02  0.51100000000E-03 0. -1.
         22    1    1    0    0    0 -0.23695176482E+02  0.40808174666E+01 -0.16913430867E+02  0.29396914862E+02  0.00000000000E+00 0.  1.
</event>
<event>
 5    1  0.1282529E-003  0.9118800E+02  0.7818608E-02  0.1130116E+00
         25   -1    0    0    0    0  0.00000000000E+00  0.00000000000E+00  0.99999998245E-14  0.12500000000E+03  0.12500000000E+03 0.  0.
        -11    1    3    3    0    0 -0.16739557604E+02 -0.41182297643E+02 -0.37354101412E+02  0.58064819990E+02  0.51100000000E-03 0. -1.
         23    2    1    0    0    0 -0.19459615360E+02 -0.89980484955E+01 -0.23442011818E+02  0.93232572897E+02  0.87653540854E+02 0.  0.
         11    1    3    3    0    0 -0.27200577556E+01  0.32184249147E+02  0.13912089595E+02  0.35167752907E+02  0.51100000000E-03 0.  1.
         22    1    1    0    0    0  0.19459615360E+02  0.89980484955E+01  0.23442011818E+02  0.31767427103E+02  0.00000000000E+00 0. -1.
</event>
<event>
 5    1  0.1282529E-003  0.9118800E+02  0.7818608E-02  0.1130116E+00
         25   -1    0    0    0    0  0.00000000000E+00  0.00000000000E+00  0.99999998245E-14  0.12500000000E+03  0.12500000000E+03 0.  0.
        -11    1    3    3    0    0  0.25336037233E+02 -0.14920235987E+02 -0.25931032088E+02  0.39203911157E+02  0.51100000000E-03 0. -1.
         23    2    1    0    0    0 -0.26060488616E+02 -0.14017136350E+02 -0.38149745944E+01  0.95164061779E+02  0.90366008237E+02 0.  0.
         11    1    3    3    0    0 -0.51396525849E+02  0.90309963702E+00  0.22116057494E+02  0.55960150622E+02  0.51100000000E-03 0.  1.
         22    1    1    0    0    0  0.26060488616E+02  0.14017136350E+02  0.38149745944E+01  0.29835938221E+02  0.00000000000E+00 0. -1.
</event>
<event>
 5    1  0.1282529E-003  0.9118800E+02  0.7818608E-02  0.1130116E+00
         25   -1    0    0    0    0  0.00000000000E+00  0.00000000000E+00  0.99999998245E-14  0.12500000000E+03  0.12500000000E+03 0.  0.
        -11    1    3    3    0    0 -0.29683372440E+02  0.76921236495E+01  0.28881950686E+02  0.42124083863E+02  0.51100000000E-03 0.  1.
         23    2    1    0    0    0  0.16502295471E+02 -0.15582128606E+02  0.20299858552E+02  0.94549831775E+02  0.89512334031E+02 0.  0.
         11    1    3    3    0    0  0.46185667911E+02 -0.23274252256E+02 -0.85820921332E+01  0.52425747911E+02  0.51100000000E-03 0. -1.
         22    1    1    0    0    0 -0.16502295471E+02  0.15582128606E+02 -0.20299858552E+02  0.30450168225E+02  0.00000000000E+00 0.  1.
</event>
<event>
 5    1  0.1282529E-003  0.9118800E+02  0.7818608E-02  0.1130116E+00
         25   -1    0    0    0    0  0.00000000000E+00  0.00000000000E+00  0.99999998245E-14  0.12500000000E+03  0.12500000000E+03 0.  0.
        -11    1    3    3    0    0 -0.37421608967E+02  0.20777153910E+02 -0.40667285629E+02  0.59041469011E+02  0.51100000000E-03 0. -1.
         23    2    1    0    0    0 -0.27091607374E+02  0.56036965151E+01 -0.85331956469E+01  0.96048799115E+02  0.91581656344E+02 0.  0.
         11    1    3    3    0    0  0.10330001592E+02 -0.15173457395E+02  0.32134089982E+02  0.37007330104E+02  0.51100000000E-03 0.  1.
         22    1    1    0    0    0  0.27091607374E+02 -0.56036965151E+01  0.85331956469E+01  0.28951200885E+02  0.00000000000E+00 0. -1.
</event>
<event>
 5    1  0.1282529E-003  0.9118800E+02  0.7818608E-02  0.1130116E+00
         25   -1    0    0    0    0  0.00000000000E+00  0.00000000000E+00  0.99999998245E-14  0.12500000000E+03  0.12500000000E+03 0.  0.
        -11    1    3    3    0    0  0.25832908260E+01 -0.24189982122E+01 -0.37294756696E+02  0.37462298663E+02  0.51100000000E-03 0.  1.
         23    2    1    0    0    0  0.16422854574E+02  0.15628013254E+02  0.17220258450E+02  0.96531030021E+02  0.92237505957E+02 0.  0.
         11    1    3    3    0    0  0.13839563748E+02  0.18047011466E+02  0.54515015146E+02  0.59068731358E+02  0.51100000000E-03 0. -1.
         22    1    1    0    0    0 -0.16422854574E+02 -0.15628013254E+02 -0.17220258450E+02  0.28468969979E+02  0.00000000000E+00 0. -1.
</event>
<event>
 5    1  0.1282529E-003  0.9118800E+02  0.7818608E-02  0.1130116E+00
         25   -1    0    0    0    0  0.00000000000E+00  0.00000000000E+00  0.99999998245E-14  0.12500000000E+03  0.12500000000E+03 0.  0.
        -11    1    3    3    0    0  0.18564090457E+02 -0.24441887164E+02 -0.27524139390E+02  0.41226321107E+02  0.51100000000E-03 0.  1.
         23    2    1    0    0    0 -0.93365115037E+01  0.21138663810E+02 -0.18442147249E+02  0.95434372155E+02  0.90739148325E+02 0.  0.
         11    1    3    3    0    0 -0.27900601960E+02  0.45580550974E+02  0.90819921404E+01  0.54208051047E+02  0.51100000000E-03 0. -1.
         22    1    1    0    0    0  0.93365115037E+01 -0.21138663810E+02  0.18442147249E+02  0.29565627845E+02  0.00000000000E+00 0. -1.
</event>
<event>
 5    1  0.1282529E-003  0.9118800E+02  0.7818608E-02  0.1130116E+00
         25   -1    0    0    0    0  0.00000000000E+00  0.00000000000E+00  0.99999998245E-14  0.12500000000E+03  0.12500000000E+03 0.  0.
        -11    1    3    3    0    0 -0.26837159393E+02 -0.18445010436E+02 -0.26653148879E+02  0.42081372122E+02  0.51100000000E-03 0. -1.
         23    2    1    0    0    0  0.44358694670E+01  0.23575385764E+02 -0.17620473948E+02  0.95234972636E+02  0.90464043459E+02 0.  0.
         11    1    3    3    0    0  0.31273028860E+02  0.42020396200E+02  0.90326749309E+01  0.53153600514E+02  0.51100000000E-03 0.  1.
         22    1    1    0    0    0 -0.44358694670E+01 -0.23575385764E+02  0.17620473948E+02  0.29765027364E+02  0.00000000000E+00 0.  1.
</event>
<event>
 5    1  0.1282529E-003  0.9118800E+02  0.7818608E-02  0.1130116E+00
         25   -1    0    0    0    0  0.00000000000E+00  0.00000000000E+00  0.99999998245E-14  0.12500000000E+03  0.12500000000E+03 0.  0.
        -11    1    3    3    0    0  0.63290855050E-01  0.11212708575E+02 -0.44175302944E+02  0.45576158567E+02  0.51100000000E-03 0.  1.
         23    2    1    0    0    0 -0.11777982014E+02  0.29796440463E+02 -0.23217223003E+01  0.92876190776E+02  0.87143833368E+02 0.  0.
         11    1    3    3    0    0 -0.11841272869E+02  0.18583731888E+02  0.41853580643E+02  0.47300032209E+02  0.51100000000E-03 0. -1.
         22    1    1    0    0    0  0.11777982014E+02 -0.29796440463E+02  0.23217223003E+01  0.32123809224E+02  0.00000000000E+00 0.  1.
</event>
<event>
 5    1  0.1282529E-003  0.9118800E+02  0.7818608E-02  0.1130116E+00
         25   -1    0    0    0    0  0.00000000000E+00  0.00000000000E+00  0.99999998245E-14  0.12500000000E+03  0.12500000000E+03 0.  0.
        -11    1    3    3    0    0  0.13163571647E+01  0.20557805899E+02  0.48628242293E+02  0.52811571917E+02  0.51100000000E-03 0.  1.
         23    2    1    0    0    0  0.51225424044E+01  0.11904195782E+02 -0.76985892712E+01  0.10992622825E+03  0.10888781871E+03 0.  0.
         11    1    3    3    0    0  0.38061852397E+01 -0.86536101173E+01 -0.56326831564E+02  0.57114656337E+02  0.51100000000E-03 0. -1.
         22    1    1    0    0    0 -0.51225424044E+01 -0.11904195782E+02  0.76985892712E+01  0.15073771746E+02  0.00000000000E+00 0. -1.
</event>
<event>
 5    1  0.1282529E-003  0.9118800E+02  0.7818608E-02  0.1130116E+00
         25   -1    0    0    0    0  0.00000000000E+00  0.00000000000E+00  0.99999998245E-14  0.12500000000E+03  0.12500000000E+03 0.  0.
        -11    1    3    3    0    0  0.16845218853E+02 -0.10045308939E+01 -0.48407751505E+02  0.51264811387E+02  0.51100000000E-03 0.  1.
         23    2    1    0    0    0  0.17651317259E+02  0.21474483160E+02 -0.10616153583E+02  0.95243905752E+02  0.90476386080E+02 0.  0.
         11    1    3    3    0    0  0.80609840607E+00  0.22479014054E+02  0.37791597922E+02  0.43979094365E+02  0.51100000000E-03 0. -1.
         22    1    1    0    0    0 -0.17651317259E+02 -0.21474483160E+02  0.10616153583E+02  0.29756094248E+02  0.00000000000E+00 0.  1.
</event>
<event>
 5    1  0.1282529E-003  0.9118800E+02  0.7818608E-02  0.1130116E+00
         25   -1    0    0    0    0  0.00000000000E+00  0.00000000000E+00  0.99999998245E-14  0.12500000000E+03  0.12500000000E+03 0.  0.
        -11    1    3    3    0    0 -0.10527927935E+02 -0.86403500508E+01 -0.36900318011E+02  0.39333527495E+02  0.51100000000E-03 0.  1.
         23    2    1    0    0    0 -0.62078618712E+01  0.28592225208E+02  0.47413746819E+01  0.95359933785E+02  0.90636545864E+02 0.  0.
         11    1    3    3    0    0  0.43200660638E+01  0.37232575259E+02  0.41641692693E+02  0.56026406290E+02  0.51100000000E-03 0. -1.
         22    1    1    0    0    0  0.62078618712E+01 -0.28592225208E+02 -0.47413746819E+01  0.29640066215E+02  0.00000000000E+00 0. -1.
</event>
<event>
 5    1  0.1282529E-003  0.9118800E+02  0.7818608E-02  0.1130116E+00
         25   -1    0    0    0    0  0.00000000000E+00  0.00000000000E+00  0.99999998245E-14  0.12500000000E+03  0.12500000000E+03 0.  0.
        -11    1    3    3    0    0 -0.25835968448E+02  0.17690972631E+02 -0.15266690386E+02  0.34835895481E+02  0.51100000000E-03 0.  1.
         23    2    1    0    0    0  0.17636536566E+01 -0.24419539230E+02  0.17497607948E+02  0.94906966681E+02  0.90009675426E+02 0.  0.
         11    1    3    3    0    0  0.27599622105E+02 -0.42110511862E+02  0.32764298334E+02  0.60071071201E+02  0.51100000000E-03 0. -1.
         22    1    1    0    0    0 -0.17636536566E+01  0.24419539230E+02 -0.17497607948E+02  0.30093033319E+02  0.00000000000E+00 0. -1.
</event>
<event>
 5    1  0.1282529E-003  0.9118800E+02  0.7818608E-02  0.1130116E+00
         25   -1    0    0    0    0  0.00000000000E+00  0.00000000000E+00  0.99999998245E-14  0.12500000000E+03  0.12500000000E+03 0.  0.
        -11    1    3    3    0    0  0.42184763735E+02  0.59649559514E+01 -0.36290676088E+02  0.55965598023E+02  0.51100000000E-03 0.  1.
         23    2    1    0    0    0  0.30356849693E+02 -0.96780897646E+01 -0.52124775718E+01  0.92714187834E+02  0.86911144040E+02 0.  0.
         11    1    3    3    0    0 -0.11827914041E+02 -0.15643045716E+02  0.31078198516E+02  0.36748589811E+02  0.51100000000E-03 0. -1.
         22    1    1    0    0    0 -0.30356849693E+02  0.96780897646E+01  0.52124775718E+01  0.32285812166E+02  0.00000000000E+00 0.  1.
</event>
<event>
 5    1  0.1282529E-003  0.9118800E+02  0.7818608E-02  0.1130116E+00
         25   -1    0    0    0    0  0.00000000000E+00  0.00000000000E+00  0.99999998245E-14  0.12500000000E+03  0.12500000000E+03 0.  0.
        -11    1    3    3    0    0  0.52198491016E+02 -0.21079501169E+02  0.24549290366E+01  0.56347622050E+02  0.51100000000E-03 0. -1.
         23    2    1    0    0    0  0.14944159490E+02 -0.19727865211E+02  0.15447453305E+02  0.95825689687E+02  0.91276625824E+02 0.  0.
         11    1    3    3    0    0 -0.37254331526E+02  0.13516359580E+01  0.12992524268E+02  0.39478067637E+02  0.51100000000E-03 0.  1.
         22    1    1    0    0    0 -0.14944159490E+02  0.19727865211E+02 -0.15447453305E+02  0.29174310313E+02  0.00000000000E+00 0. -1.
</event>
<event>
 5    1  0.1282529E-003  0.9118800E+02  0.7818608E-02  0.1130116E+00
         25   -1    0    0    0    0  0.00000000000E+00  0.00000000000E+00  0.99999998245E-14  0.12500000000E+03  0.12500000000E+03 0.  0.
        -11    1    3    3    0    0 -0.63934786766E+01 -0.39960358559E+02  0.13623301722E+02  0.42700130864E+02  0.51100000000E-03 0.  1.
         23    2    1    0    0    0  0.27911318965E+02 -0.19946110886E+01 -0.38152203059E+01  0.96758610060E+02  0.92545407855E+02 0.  0.
         11    1    3    3    0    0  0.34304797641E+02  0.37965747470E+02 -0.17438522028E+02  0.54058479196E+02  0.51100000000E-03 0. -1.
         22    1    1    0    0    0 -0.27911318965E+02  0.19946110886E+01  0.38152203059E+01  0.28241389940E+02  0.00000000000E+00 0. -1.
</event>
<event>
 5    1  0.1282529E-003  0.9118800E+02  0.7818608E-02  0.1130116E+00
         25   -1    0    0    0    0  0.00000000000E+00  0.00000000000E+00  0.99999998245E-14  0.12500000000E+03  0.12500000000E+03 0.  0.
        -11    1    3    3    0    0 -0.11003087260E+02 -0.35052218197E+02  0.24172724191E+02  0.43977795816E+02  0.51100000000E-03 0.  1.
         23    2    1    0    0    0 -0.12385948967E+02  0.13895324770E+02  0.26052424298E+02  0.92980933897E+02  0.87293948669E+02 0.  0.
         11    1    3    3    0    0 -0.13828617074E+01  0.48947542967E+02  0.18797001066E+01  0.49003138081E+02  0.51100000000E-03 0. -1.
         22    1    1    0    0    0  0.12385948967E+02 -0.13895324770E+02 -0.26052424298E+02  0.32019066103E+02  0.00000000000E+00 0. -1.
</event>
<event>
 5    1  0.1282529E-003  0.9118800E+02  0.7818608E-02  0.1130116E+00
         25   -1    0    0    0    0  0.00000000000E+00  0.00000000000E+00  0.99999998245E-14  0.12500000000E+03  0.12500000000E+03 0.  0.
        -11    1    3    3    0    0 -0.28325588174E+02  0.24464953793E+02 -0.44171030728E+02  0.57896052243E+02  0.51100000000E-03 0. -1.
         23    2    1    0    0    0  0.14944099904E+01  0.19674691086E+02 -0.22529651104E+02  0.95051512402E+02  0.90210188451E+02 0.  0.
         11    1    3    3    0    0  0.29819998165E+02 -0.47902627065E+01  0.21641379624E+02  0.37155460159E+02  0.51100000000E-03 0.  1.
         22    1    1    0    0    0 -0.14944099904E+01 -0.19674691086E+02  0.22529651104E+02  0.29948487598E+02  0.00000000000E+00 0. -1.
</event>
<event>
 5    1  0.1282529E-003  0.9118800E+02  0.7818608E-02  0.1130116E+00
         25   -1    0    0    0    0  0.00000000000E+00  0.00000000000E+00  0.99999998245E-14  0.12500000000E+03  0.12500000000E+03 0.  0.
        -11    1    3    3    0    0  0.16331961260E+02  0.41160968362E+02  0.42396259876E+02  0.61305800107E+02  0.51100000000E-03 0.  1.
         23    2    1    0    0    0  0.13192989282E+02  0.14411017645E+02  0.24589097155E+02  0.93593693394E+02  0.88167019618E+02 0.  0.
         11    1    3    3    0    0 -0.31389719773E+01 -0.26749950717E+02 -0.17807162721E+02  0.32287893286E+02  0.51100000000E-03 0. -1.
         22    1    1    0    0    0 -0.13192989282E+02 -0.14411017645E+02 -0.24589097155E+02  0.31406306606E+02  0.00000000000E+00 0.  1.
</event>
<event>
 5    1  0.1282529E-003  0.9118800E+02  0.7818608E-02  0.1130116E+00
         25   -1    0    0    0    0  0.00000000000E+00  0.00000000000E+00  0.99999998245E-14  0.12500000000E+03  0.12500000000E+03 0.  0.
        -11    1    3    3    0    0  0.80071466687E+01 -0.30581282548E+02 -0.15546848442E+02  0.35228308742E+02  0.51100000000E-03 0. -1.
         23    2    1    0    0    0 -0.25606048104E+02  0.16145767687E+02 -0.49552981394E+00  0.94724579879E+02  0.89756030270E+02 0.  0.
         11    1    3    3    0    0 -0.33613194773E+02  0.46727050235E+02  0.15051318628E+02  0.59496271137E+02  0.51100000000E-03 0.  1.
         22    1    1    0    0    0  0.25606048104E+02 -0.16145767687E+02  0.49552981394E+00  0.30275420121E+02  0.00000000000E+00 0.  1.
</event>
<event>
 5    1  0.1282529E-003  0.9118800E+02  0.7818608E-02  0.1130116E+00
         25   -1    0    0    0    0  0.00000000000E+00  0.00000000000E+00  0.99999998245E-14  0.12500000000E+03  0.12500000000E+03 0.  0.
        -11    1    3    3    0    0  0.52053783425E+02  0.17868788733E+02 -0.39076379114E+01  0.55173903378E+02  0.51100000000E-03 0.  1.
         23    2    1    0    0    0  0.30757034355E+02  0.51284876036E+01  0.18612793130E+02  0.88685641744E+02  0.80909890842E+02 0.  0.
         11    1    3    3    0    0 -0.21296749070E+02 -0.12740301129E+02  0.22520431042E+02  0.33511738367E+02  0.51100000000E-03 0. -1.
         22    1    1    0    0    0 -0.30757034355E+02 -0.51284876036E+01 -0.18612793130E+02  0.36314358256E+02  0.00000000000E+00 0.  1.
</event>
<event>
 5    1  0.1282529E-003  0.9118800E+02  0.7818608E-02  0.1130116E+00
         25   -1    0    0    0    0  0.00000000000E+00  0.00000000000E+00  0.99999998245E-14  0.12500000000E+03  0.12500000000E+03 0.  0.
        -11    1    3    3    0    0  0.11155882953E+02  0.33558160215E+02 -0.24289941056E+02  0.42902273579E+02  0.51100000000E-03 0.  1.
         23    2    1    0    0    0  0.26312579881E+01 -0.18459902482E+02 -0.22680156826E+02  0.95638783542E+02  0.91020304797E+02 0.  0.
         11    1    3    3    0    0 -0.85246249648E+01 -0.52018062697E+02  0.16097842300E+01  0.52736509963E+02  0.51100000000E-03 0. -1.
         22    1    1    0    0    0 -0.26312579881E+01  0.18459902482E+02  0.22680156826E+02  0.29361216458E+02  0.00000000000E+00 0. -1.
</event>
<event>
 5    1  0.1282529E-003  0.9118800E+02  0.7818608E-02  0.1130116E+00
         25   -1    0    0    0    0  0.00000000000E+00  0.00000000000E+00  0.99999998245E-14  0.12500000000E+03  0.12500000000E+03 0.  0.
        -11    1    3    3    0    0  0.16670864911E+02  0.14664297438E+02  0.27790176311E+02  0.35570398590E+02  0.51100000000E-03 0. -1.
         23    2    1    0    0    0 -0.28152158305E+02 -0.11761120683E+02  0.14862373778E+00  0.94489508920E+02  0.89428056168E+02 0.  0.
         11    1    3    3    0    0 -0.44823023215E+02 -0.26425418122E+02 -0.27641552573E+02  0.58919110329E+02  0.51100000000E-03 0.  1.
         22    1    1    0    0    0  0.28152158305E+02  0.11761120683E+02 -0.14862373778E+00  0.30510491080E+02  0.00000000000E+00 0.  1.
</event>
<event>
 5    1  0.1282529E-003  0.9118800E+02  0.7818608E-02  0.1130116E+00
         25   -1    0    0    0    0  0.00000000000E+00  0.00000000000E+00  0.99999998245E-14  0.12500000000E+03  0.12500000000E+03 0.  0.
        -11    1    3    3    0    0  0.78729980275E+01  0.32091255033E+02 -0.45842117849E+02  0.56509578981E+02  0.51100000000E-03 0.  1.
         23    2    1    0    0    0 -0.15700449492E+02  0.12075670331E+02 -0.20532420318E+02  0.96470958440E+02  0.92156061168E+02 0.  0.
         11    1    3    3    0    0 -0.23573447520E+02 -0.20015584701E+02  0.25309697531E+02  0.39961379459E+02  0.51100000000E-03 0. -1.
         22    1    1    0    0    0  0.15700449492E+02 -0.12075670331E+02  0.20532420318E+02  0.28529041560E+02  0.00000000000E+00 0.  1.
</event>
<event>
 5    1  0.1282529E-003  0.9118800E+02  0.7818608E-02  0.1130116E+00
         25   -1    0    0    0    0  0.00000000000E+00  0.00000000000E+00  0.99999998245E-14  0.12500000000E+03  0.12500000000E+03 0.  0.
        -11    1    3    3    0    0  0.45080833513E+00 -0.43380996481E+01 -0.45751086439E+02  0.45958505712E+02  0.51100000000E-03 0.  1.
         23    2    1    0    0    0 -0.28713170516E+02 -0.36738548000E+01 -0.57166893513E+01  0.95493663268E+02  0.90820789564E+02 0.  0.
         11    1    3    3    0    0 -0.29163978851E+02  0.66424484810E+00  0.40034397088E+02  0.49535157556E+02  0.51100000000E-03 0. -1.
         22    1    1    0    0    0  0.28713170516E+02  0.36738548000E+01  0.57166893513E+01  0.29506336732E+02  0.00000000000E+00 0. -1.
</event>
<event>
 5    1  0.1282529E-003  0.9118800E+02  0.7818608E-02  0.1130116E+00
         25   -1    0    0    0    0  0.00000000000E+00  0.00000000000E+00  0.99999998245E-14  0.12500000000E+03  0.12500000000E+03 0.  0.
        -11    1    3    3    0    0  0.55762429146E+02  0.14493316898E+02  0.81222486448E+01  0.58184840485E+02  0.51100000000E-03 0.  1.
         23    2    1    0    0    0  0.19822329385E+02  0.21433997073E+02 -0.54061061720E+00  0.95800115880E+02  0.91241596709E+02 0.  0.
         11    1    3    3    0    0 -0.35940099762E+02  0.69406801753E+01 -0.86628592620E+01  0.37615275395E+02  0.51100000000E-03 0. -1.
         22    1    1    0    0    0 -0.19822329385E+02 -0.21433997073E+02  0.54061061720E+00  0.29199884120E+02  0.00000000000E+00 0.  1.
</event>
<event>
 5    1  0.1282529E-003  0.9118800E+02  0.7818608E-02  0.1130116E+00
         25   -1    0    0    0    0  0.00000000000E+00  0.00000000000E+00  0.99999998245E-14  0.12500000000E+03  0.12500000000E+03 0.  0.
        -11    1    3    3    0    0 -0.35211446451E+00 -0.49787428355E+01  0.26688752685E+02  0.27151452722E+02  0.51100000000E-03 0. -1.
         23    2    1    0    0    0  0.77981856308E+01  0.25847806306E+02 -0.25209089744E+02  0.88061957338E+02  0.79940536242E+02 0.  0.
         11    1    3    3    0    0  0.81503000953E+01  0.30826549142E+02 -0.51897842428E+02  0.60910504616E+02  0.51100000000E-03 0.  1.
         22    1    1    0    0    0 -0.77981856308E+01 -0.25847806306E+02  0.25209089744E+02  0.36938042662E+02  0.00000000000E+00 0.  1.
</event>
<event>
 5    1  0.1282529E-003  0.9118800E+02  0.7818608E-02  0.1130116E+00
         25   -1    0    0    0    0  0.00000000000E+00  0.00000000000E+00  0.99999998245E-14  0.12500000000E+03  0.12500000000E+03 0.  0.
        -11    1    3    3    0    0  0.85904270577E+01 -0.32982441731E+02 -0.12985654296E+02  0.36472785983E+02  0.51100000000E-03 0.  1.
         23    2    1    0    0    0  0.13485664185E+02  0.25434780952E+02 -0.17787585786E+01  0.96156366341E+02  0.91728357585E+02 0.  0.
         11    1    3    3    0    0  0.48952371269E+01  0.58417222683E+02  0.11206895717E+02  0.59683580358E+02  0.51100000000E-03 0. -1.
         22    1    1    0    0    0 -0.13485664185E+02 -0.25434780952E+02  0.17787585786E+01  0.28843633659E+02  0.00000000000E+00 0. -1.
</event>
<event>
 5    1  0.1282529E-003  0.9118800E+02  0.7818608E-02  0.1130116E+00
         25   -1    0    0    0    0  0.00000000000E+00  0.00000000000E+00  0.99999998245E-14  0.12500000000E+03  0.12500000000E+03 0.  0.
        -11    1    3    3    0    0  0.17527187449E+02  0.36827208331E+01  0.13185251466E+02  0.22239954791E+02  0.51100000000E-03 0. -1.
         23    2    1    0    0    0 -0.36612466668E+02  0.21495499477E+02 -0.54307301256E+01  0.82197873382E+02  0.70174556255E+02 0.  0.
         11    1    3    3    0    0 -0.54139654117E+02  0.17812778644E+02 -0.18615981591E+02  0.59957918592E+02  0.51100000000E-03 0.  1.
         22    1    1    0    0    0  0.36612466668E+02 -0.21495499477E+02  0.54307301256E+01  0.42802126618E+02  0.00000000000E+00 0.  1.
</event>
<event>
 5    1  0.1282529E-003  0.9118800E+02  0.7818608E-02  0.1130116E+00
         25   -1    0    0    0    0  0.00000000000E+00  0.00000000000E+00  0.99999998245E-14  0.12500000000E+03  0.12500000000E+03 0.  0.
        -11    1    3    3    0    0  0.12019422276E+02  0.48593296449E+02 -0.27031821042E+02  0.56890195295E+02  0.51100000000E-03 0. -1.
         23    2    1    0    0    0  0.60806114759E+00  0.30251022984E+02  0.37665696016E+01  0.94509326402E+02  0.89455752193E+02 0.  0.
         11    1    3    3    0    0 -0.11411361128E+02 -0.18342273465E+02  0.30798390644E+02  0.37619131106E+02  0.51100000000E-03 0.  1.
         22    1    1    0    0    0 -0.60806114759E+00 -0.30251022984E+02 -0.37665696016E+01  0.30490673598E+02  0.00000000000E+00 0. -1.
</event>
<event>
 5    1  0.1282529E-003  0.9118800E+02  0.7818608E-02  0.1130116E+00
         25   -1    0    0    0    0  0.00000000000E+00  0.00000000000E+00  0.99999998245E-14  0.12500000000E+03  0.12500000000E+03 0.  0.
        -11    1    3    3    0    0  0.16585237019E+02 -0.55932130115E+02 -0.17731463723E+02  0.60974405058E+02  0.51100000000E-03 0. -1.
         23    2    1    0    0    0  0.62301122902E+01 -0.31526419302E+02 -0.93875103222E-02  0.92863891006E+02  0.87126188667E+02 0.  0.
         11    1    3    3    0    0 -0.10355124729E+02  0.24405710814E+02  0.17722076213E+02  0.31889485948E+02  0.51100000000E-03 0.  1.
         22    1    1    0    0    0 -0.62301122902E+01  0.31526419302E+02  0.93875103222E-02  0.32136108994E+02  0.00000000000E+00 0. -1.
</event>
<event>
 5    1  0.1282529E-003  0.9118800E+02  0.7818608E-02  0.1130116E+00
         25   -1    0    0    0    0  0.00000000000E+00  0.00000000000E+00  0.99999998245E-14  0.12500000000E+03  0.12500000000E+03 0.  0.
        -11    1    3    3    0    0 -0.37843725615E+02  0.31670460080E+02 -0.27521425916E+02  0.56503048544E+02  0.51100000000E-03 0. -1.
         23    2    1    0    0    0 -0.25304237717E+02 -0.13510646918E+01 -0.30439217550E+01  0.99477553372E+02  0.96147742267E+02 0.  0.
         11    1    3    3    0    0  0.12539487898E+02 -0.33021524771E+02  0.24477504161E+02  0.42974504828E+02  0.51100000000E-03 0.  1.
         22    1    1    0    0    0  0.25304237717E+02  0.13510646918E+01  0.30439217550E+01  0.25522446628E+02  0.00000000000E+00 0. -1.
</event>
<event>
 5    1  0.1282529E-003  0.9118800E+02  0.7818608E-02  0.1130116E+00
         25   -1    0    0    0    0  0.00000000000E+00  0.00000000000E+00  0.99999998245E-14  0.12500000000E+03  0.12500000000E+03 0.  0.
        -11    1    3    3    0    0  0.81911852643E+01 -0.31784335503E+02  0.32235523728E+02  0.46005091997E+02  0.51100000000E-03 0.  1.
         23    2    1    0    0    0  0.28099696696E+02 -0.57641876219E+01 -0.53018778344E+01  0.95829317425E+02  0.91281593743E+02 0.  0.
         11    1    3    3    0    0  0.19908511432E+02  0.26020147881E+02 -0.37537401562E+02  0.49824225428E+02  0.51100000000E-03 0. -1.
         22    1    1    0    0    0 -0.28099696696E+02  0.57641876219E+01  0.53018778344E+01  0.29170682575E+02  0.00000000000E+00 0. -1.
</event>
<event>
 5    1  0.1282529E-003  0.9118800E+02  0.7818608E-02  0.1130116E+00
         25   -1    0    0    0    0  0.00000000000E+00  0.00000000000E+00  0.99999998245E-14  0.12500000000E+03  0.12500000000E+03 0.  0.
        -11    1    3    3    0    0  0.27841484514E+02 -0.19005822488E+02 -0.40039938815E+01  0.33947039866E+02  0.51100000000E-03 0.  1.
         23    2    1    0    0    0 -0.20518089651E+02  0.15014190162E+01 -0.26804867980E+02  0.91210249936E+02  0.84720496244E+02 0.  0.
         11    1    3    3    0    0 -0.48359574165E+02  0.20507241504E+02 -0.22800874099E+02  0.57263210070E+02  0.51100000000E-03 0. -1.
         22    1    1    0    0    0  0.20518089651E+02 -0.15014190162E+01  0.26804867980E+02  0.33789750064E+02  0.00000000000E+00 0. -1.
</event>
<event>
 5    1  0.1282529E-003  0.9118800E+02  0.7818608E-02  0.1130116E+00
         25   -1    0    0    0    0  0.00000000000E+00  0.00000000000E+00  0.99999998245E-14  0.12500000000E+03  0.12500000000E+03 0.  0.
        -11    1    3    3    0    0  0.65480170223E+01  0.53831895139E+02  0.22612346649E+02  0.58754299268E+02  0.51100000000E-03 0.  1.
         23    2    1    0    0    0  0.12721344902E+02  0.17209082446E+02  0.19540201789E+02  0.96020617317E+02  0.91543182866E+02 0.  0.
         11    1    3    3    0    0  0.61733278795E+01 -0.36622812693E+02 -0.30721448606E+01  0.37266318049E+02  0.51100000000E-03 0. -1.
         22    1    1    0    0    0 -0.12721344902E+02 -0.17209082446E+02 -0.19540201789E+02  0.28979382683E+02  0.00000000000E+00 0.  1.
</event>
<event>
 5    1  0.1282529E-003  0.9118800E+02  0.7818608E-02  0.1130116E+00
         25   -1    0    0    0    0  0.00000000000E+00  0.00000000000E+00  0.99999998245E-14  0.12500000000E+03  0.12500000000E+03 0.  0.
        -11    1    3    3    0    0  0.33416383248E+01  0.40058767697E+02  0.16195754584E+02  0.43337903536E+02  0.51100000000E-03 0. -1.
         23    2    1    0    0    0 -0.14157771483E+02 -0.26724691013E+01 -0.18826792083E+02  0.10129277147E+03  0.98479403265E+02 0.  0.
         11    1    3    3    0    0 -0.17499409808E+02 -0.42731236798E+02 -0.35022546667E+02  0.57954867934E+02  0.51100000000E-03 0.  1.
         22    1    1    0    0    0  0.14157771483E+02  0.26724691013E+01  0.18826792083E+02  0.23707228530E+02  0.00000000000E+00 0.  1.
</event>
<event>
 5    1  0.1282529E-003  0.9118800E+02  0.7818608E-02  0.1130116E+00
         25   -1    0    0    0    0  0.00000000000E+00  0.00000000000E+00  0.99999998245E-14  0.12500000000E+03  0.12500000000E+03 0.  0.
        -11    1    3    3    0    0 -0.17611602634E+02  0.23660154604E+02  0.21050230312E+02  0.36236496239E+02  0.51100000000E-03 0. -1.
         23    2    1    0    0    0  0.33595847395E+01 -0.58755248215E+01 -0.27425714363E+02  0.96751488360E+02  0.92535788157E+02 0.  0.
         11    1    3    3    0    0  0.20971187374E+02 -0.29535679425E+02 -0.48475944675E+02  0.60514992121E+02  0.51100000000E-03 0.  1.
         22    1    1    0    0    0 -0.33595847395E+01  0.58755248215E+01  0.27425714363E+02  0.28248511640E+02  0.00000000000E+00 0.  1.
</event>
<event>
 5    1  0.1282529E-003  0.9118800E+02  0.7818608E-02  0.1130116E+00
         25   -1    0    0    0    0  0.00000000000E+00  0.00000000000E+00  0.99999998245E-14  0.12500000000E+03  0.12500000000E+03 0.  0.
        -11    1    3    3    0    0 -0.71050584151E+01 -0.25741144646E+02 -0.15539499818E+01  0.26748890511E+02  0.51100000000E-03 0.  1.
         23    2    1    0    0    0 -0.25150306196E+02  0.27938218127E+02 -0.14272312607E+02  0.84790786615E+02  0.74650496675E+02 0.  0.
         11    1    3    3    0    0 -0.18045247781E+02  0.53679362773E+02 -0.12718362625E+02  0.58041896104E+02  0.51100000000E-03 0. -1.
         22    1    1    0    0    0  0.25150306196E+02 -0.27938218127E+02  0.14272312607E+02  0.40209213385E+02  0.00000000000E+00 0. -1.
</event>
<event>
 5    1  0.1282529E-003  0.9118800E+02  0.7818608E-02  0.1130116E+00
         25   -1    0    0    0    0  0.00000000000E+00  0.00000000000E+00  0.99999998245E-14  0.12500000000E+03  0.12500000000E+03 0.  0.
        -11    1    3    3    0    0 -0.31294069165E+02 -0.68271149184E+01  0.19254027052E+02  0.37371724887E+02  0.51100000000E-03 0.  1.
         23    2    1    0    0    0  0.14030344040E+02  0.24940113773E+02 -0.11493761670E+01  0.96361199493E+02  0.92007064258E+02 0.  0.
         11    1    3    3    0    0  0.45324413206E+02  0.31767228691E+02 -0.20403403219E+02  0.58989474606E+02  0.51100000000E-03 0. -1.
         22    1    1    0    0    0 -0.14030344040E+02 -0.24940113773E+02  0.11493761670E+01  0.28638800507E+02  0.00000000000E+00 0. -1.
</event>
<event>
 5    1  0.1282529E-003  0.9118800E+02  0.7818608E-02  0.1130116E+00
         25   -1    0    0    0    0  0.00000000000E+00  0.00000000000E+00  0.99999998245E-14  0.12500000000E+03  0.12500000000E+03 0.  0.
        -11    1    3    3    0    0 -0.26161775526E+02 -0.23909919650E+02  0.40750003659E+02  0.54006347356E+02  0.51100000000E-03 0.  1.
         23    2    1    0    0    0 -0.27862473621E+01  0.82613001679E+01  0.27856224026E+02  0.95811278345E+02  0.91256887884E+02 0.  0.
         11    1    3    3    0    0  0.23375528164E+02  0.32171219818E+02 -0.12893779632E+02  0.41804930989E+02  0.51100000000E-03 0. -1.
         22    1    1    0    0    0  0.27862473621E+01 -0.82613001679E+01 -0.27856224026E+02  0.29188721655E+02  0.00000000000E+00 0.  1.
</event>
<event>
 5    1  0.1282529E-003  0.9118800E+02  0.7818608E-02  0.1130116E+00
         25   -1    0    0    0    0  0.00000000000E+00  0.00000000000E+00  0.99999998245E-14  0.12500000000E+03  0.12500000000E+03 0.  0.
        -11    1    3    3    0    0  0.14679876342E+02  0.20376373267E+02  0.23243196237E+02  0.34219022904E+02  0.51100000000E-03 0. -1.
         23    2    1    0    0    0  0.26368895796E+01 -0.14581321745E+02 -0.25565263084E+02  0.95450874682E+02  0.90761878950E+02 0.  0.
         11    1    3    3    0    0 -0.12042986762E+02 -0.34957695012E+02 -0.48808459321E+02  0.61231851779E+02  0.51100000000E-03 0.  1.
         22    1    1    0    0    0 -0.26368895796E+01  0.14581321745E+02  0.25565263084E+02  0.29549125318E+02  0.00000000000E+00 0.  1.
</event>
<event>
 5    1  0.1282529E-003  0.9118800E+02  0.7818608E-02  0.1130116E+00
         25   -1    0    0    0    0  0.00000000000E+00  0.00000000000E+00  0.99999998245E-14  0.12500000000E+03  0.12500000000E+03 0.  0.
        -11    1    3    3    0    0 -0.23906967510E+02  0.34087598358E+01 -0.32069343856E+01  0.24360771078E+02  0.51100000000E-03 0. -1.
         23    2    1    0    0    0  0.23743852435E+02  0.24629688027E+02 -0.26732717623E+02  0.81583064914E+02  0.69070733517E+02 0.  0.
         11    1    3    3    0    0  0.47650819944E+02  0.21220928191E+02 -0.23525783237E+02  0.57222293836E+02  0.51100000000E-03 0.  1.
         22    1    1    0    0    0 -0.23743852435E+02 -0.24629688027E+02  0.26732717623E+02  0.43416935086E+02  0.00000000000E+00 0.  1.
</event>
<event>
 5    1  0.1282529E-003  0.9118800E+02  0.7818608E-02  0.1130116E+00
         25   -1    0    0    0    0  0.00000000000E+00  0.00000000000E+00  0.99999998245E-14  0.12500000000E+03  0.12500000000E+03 0.  0.
        -11    1    3    3    0    0 -0.26767319113E+01 -0.31425576896E+02 -0.24369863733E+01  0.31633379203E+02  0.51100000000E-03 0. -1.
         23    2    1    0    0    0  0.58188963886E+01  0.29911596887E+02  0.54094240585E+01  0.94051251202E+02  0.88813359358E+02 0.  0.
         11    1    3    3    0    0  0.84956282999E+01  0.61337173783E+02  0.78464104318E+01  0.62417871999E+02  0.51100000000E-03 0.  1.
         22    1    1    0    0    0 -0.58188963886E+01 -0.29911596887E+02 -0.54094240585E+01  0.30948748798E+02  0.00000000000E+00 0.  1.
</event>
<event>
 5    1  0.1282529E-003  0.9118800E+02  0.7818608E-02  0.1130116E+00
         25   -1    0    0    0    0  0.00000000000E+00  0.00000000000E+00  0.99999998245E-14  0.12500000000E+03  0.12500000000E+03 0.  0.
        -11    1    3    3    0    0 -0.16761477947E+02 -0.11839485318E+01  0.30323289746E+02  0.34667719544E+02  0.51100000000E-03 0. -1.
         23    2    1    0    0    0  0.19181869540E+02  0.45154201955E+01 -0.20099452335E+02  0.96851800719E+02  0.92671193905E+02 0.  0.
         11    1    3    3    0    0  0.35943347487E+02  0.56993687273E+01 -0.50422742081E+02  0.62184081176E+02  0.51100000000E-03 0.  1.
         22    1    1    0    0    0 -0.19181869540E+02 -0.45154201955E+01  0.20099452335E+02  0.28148199281E+02  0.00000000000E+00 0.  1.
</event>
<event>
 5    1  0.1282529E-003  0.9118800E+02  0.7818608E-02  0.1130116E+00
         25   -1    0    0    0    0  0.00000000000E+00  0.00000000000E+00  0.99999998245E-14  0.12500000000E+03  0.12500000000E+03 0.  0.
        -11    1    3    3    0    0 -0.22581337853E+02  0.35712414101E+02  0.16925311785E+02  0.45516585103E+02  0.51100000000E-03 0. -1.
         23    2    1    0    0    0 -0.26739596802E+02 -0.46209665386E+01 -0.12005554462E+02  0.95326902642E+02  0.90590980017E+02 0.  0.
         11    1    3    3    0    0 -0.41582589484E+01 -0.40333380639E+02 -0.28930866247E+02  0.49810317539E+02  0.51100000000E-03 0.  1.
         22    1    1    0    0    0  0.26739596802E+02  0.46209665386E+01  0.12005554462E+02  0.29673097358E+02  0.00000000000E+00 0.  1.
</event>
<event>
 5    1  0.1282529E-003  0.9118800E+02  0.7818608E-02  0.1130116E+00
         25   -1    0    0    0    0  0.00000000000E+00  0.00000000000E+00  0.99999998245E-14  0.12500000000E+03  0.12500000000E+03 0.  0.
        -11    1    3    3    0    0  0.20983204708E+02 -0.27224801506E+00 -0.38032202800E+02  0.43437512002E+02  0.51100000000E-03 0. -1.
         23    2    1    0    0    0  0.22483902105E+02 -0.15653183420E+02  0.11472813727E+02  0.95298594985E+02  0.90551911887E+02 0.  0.
         11    1    3    3    0    0  0.15006973974E+01 -0.15380935405E+02  0.49505016527E+02  0.51861082984E+02  0.51100000000E-03 0.  1.
         22    1    1    0    0    0 -0.22483902105E+02  0.15653183420E+02 -0.11472813727E+02  0.29701405015E+02  0.00000000000E+00 0. -1.
</event>
<event>
 5    1  0.1282529E-003  0.9118800E+02  0.7818608E-02  0.1130116E+00
         25   -1    0    0    0    0  0.00000000000E+00  0.00000000000E+00  0.99999998245E-14  0.12500000000E+03  0.12500000000E+03 0.  0.
        -11    1    3    3    0    0  0.14522804367E+00 -0.47831676408E+02 -0.30852942454E+02  0.56919191997E+02  0.51100000000E-03 0.  1.
         23    2    1    0    0    0  0.17859365961E+02 -0.21894509849E+02 -0.84174372009E+01  0.95518145189E+02  0.90854478686E+02 0.  0.
         11    1    3    3    0    0  0.17714137918E+02  0.25937166560E+02  0.22435505253E+02  0.38598953192E+02  0.51100000000E-03 0. -1.
         22    1    1    0    0    0 -0.17859365961E+02  0.21894509849E+02  0.84174372009E+01  0.29481854811E+02  0.00000000000E+00 0.  1.
</event>
<event>
 5    1  0.1282529E-003  0.9118800E+02  0.7818608E-02  0.1130116E+00
         25   -1    0    0    0    0  0.00000000000E+00  0.00000000000E+00  0.99999998245E-14  0.12500000000E+03  0.12500000000E+03 0.  0.
        -11    1    3    3    0    0 -0.21030498875E+01 -0.29639037538E+02  0.20538892814E+02  0.36121205452E+02  0.51100000000E-03 0.  1.
         23    2    1    0    0    0 -0.53063053013E+01  0.28047877300E+02  0.92820153823E+01  0.94983402816E+02  0.90115762794E+02 0.  0.
         11    1    3    3    0    0 -0.32032554138E+01  0.57686914838E+02 -0.11256877432E+02  0.58862197364E+02  0.51100000000E-03 0. -1.
         22    1    1    0    0    0  0.53063053013E+01 -0.28047877300E+02 -0.92820153823E+01  0.30016597184E+02  0.00000000000E+00 0. -1.
</event>
<event>
 5    1  0.1282529E-003  0.9118800E+02  0.7818608E-02  0.1130116E+00
         25   -1    0    0    0    0  0.00000000000E+00  0.00000000000E+00  0.99999998245E-14  0.12500000000E+03  0.12500000000E+03 0.  0.
        -11    1    3    3    0    0  0.37455723495E+02 -0.62802228504E+00 -0.27206606749E+02  0.46298219032E+02  0.51100000000E-03 0.  1.
         23    2    1    0    0    0 -0.10244498336E+02  0.38327223314E+01 -0.28758466090E+02  0.94231690354E+02  0.89066955648E+02 0.  0.
         11    1    3    3    0    0 -0.47700221831E+02  0.44607446165E+01 -0.15518593418E+01  0.47933471321E+02  0.51100000000E-03 0. -1.
         22    1    1    0    0    0  0.10244498336E+02 -0.38327223314E+01  0.28758466090E+02  0.30768309646E+02  0.00000000000E+00 0. -1.
</event>
<event>
 5    1  0.1282529E-003  0.9118800E+02  0.7818608E-02  0.1130116E+00
         25   -1    0    0    0    0  0.00000000000E+00  0.00000000000E+00  0.99999998245E-14  0.12500000000E+03  0.12500000000E+03 0.  0.
        -11    1    3    3    0    0  0.20820093788E+02 -0.25179791385E+02 -0.52343730794E+02  0.61703843910E+02  0.51100000000E-03 0.  1.
         23    2    1    0    0    0  0.16141179298E+02 -0.11712750267E+02 -0.21548492409E+02  0.95639078470E+02  0.91020709828E+02 0.  0.
         11    1    3    3    0    0 -0.46789144897E+01  0.13467041117E+02  0.30795238385E+02  0.33935234561E+02  0.51100000000E-03 0. -1.
         22    1    1    0    0    0 -0.16141179298E+02  0.11712750267E+02  0.21548492409E+02  0.29360921530E+02  0.00000000000E+00 0.  1.
</event>
<event>
 5    1  0.1282529E-003  0.9118800E+02  0.7818608E-02  0.1130116E+00
         25   -1    0    0    0    0  0.00000000000E+00  0.00000000000E+00  0.99999998245E-14  0.12500000000E+03  0.12500000000E+03 0.  0.
        -11    1    3    3    0    0  0.44118067838E+01 -0.30036710288E+02  0.48526754981E+02  0.57240841654E+02  0.51100000000E-03 0. -1.
         23    2    1    0    0    0 -0.15915808167E+02 -0.14911690356E+02  0.19824422506E+02  0.95526635982E+02  0.90866159792E+02 0.  0.
         11    1    3    3    0    0 -0.20327614951E+02  0.15125019932E+02 -0.28702332475E+02  0.38285794328E+02  0.51100000000E-03 0.  1.
         22    1    1    0    0    0  0.15915808167E+02  0.14911690356E+02 -0.19824422506E+02  0.29473364018E+02  0.00000000000E+00 0. -1.
</event>
<event>
 5    1  0.1282529E-003  0.9118800E+02  0.7818608E-02  0.1130116E+00
         25   -1    0    0    0    0  0.00000000000E+00  0.00000000000E+00  0.99999998245E-14  0.12500000000E+03  0.12500000000E+03 0.  0.
        -11    1    3    3    0    0  0.25966125488E+00  0.48913306027E+02 -0.37303766612E+02  0.61515444680E+02  0.51100000000E-03 0. -1.
         23    2    1    0    0    0 -0.59774370349E+01  0.19051555341E+02 -0.20666015569E+02  0.96263686494E+02  0.91874488426E+02 0.  0.
         11    1    3    3    0    0 -0.62370982897E+01 -0.29861750686E+02  0.16637751043E+02  0.34748241814E+02  0.51100000000E-03 0.  1.
         22    1    1    0    0    0  0.59774370349E+01 -0.19051555341E+02  0.20666015569E+02  0.28736313506E+02  0.00000000000E+00 0. -1.
</event>
<event>
 5    1  0.1282529E-003  0.9118800E+02  0.7818608E-02  0.1130116E+00
         25   -1    0    0    0    0  0.00000000000E+00  0.00000000000E+00  0.99999998245E-14  0.12500000000E+03  0.12500000000E+03 0.  0.
        -11    1    3    3    0    0  0.19532462534E+02  0.27177261038E+02 -0.45751090338E+02  0.56685826073E+02  0.51100000000E-03 0.  1.
         23    2    1    0    0    0 -0.95053455558E+01  0.10505249891E+02 -0.25532613447E+02  0.95800235980E+02  0.91241761245E+02 0.  0.
         11    1    3    3    0    0 -0.29037808090E+02 -0.16672011147E+02  0.20218476891E+02  0.39114409908E+02  0.51100000000E-03 0. -1.
         22    1    1    0    0    0  0.95053455558E+01 -0.10505249891E+02  0.25532613447E+02  0.29199764020E+02  0.00000000000E+00 0.  1.
</event>
<event>
 5    1  0.1282529E-003  0.9118800E+02  0.7818608E-02  0.1130116E+00
         25   -1    0    0    0    0  0.00000000000E+00  0.00000000000E+00  0.99999998245E-14  0.12500000000E+03  0.12500000000E+03 0.  0.
        -11    1    3    3    0    0 -0.36261330522E+02  0.36105942117E+02 -0.33566056540E+02  0.61198066140E+02  0.51100000000E-03 0.  1.
         23    2    1    0    0    0 -0.31106089918E+02  0.20135554465E+02 -0.19319449451E+02  0.83211598371E+02  0.71957623590E+02 0.  0.
         11    1    3    3    0    0  0.51552406037E+01 -0.15970387652E+02  0.14246607089E+02  0.22013532230E+02  0.51100000000E-03 0. -1.
         22    1    1    0    0    0  0.31106089918E+02 -0.20135554465E+02  0.19319449451E+02  0.41788401629E+02  0.00000000000E+00 0.  1.
</event>
<event>
 5    1  0.1282529E-003  0.9118800E+02  0.7818608E-02  0.1130116E+00
         25   -1    0    0    0    0  0.00000000000E+00  0.00000000000E+00  0.99999998245E-14  0.12500000000E+03  0.12500000000E+03 0.  0.
        -11    1    3    3    0    0 -0.17774312530E+02  0.41231579489E+02  0.90279239633E+01  0.45798174029E+02  0.51100000000E-03 0. -1.
         23    2    1    0    0    0 -0.64581529473E+01  0.85051755220E+01  0.34564316827E+02  0.88823519410E+02  0.81122622322E+02 0.  0.
         11    1    3    3    0    0  0.11316159583E+02 -0.32726403967E+02  0.25536392864E+02  0.43025345380E+02  0.51100000000E-03 0.  1.
         22    1    1    0    0    0  0.64581529473E+01 -0.85051755220E+01 -0.34564316827E+02  0.36176480590E+02  0.00000000000E+00 0. -1.
</event>
<event>
 5    1  0.1282529E-003  0.9118800E+02  0.7818608E-02  0.1130116E+00
         25   -1    0    0    0    0  0.00000000000E+00  0.00000000000E+00  0.99999998245E-14  0.12500000000E+03  0.12500000000E+03 0.  0.
        -11    1    3    3    0    0  0.19638671028E+02  0.24233811900E+02  0.16388759309E+02  0.35235585292E+02  0.51100000000E-03 0. -1.
         23    2    1    0    0    0 -0.18386289238E+02 -0.79689925359E+01 -0.19807640589E+02  0.96823713877E+02  0.92633301082E+02 0.  0.
         11    1    3    3    0    0 -0.38024960266E+02 -0.32202804436E+02 -0.36196399898E+02  0.61588128585E+02  0.51100000000E-03 0.  1.
         22    1    1    0    0    0  0.18386289238E+02  0.79689925359E+01  0.19807640589E+02  0.28176286123E+02  0.00000000000E+00 0.  1.
</event>
<event>
 5    1  0.1282529E-003  0.9118800E+02  0.7818608E-02  0.1130116E+00
         25   -1    0    0    0    0  0.00000000000E+00  0.00000000000E+00  0.99999998245E-14  0.12500000000E+03  0.12500000000E+03 0.  0.
        -11    1    3    3    0    0  0.23495029499E+02 -0.24538128048E+02  0.33969950883E+02  0.48042623810E+02  0.51100000000E-03 0. -1.
         23    2    1    0    0    0  0.27739515459E+02 -0.86290750460E+01 -0.94268606983E+01  0.94458104893E+02  0.89384149732E+02 0.  0.
         11    1    3    3    0    0  0.42444859604E+01  0.15909053002E+02 -0.43396811582E+02  0.46415481084E+02  0.51100000000E-03 0.  1.
         22    1    1    0    0    0 -0.27739515459E+02  0.86290750460E+01  0.94268606983E+01  0.30541895107E+02  0.00000000000E+00 0.  1.
</event>
<event>
 5    1  0.1282529E-003  0.9118800E+02  0.7818608E-02  0.1130116E+00
         25   -1    0    0    0    0  0.00000000000E+00  0.00000000000E+00  0.99999998245E-14  0.12500000000E+03  0.12500000000E+03 0.  0.
        -11    1    3    3    0    0  0.37981206999E+02 -0.90933351543E+01  0.47579030979E+02  0.61555056807E+02  0.51100000000E-03 0.  1.
         23    2    1    0    0    0  0.15150684285E+02 -0.11485786627E+02  0.21218251762E+02  0.96509988828E+02  0.92208986585E+02 0.  0.
         11    1    3    3    0    0 -0.22830522714E+02 -0.23924514724E+01 -0.26360779217E+02  0.34954932022E+02  0.51100000000E-03 0. -1.
         22    1    1    0    0    0 -0.15150684285E+02  0.11485786627E+02 -0.21218251762E+02  0.28490011172E+02  0.00000000000E+00 0.  1.
</event>
<event>
 5    1  0.1282529E-003  0.9118800E+02  0.7818608E-02  0.1130116E+00
         25   -1    0    0    0    0  0.00000000000E+00  0.00000000000E+00  0.99999998245E-14  0.12500000000E+03  0.12500000000E+03 0.  0.
        -11    1    3    3    0    0  0.15650854947E+02  0.32575526373E+02 -0.18851643905E+02  0.40761484973E+02  0.51100000000E-03 0.  1.
         23    2    1    0    0    0  0.86477917043E+01 -0.88582993135E+01  0.22247416581E+02  0.99540202031E+02  0.96229156225E+02 0.  0.
         11    1    3    3    0    0 -0.70030632428E+01 -0.41433825686E+02  0.41099060487E+02  0.58778717057E+02  0.51100000000E-03 0. -1.
         22    1    1    0    0    0 -0.86477917043E+01  0.88582993135E+01 -0.22247416581E+02  0.25459797969E+02  0.00000000000E+00 0. -1.
</event>
<event>
 5    1  0.1282529E-003  0.9118800E+02  0.7818608E-02  0.1130116E+00
         25   -1    0    0    0    0  0.00000000000E+00  0.00000000000E+00  0.99999998245E-14  0.12500000000E+03  0.12500000000E+03 0.  0.
        -11    1    3    3    0    0  0.44091296164E+01 -0.52072570292E+02  0.25733637315E+02  0.58251292608E+02  0.51100000000E-03 0.  1.
         23    2    1    0    0    0 -0.35112089507E+01 -0.29234320823E+02 -0.25359784790E+01  0.95446568911E+02  0.90755948719E+02 0.  0.
         11    1    3    3    0    0 -0.79203385670E+01  0.22838249469E+02 -0.28269615794E+02  0.37195276303E+02  0.51100000000E-03 0. -1.
         22    1    1    0    0    0  0.35112089507E+01  0.29234320823E+02  0.25359784790E+01  0.29553431089E+02  0.00000000000E+00 0.  1.
</event>
<event>
 5    1  0.1282529E-003  0.9118800E+02  0.7818608E-02  0.1130116E+00
         25   -1    0    0    0    0  0.00000000000E+00  0.00000000000E+00  0.99999998245E-14  0.12500000000E+03  0.12500000000E+03 0.  0.
        -11    1    3    3    0    0  0.23564580568E+02  0.60893992497E+01  0.37920303903E+02  0.45059068887E+02  0.51100000000E-03 0. -1.
         23    2    1    0    0    0 -0.19613542707E+02 -0.11546446119E+02  0.18848924486E+02  0.95448461466E+02  0.90758555335E+02 0.  0.
         11    1    3    3    0    0 -0.43178123274E+02 -0.17635845368E+02 -0.19071379417E+02  0.50389392579E+02  0.51100000000E-03 0.  1.
         22    1    1    0    0    0  0.19613542707E+02  0.11546446119E+02 -0.18848924486E+02  0.29551538534E+02  0.00000000000E+00 0.  1.
</event>
<event>
 5    1  0.1282529E-003  0.9118800E+02  0.7818608E-02  0.1130116E+00
         25   -1    0    0    0    0  0.00000000000E+00  0.00000000000E+00  0.99999998245E-14  0.12500000000E+03  0.12500000000E+03 0.  0.
        -11    1    3    3    0    0 -0.16669478941E+02  0.80267543873E+01  0.34310855088E+02  0.38981214595E+02  0.51100000000E-03 0. -1.
         23    2    1    0    0    0 -0.11160650390E+02  0.16742348139E+02 -0.21392958167E+02  0.95631224107E+02  0.91009922683E+02 0.  0.
         11    1    3    3    0    0  0.55088285514E+01  0.87155937516E+01 -0.55703813254E+02  0.56650009513E+02  0.51100000000E-03 0.  1.
         22    1    1    0    0    0  0.11160650390E+02 -0.16742348139E+02  0.21392958167E+02  0.29368775893E+02  0.00000000000E+00 0.  1.
</event>
<event>
 5    1  0.1282529E-003  0.9118800E+02  0.7818608E-02  0.1130116E+00
         25   -1    0    0    0    0  0.00000000000E+00  0.00000000000E+00  0.99999998245E-14  0.12500000000E+03  0.12500000000E+03 0.  0.
        -11    1    3    3    0    0  0.39955461377E+02  0.70166757305E+01  0.44624886103E+02  0.60307985309E+02  0.51100000000E-03 0. -1.
         23    2    1    0    0    0  0.10109062468E+02  0.11285100026E+02  0.23183921423E+02  0.97304497854E+02  0.93279818093E+02 0.  0.
         11    1    3    3    0    0 -0.29846398909E+02  0.42684242955E+01 -0.21440964679E+02  0.36996512544E+02  0.51100000000E-03 0.  1.
         22    1    1    0    0    0 -0.10109062468E+02 -0.11285100026E+02 -0.23183921423E+02  0.27695502146E+02  0.00000000000E+00 0. -1.
</event>
<event>
 5    1  0.1282529E-003  0.9118800E+02  0.7818608E-02  0.1130116E+00
         25   -1    0    0    0    0  0.00000000000E+00  0.00000000000E+00  0.99999998245E-14  0.12500000000E+03  0.12500000000E+03 0.  0.
        -11    1    3    3    0    0 -0.36983564420E+02  0.30835773595E+02 -0.26793326751E+02  0.55104549078E+02  0.51100000000E-03 0.  1.
         23    2    1    0    0    0 -0.23042322943E+02 -0.71182419221E+01 -0.95543895064E+01  0.99059599588E+02  0.95602823688E+02 0.  0.
         11    1    3    3    0    0  0.13941241477E+02 -0.37954015517E+02  0.17238937244E+02  0.43955050510E+02  0.51100000000E-03 0. -1.
         22    1    1    0    0    0  0.23042322943E+02  0.71182419221E+01  0.95543895064E+01  0.25940400412E+02  0.00000000000E+00 0. -1.
</event>
<event>
 4    1  0.1282529E-003  0.9118800E+02  0.7818608E-02  0.1130116E+00
         25   -1    0    0    0    0  0.00000000000E+00  0.00000000000E+00  0.99999998245E-14  0.12500000000E+03  0.12500000000E+03 0.  0.
        -11    1    1    0    0    0  0.21948688825E+02  0.22929361925E+02  0.32794315575E+02  0.45639541121E+02  0.51100000000E-03 0.  1.
         11    1    1    0    0    0 -0.14559048425E+01  0.22169047514E+02 -0.14619739564E+02  0.26595546840E+02  0.51100000000E-03 0. -1.
         22    1    1    0    0    0 -0.20492783983E+02 -0.45098409439E+02 -0.18174576011E+02  0.52764912039E+02  0.00000000000E+00 0.  1.
</event>
<event>
 5    1  0.1282529E-003  0.9118800E+02  0.7818608E-02  0.1130116E+00
         25   -1    0    0    0    0  0.00000000000E+00  0.00000000000E+00  0.99999998245E-14  0.12500000000E+03  0.12500000000E+03 0.  0.
        -11    1    3    3    0    0 -0.22976083642E+02  0.10162323506E+02  0.18658793654E+02  0.31294149924E+02  0.51100000000E-03 0. -1.
         23    2    1    0    0    0  0.10731360156E+02 -0.23359003288E+02 -0.19889740562E+02  0.92497586166E+02  0.86599056239E+02 0.  0.
         11    1    3    3    0    0  0.33707443798E+02 -0.33521326794E+02 -0.38548534216E+02  0.61203436242E+02  0.51100000000E-03 0.  1.
         22    1    1    0    0    0 -0.10731360156E+02  0.23359003288E+02  0.19889740562E+02  0.32502413834E+02  0.00000000000E+00 0.  1.
</event>
<event>
 5    1  0.1282529E-003  0.9118800E+02  0.7818608E-02  0.1130116E+00
         25   -1    0    0    0    0  0.00000000000E+00  0.00000000000E+00  0.99999998245E-14  0.12500000000E+03  0.12500000000E+03 0.  0.
        -11    1    3    3    0    0  0.29964343118E+02  0.36427010056E+02  0.73579774896E+01  0.47738126829E+02  0.51100000000E-03 0. -1.
         23    2    1    0    0    0  0.20199826495E+02  0.14241195622E+02 -0.26100616538E+02  0.89054390716E+02  0.81477590041E+02 0.  0.
         11    1    3    3    0    0 -0.97645166231E+01 -0.22185814434E+02 -0.33458594028E+02  0.41316263887E+02  0.51100000000E-03 0.  1.
         22    1    1    0    0    0 -0.20199826495E+02 -0.14241195622E+02  0.26100616538E+02  0.35945609284E+02  0.00000000000E+00 0.  1.
</event>
<event>
 5    1  0.1282529E-003  0.9118800E+02  0.7818608E-02  0.1130116E+00
         25   -1    0    0    0    0  0.00000000000E+00  0.00000000000E+00  0.99999998245E-14  0.12500000000E+03  0.12500000000E+03 0.  0.
        -11    1    3    3    0    0 -0.13738511778E+02 -0.47874548713E+00  0.31721101315E+02  0.34571725036E+02  0.51100000000E-03 0. -1.
         23    2    1    0    0    0  0.18456632092E+02 -0.78021633579E+01 -0.20486032272E+02  0.96343438107E+02  0.91982930628E+02 0.  0.
         11    1    3    3    0    0  0.32195143870E+02 -0.73234178708E+01 -0.52207133587E+02  0.61771713071E+02  0.51100000000E-03 0.  1.
         22    1    1    0    0    0 -0.18456632092E+02  0.78021633579E+01  0.20486032272E+02  0.28656561893E+02  0.00000000000E+00 0.  1.
</event>
<event>
 5    1  0.1282529E-003  0.9118800E+02  0.7818608E-02  0.1130116E+00
         25   -1    0    0    0    0  0.00000000000E+00  0.00000000000E+00  0.99999998245E-14  0.12500000000E+03  0.12500000000E+03 0.  0.
        -11    1    3    3    0    0 -0.10547642252E+02 -0.47203498462E+02 -0.93887037247E+01  0.49270384431E+02  0.51100000000E-03 0.  1.
         23    2    1    0    0    0 -0.14523834491E+02 -0.13606808325E+02  0.21939205562E+02  0.95378795740E+02  0.90662555308E+02 0.  0.
         11    1    3    3    0    0 -0.39761922392E+01  0.33596690137E+02  0.31327909287E+02  0.46108411309E+02  0.51100000000E-03 0. -1.
         22    1    1    0    0    0  0.14523834491E+02  0.13606808325E+02 -0.21939205562E+02  0.29621204260E+02  0.00000000000E+00 0.  1.
</event>
<event>
 5    1  0.1282529E-003  0.9118800E+02  0.7818608E-02  0.1130116E+00
         25   -1    0    0    0    0  0.00000000000E+00  0.00000000000E+00  0.99999998245E-14  0.12500000000E+03  0.12500000000E+03 0.  0.
        -11    1    3    3    0    0  0.28245801529E+02 -0.39777911607E+02 -0.17487821431E+01  0.48817679124E+02  0.51100000000E-03 0. -1.
         23    2    1    0    0    0 -0.77805693306E+01 -0.16878212155E+02 -0.22112584826E+02  0.96114403030E+02  0.91671155537E+02 0.  0.
         11    1    3    3    0    0 -0.36026370859E+02  0.22899699452E+02 -0.20363802683E+02  0.47296723906E+02  0.51100000000E-03 0.  1.
         22    1    1    0    0    0  0.77805693306E+01  0.16878212155E+02  0.22112584826E+02  0.28885596970E+02  0.00000000000E+00 0. -1.
</event>
<event>
 5    1  0.1282529E-003  0.9118800E+02  0.7818608E-02  0.1130116E+00
         25   -1    0    0    0    0  0.00000000000E+00  0.00000000000E+00  0.99999998245E-14  0.12500000000E+03  0.12500000000E+03 0.  0.
        -11    1    3    3    0    0  0.77317222583E+01 -0.26393544971E+02  0.30274306875E+02  0.40901496332E+02  0.51100000000E-03 0.  1.
         23    2    1    0    0    0 -0.18924259699E+02 -0.35663582465E+02 -0.29794574967E+01  0.84516720904E+02  0.74190162595E+02 0.  0.
         11    1    3    3    0    0 -0.26655981958E+02 -0.92700374938E+01 -0.33253764371E+02  0.43615224571E+02  0.51100000000E-03 0. -1.
         22    1    1    0    0    0  0.18924259699E+02  0.35663582465E+02  0.29794574967E+01  0.40483279096E+02  0.00000000000E+00 0. -1.
</event>
<event>
 5    1  0.1282529E-003  0.9118800E+02  0.7818608E-02  0.1130116E+00
         25   -1    0    0    0    0  0.00000000000E+00  0.00000000000E+00  0.99999998245E-14  0.12500000000E+03  0.12500000000E+03 0.  0.
        -11    1    3    3    0    0 -0.21760596007E+02 -0.93205184926E+01  0.27766260430E+02  0.36487817447E+02  0.51100000000E-03 0. -1.
         23    2    1    0    0    0  0.11702762814E+02 -0.18990337906E+02 -0.19615582663E+02  0.95295477205E+02  0.90547607927E+02 0.  0.
         11    1    3    3    0    0  0.33463358820E+02 -0.96698194133E+01 -0.47381843093E+02  0.58807659758E+02  0.51100000000E-03 0.  1.
         22    1    1    0    0    0 -0.11702762814E+02  0.18990337906E+02  0.19615582663E+02  0.29704522795E+02  0.00000000000E+00 0.  1.
</event>
<event>
 5    1  0.1282529E-003  0.9118800E+02  0.7818608E-02  0.1130116E+00
         25   -1    0    0    0    0  0.00000000000E+00  0.00000000000E+00  0.99999998245E-14  0.12500000000E+03  0.12500000000E+03 0.  0.
        -11    1    3    3    0    0 -0.29349877292E+01 -0.27005038754E+02 -0.30207116487E+02  0.40624575786E+02  0.51100000000E-03 0.  1.
         23    2    1    0    0    0  0.97422487167E+01  0.12845294129E+02  0.15542122180E+02  0.10260646180E+03  0.10013298882E+03 0.  0.
         11    1    3    3    0    0  0.12677236446E+02  0.39850332883E+02  0.45749238667E+02  0.61981886013E+02  0.51100000000E-03 0. -1.
         22    1    1    0    0    0 -0.97422487167E+01 -0.12845294129E+02 -0.15542122180E+02  0.22393538202E+02  0.00000000000E+00 0. -1.
</event>
<event>
 5    1  0.1282529E-003  0.9118800E+02  0.7818608E-02  0.1130116E+00
         25   -1    0    0    0    0  0.00000000000E+00  0.00000000000E+00  0.99999998245E-14  0.12500000000E+03  0.12500000000E+03 0.  0.
        -11    1    3    3    0    0  0.33190349459E+02 -0.94913818821E+01  0.14478551418E+02  0.37434129864E+02  0.51100000000E-03 0.  1.
         23    2    1    0    0    0 -0.18747579356E+02 -0.37657771087E+01  0.27706856388E+02  0.91335141470E+02  0.84904566235E+02 0.  0.
         11    1    3    3    0    0 -0.51937928815E+02  0.57256047734E+01  0.13228304970E+02  0.53901011606E+02  0.51100000000E-03 0. -1.
         22    1    1    0    0    0  0.18747579356E+02  0.37657771087E+01 -0.27706856388E+02  0.33664858530E+02  0.00000000000E+00 0. -1.
</event>
<event>
 5    1  0.1282529E-003  0.9118800E+02  0.7818608E-02  0.1130116E+00
         25   -1    0    0    0    0  0.00000000000E+00  0.00000000000E+00  0.99999998245E-14  0.12500000000E+03  0.12500000000E+03 0.  0.
        -11    1    3    3    0    0  0.22570499705E+02  0.28713039508E+02 -0.20706344719E+02  0.41983554002E+02  0.51100000000E-03 0.  1.
         23    2    1    0    0    0 -0.25876726630E+02  0.14609646071E+02 -0.47361874840E+01  0.94908834996E+02  0.90012269992E+02 0.  0.
         11    1    3    3    0    0 -0.48447226335E+02 -0.14103393437E+02  0.15970157235E+02  0.52925280995E+02  0.51100000000E-03 0. -1.
         22    1    1    0    0    0  0.25876726630E+02 -0.14609646071E+02  0.47361874840E+01  0.30091165004E+02  0.00000000000E+00 0. -1.
</event>
<event>
 5    1  0.1282529E-003  0.9118800E+02  0.7818608E-02  0.1130116E+00
         25   -1    0    0    0    0  0.00000000000E+00  0.00000000000E+00  0.99999998245E-14  0.12500000000E+03  0.12500000000E+03 0.  0.
        -11    1    3    3    0    0  0.21518440247E+02  0.16107249371E+02 -0.22328426137E+02  0.34943459574E+02  0.51100000000E-03 0. -1.
         23    2    1    0    0    0 -0.92891594649E+01 -0.24318348345E+02  0.12059629901E+02  0.96310189559E+02  0.91937736483E+02 0.  0.
         11    1    3    3    0    0 -0.30807599712E+02 -0.40425597716E+02  0.34388056039E+02  0.61366729985E+02  0.51100000000E-03 0.  1.
         22    1    1    0    0    0  0.92891594649E+01  0.24318348345E+02 -0.12059629901E+02  0.28689810441E+02  0.00000000000E+00 0.  1.
</event>
<event>
 5    1  0.1282529E-003  0.9118800E+02  0.7818608E-02  0.1130116E+00
         25   -1    0    0    0    0  0.00000000000E+00  0.00000000000E+00  0.99999998245E-14  0.12500000000E+03  0.12500000000E+03 0.  0.
        -11    1    3    3    0    0 -0.23063607090E+02 -0.34036545242E+02  0.34931551614E+02  0.53950251922E+02  0.51100000000E-03 0.  1.
         23    2    1    0    0    0  0.81102941056E+00 -0.89732961111E+00  0.29869043190E+02  0.95106477119E+02  0.90286318342E+02 0.  0.
         11    1    3    3    0    0  0.23874636501E+02  0.33139215631E+02 -0.50625084245E+01  0.41156225197E+02  0.51100000000E-03 0. -1.
         22    1    1    0    0    0 -0.81102941056E+00  0.89732961111E+00 -0.29869043190E+02  0.29893522881E+02  0.00000000000E+00 0.  1.
</event>
<event>
 5    1  0.1282529E-003  0.9118800E+02  0.7818608E-02  0.1130116E+00
         25   -1    0    0    0    0  0.00000000000E+00  0.00000000000E+00  0.99999998245E-14  0.12500000000E+03  0.12500000000E+03 0.  0.
        -11    1    3    3    0    0  0.16686438079E+02  0.36610408979E+02 -0.11626058982E+02  0.41879881913E+02  0.51100000000E-03 0.  1.
         23    2    1    0    0    0 -0.10651966677E+02 -0.12901956236E+02 -0.19856994158E+02  0.99034155400E+02  0.95569549806E+02 0.  0.
         11    1    3    3    0    0 -0.27338404756E+02 -0.49512365214E+02 -0.82309351755E+01  0.57154273487E+02  0.51100000000E-03 0. -1.
         22    1    1    0    0    0  0.10651966677E+02  0.12901956236E+02  0.19856994158E+02  0.25965844600E+02  0.00000000000E+00 0. -1.
</event>
<event>
 5    1  0.1282529E-003  0.9118800E+02  0.7818608E-02  0.1130116E+00
         25   -1    0    0    0    0  0.00000000000E+00  0.00000000000E+00  0.99999998245E-14  0.12500000000E+03  0.12500000000E+03 0.  0.
        -11    1    3    3    0    0 -0.39495605629E+02 -0.21508058089E+02  0.21992048146E+02  0.50061458315E+02  0.51100000000E-03 0. -1.
         23    2    1    0    0    0 -0.25907049572E+02  0.12560865335E+02 -0.52286656930E+01  0.95737575281E+02  0.91155876499E+02 0.  0.
         11    1    3    3    0    0  0.13588556056E+02  0.34068923424E+02 -0.27220713839E+02  0.45676116966E+02  0.51100000000E-03 0.  1.
         22    1    1    0    0    0  0.25907049572E+02 -0.12560865335E+02  0.52286656930E+01  0.29262424719E+02  0.00000000000E+00 0. -1.
</event>
<event>
 5    1  0.1282529E-003  0.9118800E+02  0.7818608E-02  0.1130116E+00
         25   -1    0    0    0    0  0.00000000000E+00  0.00000000000E+00  0.99999998245E-14  0.12500000000E+03  0.12500000000E+03 0.  0.
        -11    1    3    3    0    0  0.29694116615E+02  0.23568983662E+02 -0.67262898902E+01  0.38502993759E+02  0.51100000000E-03 0.  1.
         23    2    1    0    0    0  0.40261506146E+01  0.65943616956E+01  0.34329678366E+02  0.89811616808E+02  0.82631133370E+02 0.  0.
         11    1    3    3    0    0 -0.25667966001E+02 -0.16974621966E+02  0.41055968256E+02  0.51308623050E+02  0.51100000000E-03 0. -1.
         22    1    1    0    0    0 -0.40261506146E+01 -0.65943616956E+01 -0.34329678366E+02  0.35188383192E+02  0.00000000000E+00 0. -1.
</event>
<event>
 5    1  0.1282529E-003  0.9118800E+02  0.7818608E-02  0.1130116E+00
         25   -1    0    0    0    0  0.00000000000E+00  0.00000000000E+00  0.99999998245E-14  0.12500000000E+03  0.12500000000E+03 0.  0.
        -11    1    3    3    0    0 -0.32228549242E+02 -0.14515303446E+02 -0.39197204561E+02  0.52780623964E+02  0.51100000000E-03 0. -1.
         23    2    1    0    0    0 -0.14469054179E+02  0.18038293395E+02 -0.10852156642E+02  0.99455864445E+02  0.96119540736E+02 0.  0.
         11    1    3    3    0    0  0.17759495064E+02  0.32553596841E+02  0.28345047919E+02  0.46675240481E+02  0.51100000000E-03 0.  1.
         22    1    1    0    0    0  0.14469054179E+02 -0.18038293395E+02  0.10852156642E+02  0.25544135555E+02  0.00000000000E+00 0. -1.
</event>
<event>
 5    1  0.1282529E-003  0.9118800E+02  0.7818608E-02  0.1130116E+00
         25   -1    0    0    0    0  0.00000000000E+00  0.00000000000E+00  0.99999998245E-14  0.12500000000E+03  0.12500000000E+03 0.  0.
        -11    1    3    3    0    0  0.11295720355E+02 -0.67883318611E+01 -0.31264413631E+02  0.33928429197E+02  0.51100000000E-03 0. -1.
         23    2    1    0    0    0 -0.20544903892E+02  0.41071404859E+01  0.20511134391E+02  0.95679899166E+02  0.91076752201E+02 0.  0.
         11    1    3    3    0    0 -0.31840624246E+02  0.10895472347E+02  0.51775548023E+02  0.61751469969E+02  0.51100000000E-03 0.  1.
         22    1    1    0    0    0  0.20544903892E+02 -0.41071404859E+01 -0.20511134391E+02  0.29320100834E+02  0.00000000000E+00 0.  1.
</event>
<event>
 5    1  0.1282529E-003  0.9118800E+02  0.7818608E-02  0.1130116E+00
         25   -1    0    0    0    0  0.00000000000E+00  0.00000000000E+00  0.99999998245E-14  0.12500000000E+03  0.12500000000E+03 0.  0.
        -11    1    3    3    0    0  0.42322831336E+02 -0.28298682502E+02  0.21298599078E+02  0.55187569312E+02  0.51100000000E-03 0.  1.
         23    2    1    0    0    0  0.28420099355E+02 -0.34448304839E+01 -0.72044251797E+01  0.95479284450E+02  0.90800997311E+02 0.  0.
         11    1    3    3    0    0 -0.13902731981E+02  0.24853852018E+02 -0.28503024258E+02  0.40291715138E+02  0.51100000000E-03 0. -1.
         22    1    1    0    0    0 -0.28420099355E+02  0.34448304839E+01  0.72044251797E+01  0.29520715550E+02  0.00000000000E+00 0. -1.
</event>
<event>
 5    1  0.1282529E-003  0.9118800E+02  0.7818608E-02  0.1130116E+00
         25   -1    0    0    0    0  0.00000000000E+00  0.00000000000E+00  0.99999998245E-14  0.12500000000E+03  0.12500000000E+03 0.  0.
        -11    1    3    3    0    0  0.31942147091E+02  0.24511163512E+01 -0.12807644875E+02  0.34501369533E+02  0.51100000000E-03 0.  1.
         23    2    1    0    0    0 -0.28196442318E+02 -0.45279461316E-01  0.27496163846E+01  0.96669772329E+02  0.92425337880E+02 0.  0.
         11    1    3    3    0    0 -0.60138589409E+02 -0.24963958126E+01  0.15557261259E+02  0.62168402796E+02  0.51100000000E-03 0. -1.
         22    1    1    0    0    0  0.28196442318E+02  0.45279461316E-01 -0.27496163846E+01  0.28330227671E+02  0.00000000000E+00 0. -1.
</event>
<event>
 5    1  0.1282529E-003  0.9118800E+02  0.7818608E-02  0.1130116E+00
         25   -1    0    0    0    0  0.00000000000E+00  0.00000000000E+00  0.99999998245E-14  0.12500000000E+03  0.12500000000E+03 0.  0.
        -11    1    3    3    0    0  0.18961947613E+02  0.40689872068E+02  0.36336636674E+02  0.57754413782E+02  0.51100000000E-03 0.  1.
         23    2    1    0    0    0  0.23066967833E+02  0.92124697091E+01  0.15838256620E+02  0.95541470235E+02  0.90886564237E+02 0.  0.
         11    1    3    3    0    0  0.41050202205E+01 -0.31477402359E+02 -0.20498380055E+02  0.37787056453E+02  0.51100000000E-03 0. -1.
         22    1    1    0    0    0 -0.23066967833E+02 -0.92124697091E+01 -0.15838256620E+02  0.29458529765E+02  0.00000000000E+00 0.  1.
</event>
<event>
 5    1  0.1282529E-003  0.9118800E+02  0.7818608E-02  0.1130116E+00
         25   -1    0    0    0    0  0.00000000000E+00  0.00000000000E+00  0.99999998245E-14  0.12500000000E+03  0.12500000000E+03 0.  0.
        -11    1    3    3    0    0  0.42623573543E+02 -0.45334458498E+02  0.19071345157E+01  0.62254472218E+02  0.51100000000E-03 0.  1.
         23    2    1    0    0    0  0.18301517160E+02 -0.23347168399E+02 -0.19651240836E+01  0.95269586022E+02  0.90511858370E+02 0.  0.
         11    1    3    3    0    0 -0.24322056383E+02  0.21987290099E+02 -0.38722585993E+01  0.33015113804E+02  0.51100000000E-03 0. -1.
         22    1    1    0    0    0 -0.18301517160E+02  0.23347168399E+02  0.19651240836E+01  0.29730413978E+02  0.00000000000E+00 0.  1.
</event>
<event>
 5    1  0.1282529E-003  0.9118800E+02  0.7818608E-02  0.1130116E+00
         25   -1    0    0    0    0  0.00000000000E+00  0.00000000000E+00  0.99999998245E-14  0.12500000000E+03  0.12500000000E+03 0.  0.
        -11    1    3    3    0    0  0.41294547970E+00  0.48265534084E+02 -0.19917510298E+02  0.52215318836E+02  0.51100000000E-03 0.  1.
         23    2    1    0    0    0  0.16301417504E+02  0.31381282764E+01 -0.18590302123E+02  0.10007644899E+03  0.96923228632E+02 0.  0.
         11    1    3    3    0    0  0.15888472025E+02 -0.45127405808E+02  0.13272081751E+01  0.47861130158E+02  0.51100000000E-03 0. -1.
         22    1    1    0    0    0 -0.16301417504E+02 -0.31381282764E+01  0.18590302123E+02  0.24923551006E+02  0.00000000000E+00 0.  1.
</event>
<event>
 5    1  0.1282529E-003  0.9118800E+02  0.7818608E-02  0.1130116E+00
         25   -1    0    0    0    0  0.00000000000E+00  0.00000000000E+00  0.99999998245E-14  0.12500000000E+03  0.12500000000E+03 0.  0.
        -11    1    3    3    0    0 -0.31216978626E+02  0.89267952568E+01  0.36380006403E+02  0.48761586256E+02  0.51100000000E-03 0.  1.
         23    2    1    0    0    0 -0.12890512210E+02 -0.24122771702E+02  0.24237542463E+02  0.88455070334E+02  0.80552886873E+02 0.  0.
         11    1    3    3    0    0  0.18326466416E+02 -0.33049566959E+02 -0.12142463940E+02  0.39693484078E+02  0.51100000000E-03 0. -1.
         22    1    1    0    0    0  0.12890512210E+02  0.24122771702E+02 -0.24237542463E+02  0.36544929666E+02  0.00000000000E+00 0. -1.
</event>
<event>
 5    1  0.1282529E-003  0.9118800E+02  0.7818608E-02  0.1130116E+00
         25   -1    0    0    0    0  0.00000000000E+00  0.00000000000E+00  0.99999998245E-14  0.12500000000E+03  0.12500000000E+03 0.  0.
        -11    1    3    3    0    0  0.37133170830E+00  0.35475126289E+02  0.35902334892E+02  0.50473756779E+02  0.51100000000E-03 0. -1.
         23    2    1    0    0    0 -0.37006361862E+01  0.28887527320E+02 -0.77943579036E+01  0.94851435225E+02  0.89932523629E+02 0.  0.
         11    1    3    3    0    0 -0.40719678945E+01 -0.65875989688E+01 -0.43696692796E+02  0.44377678446E+02  0.51100000000E-03 0.  1.
         22    1    1    0    0    0  0.37006361862E+01 -0.28887527320E+02  0.77943579036E+01  0.30148564775E+02  0.00000000000E+00 0.  1.
</event>
<event>
 5    1  0.1282529E-003  0.9118800E+02  0.7818608E-02  0.1130116E+00
         25   -1    0    0    0    0  0.00000000000E+00  0.00000000000E+00  0.99999998245E-14  0.12500000000E+03  0.12500000000E+03 0.  0.
        -11    1    3    3    0    0  0.50659301132E+02 -0.25410560776E+02 -0.21608137494E+02  0.60654538135E+02  0.51100000000E-03 0. -1.
         23    2    1    0    0    0  0.21776608694E+02 -0.18628732866E+02 -0.18846710761E+01  0.96280627453E+02  0.91897534588E+02 0.  0.
         11    1    3    3    0    0 -0.28882692438E+02  0.67818279100E+01  0.19723466418E+02  0.35626089318E+02  0.51100000000E-03 0.  1.
         22    1    1    0    0    0 -0.21776608694E+02  0.18628732866E+02  0.18846710761E+01  0.28719372547E+02  0.00000000000E+00 0. -1.
</event>
<event>
 5    1  0.1282529E-003  0.9118800E+02  0.7818608E-02  0.1130116E+00
         25   -1    0    0    0    0  0.00000000000E+00  0.00000000000E+00  0.99999998245E-14  0.12500000000E+03  0.12500000000E+03 0.  0.
        -11    1    3    3    0    0  0.50392861988E+02 -0.23779207798E+01 -0.16515551220E+02  0.53083504772E+02  0.51100000000E-03 0.  1.
         23    2    1    0    0    0  0.22969546195E+02  0.41967497750E-01  0.16976306719E+02  0.96437843157E+02  0.92111132820E+02 0.  0.
         11    1    3    3    0    0 -0.27423315793E+02  0.24198882776E+01  0.33491857939E+02  0.43354338385E+02  0.51100000000E-03 0. -1.
         22    1    1    0    0    0 -0.22969546195E+02 -0.41967497750E-01 -0.16976306719E+02  0.28562156843E+02  0.00000000000E+00 0.  1.
</event>
<event>
 5    1  0.1282529E-003  0.9118800E+02  0.7818608E-02  0.1130116E+00
         25   -1    0    0    0    0  0.00000000000E+00  0.00000000000E+00  0.99999998245E-14  0.12500000000E+03  0.12500000000E+03 0.  0.
        -11    1    3    3    0    0 -0.86145963288E+00 -0.49314033030E+01 -0.45934078764E+02  0.46206065007E+02  0.51100000000E-03 0. -1.
         23    2    1    0    0    0 -0.94932192331E+00  0.29309411702E+02 -0.16545294526E+02  0.91329692645E+02  0.84896543871E+02 0.  0.
         11    1    3    3    0    0 -0.87862290429E-01  0.34240815005E+02  0.29388784238E+02  0.45123627638E+02  0.51100000000E-03 0.  1.
         22    1    1    0    0    0  0.94932192331E+00 -0.29309411702E+02  0.16545294526E+02  0.33670307355E+02  0.00000000000E+00 0. -1.
</event>
<event>
 5    1  0.1282529E-003  0.9118800E+02  0.7818608E-02  0.1130116E+00
         25   -1    0    0    0    0  0.00000000000E+00  0.00000000000E+00  0.99999998245E-14  0.12500000000E+03  0.12500000000E+03 0.  0.
        -11    1    3    3    0    0 -0.46669570818E+01 -0.34702637813E+02  0.25483526698E+02  0.43306624121E+02  0.51100000000E-03 0.  1.
         23    2    1    0    0    0  0.26476076266E+01  0.19839958055E+02  0.16487479483E+02  0.99067959172E+02  0.95613753159E+02 0.  0.
         11    1    3    3    0    0  0.73145647084E+01  0.54542595868E+02 -0.89960472152E+01  0.55761335051E+02  0.51100000000E-03 0. -1.
         22    1    1    0    0    0 -0.26476076266E+01 -0.19839958055E+02 -0.16487479483E+02  0.25932040828E+02  0.00000000000E+00 0. -1.
</event>
<event>
 5    1  0.1282529E-003  0.9118800E+02  0.7818608E-02  0.1130116E+00
         25   -1    0    0    0    0  0.00000000000E+00  0.00000000000E+00  0.99999998245E-14  0.12500000000E+03  0.12500000000E+03 0.  0.
        -11    1    3    3    0    0 -0.20546403346E+02 -0.96337509818E+01 -0.52948156247E+02  0.57606172400E+02  0.51100000000E-03 0. -1.
         23    2    1    0    0    0  0.39570612064E+01 -0.15782518302E+02 -0.23667962503E+02  0.96278602639E+02  0.91894780372E+02 0.  0.
         11    1    3    3    0    0  0.24503464552E+02 -0.61487673201E+01  0.29280193744E+02  0.38672430238E+02  0.51100000000E-03 0.  1.
         22    1    1    0    0    0 -0.39570612064E+01  0.15782518302E+02  0.23667962503E+02  0.28721397361E+02  0.00000000000E+00 0. -1.
</event>
<event>
 5    1  0.1282529E-003  0.9118800E+02  0.7818608E-02  0.1130116E+00
         25   -1    0    0    0    0  0.00000000000E+00  0.00000000000E+00  0.99999998245E-14  0.12500000000E+03  0.12500000000E+03 0.  0.
        -11    1    3    3    0    0  0.15592280791E+02  0.33136773928E+02  0.63359379469E+01  0.37165967181E+02  0.51100000000E-03 0. -1.
         23    2    1    0    0    0  0.16044518152E+02 -0.22671781316E+02  0.14660094912E+02  0.93593716972E+02  0.88167053048E+02 0.  0.
         11    1    3    3    0    0  0.45223736098E+00 -0.55808555244E+02  0.83241569649E+01  0.56427749791E+02  0.51100000000E-03 0.  1.
         22    1    1    0    0    0 -0.16044518152E+02  0.22671781316E+02 -0.14660094912E+02  0.31406283028E+02  0.00000000000E+00 0.  1.
</event>
<event>
 5    1  0.1282529E-003  0.9118800E+02  0.7818608E-02  0.1130116E+00
         25   -1    0    0    0    0  0.00000000000E+00  0.00000000000E+00  0.99999998245E-14  0.12500000000E+03  0.12500000000E+03 0.  0.
        -11    1    3    3    0    0 -0.16605095879E+02  0.47407007334E+02 -0.75116278593E+01  0.50789547221E+02  0.51100000000E-03 0.  1.
         23    2    1    0    0    0  0.11540922993E+02  0.23895798967E+02 -0.22304544189E+02  0.90334530102E+02  0.83418418382E+02 0.  0.
         11    1    3    3    0    0  0.28146018872E+02 -0.23511208367E+02 -0.14792916330E+02  0.39544982881E+02  0.51100000000E-03 0. -1.
         22    1    1    0    0    0 -0.11540922993E+02 -0.23895798967E+02  0.22304544189E+02  0.34665469898E+02  0.00000000000E+00 0.  1.
</event>
<event>
 5    1  0.1282529E-003  0.9118800E+02  0.7818608E-02  0.1130116E+00
         25   -1    0    0    0    0  0.00000000000E+00  0.00000000000E+00  0.99999998245E-14  0.12500000000E+03  0.12500000000E+03 0.  0.
        -11    1    3    3    0    0 -0.57808562373E+02 -0.13361035533E+02 -0.20133310908E+01  0.59366662838E+02  0.51100000000E-03 0. -1.
         23    2    1    0    0    0 -0.28760842996E+02  0.47984920068E+01  0.74465580851E+01  0.94905767285E+02  0.90008009762E+02 0.  0.
         11    1    3    3    0    0  0.29047719377E+02  0.18159527540E+02  0.94598891758E+01  0.35539104448E+02  0.51100000000E-03 0.  1.
         22    1    1    0    0    0  0.28760842996E+02 -0.47984920068E+01 -0.74465580851E+01  0.30094232715E+02  0.00000000000E+00 0. -1.
</event>
<event>
 5    1  0.1282529E-003  0.9118800E+02  0.7818608E-02  0.1130116E+00
         25   -1    0    0    0    0  0.00000000000E+00  0.00000000000E+00  0.99999998245E-14  0.12500000000E+03  0.12500000000E+03 0.  0.
        -11    1    3    3    0    0 -0.30779778528E+02  0.94314177684E+01 -0.31016861520E+02  0.44703379136E+02  0.51100000000E-03 0. -1.
         23    2    1    0    0    0  0.17644082913E+02  0.16613366619E+02 -0.16197246683E+02  0.95850927761E+02  0.91311181902E+02 0.  0.
         11    1    3    3    0    0  0.48423861441E+02  0.71819488510E+01  0.14819614837E+02  0.51147548625E+02  0.51100000000E-03 0.  1.
         22    1    1    0    0    0 -0.17644082913E+02 -0.16613366619E+02  0.16197246683E+02  0.29149072239E+02  0.00000000000E+00 0.  1.
</event>
<event>
 5    1  0.1282529E-003  0.9118800E+02  0.7818608E-02  0.1130116E+00
         25   -1    0    0    0    0  0.00000000000E+00  0.00000000000E+00  0.99999998245E-14  0.12500000000E+03  0.12500000000E+03 0.  0.
        -11    1    3    3    0    0 -0.31666882625E+01  0.33782268131E+02  0.11326128219E+02  0.35770808424E+02  0.51100000000E-03 0. -1.
         23    2    1    0    0    0 -0.70377843177E+01 -0.15500244627E+02 -0.23313088578E+02  0.96133270178E+02  0.91696878597E+02 0.  0.
         11    1    3    3    0    0 -0.38710960552E+01 -0.49282512758E+02 -0.34639216797E+02  0.60362461754E+02  0.51100000000E-03 0.  1.
         22    1    1    0    0    0  0.70377843177E+01  0.15500244627E+02  0.23313088578E+02  0.28866729822E+02  0.00000000000E+00 0.  1.
</event>
<event>
 4    1  0.1282529E-003  0.9118800E+02  0.7818608E-02  0.1130116E+00
         25   -1    0    0    0    0  0.00000000000E+00  0.00000000000E+00  0.99999998245E-14  0.12500000000E+03  0.12500000000E+03 0.  0.
        -11    1    1    0    0    0 -0.11020197513E+02 -0.46583885139E+01 -0.10265757135E+02  0.15764869381E+02  0.51100000000E-03 0.  1.
         11    1    1    0    0    0  0.44426139430E+02 -0.33992780705E+02 -0.43231751198E+01  0.56105978719E+02  0.51100000000E-03 0. -1.
         22    1    1    0    0    0 -0.33405941917E+02  0.38651169219E+02  0.14588932255E+02  0.53129151900E+02  0.00000000000E+00 0. -1.
</event>
<event>
 5    1  0.1282529E-003  0.9118800E+02  0.7818608E-02  0.1130116E+00
         25   -1    0    0    0    0  0.00000000000E+00  0.00000000000E+00  0.99999998245E-14  0.12500000000E+03  0.12500000000E+03 0.  0.
        -11    1    3    3    0    0 -0.80987482196E+01  0.38501440737E+02 -0.98595354491E+01  0.40560585562E+02  0.51100000000E-03 0.  1.
         23    2    1    0    0    0  0.71658100484E+01 -0.14224295835E+02 -0.23020053888E+02  0.97007102568E+02  0.92880437348E+02 0.  0.
         11    1    3    3    0    0  0.15264558268E+02 -0.52725736573E+02 -0.13160518439E+02  0.56446517006E+02  0.51100000000E-03 0. -1.
         22    1    1    0    0    0 -0.71658100484E+01  0.14224295835E+02  0.23020053888E+02  0.27992897432E+02  0.00000000000E+00 0. -1.
</event>
<event>
 5    1  0.1282529E-003  0.9118800E+02  0.7818608E-02  0.1130116E+00
         25   -1    0    0    0    0  0.00000000000E+00  0.00000000000E+00  0.99999998245E-14  0.12500000000E+03  0.12500000000E+03 0.  0.
        -11    1    3    3    0    0 -0.11951966614E+00  0.12160615668E+02 -0.36288194529E+02  0.38271764015E+02  0.51100000000E-03 0. -1.
         23    2    1    0    0    0  0.11254103286E+02 -0.31285244541E+02 -0.10135803053E+02  0.90241463346E+02  0.83278843871E+02 0.  0.
         11    1    3    3    0    0  0.11373622952E+02 -0.43445860209E+02  0.26152391476E+02  0.51969699331E+02  0.51100000000E-03 0.  1.
         22    1    1    0    0    0 -0.11254103286E+02  0.31285244541E+02  0.10135803053E+02  0.34758536654E+02  0.00000000000E+00 0.  1.
</event>
<event>
 5    1  0.1282529E-003  0.9118800E+02  0.7818608E-02  0.1130116E+00
         25   -1    0    0    0    0  0.00000000000E+00  0.00000000000E+00  0.99999998245E-14  0.12500000000E+03  0.12500000000E+03 0.  0.
        -11    1    3    3    0    0 -0.10972782127E+02 -0.14154526527E+02  0.35227369992E+02  0.39518605310E+02  0.51100000000E-03 0. -1.
         23    2    1    0    0    0  0.10379535573E+02  0.28001469896E+02  0.19550599651E+02  0.89306260748E+02  0.81863088062E+02 0.  0.
         11    1    3    3    0    0  0.21352317700E+02  0.42155996423E+02 -0.15676770341E+02  0.49787655439E+02  0.51100000000E-03 0.  1.
         22    1    1    0    0    0 -0.10379535573E+02 -0.28001469896E+02 -0.19550599651E+02  0.35693739252E+02  0.00000000000E+00 0. -1.
</event>
<event>
 5    1  0.1282529E-003  0.9118800E+02  0.7818608E-02  0.1130116E+00
         25   -1    0    0    0    0  0.00000000000E+00  0.00000000000E+00  0.99999998245E-14  0.12500000000E+03  0.12500000000E+03 0.  0.
        -11    1    3    3    0    0 -0.10713179146E+02  0.52581082502E+02  0.18849291078E+02  0.56875638184E+02  0.51100000000E-03 0.  1.
         23    2    1    0    0    0 -0.35770142556E+01  0.14443796672E+02  0.24750305734E+02  0.96121012358E+02  0.91680167373E+02 0.  0.
         11    1    3    3    0    0  0.71361648901E+01 -0.38137285830E+02  0.59010146567E+01  0.39245374174E+02  0.51100000000E-03 0. -1.
         22    1    1    0    0    0  0.35770142556E+01 -0.14443796672E+02 -0.24750305734E+02  0.28878987642E+02  0.00000000000E+00 0.  1.
</event>
<event>
 5    1  0.1282529E-003  0.9118800E+02  0.7818608E-02  0.1130116E+00
         25   -1    0    0    0    0  0.00000000000E+00  0.00000000000E+00  0.99999998245E-14  0.12500000000E+03  0.12500000000E+03 0.  0.
        -11    1    3    3    0    0  0.50375581526E+02  0.30548700808E+02  0.18515841294E+02  0.61755637104E+02  0.51100000000E-03 0.  1.
         23    2    1    0    0    0  0.25696461842E+02  0.14096790938E+02  0.21972126699E+01  0.95608582725E+02  0.90978819959E+02 0.  0.
         11    1    3    3    0    0 -0.24679119683E+02 -0.16451909870E+02 -0.16318628624E+02  0.33852945620E+02  0.51100000000E-03 0. -1.
         22    1    1    0    0    0 -0.25696461842E+02 -0.14096790938E+02 -0.21972126699E+01  0.29391417275E+02  0.00000000000E+00 0.  1.
</event>
<event>
 5    1  0.1282529E-003  0.9118800E+02  0.7818608E-02  0.1130116E+00
         25   -1    0    0    0    0  0.00000000000E+00  0.00000000000E+00  0.99999998245E-14  0.12500000000E+03  0.12500000000E+03 0.  0.
        -11    1    3    3    0    0  0.10699738504E+02  0.39042378806E+02  0.15759726987E+02  0.43441463395E+02  0.51100000000E-03 0. -1.
         23    2    1    0    0    0 -0.15531848531E+02 -0.72308365219E+01  0.22130466039E+02  0.97012845042E+02  0.92888165341E+02 0.  0.
         11    1    3    3    0    0 -0.26231587035E+02 -0.46273215328E+02  0.63707390512E+01  0.53571381646E+02  0.51100000000E-03 0.  1.
         22    1    1    0    0    0  0.15531848531E+02  0.72308365219E+01 -0.22130466039E+02  0.27987154958E+02  0.00000000000E+00 0.  1.
</event>
<event>
 5    1  0.1282529E-003  0.9118800E+02  0.7818608E-02  0.1130116E+00
         25   -1    0    0    0    0  0.00000000000E+00  0.00000000000E+00  0.99999998245E-14  0.12500000000E+03  0.12500000000E+03 0.  0.
        -11    1    3    3    0    0  0.54977927460E+02  0.83359718442E+01 -0.16315740369E+02  0.57950533375E+02  0.51100000000E-03 0.  1.
         23    2    1    0    0    0  0.18392408235E+02  0.21216262972E+01 -0.22807640415E+02  0.95623641476E+02  0.90999507521E+02 0.  0.
         11    1    3    3    0    0 -0.36585519225E+02 -0.62143455470E+01 -0.64919000460E+01  0.37673108101E+02  0.51100000000E-03 0. -1.
         22    1    1    0    0    0 -0.18392408235E+02 -0.21216262972E+01  0.22807640415E+02  0.29376358524E+02  0.00000000000E+00 0.  1.
</event>
<event>
 5    1  0.1282529E-003  0.9118800E+02  0.7818608E-02  0.1130116E+00
         25   -1    0    0    0    0  0.00000000000E+00  0.00000000000E+00  0.99999998245E-14  0.12500000000E+03  0.12500000000E+03 0.  0.
        -11    1    3    3    0    0  0.50492425251E+02  0.35929764323E+02 -0.40594833377E+01  0.62104044773E+02  0.51100000000E-03 0.  1.
         23    2    1    0    0    0  0.21336272001E+02  0.18881845471E+02  0.20831747898E+01  0.96432532341E+02  0.92103925460E+02 0.  0.
         11    1    3    3    0    0 -0.29156153250E+02 -0.17047918852E+02  0.61426581275E+01  0.34328487567E+02  0.51100000000E-03 0. -1.
         22    1    1    0    0    0 -0.21336272001E+02 -0.18881845471E+02 -0.20831747898E+01  0.28567467659E+02  0.00000000000E+00 0.  1.
</event>
<event>
 5    1  0.1282529E-003  0.9118800E+02  0.7818608E-02  0.1130116E+00
         25   -1    0    0    0    0  0.00000000000E+00  0.00000000000E+00  0.99999998245E-14  0.12500000000E+03  0.12500000000E+03 0.  0.
        -11    1    3    3    0    0  0.27528266251E+02  0.17012863377E+02 -0.17725882317E+02  0.36897830116E+02  0.51100000000E-03 0.  1.
         23    2    1    0    0    0 -0.22075938445E+02  0.15393412094E+02  0.12835155865E+02  0.95183135305E+02  0.90392388100E+02 0.  0.
         11    1    3    3    0    0 -0.49604204696E+02 -0.16194512833E+01  0.30561038182E+02  0.58285305190E+02  0.51100000000E-03 0. -1.
         22    1    1    0    0    0  0.22075938445E+02 -0.15393412094E+02 -0.12835155865E+02  0.29816864695E+02  0.00000000000E+00 0. -1.
</event>
<event>
 5    1  0.1282529E-003  0.9118800E+02  0.7818608E-02  0.1130116E+00
         25   -1    0    0    0    0  0.00000000000E+00  0.00000000000E+00  0.99999998245E-14  0.12500000000E+03  0.12500000000E+03 0.  0.
        -11    1    3    3    0    0  0.20060814048E+02  0.22194821107E+02 -0.52124231122E+02  0.60099765511E+02  0.51100000000E-03 0.  1.
         23    2    1    0    0    0  0.11264788670E+02  0.20148648264E+02 -0.17092305002E+02  0.96277006059E+02  0.91892608597E+02 0.  0.
         11    1    3    3    0    0 -0.87960253775E+01 -0.20461728429E+01  0.35031926120E+02  0.36177240548E+02  0.51100000000E-03 0. -1.
         22    1    1    0    0    0 -0.11264788670E+02 -0.20148648264E+02  0.17092305002E+02  0.28722993941E+02  0.00000000000E+00 0.  1.
</event>
<event>
 5    1  0.1282529E-003  0.9118800E+02  0.7818608E-02  0.1130116E+00
         25   -1    0    0    0    0  0.00000000000E+00  0.00000000000E+00  0.99999998245E-14  0.12500000000E+03  0.12500000000E+03 0.  0.
        -11    1    3    3    0    0 -0.33588132840E+01 -0.14417357779E+02  0.48507070752E+02  0.50715655819E+02  0.51100000000E-03 0.  1.
         23    2    1    0    0    0  0.51390398642E+01  0.20069469699E+02  0.18943785537E+02  0.96927587294E+02  0.92773362682E+02 0.  0.
         11    1    3    3    0    0  0.84978531482E+01  0.34486827478E+02 -0.29563285215E+02  0.46211931474E+02  0.51100000000E-03 0. -1.
         22    1    1    0    0    0 -0.51390398642E+01 -0.20069469699E+02 -0.18943785537E+02  0.28072412706E+02  0.00000000000E+00 0.  1.
</event>
<event>
 5    1  0.1282529E-003  0.9118800E+02  0.7818608E-02  0.1130116E+00
         25   -1    0    0    0    0  0.00000000000E+00  0.00000000000E+00  0.99999998245E-14  0.12500000000E+03  0.12500000000E+03 0.  0.
        -11    1    3    3    0    0 -0.14062487050E+02 -0.14772796640E+02 -0.36144381192E+02  0.41501871700E+02  0.51100000000E-03 0. -1.
         23    2    1    0    0    0 -0.22381818675E+01 -0.24574061781E+02  0.15820064399E+02  0.95688425357E+02  0.91088453380E+02 0.  0.
         11    1    3    3    0    0  0.11824305182E+02 -0.98012651414E+01  0.51964445591E+02  0.54186553657E+02  0.51100000000E-03 0.  1.
         22    1    1    0    0    0  0.22381818675E+01  0.24574061781E+02 -0.15820064399E+02  0.29311574643E+02  0.00000000000E+00 0.  1.
</event>
<event>
 5    1  0.1282529E-003  0.9118800E+02  0.7818608E-02  0.1130116E+00
         25   -1    0    0    0    0  0.00000000000E+00  0.00000000000E+00  0.99999998245E-14  0.12500000000E+03  0.12500000000E+03 0.  0.
        -11    1    3    3    0    0  0.90527047341E+01  0.15444074168E+01  0.58943001607E+02  0.59654120528E+02  0.51100000000E-03 0.  1.
         23    2    1    0    0    0 -0.39780770679E+01  0.11250123942E+02  0.26435350042E+02  0.95996239594E+02  0.91509889621E+02 0.  0.
         11    1    3    3    0    0 -0.13030781802E+02  0.97057165249E+01 -0.32507651565E+02  0.36342119065E+02  0.51100000000E-03 0. -1.
         22    1    1    0    0    0  0.39780770679E+01 -0.11250123942E+02 -0.26435350042E+02  0.29003760406E+02  0.00000000000E+00 0.  1.
</event>
<event>
 5    1  0.1282529E-003  0.9118800E+02  0.7818608E-02  0.1130116E+00
         25   -1    0    0    0    0  0.00000000000E+00  0.00000000000E+00  0.99999998245E-14  0.12500000000E+03  0.12500000000E+03 0.  0.
        -11    1    3    3    0    0 -0.59710418954E+02 -0.70750365165E+00 -0.99540643134E+01  0.60538566961E+02  0.51100000000E-03 0.  1.
         23    2    1    0    0    0 -0.27768737858E+02 -0.71593434648E+01  0.41089184937E+01  0.96030322538E+02  0.91556434151E+02 0.  0.
         11    1    3    3    0    0  0.31941681096E+02 -0.64518398132E+01  0.14062982807E+02  0.35491755577E+02  0.51100000000E-03 0. -1.
         22    1    1    0    0    0  0.27768737858E+02  0.71593434648E+01 -0.41089184937E+01  0.28969677462E+02  0.00000000000E+00 0.  1.
</event>
<event>
 5    1  0.1282529E-003  0.9118800E+02  0.7818608E-02  0.1130116E+00
         25   -1    0    0    0    0  0.00000000000E+00  0.00000000000E+00  0.99999998245E-14  0.12500000000E+03  0.12500000000E+03 0.  0.
        -11    1    3    3    0    0  0.27159862405E+02  0.33430638939E+02  0.12122149152E+02  0.44746086377E+02  0.51100000000E-03 0. -1.
         23    2    1    0    0    0  0.21291267129E+02 -0.17764051974E+02  0.25860344149E+01  0.97150993330E+02  0.93073886416E+02 0.  0.
         11    1    3    3    0    0 -0.58685952758E+01 -0.51194690913E+02 -0.95361147376E+01  0.52404906953E+02  0.51100000000E-03 0.  1.
         22    1    1    0    0    0 -0.21291267129E+02  0.17764051974E+02 -0.25860344149E+01  0.27849006670E+02  0.00000000000E+00 0.  1.
</event>
<event>
 5    1  0.1282529E-003  0.9118800E+02  0.7818608E-02  0.1130116E+00
         25   -1    0    0    0    0  0.00000000000E+00  0.00000000000E+00  0.99999998245E-14  0.12500000000E+03  0.12500000000E+03 0.  0.
        -11    1    3    3    0    0  0.83110162479E+01  0.14377341657E+02  0.37017769228E+02  0.40572110902E+02  0.51100000000E-03 0.  1.
         23    2    1    0    0    0  0.21710325731E+02 -0.19457113857E+02 -0.41885389353E+01  0.95547302646E+02  0.90894585436E+02 0.  0.
         11    1    3    3    0    0  0.13399309483E+02 -0.33834455514E+02 -0.41206308163E+02  0.54975191744E+02  0.51100000000E-03 0. -1.
         22    1    1    0    0    0 -0.21710325731E+02  0.19457113857E+02  0.41885389353E+01  0.29452697354E+02  0.00000000000E+00 0. -1.
</event>
<event>
 5    1  0.1282529E-003  0.9118800E+02  0.7818608E-02  0.1130116E+00
         25   -1    0    0    0    0  0.00000000000E+00  0.00000000000E+00  0.99999998245E-14  0.12500000000E+03  0.12500000000E+03 0.  0.
        -11    1    3    3    0    0  0.75573206804E+01  0.57000935810E+01  0.30357035228E+02  0.31798643851E+02  0.51100000000E-03 0.  1.
         23    2    1    0    0    0  0.11460858837E+02  0.12695191408E+01 -0.30215861806E+02  0.92658675525E+02  0.86831266726E+02 0.  0.
         11    1    3    3    0    0  0.39035381569E+01 -0.44305744402E+01 -0.60572897034E+02  0.60860031674E+02  0.51100000000E-03 0. -1.
         22    1    1    0    0    0 -0.11460858837E+02 -0.12695191408E+01  0.30215861806E+02  0.32341324475E+02  0.00000000000E+00 0. -1.
</event>
<event>
 5    1  0.1282529E-003  0.9118800E+02  0.7818608E-02  0.1130116E+00
         25   -1    0    0    0    0  0.00000000000E+00  0.00000000000E+00  0.99999998245E-14  0.12500000000E+03  0.12500000000E+03 0.  0.
        -11    1    3    3    0    0 -0.18218635233E+02 -0.33210336887E+02 -0.42616585619E+02  0.57017703531E+02  0.51100000000E-03 0. -1.
         23    2    1    0    0    0 -0.53371628206E+01  0.71209551845E+00 -0.28569292360E+02  0.95927730516E+02  0.91416260201E+02 0.  0.
         11    1    3    3    0    0  0.12881472412E+02  0.33922432406E+02  0.14047293259E+02  0.38910026985E+02  0.51100000000E-03 0.  1.
         22    1    1    0    0    0  0.53371628206E+01 -0.71209551845E+00  0.28569292360E+02  0.29072269484E+02  0.00000000000E+00 0. -1.
</event>
