<event>
 4    1  0.1977788E-002  0.9118800E+02  0.7818608E-02  0.1130116E+00
         25   -1    0    0    0    0  0.00000000000E+00  0.00000000000E+00  0.99999998245E-14  0.12500000000E+03  0.12500000000E+03 0.  0.
        -11    1    1    0    0    0 -0.66901787676E+01  0.93833387629E+01 -0.80394281871E-01  0.11524408956E+02  0.51100000000E-03 0. -1.
         11    1    1    0    0    0 -0.29460904875E+02  0.41598726984E+02 -0.33810244166E+00  0.50975614918E+02  0.51100000000E-03 0.  1.
         22    1    1    0    0    0  0.36151083643E+02 -0.50982065746E+02  0.41849672353E+00  0.62499976127E+02  0.00000000000E+00 0.  1.
</event>
<event>
 4    1  0.1977788E-002  0.9118800E+02  0.7818608E-02  0.1130116E+00
         25   -1    0    0    0    0  0.00000000000E+00  0.00000000000E+00  0.99999998245E-14  0.12500000000E+03  0.12500000000E+03 0.  0.
        -11    1    1    0    0    0 -0.15405529657E+01 -0.15958780720E+01  0.27742077074E+01  0.35519514250E+01  0.51100000000E-03 0.  1.
         11    1    1    0    0    0 -0.15511474840E+02 -0.25716219453E+02  0.50758901413E+02  0.58977926952E+02  0.51100000000E-03 0. -1.
         22    1    1    0    0    0  0.17052027806E+02  0.27312097525E+02 -0.53533109120E+02  0.62470121623E+02  0.00000000000E+00 0. -1.
</event>
<event>
 4    1  0.1977788E-002  0.9118800E+02  0.7818608E-02  0.1130116E+00
         25   -1    0    0    0    0  0.00000000000E+00  0.00000000000E+00  0.99999998245E-14  0.12500000000E+03  0.12500000000E+03 0.  0.
        -11    1    1    0    0    0 -0.22659856714E+01 -0.27596653382E+02 -0.41431461736E+02  0.49832479276E+02  0.51100000000E-03 0. -1.
         11    1    1    0    0    0  0.22214468887E+01 -0.14712938381E+02 -0.14212727795E+01  0.14947421137E+02  0.51100000000E-03 0.  1.
         22    1    1    0    0    0  0.44538782795E-01  0.42309591763E+02  0.42852734515E+02  0.60220099587E+02  0.00000000000E+00 0. -1.
</event>
<event>
 4    1  0.1977788E-002  0.9118800E+02  0.7818608E-02  0.1130116E+00
         25   -1    0    0    0    0  0.00000000000E+00  0.00000000000E+00  0.99999998245E-14  0.12500000000E+03  0.12500000000E+03 0.  0.
        -11    1    1    0    0    0 -0.85881992671E+01  0.24760915997E+02 -0.15179689940E+02  0.30286682133E+02  0.51100000000E-03 0.  1.
         11    1    1    0    0    0 -0.88024088301E+01  0.26469257722E+02 -0.16112886844E+02  0.32213803381E+02  0.51100000000E-03 0. -1.
         22    1    1    0    0    0  0.17390608097E+02 -0.51230173719E+02  0.31292576784E+02  0.62499514486E+02  0.00000000000E+00 0.  1.
</event>
<event>
 4    1  0.1977788E-002  0.9118800E+02  0.7818608E-02  0.1130116E+00
         25   -1    0    0    0    0  0.00000000000E+00  0.00000000000E+00  0.99999998245E-14  0.12500000000E+03  0.12500000000E+03 0.  0.
        -11    1    1    0    0    0  0.99229951337E+00 -0.23756645358E+02 -0.48077901635E+01  0.24258559387E+02  0.51100000000E-03 0. -1.
         11    1    1    0    0    0 -0.28195410321E+00 -0.14369595868E+02  0.43862819761E+02  0.46157466798E+02  0.51100000000E-03 0.  1.
         22    1    1    0    0    0 -0.71034541015E+00  0.38126241226E+02 -0.39055029598E+02  0.54583973816E+02  0.00000000000E+00 0.  1.
</event>
<event>
 4    1  0.1977788E-002  0.9118800E+02  0.7818608E-02  0.1130116E+00
         25   -1    0    0    0    0  0.00000000000E+00  0.00000000000E+00  0.99999998245E-14  0.12500000000E+03  0.12500000000E+03 0.  0.
        -11    1    1    0    0    0 -0.39003642344E+02 -0.15500114749E+02  0.54191138579E+01  0.42319079250E+02  0.51100000000E-03 0. -1.
         11    1    1    0    0    0 -0.18600698058E+02 -0.73889829395E+01  0.25858322775E+01  0.20180920840E+02  0.51100000000E-03 0.  1.
         22    1    1    0    0    0  0.57604340402E+02  0.22889097689E+02 -0.80049461354E+01  0.62499999910E+02  0.00000000000E+00 0.  1.
</event>
<event>
 4    1  0.1977788E-002  0.9118800E+02  0.7818608E-02  0.1130116E+00
         25   -1    0    0    0    0  0.00000000000E+00  0.00000000000E+00  0.99999998245E-14  0.12500000000E+03  0.12500000000E+03 0.  0.
        -11    1    1    0    0    0 -0.75152409866E+01  0.28400830958E+01 -0.56627924336E+00  0.80539177747E+01  0.51100000000E-03 0. -1.
         11    1    1    0    0    0 -0.24914383022E+02  0.42314662613E+02 -0.25741020748E+02  0.55442378221E+02  0.51100000000E-03 0.  1.
         22    1    1    0    0    0  0.32429624009E+02 -0.45154745708E+02  0.26307299992E+02  0.61503704004E+02  0.00000000000E+00 0.  1.
</event>
<event>
 4    1  0.1977788E-002  0.9118800E+02  0.7818608E-02  0.1130116E+00
         25   -1    0    0    0    0  0.00000000000E+00  0.00000000000E+00  0.99999998245E-14  0.12500000000E+03  0.12500000000E+03 0.  0.
        -11    1    1    0    0    0  0.58363144252E+02 -0.76109088684E+01 -0.12158766859E+02  0.60100067825E+02  0.51100000000E-03 0.  1.
         11    1    1    0    0    0  0.23255652385E+01 -0.28452214990E+00 -0.52082614497E+00  0.24000972202E+01  0.51100000000E-03 0. -1.
         22    1    1    0    0    0 -0.60688709491E+02  0.78954310183E+01  0.12679593004E+02  0.62499834955E+02  0.00000000000E+00 0.  1.
</event>
<event>
 4    1  0.1977788E-002  0.9118800E+02  0.7818608E-02  0.1130116E+00
         25   -1    0    0    0    0  0.00000000000E+00  0.00000000000E+00  0.99999998245E-14  0.12500000000E+03  0.12500000000E+03 0.  0.
        -11    1    1    0    0    0  0.21107671593E+01 -0.48567098871E+00  0.11229131926E+01  0.24397025657E+01  0.51100000000E-03 0. -1.
         11    1    1    0    0    0  0.50914713358E+02 -0.21318264138E+02  0.23717003563E+02  0.60077222642E+02  0.51100000000E-03 0.  1.
         22    1    1    0    0    0 -0.53025480517E+02  0.21803935126E+02 -0.24839916756E+02  0.62483074792E+02  0.00000000000E+00 0.  1.
</event>
<event>
 4    1  0.1977788E-002  0.9118800E+02  0.7818608E-02  0.1130116E+00
         25   -1    0    0    0    0  0.00000000000E+00  0.00000000000E+00  0.99999998245E-14  0.12500000000E+03  0.12500000000E+03 0.  0.
        -11    1    1    0    0    0 -0.12233134551E+02 -0.58036259756E+02 -0.32613858038E+01  0.59401125115E+02  0.51100000000E-03 0. -1.
         11    1    1    0    0    0 -0.43190884344E+00 -0.30477037266E+01 -0.42280637996E+00  0.31070578930E+01  0.51100000000E-03 0.  1.
         22    1    1    0    0    0  0.12665043394E+02  0.61083963482E+02  0.36841921837E+01  0.62491816992E+02  0.00000000000E+00 0. -1.
</event>
<event>
 4    1  0.1977788E-002  0.9118800E+02  0.7818608E-02  0.1130116E+00
         25   -1    0    0    0    0  0.00000000000E+00  0.00000000000E+00  0.99999998245E-14  0.12500000000E+03  0.12500000000E+03 0.  0.
        -11    1    1    0    0    0 -0.16257414222E+02  0.18109788139E+02 -0.86086881218E+01  0.25814287808E+02  0.51100000000E-03 0.  1.
         11    1    1    0    0    0 -0.23104331218E+02  0.25736362285E+02 -0.12234010561E+02  0.36685712197E+02  0.51100000000E-03 0.  1.
         22    1    1    0    0    0  0.39361745440E+02 -0.43846150424E+02  0.20842698682E+02  0.62499999995E+02  0.00000000000E+00 0.  1.
</event>
<event>
 4    1  0.1977788E-002  0.9118800E+02  0.7818608E-02  0.1130116E+00
         25   -1    0    0    0    0  0.00000000000E+00  0.00000000000E+00  0.99999998245E-14  0.12500000000E+03  0.12500000000E+03 0.  0.
        -11    1    1    0    0    0 -0.87162789684E+01  0.30401330737E+01 -0.15054679926E+02  0.17659538954E+02  0.51100000000E-03 0.  1.
         11    1    1    0    0    0 -0.22065347343E+02  0.74486834275E+01 -0.38318620737E+02  0.44840596937E+02  0.51100000000E-03 0. -1.
         22    1    1    0    0    0  0.30781626312E+02 -0.10488816501E+02  0.53373300663E+02  0.62499864109E+02  0.00000000000E+00 0. -1.
</event>
<event>
 4    1  0.1977788E-002  0.9118800E+02  0.7818608E-02  0.1130116E+00
         25   -1    0    0    0    0  0.00000000000E+00  0.00000000000E+00  0.99999998245E-14  0.12500000000E+03  0.12500000000E+03 0.  0.
        -11    1    1    0    0    0  0.10922085232E+02  0.35004416146E+01  0.32852274550E+01  0.11930538839E+02  0.51100000000E-03 0. -1.
         11    1    1    0    0    0  0.46617815676E+02  0.13912980285E+02  0.13804763411E+02  0.50570379195E+02  0.51100000000E-03 0.  1.
         22    1    1    0    0    0 -0.57539900908E+02 -0.17413421900E+02 -0.17089990866E+02  0.62499081966E+02  0.00000000000E+00 0.  1.
</event>
<event>
 4    1  0.1977788E-002  0.9118800E+02  0.7818608E-02  0.1130116E+00
         25   -1    0    0    0    0  0.00000000000E+00  0.00000000000E+00  0.99999998245E-14  0.12500000000E+03  0.12500000000E+03 0.  0.
        -11    1    1    0    0    0  0.25940256051E+00 -0.80737860213E-01 -0.30763658492E-01  0.27341352248E+00  0.51100000000E-03 0. -1.
         11    1    1    0    0    0  0.61997218415E+02  0.41360097830E+01 -0.35412274932E+01  0.62235857514E+02  0.51100000000E-03 0.  1.
         22    1    1    0    0    0 -0.62256620975E+02 -0.40552719228E+01  0.35719911517E+01  0.62490728964E+02  0.00000000000E+00 0.  1.
</event>
<event>
 4    1  0.1977788E-002  0.9118800E+02  0.7818608E-02  0.1130116E+00
         25   -1    0    0    0    0  0.00000000000E+00  0.00000000000E+00  0.99999998245E-14  0.12500000000E+03  0.12500000000E+03 0.  0.
        -11    1    1    0    0    0  0.20390718235E+02  0.92379213090E+00  0.11635944137E+01  0.20444772786E+02  0.51100000000E-03 0. -1.
         11    1    1    0    0    0  0.40998839895E+02  0.96998663760E+01  0.19469485621E+01  0.42175619609E+02  0.51100000000E-03 0.  1.
         22    1    1    0    0    0 -0.61389558130E+02 -0.10623658507E+02 -0.31105429759E+01  0.62379607606E+02  0.00000000000E+00 0.  1.
</event>
<event>
 4    1  0.1977788E-002  0.9118800E+02  0.7818608E-02  0.1130116E+00
         25   -1    0    0    0    0  0.00000000000E+00  0.00000000000E+00  0.99999998245E-14  0.12500000000E+03  0.12500000000E+03 0.  0.
        -11    1    1    0    0    0 -0.11928268491E+01  0.26564101557E+00 -0.42263952770E+01  0.43995247857E+01  0.51100000000E-03 0.  1.
         11    1    1    0    0    0 -0.15760935631E+02  0.34997407395E+01 -0.55812274184E+02  0.58100475274E+02  0.51100000000E-03 0. -1.
         22    1    1    0    0    0  0.16953762480E+02 -0.37653817551E+01  0.60038669461E+02  0.62499999941E+02  0.00000000000E+00 0. -1.
</event>
<event>
 4    1  0.1977788E-002  0.9118800E+02  0.7818608E-02  0.1130116E+00
         25   -1    0    0    0    0  0.00000000000E+00  0.00000000000E+00  0.99999998245E-14  0.12500000000E+03  0.12500000000E+03 0.  0.
        -11    1    1    0    0    0 -0.12885187956E+02  0.57437345819E+02  0.19679969703E+02  0.62067527510E+02  0.51100000000E-03 0. -1.
         11    1    1    0    0    0  0.14983361529E+00  0.44390155707E+00  0.44515412485E-01  0.47061724120E+00  0.51100000000E-03 0.  1.
         22    1    1    0    0    0  0.12735354341E+02 -0.57881247376E+02 -0.19724485116E+02  0.62461855249E+02  0.00000000000E+00 0. -1.
</event>
<event>
 4    1  0.1977788E-002  0.9118800E+02  0.7818608E-02  0.1130116E+00
         25   -1    0    0    0    0  0.00000000000E+00  0.00000000000E+00  0.99999998245E-14  0.12500000000E+03  0.12500000000E+03 0.  0.
        -11    1    1    0    0    0  0.13565243051E+01 -0.63875091943E+00  0.61756345797E+00  0.16215874362E+01  0.51100000000E-03 0. -1.
         11    1    1    0    0    0  0.50324625740E+02 -0.22523501477E+02  0.25815248350E+02  0.60879414602E+02  0.51100000000E-03 0.  1.
         22    1    1    0    0    0 -0.51681150045E+02  0.23162252396E+02 -0.26432811808E+02  0.62498997961E+02  0.00000000000E+00 0.  1.
</event>
<event>
 4    1  0.1977788E-002  0.9118800E+02  0.7818608E-02  0.1130116E+00
         25   -1    0    0    0    0  0.00000000000E+00  0.00000000000E+00  0.99999998245E-14  0.12500000000E+03  0.12500000000E+03 0.  0.
        -11    1    1    0    0    0  0.22401704286E+01  0.22691360743E+02 -0.69431684288E+01  0.23835347784E+02  0.51100000000E-03 0. -1.
         11    1    1    0    0    0  0.36252930524E+01  0.36802312348E+02 -0.11287272607E+02  0.38664653975E+02  0.51100000000E-03 0.  1.
         22    1    1    0    0    0 -0.58654634810E+01 -0.59493673091E+02  0.18230441036E+02  0.62499998240E+02  0.00000000000E+00 0. -1.
</event>
<event>
 4    1  0.1977788E-002  0.9118800E+02  0.7818608E-02  0.1130116E+00
         25   -1    0    0    0    0  0.00000000000E+00  0.00000000000E+00  0.99999998245E-14  0.12500000000E+03  0.12500000000E+03 0.  0.
        -11    1    1    0    0    0 -0.30320105130E+02 -0.11178858159E+01  0.34743164503E+02  0.46126412431E+02  0.51100000000E-03 0. -1.
         11    1    1    0    0    0 -0.10846884946E+02 -0.17312239317E+00  0.12265082770E+02  0.16374282886E+02  0.51100000000E-03 0.  1.
         22    1    1    0    0    0  0.41166990076E+02  0.12910082091E+01 -0.47008247274E+02  0.62499304683E+02  0.00000000000E+00 0. -1.
</event>
<event>
 4    1  0.1977788E-002  0.9118800E+02  0.7818608E-02  0.1130116E+00
         25   -1    0    0    0    0  0.00000000000E+00  0.00000000000E+00  0.99999998245E-14  0.12500000000E+03  0.12500000000E+03 0.  0.
        -11    1    1    0    0    0  0.99129438143E+01  0.41649460647E+01 -0.19433466836E+01  0.10926565214E+02  0.51100000000E-03 0. -1.
         11    1    1    0    0    0  0.46787177736E+02  0.19664310252E+02 -0.91702825232E+01  0.51573434829E+02  0.51100000000E-03 0.  1.
         22    1    1    0    0    0 -0.56700121551E+02 -0.23829256317E+02  0.11113629207E+02  0.62499999957E+02  0.00000000000E+00 0.  1.
</event>
<event>
 4    1  0.1977788E-002  0.9118800E+02  0.7818608E-02  0.1130116E+00
         25   -1    0    0    0    0  0.00000000000E+00  0.00000000000E+00  0.99999998245E-14  0.12500000000E+03  0.12500000000E+03 0.  0.
        -11    1    1    0    0    0 -0.35364718428E+02  0.11044639489E+01 -0.13706963068E+02  0.37944222049E+02  0.51100000000E-03 0. -1.
         11    1    1    0    0    0 -0.23360200816E+02  0.10848487366E+01 -0.75340796433E+01  0.24569050354E+02  0.51100000000E-03 0.  1.
         22    1    1    0    0    0  0.58724919244E+02 -0.21893126855E+01  0.21241042711E+02  0.62486727597E+02  0.00000000000E+00 0.  1.
</event>
<event>
 4    1  0.1977788E-002  0.9118800E+02  0.7818608E-02  0.1130116E+00
         25   -1    0    0    0    0  0.00000000000E+00  0.00000000000E+00  0.99999998245E-14  0.12500000000E+03  0.12500000000E+03 0.  0.
        -11    1    1    0    0    0 -0.84727668971E+01  0.28121640913E+02 -0.54146542680E+02  0.61599209012E+02  0.51100000000E-03 0.  1.
         11    1    1    0    0    0  0.48738172587E-01  0.10394820528E+01 -0.28418317731E+00  0.10787301271E+01  0.51100000000E-03 0. -1.
         22    1    1    0    0    0  0.84240287245E+01 -0.29161122965E+02  0.54430725857E+02  0.62322060861E+02  0.00000000000E+00 0.  1.
</event>
<event>
 4    1  0.1977788E-002  0.9118800E+02  0.7818608E-02  0.1130116E+00
         25   -1    0    0    0    0  0.00000000000E+00  0.00000000000E+00  0.99999998245E-14  0.12500000000E+03  0.12500000000E+03 0.  0.
        -11    1    1    0    0    0  0.38897370883E+02 -0.32136680503E+02 -0.26065898863E+01  0.50522925554E+02  0.51100000000E-03 0.  1.
         11    1    1    0    0    0  0.13968465912E+02  0.45831098937E+01  0.21675741623E+01  0.14860057680E+02  0.51100000000E-03 0. -1.
         22    1    1    0    0    0 -0.52865836795E+02  0.27553570610E+02  0.43901572394E+00  0.59617016767E+02  0.00000000000E+00 0.  1.
</event>
<event>
 4    1  0.1977788E-002  0.9118800E+02  0.7818608E-02  0.1130116E+00
         25   -1    0    0    0    0  0.00000000000E+00  0.00000000000E+00  0.99999998245E-14  0.12500000000E+03  0.12500000000E+03 0.  0.
        -11    1    1    0    0    0  0.36758698495E+02 -0.22380492187E+02 -0.13008257207E+02  0.44958904584E+02  0.51100000000E-03 0.  1.
         11    1    1    0    0    0  0.14336470884E+02 -0.87371426979E+01 -0.50811416408E+01  0.17541096333E+02  0.51100000000E-03 0. -1.
         22    1    1    0    0    0 -0.51095169379E+02  0.31117634885E+02  0.18089398847E+02  0.62499999083E+02  0.00000000000E+00 0.  1.
</event>
<event>
 4    1  0.1977788E-002  0.9118800E+02  0.7818608E-02  0.1130116E+00
         25   -1    0    0    0    0  0.00000000000E+00  0.00000000000E+00  0.99999998245E-14  0.12500000000E+03  0.12500000000E+03 0.  0.
        -11    1    1    0    0    0 -0.17567744537E+01  0.67949589013E+00 -0.38876154342E+01  0.43198987455E+01  0.51100000000E-03 0.  1.
         11    1    1    0    0    0 -0.23922477285E+02  0.84760606800E+01 -0.52352782174E+02  0.58180257182E+02  0.51100000000E-03 0. -1.
         22    1    1    0    0    0  0.25679251739E+02 -0.91555565702E+01  0.56240397608E+02  0.62499844073E+02  0.00000000000E+00 0. -1.
</event>
<event>
 4    1  0.1977788E-002  0.9118800E+02  0.7818608E-02  0.1130116E+00
         25   -1    0    0    0    0  0.00000000000E+00  0.00000000000E+00  0.99999998245E-14  0.12500000000E+03  0.12500000000E+03 0.  0.
        -11    1    1    0    0    0 -0.12200225098E+02 -0.31073816949E+01  0.36628534147E+01  0.13111743165E+02  0.51100000000E-03 0. -1.
         11    1    1    0    0    0 -0.45706494692E+02 -0.13091298999E+02  0.13377621525E+02  0.49390550963E+02  0.51100000000E-03 0.  1.
         22    1    1    0    0    0  0.57906719790E+02  0.16198680694E+02 -0.17040474940E+02  0.62497705872E+02  0.00000000000E+00 0.  1.
</event>
<event>
 4    1  0.1977788E-002  0.9118800E+02  0.7818608E-02  0.1130116E+00
         25   -1    0    0    0    0  0.00000000000E+00  0.00000000000E+00  0.99999998245E-14  0.12500000000E+03  0.12500000000E+03 0.  0.
        -11    1    1    0    0    0 -0.85829793771E+00 -0.21449667013E+01 -0.48516505534E+02  0.48571482034E+02  0.51100000000E-03 0.  1.
         11    1    1    0    0    0 -0.36332686347E-01 -0.50385591273E+00 -0.13920142045E+02  0.13929305282E+02  0.51100000000E-03 0. -1.
         22    1    1    0    0    0  0.89463062405E+00  0.26488226141E+01  0.62436647579E+02  0.62499212683E+02  0.00000000000E+00 0.  1.
</event>
<event>
 4    1  0.1977788E-002  0.9118800E+02  0.7818608E-02  0.1130116E+00
         25   -1    0    0    0    0  0.00000000000E+00  0.00000000000E+00  0.99999998245E-14  0.12500000000E+03  0.12500000000E+03 0.  0.
        -11    1    1    0    0    0  0.36325595193E+02 -0.13436754187E+02 -0.13733460617E+02  0.41093833722E+02  0.51100000000E-03 0. -1.
         11    1    1    0    0    0  0.18896610215E+02 -0.70566171049E+01 -0.71657221987E+01  0.21406197642E+02  0.51100000000E-03 0.  1.
         22    1    1    0    0    0 -0.55222205409E+02  0.20493371292E+02  0.20899182816E+02  0.62499968636E+02  0.00000000000E+00 0. -1.
</event>
<event>
 4    1  0.1977788E-002  0.9118800E+02  0.7818608E-02  0.1130116E+00
         25   -1    0    0    0    0  0.00000000000E+00  0.00000000000E+00  0.99999998245E-14  0.12500000000E+03  0.12500000000E+03 0.  0.
        -11    1    1    0    0    0  0.19342898344E+01  0.16614173224E+02  0.20825129526E+02  0.26710639249E+02  0.51100000000E-03 0.  1.
         11    1    1    0    0    0  0.25180318945E+01  0.22123532176E+02  0.28019551651E+02  0.35789473809E+02  0.51100000000E-03 0. -1.
         22    1    1    0    0    0 -0.44523217289E+01 -0.38737705400E+02 -0.48844681177E+02  0.62499886941E+02  0.00000000000E+00 0. -1.
</event>
<event>
 4    1  0.1977788E-002  0.9118800E+02  0.7818608E-02  0.1130116E+00
         25   -1    0    0    0    0  0.00000000000E+00  0.00000000000E+00  0.99999998245E-14  0.12500000000E+03  0.12500000000E+03 0.  0.
        -11    1    1    0    0    0  0.46032522108E+01 -0.28124683550E+01 -0.42468700861E+01  0.68655527784E+01  0.51100000000E-03 0.  1.
         11    1    1    0    0    0  0.37299912887E+02 -0.22799459373E+02 -0.34410650601E+02  0.55634447279E+02  0.51100000000E-03 0. -1.
         22    1    1    0    0    0 -0.41903165097E+02  0.25611927728E+02  0.38657520687E+02  0.62499999942E+02  0.00000000000E+00 0. -1.
</event>
<event>
 4    1  0.1977788E-002  0.9118800E+02  0.7818608E-02  0.1130116E+00
         25   -1    0    0    0    0  0.00000000000E+00  0.00000000000E+00  0.99999998245E-14  0.12500000000E+03  0.12500000000E+03 0.  0.
        -11    1    1    0    0    0 -0.21875028164E+02  0.89092681278E+01  0.10861466998E+02  0.25997372586E+02  0.51100000000E-03 0. -1.
         11    1    1    0    0    0 -0.13695835447E+02  0.34762371960E+02  0.10424001122E+02  0.38789924111E+02  0.51100000000E-03 0.  1.
         22    1    1    0    0    0  0.35570863611E+02 -0.43671640088E+02 -0.21285468120E+02  0.60212703303E+02  0.00000000000E+00 0. -1.
</event>
<event>
 4    1  0.1977788E-002  0.9118800E+02  0.7818608E-02  0.1130116E+00
         25   -1    0    0    0    0  0.00000000000E+00  0.00000000000E+00  0.99999998245E-14  0.12500000000E+03  0.12500000000E+03 0.  0.
        -11    1    1    0    0    0 -0.11751429279E+01 -0.84831625714E+01 -0.19053393124E+02  0.20889633743E+02  0.51100000000E-03 0.  1.
         11    1    1    0    0    0 -0.23067786224E+01 -0.15039518487E+02 -0.38737507123E+02  0.41618539166E+02  0.51100000000E-03 0. -1.
         22    1    1    0    0    0  0.34819215503E+01  0.23522681058E+02  0.57790900247E+02  0.62491827091E+02  0.00000000000E+00 0. -1.
</event>
<event>
 4    1  0.1977788E-002  0.9118800E+02  0.7818608E-02  0.1130116E+00
         25   -1    0    0    0    0  0.00000000000E+00  0.00000000000E+00  0.99999998245E-14  0.12500000000E+03  0.12500000000E+03 0.  0.
        -11    1    1    0    0    0 -0.71078211463E+00  0.18484869563E+01 -0.62715250181E+01  0.65767880881E+01  0.51100000000E-03 0.  1.
         11    1    1    0    0    0 -0.17434811409E+02  0.38686183019E+02 -0.37087063846E+02  0.56356399019E+02  0.51100000000E-03 0. -1.
         22    1    1    0    0    0  0.18145593523E+02 -0.40534669976E+02  0.43358588864E+02  0.62066812892E+02  0.00000000000E+00 0. -1.
</event>
<event>
 4    1  0.1977788E-002  0.9118800E+02  0.7818608E-02  0.1130116E+00
         25   -1    0    0    0    0  0.00000000000E+00  0.00000000000E+00  0.99999998245E-14  0.12500000000E+03  0.12500000000E+03 0.  0.
        -11    1    1    0    0    0  0.34133154683E+01 -0.14371438445E+02 -0.20093208874E+02  0.24938444390E+02  0.51100000000E-03 0.  1.
         11    1    1    0    0    0  0.51324667811E+01 -0.21641278507E+02 -0.30268520487E+02  0.37561555923E+02  0.51100000000E-03 0. -1.
         22    1    1    0    0    0 -0.85457822494E+01  0.36012716953E+02  0.50361729361E+02  0.62499999686E+02  0.00000000000E+00 0.  1.
</event>
<event>
 4    1  0.1977788E-002  0.9118800E+02  0.7818608E-02  0.1130116E+00
         25   -1    0    0    0    0  0.00000000000E+00  0.00000000000E+00  0.99999998245E-14  0.12500000000E+03  0.12500000000E+03 0.  0.
        -11    1    1    0    0    0  0.21230666562E+02  0.23698877888E+01  0.84561679640E+01  0.22975298642E+02  0.51100000000E-03 0. -1.
         11    1    1    0    0    0  0.36815393417E+02  0.32547356722E+01  0.14015258620E+02  0.39527129559E+02  0.51100000000E-03 0.  1.
         22    1    1    0    0    0 -0.58046059978E+02 -0.56246234610E+01 -0.22471426584E+02  0.62497571799E+02  0.00000000000E+00 0.  1.
</event>
<event>
 4    1  0.1977788E-002  0.9118800E+02  0.7818608E-02  0.1130116E+00
         25   -1    0    0    0    0  0.00000000000E+00  0.00000000000E+00  0.99999998245E-14  0.12500000000E+03  0.12500000000E+03 0.  0.
        -11    1    1    0    0    0 -0.86041151302E+00  0.89097262210E+01  0.10406323766E+01  0.90114618852E+01  0.51100000000E-03 0.  1.
         11    1    1    0    0    0 -0.51213774280E+01  0.52882671686E+02  0.61820915567E+01  0.53488538283E+02  0.51100000000E-03 0. -1.
         22    1    1    0    0    0  0.59817889410E+01 -0.61792397907E+02 -0.72227239333E+01  0.62499999832E+02  0.00000000000E+00 0. -1.
</event>
<event>
 4    1  0.1977788E-002  0.9118800E+02  0.7818608E-02  0.1130116E+00
         25   -1    0    0    0    0  0.00000000000E+00  0.00000000000E+00  0.99999998245E-14  0.12500000000E+03  0.12500000000E+03 0.  0.
        -11    1    1    0    0    0 -0.56957443342E+02 -0.36986618669E+01  0.20509829578E+02  0.60650503388E+02  0.51100000000E-03 0.  1.
         11    1    1    0    0    0 -0.15525004676E+01  0.38717584527E-01  0.10629913100E+01  0.18819424910E+01  0.51100000000E-03 0. -1.
         22    1    1    0    0    0  0.58509943810E+02  0.36599442824E+01 -0.21572820888E+02  0.62467554121E+02  0.00000000000E+00 0.  1.
</event>
<event>
 4    1  0.1977788E-002  0.9118800E+02  0.7818608E-02  0.1130116E+00
         25   -1    0    0    0    0  0.00000000000E+00  0.00000000000E+00  0.99999998245E-14  0.12500000000E+03  0.12500000000E+03 0.  0.
        -11    1    1    0    0    0 -0.31424702529E+02 -0.25179366009E+02 -0.16326958897E+02  0.43452065414E+02  0.51100000000E-03 0. -1.
         11    1    1    0    0    0 -0.13977127455E+02 -0.10156625727E+02 -0.80542267145E+01  0.19062730820E+02  0.51100000000E-03 0.  1.
         22    1    1    0    0    0  0.45401829985E+02  0.35335991736E+02  0.24381185612E+02  0.62485203767E+02  0.00000000000E+00 0. -1.
</event>
<event>
 4    1  0.1977788E-002  0.9118800E+02  0.7818608E-02  0.1130116E+00
         25   -1    0    0    0    0  0.00000000000E+00  0.00000000000E+00  0.99999998245E-14  0.12500000000E+03  0.12500000000E+03 0.  0.
        -11    1    1    0    0    0  0.19068333948E+02  0.25416376951E+02  0.11995999866E+02  0.33963179915E+02  0.51100000000E-03 0.  1.
         11    1    1    0    0    0  0.16561751356E+02  0.23190951017E+02  0.37578975897E+01  0.28744279633E+02  0.51100000000E-03 0. -1.
         22    1    1    0    0    0 -0.35630085305E+02 -0.48607327968E+02 -0.15753897455E+02  0.62292540452E+02  0.00000000000E+00 0.  1.
</event>
<event>
 4    1  0.1977788E-002  0.9118800E+02  0.7818608E-02  0.1130116E+00
         25   -1    0    0    0    0  0.00000000000E+00  0.00000000000E+00  0.99999998245E-14  0.12500000000E+03  0.12500000000E+03 0.  0.
        -11    1    1    0    0    0 -0.31536768153E+02  0.23402017758E+02 -0.39490991191E+02  0.55693451735E+02  0.51100000000E-03 0. -1.
         11    1    1    0    0    0 -0.59474037314E+01 -0.14201444201E+01 -0.44079199865E+01  0.75377835062E+01  0.51100000000E-03 0.  1.
         22    1    1    0    0    0  0.37484171885E+02 -0.21981873337E+02  0.43898911177E+02  0.61768764759E+02  0.00000000000E+00 0. -1.
</event>
<event>
 4    1  0.1977788E-002  0.9118800E+02  0.7818608E-02  0.1130116E+00
         25   -1    0    0    0    0  0.00000000000E+00  0.00000000000E+00  0.99999998245E-14  0.12500000000E+03  0.12500000000E+03 0.  0.
        -11    1    1    0    0    0  0.27356638600E+02 -0.13754544587E+02 -0.20893115355E+02  0.37068793369E+02  0.51100000000E-03 0.  1.
         11    1    1    0    0    0  0.18767626022E+02 -0.94358122405E+01 -0.14334850262E+02  0.25431206645E+02  0.51100000000E-03 0.  1.
         22    1    1    0    0    0 -0.46124264623E+02  0.23190356827E+02  0.35227965617E+02  0.62499999986E+02  0.00000000000E+00 0.  1.
</event>
<event>
 4    1  0.1977788E-002  0.9118800E+02  0.7818608E-02  0.1130116E+00
         25   -1    0    0    0    0  0.00000000000E+00  0.00000000000E+00  0.99999998245E-14  0.12500000000E+03  0.12500000000E+03 0.  0.
        -11    1    1    0    0    0  0.14691603131E+02 -0.33240466785E+02 -0.52193670156E+01  0.36715305078E+02  0.51100000000E-03 0.  1.
         11    1    1    0    0    0  0.15524039660E+02 -0.20046513416E+02 -0.58853608838E+01  0.26028752957E+02  0.51100000000E-03 0. -1.
         22    1    1    0    0    0 -0.30215642792E+02  0.53286980201E+02  0.11104727899E+02  0.62255941965E+02  0.00000000000E+00 0.  1.
</event>
<event>
 4    1  0.1977788E-002  0.9118800E+02  0.7818608E-02  0.1130116E+00
         25   -1    0    0    0    0  0.00000000000E+00  0.00000000000E+00  0.99999998245E-14  0.12500000000E+03  0.12500000000E+03 0.  0.
        -11    1    1    0    0    0 -0.12988395100E+01  0.90828222560E+01 -0.31413510190E+01  0.96980787114E+01  0.51100000000E-03 0.  1.
         11    1    1    0    0    0  0.70404253502E+01  0.14302192033E+02 -0.52396942900E+02  0.54768238164E+02  0.51100000000E-03 0. -1.
         22    1    1    0    0    0 -0.57415858402E+01 -0.23385014289E+02  0.55538293919E+02  0.60533683125E+02  0.00000000000E+00 0. -1.
</event>
<event>
 4    1  0.1977788E-002  0.9118800E+02  0.7818608E-02  0.1130116E+00
         25   -1    0    0    0    0  0.00000000000E+00  0.00000000000E+00  0.99999998245E-14  0.12500000000E+03  0.12500000000E+03 0.  0.
        -11    1    1    0    0    0 -0.24976028354E+02 -0.26395173619E+02 -0.13202819626E+02  0.38662923183E+02  0.51100000000E-03 0. -1.
         11    1    1    0    0    0 -0.15290123737E+02 -0.16028767761E+02 -0.88124337195E+01  0.23840475418E+02  0.51100000000E-03 0.  1.
         22    1    1    0    0    0  0.40266152092E+02  0.42423941380E+02  0.22015253345E+02  0.62496601399E+02  0.00000000000E+00 0. -1.
</event>
<event>
 4    1  0.1977788E-002  0.9118800E+02  0.7818608E-02  0.1130116E+00
         25   -1    0    0    0    0  0.00000000000E+00  0.00000000000E+00  0.99999998245E-14  0.12500000000E+03  0.12500000000E+03 0.  0.
        -11    1    1    0    0    0 -0.31265756427E+02  0.85886849148E+01  0.15776038767E+02  0.36058236687E+02  0.51100000000E-03 0. -1.
         11    1    1    0    0    0 -0.22909542314E+02  0.63717584172E+01  0.11563826129E+02  0.26441794746E+02  0.51100000000E-03 0.  1.
         22    1    1    0    0    0  0.54175298742E+02 -0.14960443332E+02 -0.27339864896E+02  0.62499968567E+02  0.00000000000E+00 0.  1.
</event>
<event>
 4    1  0.1977788E-002  0.9118800E+02  0.7818608E-02  0.1130116E+00
         25   -1    0    0    0    0  0.00000000000E+00  0.00000000000E+00  0.99999998245E-14  0.12500000000E+03  0.12500000000E+03 0.  0.
        -11    1    1    0    0    0 -0.26409861118E+02 -0.71129453997E+01  0.82752161938E+01  0.28575408306E+02  0.51100000000E-03 0.  1.
         11    1    1    0    0    0 -0.31238285622E+02 -0.77604016042E+01  0.10729441715E+02  0.33928973481E+02  0.51100000000E-03 0. -1.
         22    1    1    0    0    0  0.57648146740E+02  0.14873347004E+02 -0.19004657909E+02  0.62495618214E+02  0.00000000000E+00 0. -1.
</event>
<event>
 4    1  0.1977788E-002  0.9118800E+02  0.7818608E-02  0.1130116E+00
         25   -1    0    0    0    0  0.00000000000E+00  0.00000000000E+00  0.99999998245E-14  0.12500000000E+03  0.12500000000E+03 0.  0.
        -11    1    1    0    0    0 -0.77870603453E+01  0.12984750398E+02 -0.10826189407E+01  0.15179397740E+02  0.51100000000E-03 0.  1.
         11    1    1    0    0    0 -0.24273667404E+02  0.40480248316E+02 -0.33731241568E+01  0.47320602277E+02  0.51100000000E-03 0.  1.
         22    1    1    0    0    0  0.32060727749E+02 -0.53464998714E+02  0.44557430975E+01  0.62499999983E+02  0.00000000000E+00 0.  1.
</event>
<event>
 4    1  0.1977788E-002  0.9118800E+02  0.7818608E-02  0.1130116E+00
         25   -1    0    0    0    0  0.00000000000E+00  0.00000000000E+00  0.99999998245E-14  0.12500000000E+03  0.12500000000E+03 0.  0.
        -11    1    1    0    0    0 -0.57447327835E+01  0.40933536710E+01  0.16148912635E+02  0.17622283580E+02  0.51100000000E-03 0.  1.
         11    1    1    0    0    0 -0.14930421875E+02  0.10471592121E+02  0.41005521330E+02  0.44877884517E+02  0.51100000000E-03 0. -1.
         22    1    1    0    0    0  0.20675154659E+02 -0.14564945792E+02 -0.57154433965E+02  0.62499831903E+02  0.00000000000E+00 0.  1.
</event>
<event>
 4    1  0.1977788E-002  0.9118800E+02  0.7818608E-02  0.1130116E+00
         25   -1    0    0    0    0  0.00000000000E+00  0.00000000000E+00  0.99999998245E-14  0.12500000000E+03  0.12500000000E+03 0.  0.
        -11    1    1    0    0    0  0.20236329278E+01  0.28379036910E+01 -0.39600636573E+00  0.35079351318E+01  0.51100000000E-03 0. -1.
         11    1    1    0    0    0  0.42153987222E+02  0.35074146412E+02  0.22429020111E+02  0.59247070212E+02  0.51100000000E-03 0.  1.
         22    1    1    0    0    0 -0.44177620149E+02 -0.37912050103E+02 -0.22033013746E+02  0.62244994657E+02  0.00000000000E+00 0.  1.
</event>
<event>
 4    1  0.1977788E-002  0.9118800E+02  0.7818608E-02  0.1130116E+00
         25   -1    0    0    0    0  0.00000000000E+00  0.00000000000E+00  0.99999998245E-14  0.12500000000E+03  0.12500000000E+03 0.  0.
        -11    1    1    0    0    0  0.30549182434E+02 -0.83300716103E+01  0.28856871404E+02  0.42841121226E+02  0.51100000000E-03 0.  1.
         11    1    1    0    0    0  0.13641189961E+02 -0.38870064282E+01  0.13615382933E+02  0.19661371651E+02  0.51100000000E-03 0. -1.
         22    1    1    0    0    0 -0.44190372395E+02  0.12217078038E+02 -0.42472254336E+02  0.62497507123E+02  0.00000000000E+00 0.  1.
</event>
<event>
 4    1  0.1977788E-002  0.9118800E+02  0.7818608E-02  0.1130116E+00
         25   -1    0    0    0    0  0.00000000000E+00  0.00000000000E+00  0.99999998245E-14  0.12500000000E+03  0.12500000000E+03 0.  0.
        -11    1    1    0    0    0 -0.22293396556E+02  0.77680445419E+01  0.20903929341E+01  0.23700375290E+02  0.51100000000E-03 0. -1.
         11    1    1    0    0    0 -0.36484679531E+02  0.12747721009E+02  0.34314526610E+01  0.38799627563E+02  0.51100000000E-03 0.  1.
         22    1    1    0    0    0  0.58778076087E+02 -0.20515765551E+02 -0.55218455952E+01  0.62499997147E+02  0.00000000000E+00 0.  1.
</event>
<event>
 4    1  0.1977788E-002  0.9118800E+02  0.7818608E-02  0.1130116E+00
         25   -1    0    0    0    0  0.00000000000E+00  0.00000000000E+00  0.99999998245E-14  0.12500000000E+03  0.12500000000E+03 0.  0.
        -11    1    1    0    0    0 -0.39153382468E+01  0.16876608184E+02 -0.10512226252E+02  0.20264665761E+02  0.51100000000E-03 0.  1.
         11    1    1    0    0    0 -0.81604472954E+01  0.35173037471E+02 -0.21910910384E+02  0.42235334249E+02  0.51100000000E-03 0. -1.
         22    1    1    0    0    0  0.12075785542E+02 -0.52049645656E+02  0.32423136636E+02  0.62499999989E+02  0.00000000000E+00 0. -1.
</event>
<event>
 4    1  0.1977788E-002  0.9118800E+02  0.7818608E-02  0.1130116E+00
         25   -1    0    0    0    0  0.00000000000E+00  0.00000000000E+00  0.99999998245E-14  0.12500000000E+03  0.12500000000E+03 0.  0.
        -11    1    1    0    0    0 -0.65968709662E+00 -0.25521070899E+00 -0.36138536384E+01  0.36824255529E+01  0.51100000000E-03 0. -1.
         11    1    1    0    0    0 -0.10812575099E+02 -0.43341657464E+01 -0.57652533629E+02  0.58817611368E+02  0.51100000000E-03 0.  1.
         22    1    1    0    0    0  0.11472262196E+02  0.45893764554E+01  0.61266387267E+02  0.62499963079E+02  0.00000000000E+00 0.  1.
</event>
<event>
 4    1  0.1977788E-002  0.9118800E+02  0.7818608E-02  0.1130116E+00
         25   -1    0    0    0    0  0.00000000000E+00  0.00000000000E+00  0.99999998245E-14  0.12500000000E+03  0.12500000000E+03 0.  0.
        -11    1    1    0    0    0  0.37863345404E+01 -0.64814239363E+01  0.23216781486E+02  0.24400084596E+02  0.51100000000E-03 0.  1.
         11    1    1    0    0    0  0.59684321583E+01 -0.10142056067E+02  0.36237009015E+02  0.38099925279E+02  0.51100000000E-03 0. -1.
         22    1    1    0    0    0 -0.97547666987E+01  0.16623480003E+02 -0.59453790500E+02  0.62499990125E+02  0.00000000000E+00 0. -1.
</event>
<event>
 4    1  0.1977788E-002  0.9118800E+02  0.7818608E-02  0.1130116E+00
         25   -1    0    0    0    0  0.00000000000E+00  0.00000000000E+00  0.99999998245E-14  0.12500000000E+03  0.12500000000E+03 0.  0.
        -11    1    1    0    0    0 -0.38521744873E+02 -0.12342497693E+01  0.36718973736E+02  0.53232802228E+02  0.51100000000E-03 0. -1.
         11    1    1    0    0    0 -0.67060862127E+01 -0.21485400466E+00  0.63924330196E+01  0.92671977807E+01  0.51100000000E-03 0. -1.
         22    1    1    0    0    0  0.45227831086E+02  0.14491037740E+01 -0.43111406755E+02  0.62499999991E+02  0.00000000000E+00 0. -1.
</event>
<event>
 4    1  0.1977788E-002  0.9118800E+02  0.7818608E-02  0.1130116E+00
         25   -1    0    0    0    0  0.00000000000E+00  0.00000000000E+00  0.99999998245E-14  0.12500000000E+03  0.12500000000E+03 0.  0.
        -11    1    1    0    0    0  0.47321361232E+01 -0.21376267878E+01 -0.28639138370E+01  0.59299716103E+01  0.51100000000E-03 0. -1.
         11    1    1    0    0    0  0.45146234164E+02 -0.20373931449E+02 -0.27329262542E+02  0.56570028577E+02  0.51100000000E-03 0.  1.
         22    1    1    0    0    0 -0.49878370287E+02  0.22511558237E+02  0.30193176379E+02  0.62499999813E+02  0.00000000000E+00 0.  1.
</event>
<event>
 4    1  0.1977788E-002  0.9118800E+02  0.7818608E-02  0.1130116E+00
         25   -1    0    0    0    0  0.00000000000E+00  0.00000000000E+00  0.99999998245E-14  0.12500000000E+03  0.12500000000E+03 0.  0.
        -11    1    1    0    0    0  0.50606315981E+01 -0.68430463889E+00  0.38325125779E+01  0.63848584896E+01  0.51100000000E-03 0.  1.
         11    1    1    0    0    0  0.44469988886E+02 -0.60270043416E+01  0.33689826772E+02  0.56115141638E+02  0.51100000000E-03 0. -1.
         22    1    1    0    0    0 -0.49530620484E+02  0.67113089805E+01 -0.37522339350E+02  0.62499999873E+02  0.00000000000E+00 0. -1.
</event>
<event>
 4    1  0.1977788E-002  0.9118800E+02  0.7818608E-02  0.1130116E+00
         25   -1    0    0    0    0  0.00000000000E+00  0.00000000000E+00  0.99999998245E-14  0.12500000000E+03  0.12500000000E+03 0.  0.
        -11    1    1    0    0    0 -0.38675136376E+02 -0.14942771029E+01 -0.34962310746E+02  0.52157091663E+02  0.51100000000E-03 0. -1.
         11    1    1    0    0    0 -0.76595781869E+01 -0.29503094216E+00 -0.69440378785E+01  0.10342912722E+02  0.51100000000E-03 0.  1.
         22    1    1    0    0    0  0.46334714563E+02  0.17893080450E+01  0.41906348624E+02  0.62499995615E+02  0.00000000000E+00 0. -1.
</event>
<event>
 4    1  0.1977788E-002  0.9118800E+02  0.7818608E-02  0.1130116E+00
         25   -1    0    0    0    0  0.00000000000E+00  0.00000000000E+00  0.99999998245E-14  0.12500000000E+03  0.12500000000E+03 0.  0.
        -11    1    1    0    0    0  0.27628804942E+02  0.24982143510E+02 -0.23119811135E+02  0.43840438228E+02  0.51100000000E-03 0. -1.
         11    1    1    0    0    0  0.67178711382E+01  0.14275444265E+02 -0.10636702845E+02  0.19027809891E+02  0.51100000000E-03 0.  1.
         22    1    1    0    0    0 -0.34346676080E+02 -0.39257587775E+02  0.33756513980E+02  0.62131751880E+02  0.00000000000E+00 0. -1.
</event>
<event>
 4    1  0.1977788E-002  0.9118800E+02  0.7818608E-02  0.1130116E+00
         25   -1    0    0    0    0  0.00000000000E+00  0.00000000000E+00  0.99999998245E-14  0.12500000000E+03  0.12500000000E+03 0.  0.
        -11    1    1    0    0    0  0.28911479766E+02  0.18754653568E+02 -0.10327808520E+02  0.35976024263E+02  0.51100000000E-03 0.  1.
         11    1    1    0    0    0 -0.24203997742E+02  0.63821500331E+01  0.41646650400E+02  0.48590213372E+02  0.51100000000E-03 0. -1.
         22    1    1    0    0    0 -0.47074820234E+01 -0.25136803601E+02 -0.31318841880E+02  0.40433762365E+02  0.00000000000E+00 0.  1.
</event>
<event>
 4    1  0.1977788E-002  0.9118800E+02  0.7818608E-02  0.1130116E+00
         25   -1    0    0    0    0  0.00000000000E+00  0.00000000000E+00  0.99999998245E-14  0.12500000000E+03  0.12500000000E+03 0.  0.
        -11    1    1    0    0    0  0.25060683190E+01 -0.87795652096E+00 -0.30377930006E+02  0.30493766868E+02  0.51100000000E-03 0. -1.
         11    1    1    0    0    0 -0.40088092318E+02 -0.86411074507E+01 -0.58756124194E+01  0.41427608007E+02  0.51100000000E-03 0.  1.
         22    1    1    0    0    0  0.37582023999E+02  0.95190639717E+01  0.36253542426E+02  0.53078625125E+02  0.00000000000E+00 0.  1.
</event>
<event>
 4    1  0.1977788E-002  0.9118800E+02  0.7818608E-02  0.1130116E+00
         25   -1    0    0    0    0  0.00000000000E+00  0.00000000000E+00  0.99999998245E-14  0.12500000000E+03  0.12500000000E+03 0.  0.
        -11    1    1    0    0    0  0.27610507122E+02 -0.21561536130E+02  0.34151969706E+02  0.48924400649E+02  0.51100000000E-03 0. -1.
         11    1    1    0    0    0  0.76617831996E+01 -0.59837323593E+01  0.94757017407E+01  0.13575599379E+02  0.51100000000E-03 0. -1.
         22    1    1    0    0    0 -0.35272290321E+02  0.27545268489E+02 -0.43627671447E+02  0.62499999972E+02  0.00000000000E+00 0. -1.
</event>
<event>
 4    1  0.1977788E-002  0.9118800E+02  0.7818608E-02  0.1130116E+00
         25   -1    0    0    0    0  0.00000000000E+00  0.00000000000E+00  0.99999998245E-14  0.12500000000E+03  0.12500000000E+03 0.  0.
        -11    1    1    0    0    0 -0.47041565184E+02 -0.21094320766E+02 -0.21062844154E+01  0.51597632289E+02  0.51100000000E-03 0. -1.
         11    1    1    0    0    0 -0.99304786316E+01 -0.44865850018E+01 -0.34921958040E+00  0.10902559581E+02  0.51100000000E-03 0.  1.
         22    1    1    0    0    0  0.56972043816E+02  0.25580905768E+02  0.24555039958E+01  0.62499808130E+02  0.00000000000E+00 0. -1.
</event>
<event>
 4    1  0.1977788E-002  0.9118800E+02  0.7818608E-02  0.1130116E+00
         25   -1    0    0    0    0  0.00000000000E+00  0.00000000000E+00  0.99999998245E-14  0.12500000000E+03  0.12500000000E+03 0.  0.
        -11    1    1    0    0    0  0.50693336959E+00 -0.90585755913E+00 -0.20749060094E+01  0.23200850346E+01  0.51100000000E-03 0. -1.
         11    1    1    0    0    0 -0.23785968371E+01 -0.25289008852E+02 -0.54598332682E+02  0.60217685305E+02  0.51100000000E-03 0.  1.
         22    1    1    0    0    0  0.18716634676E+01  0.26194866411E+02  0.56673238691E+02  0.62462229660E+02  0.00000000000E+00 0.  1.
</event>
<event>
 4    1  0.1977788E-002  0.9118800E+02  0.7818608E-02  0.1130116E+00
         25   -1    0    0    0    0  0.00000000000E+00  0.00000000000E+00  0.99999998245E-14  0.12500000000E+03  0.12500000000E+03 0.  0.
        -11    1    1    0    0    0  0.53266758156E+02 -0.51531536505E+01 -0.17640492262E+01  0.53544508467E+02  0.51100000000E-03 0. -1.
         11    1    1    0    0    0  0.89081575281E+01 -0.86827751666E+00 -0.30281317182E+00  0.89554939825E+01  0.51100000000E-03 0.  1.
         22    1    1    0    0    0 -0.62174915684E+02  0.60214311672E+01  0.20668623980E+01  0.62499997551E+02  0.00000000000E+00 0. -1.
</event>
<event>
 4    1  0.1977788E-002  0.9118800E+02  0.7818608E-02  0.1130116E+00
         25   -1    0    0    0    0  0.00000000000E+00  0.00000000000E+00  0.99999998245E-14  0.12500000000E+03  0.12500000000E+03 0.  0.
        -11    1    1    0    0    0 -0.99594254286E+00  0.21314282392E+01 -0.28513456859E+01  0.36966282433E+01  0.51100000000E-03 0. -1.
         11    1    1    0    0    0  0.34641416470E+02 -0.48417039507E+01 -0.48532937841E+02  0.59824041053E+02  0.51100000000E-03 0.  1.
         22    1    1    0    0    0 -0.33645473928E+02  0.27102757115E+01  0.51384283526E+02  0.61479330704E+02  0.00000000000E+00 0.  1.
</event>
<event>
 4    1  0.1977788E-002  0.9118800E+02  0.7818608E-02  0.1130116E+00
         25   -1    0    0    0    0  0.00000000000E+00  0.00000000000E+00  0.99999998245E-14  0.12500000000E+03  0.12500000000E+03 0.  0.
        -11    1    1    0    0    0 -0.27531984678E+02 -0.60614772680E+01  0.20709114622E+02  0.34980267519E+02  0.51100000000E-03 0.  1.
         11    1    1    0    0    0 -0.21671969816E+02 -0.48385881113E+01  0.16255806505E+02  0.27519764825E+02  0.51100000000E-03 0. -1.
         22    1    1    0    0    0  0.49203954494E+02  0.10900065379E+02 -0.36964921128E+02  0.62499967657E+02  0.00000000000E+00 0.  1.
</event>
<event>
 4    1  0.1977788E-002  0.9118800E+02  0.7818608E-02  0.1130116E+00
         25   -1    0    0    0    0  0.00000000000E+00  0.00000000000E+00  0.99999998245E-14  0.12500000000E+03  0.12500000000E+03 0.  0.
        -11    1    1    0    0    0 -0.29946357255E+01 -0.14430598266E+00  0.57884274994E+02  0.57961866423E+02  0.51100000000E-03 0. -1.
         11    1    1    0    0    0 -0.59128037035E+00  0.16418142166E+00  0.45046406004E+01  0.45462462774E+01  0.51100000000E-03 0.  1.
         22    1    1    0    0    0  0.35859160958E+01 -0.19875439006E-01 -0.62388915594E+02  0.62491887300E+02  0.00000000000E+00 0. -1.
</event>
<event>
 4    1  0.1977788E-002  0.9118800E+02  0.7818608E-02  0.1130116E+00
         25   -1    0    0    0    0  0.00000000000E+00  0.00000000000E+00  0.99999998245E-14  0.12500000000E+03  0.12500000000E+03 0.  0.
        -11    1    1    0    0    0  0.42716726340E+02  0.23636033030E+01 -0.52242913919E+01  0.43099867176E+02  0.51100000000E-03 0.  1.
         11    1    1    0    0    0  0.19226256916E+02  0.10890817987E+01 -0.23516629378E+01  0.19400138479E+02  0.51100000000E-03 0. -1.
         22    1    1    0    0    0 -0.61942983256E+02 -0.34526851017E+01  0.75759543297E+01  0.62499994345E+02  0.00000000000E+00 0.  1.
</event>
<event>
 4    1  0.1977788E-002  0.9118800E+02  0.7818608E-02  0.1130116E+00
         25   -1    0    0    0    0  0.00000000000E+00  0.00000000000E+00  0.99999998245E-14  0.12500000000E+03  0.12500000000E+03 0.  0.
        -11    1    1    0    0    0  0.38064641984E+02  0.23821148707E+02 -0.25484986038E+02  0.51631856530E+02  0.51100000000E-03 0.  1.
         11    1    1    0    0    0  0.79745455155E+01  0.49917009266E+01 -0.54414463311E+01  0.10868293001E+02  0.51100000000E-03 0. -1.
         22    1    1    0    0    0 -0.46039187500E+02 -0.28812849633E+02  0.30926432369E+02  0.62499850469E+02  0.00000000000E+00 0.  1.
</event>
<event>
 4    1  0.1977788E-002  0.9118800E+02  0.7818608E-02  0.1130116E+00
         25   -1    0    0    0    0  0.00000000000E+00  0.00000000000E+00  0.99999998245E-14  0.12500000000E+03  0.12500000000E+03 0.  0.
        -11    1    1    0    0    0 -0.49685680006E+01 -0.68310824845E+01 -0.11982351747E+00  0.84477638357E+01  0.51100000000E-03 0. -1.
         11    1    1    0    0    0 -0.31325314518E+02 -0.43995753946E+02 -0.22146043362E+01  0.54053734076E+02  0.51100000000E-03 0.  1.
         22    1    1    0    0    0  0.36293882519E+02  0.50826836431E+02  0.23344278536E+01  0.62498502088E+02  0.00000000000E+00 0.  1.
</event>
<event>
 4    1  0.1977788E-002  0.9118800E+02  0.7818608E-02  0.1130116E+00
         25   -1    0    0    0    0  0.00000000000E+00  0.00000000000E+00  0.99999998245E-14  0.12500000000E+03  0.12500000000E+03 0.  0.
        -11    1    1    0    0    0  0.51656674109E+01 -0.58283644622E+02 -0.51669624622E+01  0.58739806363E+02  0.51100000000E-03 0. -1.
         11    1    1    0    0    0 -0.29149735201E+01 -0.31089624385E+01 -0.13772034989E+01  0.44787730245E+01  0.51100000000E-03 0.  1.
         22    1    1    0    0    0 -0.22506938908E+01  0.61392607061E+02  0.65441659611E+01  0.61781420612E+02  0.00000000000E+00 0. -1.
</event>
<event>
 4    1  0.1977788E-002  0.9118800E+02  0.7818608E-02  0.1130116E+00
         25   -1    0    0    0    0  0.00000000000E+00  0.00000000000E+00  0.99999998245E-14  0.12500000000E+03  0.12500000000E+03 0.  0.
        -11    1    1    0    0    0 -0.39223887594E+02  0.38985513695E+02 -0.20476916433E+02  0.58971923344E+02  0.51100000000E-03 0.  1.
         11    1    1    0    0    0 -0.23298401835E+01  0.23642957773E+01 -0.11959468274E+01  0.35282203556E+01  0.51100000000E-03 0. -1.
         22    1    1    0    0    0  0.41553727778E+02 -0.41349809473E+02  0.21672863260E+02  0.62499856300E+02  0.00000000000E+00 0.  1.
</event>
<event>
 4    1  0.1977788E-002  0.9118800E+02  0.7818608E-02  0.1130116E+00
         25   -1    0    0    0    0  0.00000000000E+00  0.00000000000E+00  0.99999998245E-14  0.12500000000E+03  0.12500000000E+03 0.  0.
        -11    1    1    0    0    0  0.98906208056E+01 -0.27827018135E+01  0.11293219283E+01  0.10336497356E+02  0.51100000000E-03 0.  1.
         11    1    1    0    0    0  0.50027970805E+02 -0.12799216949E+02  0.74014758096E+01  0.52167036161E+02  0.51100000000E-03 0. -1.
         22    1    1    0    0    0 -0.59918591611E+02  0.15581918763E+02 -0.85307977379E+01  0.62496466484E+02  0.00000000000E+00 0. -1.
</event>
<event>
 4    1  0.1977788E-002  0.9118800E+02  0.7818608E-02  0.1130116E+00
         25   -1    0    0    0    0  0.00000000000E+00  0.00000000000E+00  0.99999998245E-14  0.12500000000E+03  0.12500000000E+03 0.  0.
        -11    1    1    0    0    0 -0.88152068458E+01  0.98583282694E+01 -0.69951027530E+01  0.14960814510E+02  0.51100000000E-03 0.  1.
         11    1    1    0    0    0 -0.28014882973E+02  0.31327401657E+02 -0.22220135090E+02  0.47539185587E+02  0.51100000000E-03 0.  1.
         22    1    1    0    0    0  0.36830089819E+02 -0.41185729927E+02  0.29215237843E+02  0.62499999903E+02  0.00000000000E+00 0.  1.
</event>
<event>
 4    1  0.1977788E-002  0.9118800E+02  0.7818608E-02  0.1130116E+00
         25   -1    0    0    0    0  0.00000000000E+00  0.00000000000E+00  0.99999998245E-14  0.12500000000E+03  0.12500000000E+03 0.  0.
        -11    1    1    0    0    0 -0.21556273608E+00 -0.10039922378E+02 -0.25063577663E+02  0.27000545072E+02  0.51100000000E-03 0.  1.
         11    1    1    0    0    0 -0.37444208250E+00 -0.12145393368E+02 -0.33359231312E+02  0.35503367459E+02  0.51100000000E-03 0. -1.
         22    1    1    0    0    0  0.59000481857E+00  0.22185315746E+02  0.58422808975E+02  0.62496087469E+02  0.00000000000E+00 0. -1.
</event>
<event>
 4    1  0.1977788E-002  0.9118800E+02  0.7818608E-02  0.1130116E+00
         25   -1    0    0    0    0  0.00000000000E+00  0.00000000000E+00  0.99999998245E-14  0.12500000000E+03  0.12500000000E+03 0.  0.
        -11    1    1    0    0    0  0.16248084326E+02  0.15291025580E+02  0.41272545918E+02  0.46917360906E+02  0.51100000000E-03 0. -1.
         11    1    1    0    0    0  0.53967066757E+01  0.50790064241E+01  0.13707585198E+02  0.15582639103E+02  0.51100000000E-03 0. -1.
         22    1    1    0    0    0 -0.21644791002E+02 -0.20370032004E+02 -0.54980131116E+02  0.62499999991E+02  0.00000000000E+00 0. -1.
</event>
<event>
 4    1  0.1977788E-002  0.9118800E+02  0.7818608E-02  0.1130116E+00
         25   -1    0    0    0    0  0.00000000000E+00  0.00000000000E+00  0.99999998245E-14  0.12500000000E+03  0.12500000000E+03 0.  0.
        -11    1    1    0    0    0 -0.24892208922E+02  0.31480741989E+02 -0.43193792065E+02  0.58960689059E+02  0.51100000000E-03 0.  1.
         11    1    1    0    0    0 -0.13380774216E+01  0.19319935418E+01 -0.26490580527E+01  0.35412651778E+01  0.51100000000E-03 0. -1.
         22    1    1    0    0    0  0.26230286343E+02 -0.33412735531E+02  0.45842850118E+02  0.62498045763E+02  0.00000000000E+00 0.  1.
</event>
<event>
 4    1  0.1977788E-002  0.9118800E+02  0.7818608E-02  0.1130116E+00
         25   -1    0    0    0    0  0.00000000000E+00  0.00000000000E+00  0.99999998245E-14  0.12500000000E+03  0.12500000000E+03 0.  0.
        -11    1    1    0    0    0 -0.83570969475E+01 -0.96884182735E+01 -0.19185051767E+02  0.23060197952E+02  0.51100000000E-03 0. -1.
         11    1    1    0    0    0 -0.14738274350E+02 -0.14813202595E+02 -0.33459432431E+02  0.39448464112E+02  0.51100000000E-03 0.  1.
         22    1    1    0    0    0  0.23095371297E+02  0.24501620868E+02  0.52644484198E+02  0.62491337936E+02  0.00000000000E+00 0.  1.
</event>
<event>
 4    1  0.1977788E-002  0.9118800E+02  0.7818608E-02  0.1130116E+00
         25   -1    0    0    0    0  0.00000000000E+00  0.00000000000E+00  0.99999998245E-14  0.12500000000E+03  0.12500000000E+03 0.  0.
        -11    1    1    0    0    0 -0.27515118243E+00  0.91403292508E+00 -0.32085650809E+00  0.10070320358E+01  0.51100000000E-03 0.  1.
         11    1    1    0    0    0 -0.17088979251E+02  0.55504332949E+02 -0.20214486938E+02  0.61493005052E+02  0.51100000000E-03 0. -1.
         22    1    1    0    0    0  0.17364130433E+02 -0.56418365874E+02  0.20535343446E+02  0.62499962912E+02  0.00000000000E+00 0. -1.
</event>
<event>
 4    1  0.1977788E-002  0.9118800E+02  0.7818608E-02  0.1130116E+00
         25   -1    0    0    0    0  0.00000000000E+00  0.00000000000E+00  0.99999998245E-14  0.12500000000E+03  0.12500000000E+03 0.  0.
        -11    1    1    0    0    0  0.64383118827E+01 -0.89874542983E+01 -0.60991742006E+01  0.12626405698E+02  0.51100000000E-03 0.  1.
         11    1    1    0    0    0  0.25427546042E+02 -0.35494056453E+02 -0.24103677888E+02  0.49873594508E+02  0.51100000000E-03 0. -1.
         22    1    1    0    0    0 -0.31865857924E+02  0.44481510751E+02  0.30202852088E+02  0.62499999794E+02  0.00000000000E+00 0. -1.
</event>
<event>
 4    1  0.1977788E-002  0.9118800E+02  0.7818608E-02  0.1130116E+00
         25   -1    0    0    0    0  0.00000000000E+00  0.00000000000E+00  0.99999998245E-14  0.12500000000E+03  0.12500000000E+03 0.  0.
        -11    1    1    0    0    0  0.40340037820E+01  0.64089793478E+00  0.15459396419E+01  0.43673637716E+01  0.51100000000E-03 0. -1.
         11    1    1    0    0    0  0.53326572859E+02  0.86920465830E+01  0.21451356351E+02  0.58132914397E+02  0.51100000000E-03 0.  1.
         22    1    1    0    0    0 -0.57360576641E+02 -0.93329445178E+01 -0.22997295993E+02  0.62499721831E+02  0.00000000000E+00 0.  1.
</event>
<event>
 4    1  0.1977788E-002  0.9118800E+02  0.7818608E-02  0.1130116E+00
         25   -1    0    0    0    0  0.00000000000E+00  0.00000000000E+00  0.99999998245E-14  0.12500000000E+03  0.12500000000E+03 0.  0.
        -11    1    1    0    0    0  0.79988081298E-01 -0.11080813636E+00  0.51110552429E-01  0.14590779939E+00  0.51100000000E-03 0.  1.
         11    1    1    0    0    0  0.38517232505E+02 -0.43194312000E+02  0.23211018786E+02  0.62354447975E+02  0.51100000000E-03 0. -1.
         22    1    1    0    0    0 -0.38597220586E+02  0.43305120136E+02 -0.23262129338E+02  0.62499644225E+02  0.00000000000E+00 0. -1.
</event>
<event>
 4    1  0.1977788E-002  0.9118800E+02  0.7818608E-02  0.1130116E+00
         25   -1    0    0    0    0  0.00000000000E+00  0.00000000000E+00  0.99999998245E-14  0.12500000000E+03  0.12500000000E+03 0.  0.
        -11    1    1    0    0    0 -0.14226830004E+02 -0.14583466813E+02  0.80592990636E+01  0.21909643947E+02  0.51100000000E-03 0.  1.
         11    1    1    0    0    0 -0.24791881859E+02 -0.24754171603E+02  0.20670727633E+02  0.40677824414E+02  0.51100000000E-03 0. -1.
         22    1    1    0    0    0  0.39018711862E+02  0.39337638417E+02 -0.28730026697E+02  0.62412531639E+02  0.00000000000E+00 0. -1.
</event>
<event>
 4    1  0.1977788E-002  0.9118800E+02  0.7818608E-02  0.1130116E+00
         25   -1    0    0    0    0  0.00000000000E+00  0.00000000000E+00  0.99999998245E-14  0.12500000000E+03  0.12500000000E+03 0.  0.
        -11    1    1    0    0    0 -0.52725548663E+01 -0.32285511240E+01 -0.13392046909E+02  0.14750264332E+02  0.51100000000E-03 0.  1.
         11    1    1    0    0    0 -0.17225592839E+02 -0.10630973792E+02 -0.43247042024E+02  0.47749819858E+02  0.51100000000E-03 0. -1.
         22    1    1    0    0    0  0.22498147705E+02  0.13859524916E+02  0.56639088933E+02  0.62499915810E+02  0.00000000000E+00 0. -1.
</event>
<event>
 4    1  0.1977788E-002  0.9118800E+02  0.7818608E-02  0.1130116E+00
         25   -1    0    0    0    0  0.00000000000E+00  0.00000000000E+00  0.99999998245E-14  0.12500000000E+03  0.12500000000E+03 0.  0.
        -11    1    1    0    0    0  0.79670776232E+01 -0.94214555761E+01 -0.23027267921E+01  0.12551521898E+02  0.51100000000E-03 0.  1.
         11    1    1    0    0    0  0.28307752726E+02 -0.40819922963E+02 -0.55530336535E+01  0.49984309120E+02  0.51100000000E-03 0. -1.
         22    1    1    0    0    0 -0.36274830350E+02  0.50241378539E+02  0.78557604456E+01  0.62464168982E+02  0.00000000000E+00 0. -1.
</event>
<event>
 4    1  0.1977788E-002  0.9118800E+02  0.7818608E-02  0.1130116E+00
         25   -1    0    0    0    0  0.00000000000E+00  0.00000000000E+00  0.99999998245E-14  0.12500000000E+03  0.12500000000E+03 0.  0.
        -11    1    1    0    0    0 -0.15241139032E+02 -0.19878836691E+01 -0.12858973169E+01  0.15423927277E+02  0.51100000000E-03 0. -1.
         11    1    1    0    0    0 -0.46518858253E+02 -0.60612994465E+01 -0.39259526011E+01  0.47076072778E+02  0.51100000000E-03 0.  1.
         22    1    1    0    0    0  0.61759997285E+02  0.80491831156E+01  0.52118499180E+01  0.62499999945E+02  0.00000000000E+00 0.  1.
</event>
<event>
 4    1  0.1977788E-002  0.9118800E+02  0.7818608E-02  0.1130116E+00
         25   -1    0    0    0    0  0.00000000000E+00  0.00000000000E+00  0.99999998245E-14  0.12500000000E+03  0.12500000000E+03 0.  0.
        -11    1    1    0    0    0  0.34514029183E+02 -0.13118198246E+02 -0.55153718568E+01  0.37332621963E+02  0.51100000000E-03 0.  1.
         11    1    1    0    0    0  0.23270905730E+02 -0.88344822909E+01 -0.37166941171E+01  0.25167378614E+02  0.51100000000E-03 0. -1.
         22    1    1    0    0    0 -0.57784934914E+02  0.21952680537E+02  0.92320659739E+01  0.62499999423E+02  0.00000000000E+00 0.  1.
</event>
<event>
 4    1  0.1977788E-002  0.9118800E+02  0.7818608E-02  0.1130116E+00
         25   -1    0    0    0    0  0.00000000000E+00  0.00000000000E+00  0.99999998245E-14  0.12500000000E+03  0.12500000000E+03 0.  0.
        -11    1    1    0    0    0  0.16598394288E+02  0.20337595575E+02 -0.92606349356E+01  0.27836735555E+02  0.51100000000E-03 0. -1.
         11    1    1    0    0    0  0.20402704774E+02  0.25432755738E+02 -0.11767635163E+02  0.34663708171E+02  0.51100000000E-03 0.  1.
         22    1    1    0    0    0 -0.37001099062E+02 -0.45770351313E+02  0.21028270098E+02  0.62499556274E+02  0.00000000000E+00 0.  1.
</event>
<event>
 4    1  0.1977788E-002  0.9118800E+02  0.7818608E-02  0.1130116E+00
         25   -1    0    0    0    0  0.00000000000E+00  0.00000000000E+00  0.99999998245E-14  0.12500000000E+03  0.12500000000E+03 0.  0.
        -11    1    1    0    0    0 -0.30049698825E+02 -0.12887247753E+02 -0.24528346607E+02  0.40874262582E+02  0.51100000000E-03 0. -1.
         11    1    1    0    0    0 -0.11550758704E+02 -0.11896900620E+02 -0.14425711657E+02  0.21978567471E+02  0.51100000000E-03 0.  1.
         22    1    1    0    0    0  0.41600457528E+02  0.24784148373E+02  0.38954058264E+02  0.62147169947E+02  0.00000000000E+00 0. -1.
</event>
<event>
 4    1  0.1977788E-002  0.9118800E+02  0.7818608E-02  0.1130116E+00
         25   -1    0    0    0    0  0.00000000000E+00  0.00000000000E+00  0.99999998245E-14  0.12500000000E+03  0.12500000000E+03 0.  0.
        -11    1    1    0    0    0  0.13649973590E+02  0.12836978443E+02  0.28084373216E+00  0.18740028496E+02  0.51100000000E-03 0. -1.
         11    1    1    0    0    0  0.31867249779E+02  0.29983773676E+02  0.62209412878E+00  0.43759973648E+02  0.51100000000E-03 0.  1.
         22    1    1    0    0    0 -0.45517223369E+02 -0.42820752119E+02 -0.90293786094E+00  0.62499997856E+02  0.00000000000E+00 0.  1.
</event>
<event>
 4    1  0.1977788E-002  0.9118800E+02  0.7818608E-02  0.1130116E+00
         25   -1    0    0    0    0  0.00000000000E+00  0.00000000000E+00  0.99999998245E-14  0.12500000000E+03  0.12500000000E+03 0.  0.
        -11    1    1    0    0    0 -0.13554471629E+01 -0.23767234315E+00 -0.20809410963E+00  0.13917717391E+01  0.51100000000E-03 0.  1.
         11    1    1    0    0    0  0.13585615119E+02  0.60550086017E+02 -0.77930456717E+00  0.62060367149E+02  0.51100000000E-03 0. -1.
         22    1    1    0    0    0 -0.12230167956E+02 -0.60312413673E+02  0.98739867680E+00  0.61547861112E+02  0.00000000000E+00 0. -1.
</event>
<event>
 4    1  0.1977788E-002  0.9118800E+02  0.7818608E-02  0.1130116E+00
         25   -1    0    0    0    0  0.00000000000E+00  0.00000000000E+00  0.99999998245E-14  0.12500000000E+03  0.12500000000E+03 0.  0.
        -11    1    1    0    0    0  0.19431239134E+02 -0.20370359955E+02  0.63075084318E+01  0.28849770915E+02  0.51100000000E-03 0.  1.
         11    1    1    0    0    0  0.25430678670E+02 -0.18988690875E+02  0.11679092232E+02  0.33818500771E+02  0.51100000000E-03 0. -1.
         22    1    1    0    0    0 -0.44861917803E+02  0.39359050830E+02 -0.17986600664E+02  0.62331728314E+02  0.00000000000E+00 0. -1.
</event>
<event>
 4    1  0.1977788E-002  0.9118800E+02  0.7818608E-02  0.1130116E+00
         25   -1    0    0    0    0  0.00000000000E+00  0.00000000000E+00  0.99999998245E-14  0.12500000000E+03  0.12500000000E+03 0.  0.
        -11    1    1    0    0    0  0.96256616238E+01 -0.11882898489E+02  0.17288242849E+02  0.23081160700E+02  0.51100000000E-03 0.  1.
         11    1    1    0    0    0  0.16565289491E+02 -0.20280333308E+02  0.29464348359E+02  0.39418885823E+02  0.51100000000E-03 0. -1.
         22    1    1    0    0    0 -0.26190951115E+02  0.32163231797E+02 -0.46752591208E+02  0.62499953477E+02  0.00000000000E+00 0. -1.
</event>
<event>
 4    1  0.1977788E-002  0.9118800E+02  0.7818608E-02  0.1130116E+00
         25   -1    0    0    0    0  0.00000000000E+00  0.00000000000E+00  0.99999998245E-14  0.12500000000E+03  0.12500000000E+03 0.  0.
        -11    1    1    0    0    0  0.10319564813E+02  0.41555794187E+02 -0.29558731826E+02  0.52029761444E+02  0.51100000000E-03 0. -1.
         11    1    1    0    0    0 -0.16198736209E+02  0.61161171751E+01  0.15902913679E+01  0.17387782233E+02  0.51100000000E-03 0.  1.
         22    1    1    0    0    0  0.58791713966E+01 -0.47671911363E+02  0.27968440458E+02  0.55582456323E+02  0.00000000000E+00 0. -1.
</event>
<event>
 4    1  0.1977788E-002  0.9118800E+02  0.7818608E-02  0.1130116E+00
         25   -1    0    0    0    0  0.00000000000E+00  0.00000000000E+00  0.99999998245E-14  0.12500000000E+03  0.12500000000E+03 0.  0.
        -11    1    1    0    0    0 -0.13660674224E+02  0.35319056666E+02  0.58820614019E+01  0.38322949138E+02  0.51100000000E-03 0. -1.
         11    1    1    0    0    0 -0.86181743735E+01  0.22282127361E+02  0.37099406102E+01  0.24177050872E+02  0.51100000000E-03 0.  1.
         22    1    1    0    0    0  0.22278848598E+02 -0.57601184027E+02 -0.95920020121E+01  0.62499999990E+02  0.00000000000E+00 0. -1.
</event>
<event>
 4    1  0.1977788E-002  0.9118800E+02  0.7818608E-02  0.1130116E+00
         25   -1    0    0    0    0  0.00000000000E+00  0.00000000000E+00  0.99999998245E-14  0.12500000000E+03  0.12500000000E+03 0.  0.
        -11    1    1    0    0    0  0.45656713212E+00  0.18609082981E+01 -0.49183337218E-01  0.19167296371E+01  0.51100000000E-03 0. -1.
         11    1    1    0    0    0  0.16793703528E+02 -0.50364502872E+02 -0.32432022547E+02  0.62212922408E+02  0.51100000000E-03 0.  1.
         22    1    1    0    0    0 -0.17250270660E+02  0.48503594574E+02  0.32481205885E+02  0.60870347955E+02  0.00000000000E+00 0.  1.
</event>
<event>
 4    1  0.1977788E-002  0.9118800E+02  0.7818608E-02  0.1130116E+00
         25   -1    0    0    0    0  0.00000000000E+00  0.00000000000E+00  0.99999998245E-14  0.12500000000E+03  0.12500000000E+03 0.  0.
        -11    1    1    0    0    0 -0.38534503275E+02 -0.12038187783E+02 -0.38965818691E+02  0.56108474710E+02  0.51100000000E-03 0. -1.
         11    1    1    0    0    0 -0.48311066880E+01 -0.10664484378E+01 -0.40700187444E+01  0.64063996864E+01  0.51100000000E-03 0.  1.
         22    1    1    0    0    0  0.43365609963E+02  0.13104636221E+02  0.43035837435E+02  0.62485125604E+02  0.00000000000E+00 0. -1.
</event>
<event>
 4    1  0.1977788E-002  0.9118800E+02  0.7818608E-02  0.1130116E+00
         25   -1    0    0    0    0  0.00000000000E+00  0.00000000000E+00  0.99999998245E-14  0.12500000000E+03  0.12500000000E+03 0.  0.
        -11    1    1    0    0    0  0.21764338156E+01  0.87332022693E+01  0.22515668658E+01  0.92776742583E+01  0.51100000000E-03 0. -1.
         11    1    1    0    0    0  0.12427081694E+02  0.50136397539E+02  0.12826776369E+02  0.53222334690E+02  0.51100000000E-03 0.  1.
         22    1    1    0    0    0 -0.14603515509E+02 -0.58869599808E+02 -0.15078343234E+02  0.62499991052E+02  0.00000000000E+00 0.  1.
</event>
<event>
 4    1  0.1977788E-002  0.9118800E+02  0.7818608E-02  0.1130116E+00
         25   -1    0    0    0    0  0.00000000000E+00  0.00000000000E+00  0.99999998245E-14  0.12500000000E+03  0.12500000000E+03 0.  0.
        -11    1    1    0    0    0 -0.50850135213E+00 -0.80390410961E+00 -0.22544075511E+00  0.97757825147E+00  0.51100000000E-03 0.  1.
         11    1    1    0    0    0 -0.45576678561E+02 -0.41298558777E+02 -0.23283292451E+01  0.61548563777E+02  0.51100000000E-03 0. -1.
         22    1    1    0    0    0  0.46085179913E+02  0.42102462886E+02  0.25537700002E+01  0.62473857972E+02  0.00000000000E+00 0. -1.
</event>
<event>
 4    1  0.1977788E-002  0.9118800E+02  0.7818608E-02  0.1130116E+00
         25   -1    0    0    0    0  0.00000000000E+00  0.00000000000E+00  0.99999998245E-14  0.12500000000E+03  0.12500000000E+03 0.  0.
        -11    1    1    0    0    0 -0.55482572828E+01  0.17579963629E+01 -0.10972314928E+02  0.12420362524E+02  0.51100000000E-03 0.  1.
         11    1    1    0    0    0 -0.22550324290E+02  0.76593043123E+01 -0.44054818779E+02  0.50080027217E+02  0.51100000000E-03 0. -1.
         22    1    1    0    0    0  0.28098581573E+02 -0.94173006753E+01  0.55027133707E+02  0.62499610259E+02  0.00000000000E+00 0. -1.
</event>
<event>
 4    1  0.1977788E-002  0.9118800E+02  0.7818608E-02  0.1130116E+00
         25   -1    0    0    0    0  0.00000000000E+00  0.00000000000E+00  0.99999998245E-14  0.12500000000E+03  0.12500000000E+03 0.  0.
        -11    1    1    0    0    0 -0.14434464396E+02 -0.20426131647E+02 -0.19397885300E+02  0.31652149545E+02  0.51100000000E-03 0. -1.
         11    1    1    0    0    0 -0.14068606989E+02 -0.19900436514E+02 -0.18911288246E+02  0.30847850808E+02  0.51100000000E-03 0.  1.
         22    1    1    0    0    0  0.28503071385E+02  0.40326568161E+02  0.38309173547E+02  0.62499999647E+02  0.00000000000E+00 0. -1.
</event>
<event>
 4    1  0.1977788E-002  0.9118800E+02  0.7818608E-02  0.1130116E+00
         25   -1    0    0    0    0  0.00000000000E+00  0.00000000000E+00  0.99999998245E-14  0.12500000000E+03  0.12500000000E+03 0.  0.
        -11    1    1    0    0    0  0.51995938986E+01 -0.23521168854E+01  0.26194715728E+01  0.62793201969E+01  0.51100000000E-03 0.  1.
         11    1    1    0    0    0  0.46491635295E+02 -0.21249448650E+02  0.23404182276E+02  0.56220698756E+02  0.51100000000E-03 0. -1.
         22    1    1    0    0    0 -0.51691229193E+02  0.23601565536E+02 -0.26023653849E+02  0.62499981047E+02  0.00000000000E+00 0. -1.
</event>
<event>
 4    1  0.1977788E-002  0.9118800E+02  0.7818608E-02  0.1130116E+00
         25   -1    0    0    0    0  0.00000000000E+00  0.00000000000E+00  0.99999998245E-14  0.12500000000E+03  0.12500000000E+03 0.  0.
        -11    1    1    0    0    0  0.17311214922E+01 -0.49085324347E+02 -0.26086534186E+02  0.55613605475E+02  0.51100000000E-03 0.  1.
         11    1    1    0    0    0  0.21444464746E+00 -0.60781744464E+01 -0.32298975806E+01  0.68863945392E+01  0.51100000000E-03 0. -1.
         22    1    1    0    0    0 -0.19455661397E+01  0.55163498793E+02  0.29316431767E+02  0.62499999986E+02  0.00000000000E+00 0.  1.
</event>
<event>
 4    1  0.1977788E-002  0.9118800E+02  0.7818608E-02  0.1130116E+00
         25   -1    0    0    0    0  0.00000000000E+00  0.00000000000E+00  0.99999998245E-14  0.12500000000E+03  0.12500000000E+03 0.  0.
        -11    1    1    0    0    0 -0.74175597768E+00  0.58679924876E+00  0.16114033376E+01  0.18684636112E+01  0.51100000000E-03 0.  1.
         11    1    1    0    0    0 -0.42985354984E+02 -0.39221299413E+02  0.19054794720E+02  0.61230190861E+02  0.51100000000E-03 0. -1.
         22    1    1    0    0    0  0.43727110962E+02  0.38634500164E+02 -0.20666198058E+02  0.61901345528E+02  0.00000000000E+00 0. -1.
</event>
<event>
 4    1  0.1977788E-002  0.9118800E+02  0.7818608E-02  0.1130116E+00
         25   -1    0    0    0    0  0.00000000000E+00  0.00000000000E+00  0.99999998245E-14  0.12500000000E+03  0.12500000000E+03 0.  0.
        -11    1    1    0    0    0  0.59888655520E+00  0.24152707970E+00  0.10750227317E+01  0.12540632245E+01  0.51100000000E-03 0.  1.
         11    1    1    0    0    0  0.61424870105E+02 -0.19520381858E+01  0.33010468187E+01  0.61544471976E+02  0.51100000000E-03 0. -1.
         22    1    1    0    0    0 -0.62023756660E+02  0.17105111061E+01 -0.43760695504E+01  0.62201464799E+02  0.00000000000E+00 0. -1.
</event>
<event>
 4    1  0.1977788E-002  0.9118800E+02  0.7818608E-02  0.1130116E+00
         25   -1    0    0    0    0  0.00000000000E+00  0.00000000000E+00  0.99999998245E-14  0.12500000000E+03  0.12500000000E+03 0.  0.
        -11    1    1    0    0    0  0.36011106258E+01 -0.53608472861E+02 -0.25545649814E+02  0.59492996100E+02  0.51100000000E-03 0. -1.
         11    1    1    0    0    0  0.75998609128E-01 -0.22602961913E+01 -0.20802347473E+01  0.30727986472E+01  0.51100000000E-03 0.  1.
         22    1    1    0    0    0 -0.36771092349E+01  0.55868769053E+02  0.27625884561E+02  0.62434205253E+02  0.00000000000E+00 0. -1.
</event>
<event>
 4    1  0.1977788E-002  0.9118800E+02  0.7818608E-02  0.1130116E+00
         25   -1    0    0    0    0  0.00000000000E+00  0.00000000000E+00  0.99999998245E-14  0.12500000000E+03  0.12500000000E+03 0.  0.
        -11    1    1    0    0    0  0.43355150225E+02  0.13584887828E+02 -0.84662904585E+01  0.46215758165E+02  0.51100000000E-03 0.  1.
         11    1    1    0    0    0  0.15280544330E+02  0.47778138206E+01 -0.29755753821E+01  0.16284243582E+02  0.51100000000E-03 0. -1.
         22    1    1    0    0    0 -0.58635694555E+02 -0.18362701649E+02  0.11441865841E+02  0.62499998253E+02  0.00000000000E+00 0.  1.
</event>
<event>
 4    1  0.1977788E-002  0.9118800E+02  0.7818608E-02  0.1130116E+00
         25   -1    0    0    0    0  0.00000000000E+00  0.00000000000E+00  0.99999998245E-14  0.12500000000E+03  0.12500000000E+03 0.  0.
        -11    1    1    0    0    0  0.15118299345E+02 -0.20063439253E+02 -0.19848658648E+02  0.32016774043E+02  0.51100000000E-03 0.  1.
         11    1    1    0    0    0  0.97651096489E+01 -0.26717350052E+02 -0.12316111359E+02  0.30997754104E+02  0.51100000000E-03 0. -1.
         22    1    1    0    0    0 -0.24883408994E+02  0.46780789305E+02  0.32164770007E+02  0.61985471852E+02  0.00000000000E+00 0. -1.
</event>
<event>
 4    1  0.1977788E-002  0.9118800E+02  0.7818608E-02  0.1130116E+00
         25   -1    0    0    0    0  0.00000000000E+00  0.00000000000E+00  0.99999998245E-14  0.12500000000E+03  0.12500000000E+03 0.  0.
        -11    1    1    0    0    0  0.27904438489E+01  0.19721380257E+02 -0.92551714234E+01  0.21963096650E+02  0.51100000000E-03 0. -1.
         11    1    1    0    0    0  0.51519165666E+01  0.36398278022E+02 -0.17084017308E+02  0.40536903371E+02  0.51100000000E-03 0.  1.
         22    1    1    0    0    0 -0.79423604155E+01 -0.56119658279E+02  0.26339188731E+02  0.62499999979E+02  0.00000000000E+00 0. -1.
</event>
<event>
 4    1  0.1977788E-002  0.9118800E+02  0.7818608E-02  0.1130116E+00
         25   -1    0    0    0    0  0.00000000000E+00  0.00000000000E+00  0.99999998245E-14  0.12500000000E+03  0.12500000000E+03 0.  0.
        -11    1    1    0    0    0 -0.10557885863E+02  0.54328218347E-01  0.31975859327E+01  0.11031611918E+02  0.51100000000E-03 0.  1.
         11    1    1    0    0    0 -0.49219880895E+02  0.24414565482E+00  0.15044608060E+02  0.51468403068E+02  0.51100000000E-03 0. -1.
         22    1    1    0    0    0  0.59777766758E+02 -0.29847387316E+00 -0.18242193992E+02  0.62499985015E+02  0.00000000000E+00 0. -1.
</event>
<event>
 4    1  0.1977788E-002  0.9118800E+02  0.7818608E-02  0.1130116E+00
         25   -1    0    0    0    0  0.00000000000E+00  0.00000000000E+00  0.99999998245E-14  0.12500000000E+03  0.12500000000E+03 0.  0.
        -11    1    1    0    0    0 -0.45951732488E+01  0.34817512771E+01  0.79647645973E+01  0.98323793913E+01  0.51100000000E-03 0.  1.
         11    1    1    0    0    0 -0.25252453758E+02  0.18400850312E+02  0.42398620249E+02  0.52668023622E+02  0.51100000000E-03 0. -1.
         22    1    1    0    0    0  0.29847627007E+02 -0.21882601589E+02 -0.50363384846E+02  0.62499596986E+02  0.00000000000E+00 0. -1.
</event>
<event>
 4    1  0.1977788E-002  0.9118800E+02  0.7818608E-02  0.1130116E+00
         25   -1    0    0    0    0  0.00000000000E+00  0.00000000000E+00  0.99999998245E-14  0.12500000000E+03  0.12500000000E+03 0.  0.
        -11    1    1    0    0    0 -0.84390572518E+01 -0.36118057974E+02 -0.18700014269E+02  0.41538203296E+02  0.51100000000E-03 0. -1.
         11    1    1    0    0    0 -0.42589361056E+01 -0.18226296382E+02 -0.94371873233E+01  0.20961796712E+02  0.51100000000E-03 0. -1.
         22    1    1    0    0    0  0.12697993357E+02  0.54344354356E+02  0.28137201592E+02  0.62499999993E+02  0.00000000000E+00 0. -1.
</event>
<event>
 4    1  0.1977788E-002  0.9118800E+02  0.7818608E-02  0.1130116E+00
         25   -1    0    0    0    0  0.00000000000E+00  0.00000000000E+00  0.99999998245E-14  0.12500000000E+03  0.12500000000E+03 0.  0.
        -11    1    1    0    0    0 -0.33948879651E+02 -0.28230073836E+02  0.56436482548E+01  0.44511956419E+02  0.51100000000E-03 0. -1.
         11    1    1    0    0    0 -0.13697616739E+02 -0.11438961618E+02  0.22574014466E+01  0.17988062953E+02  0.51100000000E-03 0.  1.
         22    1    1    0    0    0  0.47646496390E+02  0.39669035454E+02 -0.79010497014E+01  0.62499980628E+02  0.00000000000E+00 0. -1.
</event>
<event>
 4    1  0.1977788E-002  0.9118800E+02  0.7818608E-02  0.1130116E+00
         25   -1    0    0    0    0  0.00000000000E+00  0.00000000000E+00  0.99999998245E-14  0.12500000000E+03  0.12500000000E+03 0.  0.
        -11    1    1    0    0    0 -0.16312126076E+02  0.48822077879E+01 -0.61386573117E+01  0.18099848725E+02  0.51100000000E-03 0.  1.
         11    1    1    0    0    0 -0.40015428344E+02  0.11976283013E+02 -0.15056811535E+02  0.44400151286E+02  0.51100000000E-03 0.  1.
         22    1    1    0    0    0  0.56327554420E+02 -0.16858490801E+02  0.21195468846E+02  0.62499999989E+02  0.00000000000E+00 0.  1.
</event>
<event>
 4    1  0.1977788E-002  0.9118800E+02  0.7818608E-02  0.1130116E+00
         25   -1    0    0    0    0  0.00000000000E+00  0.00000000000E+00  0.99999998245E-14  0.12500000000E+03  0.12500000000E+03 0.  0.
        -11    1    1    0    0    0  0.78426384569E+01 -0.19486917596E+02 -0.54442783414E+01  0.21699933232E+02  0.51100000000E-03 0. -1.
         11    1    1    0    0    0  0.14730534862E+02 -0.36646238817E+02 -0.10232791517E+02  0.40800067393E+02  0.51100000000E-03 0.  1.
         22    1    1    0    0    0 -0.22573173319E+02  0.56133156413E+02  0.15677069859E+02  0.62499999375E+02  0.00000000000E+00 0.  1.
</event>
<event>
 4    1  0.1977788E-002  0.9118800E+02  0.7818608E-02  0.1130116E+00
         25   -1    0    0    0    0  0.00000000000E+00  0.00000000000E+00  0.99999998245E-14  0.12500000000E+03  0.12500000000E+03 0.  0.
        -11    1    1    0    0    0  0.96296586917E+01 -0.23347034913E+01 -0.23228890001E+00  0.99113634433E+01  0.51100000000E-03 0. -1.
         11    1    1    0    0    0  0.48075642566E+02 -0.18287510797E+02 -0.11475038221E+02  0.52700825057E+02  0.51100000000E-03 0.  1.
         22    1    1    0    0    0 -0.57705301258E+02  0.20622214288E+02  0.11707327121E+02  0.62387811500E+02  0.00000000000E+00 0.  1.
</event>
<event>
 4    1  0.1977788E-002  0.9118800E+02  0.7818608E-02  0.1130116E+00
         25   -1    0    0    0    0  0.00000000000E+00  0.00000000000E+00  0.99999998245E-14  0.12500000000E+03  0.12500000000E+03 0.  0.
        -11    1    1    0    0    0  0.16491471888E+02 -0.77272956018E+00  0.29682129695E+00  0.16512233621E+02  0.51100000000E-03 0.  1.
         11    1    1    0    0    0  0.45961644884E+02 -0.15653303992E+01  0.21569402493E+00  0.45988798461E+02  0.51100000000E-03 0. -1.
         22    1    1    0    0    0 -0.62453116772E+02  0.23380599593E+01 -0.51251532188E+00  0.62498967918E+02  0.00000000000E+00 0. -1.
</event>
<event>
 4    1  0.1977788E-002  0.9118800E+02  0.7818608E-02  0.1130116E+00
         25   -1    0    0    0    0  0.00000000000E+00  0.00000000000E+00  0.99999998245E-14  0.12500000000E+03  0.12500000000E+03 0.  0.
        -11    1    1    0    0    0  0.15340191597E+02 -0.59373643355E+02 -0.10426233475E+02  0.62203354798E+02  0.51100000000E-03 0. -1.
         11    1    1    0    0    0  0.11125162437E+00 -0.28076812675E+00  0.55370703207E-01  0.30704045469E+00  0.51100000000E-03 0.  1.
         22    1    1    0    0    0 -0.15451443222E+02  0.59654411481E+02  0.10370862771E+02  0.62489604747E+02  0.00000000000E+00 0. -1.
</event>
<event>
 4    1  0.1977788E-002  0.9118800E+02  0.7818608E-02  0.1130116E+00
         25   -1    0    0    0    0  0.00000000000E+00  0.00000000000E+00  0.99999998245E-14  0.12500000000E+03  0.12500000000E+03 0.  0.
        -11    1    1    0    0    0  0.34106866045E+02 -0.40066994206E+01 -0.40012514105E+02  0.52728865311E+02  0.51100000000E-03 0.  1.
         11    1    1    0    0    0  0.57407425736E+01 -0.29662939244E+00 -0.79224641931E+01  0.97882354613E+01  0.51100000000E-03 0. -1.
         22    1    1    0    0    0 -0.39847608618E+02  0.43033288131E+01  0.47934978298E+02  0.62482899228E+02  0.00000000000E+00 0.  1.
</event>
<event>
 4    1  0.1977788E-002  0.9118800E+02  0.7818608E-02  0.1130116E+00
         25   -1    0    0    0    0  0.00000000000E+00  0.00000000000E+00  0.99999998245E-14  0.12500000000E+03  0.12500000000E+03 0.  0.
        -11    1    1    0    0    0  0.58166914489E+01  0.81368776672E+01 -0.58583973067E+00  0.10019275724E+02  0.51100000000E-03 0.  1.
         11    1    1    0    0    0  0.30470644000E+02  0.42618586360E+02 -0.30695884283E+01  0.52480724295E+02  0.51100000000E-03 0.  1.
         22    1    1    0    0    0 -0.36287335449E+02 -0.50755464028E+02  0.36554281589E+01  0.62499999981E+02  0.00000000000E+00 0.  1.
</event>
<event>
 4    1  0.1977788E-002  0.9118800E+02  0.7818608E-02  0.1130116E+00
         25   -1    0    0    0    0  0.00000000000E+00  0.00000000000E+00  0.99999998245E-14  0.12500000000E+03  0.12500000000E+03 0.  0.
        -11    1    1    0    0    0 -0.82486059032E+01 -0.15076798216E+02  0.44708152869E+02  0.47897476729E+02  0.51100000000E-03 0.  1.
         11    1    1    0    0    0 -0.37691106723E+01 -0.37515144675E+01  0.13631971772E+02  0.14632522364E+02  0.51100000000E-03 0. -1.
         22    1    1    0    0    0  0.12017716576E+02  0.18828312684E+02 -0.58340124641E+02  0.62470000907E+02  0.00000000000E+00 0.  1.
</event>
<event>
 4    1  0.1977788E-002  0.9118800E+02  0.7818608E-02  0.1130116E+00
         25   -1    0    0    0    0  0.00000000000E+00  0.00000000000E+00  0.99999998245E-14  0.12500000000E+03  0.12500000000E+03 0.  0.
        -11    1    1    0    0    0  0.19027320139E+01  0.11832383771E+02  0.47994406822E+01  0.12909698910E+02  0.51100000000E-03 0. -1.
         11    1    1    0    0    0  0.73063290875E+01  0.45451998925E+02  0.18437226267E+02  0.49590301105E+02  0.51100000000E-03 0. -1.
         22    1    1    0    0    0 -0.92090611014E+01 -0.57284382696E+02 -0.23236666949E+02  0.62499999985E+02  0.00000000000E+00 0. -1.
</event>
<event>
 4    1  0.1977788E-002  0.9118800E+02  0.7818608E-02  0.1130116E+00
         25   -1    0    0    0    0  0.00000000000E+00  0.00000000000E+00  0.99999998245E-14  0.12500000000E+03  0.12500000000E+03 0.  0.
        -11    1    1    0    0    0 -0.69317477759E+01  0.17757838141E+02  0.24603979564E+02  0.31124680774E+02  0.51100000000E-03 0. -1.
         11    1    1    0    0    0 -0.69893594834E+01  0.17901139948E+02  0.24801385043E+02  0.31375319245E+02  0.51100000000E-03 0. -1.
         22    1    1    0    0    0  0.13921107259E+02 -0.35658978088E+02 -0.49405364607E+02  0.62499999981E+02  0.00000000000E+00 0. -1.
</event>
<event>
 4    1  0.1977788E-002  0.9118800E+02  0.7818608E-02  0.1130116E+00
         25   -1    0    0    0    0  0.00000000000E+00  0.00000000000E+00  0.99999998245E-14  0.12500000000E+03  0.12500000000E+03 0.  0.
        -11    1    1    0    0    0 -0.22230918189E+02 -0.93120233678E+01 -0.45724111159E+02  0.51687733983E+02  0.51100000000E-03 0. -1.
         11    1    1    0    0    0  0.16412552210E+01 -0.53843453804E+00 -0.11539165383E+02  0.11667731933E+02  0.51100000000E-03 0.  1.
         22    1    1    0    0    0  0.20589662968E+02  0.98504579058E+01  0.57263276542E+02  0.61644534084E+02  0.00000000000E+00 0.  1.
</event>
<event>
 4    1  0.1977788E-002  0.9118800E+02  0.7818608E-02  0.1130116E+00
         25   -1    0    0    0    0  0.00000000000E+00  0.00000000000E+00  0.99999998245E-14  0.12500000000E+03  0.12500000000E+03 0.  0.
        -11    1    1    0    0    0 -0.30613859282E+02  0.40485104952E+02 -0.72405016098E+01  0.51270624795E+02  0.51100000000E-03 0. -1.
         11    1    1    0    0    0 -0.67075318272E+01  0.88655914069E+01 -0.15840384685E+01  0.11229375421E+02  0.51100000000E-03 0.  1.
         22    1    1    0    0    0  0.37321391109E+02 -0.49350696359E+02  0.88245400783E+01  0.62499999784E+02  0.00000000000E+00 0. -1.
</event>
<event>
 4    1  0.1977788E-002  0.9118800E+02  0.7818608E-02  0.1130116E+00
         25   -1    0    0    0    0  0.00000000000E+00  0.00000000000E+00  0.99999998245E-14  0.12500000000E+03  0.12500000000E+03 0.  0.
        -11    1    1    0    0    0  0.50089224109E+01  0.32646111146E+01 -0.32001109427E+01  0.67814231364E+01  0.51100000000E-03 0.  1.
         11    1    1    0    0    0  0.40759068434E+02  0.27166725281E+02 -0.26556465419E+02  0.55718744403E+02  0.51100000000E-03 0. -1.
         22    1    1    0    0    0 -0.45767990845E+02 -0.30431336395E+02  0.29756576362E+02  0.62499832460E+02  0.00000000000E+00 0. -1.
</event>
<event>
 4    1  0.1977788E-002  0.9118800E+02  0.7818608E-02  0.1130116E+00
         25   -1    0    0    0    0  0.00000000000E+00  0.00000000000E+00  0.99999998245E-14  0.12500000000E+03  0.12500000000E+03 0.  0.
        -11    1    1    0    0    0  0.74352354648E+01 -0.52213776447E+01 -0.21961096656E+02  0.23766263432E+02  0.51100000000E-03 0.  1.
         11    1    1    0    0    0  0.12128721985E+02 -0.84863426479E+01 -0.35793554826E+02  0.38733738212E+02  0.51100000000E-03 0. -1.
         22    1    1    0    0    0 -0.19563957450E+02  0.13707720293E+02  0.57754651482E+02  0.62499998356E+02  0.00000000000E+00 0.  1.
</event>
<event>
 4    1  0.1977788E-002  0.9118800E+02  0.7818608E-02  0.1130116E+00
         25   -1    0    0    0    0  0.00000000000E+00  0.00000000000E+00  0.99999998245E-14  0.12500000000E+03  0.12500000000E+03 0.  0.
        -11    1    1    0    0    0 -0.38135786278E+02 -0.23682054287E+02 -0.75910927273E+01  0.45528041682E+02  0.51100000000E-03 0.  1.
         11    1    1    0    0    0 -0.14297550738E+02 -0.86834815184E+01 -0.28696994704E+01  0.16972271023E+02  0.51100000000E-03 0. -1.
         22    1    1    0    0    0  0.52433337016E+02  0.32365535805E+02  0.10460792198E+02  0.62499687295E+02  0.00000000000E+00 0.  1.
</event>
<event>
 4    1  0.1977788E-002  0.9118800E+02  0.7818608E-02  0.1130116E+00
         25   -1    0    0    0    0  0.00000000000E+00  0.00000000000E+00  0.99999998245E-14  0.12500000000E+03  0.12500000000E+03 0.  0.
        -11    1    1    0    0    0  0.22818072986E+00 -0.56529002078E+01  0.52949377580E+01  0.77487878617E+01  0.51100000000E-03 0. -1.
         11    1    1    0    0    0  0.16095173479E+01 -0.39944543786E+02  0.37410401071E+02  0.54751212159E+02  0.51100000000E-03 0. -1.
         22    1    1    0    0    0 -0.18376980778E+01  0.45597443993E+02 -0.42705338829E+02  0.62499999979E+02  0.00000000000E+00 0. -1.
</event>
<event>
 4    1  0.1977788E-002  0.9118800E+02  0.7818608E-02  0.1130116E+00
         25   -1    0    0    0    0  0.00000000000E+00  0.00000000000E+00  0.99999998245E-14  0.12500000000E+03  0.12500000000E+03 0.  0.
        -11    1    1    0    0    0  0.26058346098E+02  0.44414856655E+02  0.20745466733E+02  0.55516585660E+02  0.51100000000E-03 0.  1.
         11    1    1    0    0    0 -0.27556307693E+01 -0.14714282043E+01  0.10855471648E+02  0.11296011104E+02  0.51100000000E-03 0. -1.
         22    1    1    0    0    0 -0.23302715329E+02 -0.42943428451E+02 -0.31600938381E+02  0.58187403236E+02  0.00000000000E+00 0.  1.
</event>
<event>
 4    1  0.1977788E-002  0.9118800E+02  0.7818608E-02  0.1130116E+00
         25   -1    0    0    0    0  0.00000000000E+00  0.00000000000E+00  0.99999998245E-14  0.12500000000E+03  0.12500000000E+03 0.  0.
        -11    1    1    0    0    0  0.31038686908E+02  0.27822058169E+02  0.21533566850E+02  0.46916537674E+02  0.51100000000E-03 0.  1.
         11    1    1    0    0    0  0.10359947732E+02  0.91004161506E+01  0.72602311754E+01  0.15583871410E+02  0.51100000000E-03 0. -1.
         22    1    1    0    0    0 -0.41398634641E+02 -0.36922474320E+02 -0.28793798025E+02  0.62499590916E+02  0.00000000000E+00 0.  1.
</event>
<event>
 4    1  0.1977788E-002  0.9118800E+02  0.7818608E-02  0.1130116E+00
         25   -1    0    0    0    0  0.00000000000E+00  0.00000000000E+00  0.99999998245E-14  0.12500000000E+03  0.12500000000E+03 0.  0.
        -11    1    1    0    0    0 -0.33607629768E+01 -0.40229880753E+01  0.30620431488E+01  0.60708540871E+01  0.51100000000E-03 0. -1.
         11    1    1    0    0    0 -0.53331910377E+02 -0.13587526422E+02  0.14698283425E+02  0.56964489593E+02  0.51100000000E-03 0.  1.
         22    1    1    0    0    0  0.56692673354E+02  0.17610514497E+02 -0.17760326574E+02  0.61964656320E+02  0.00000000000E+00 0.  1.
</event>
<event>
 4    1  0.1977788E-002  0.9118800E+02  0.7818608E-02  0.1130116E+00
         25   -1    0    0    0    0  0.00000000000E+00  0.00000000000E+00  0.99999998245E-14  0.12500000000E+03  0.12500000000E+03 0.  0.
        -11    1    1    0    0    0  0.41920881398E+00  0.10298216206E+00  0.55309799641E+00  0.70161172323E+00  0.51100000000E-03 0.  1.
         11    1    1    0    0    0  0.11283324510E+02 -0.40970481850E+02 -0.45619539841E+02  0.62346100204E+02  0.51100000000E-03 0. -1.
         22    1    1    0    0    0 -0.11702533324E+02  0.40867499688E+02  0.45066441845E+02  0.61952288073E+02  0.00000000000E+00 0. -1.
</event>
<event>
 4    1  0.1977788E-002  0.9118800E+02  0.7818608E-02  0.1130116E+00
         25   -1    0    0    0    0  0.00000000000E+00  0.00000000000E+00  0.99999998245E-14  0.12500000000E+03  0.12500000000E+03 0.  0.
        -11    1    1    0    0    0 -0.36744176778E+01 -0.40967588329E+01 -0.26146984308E+01  0.60927355392E+01  0.51100000000E-03 0.  1.
         11    1    1    0    0    0 -0.34007093727E+02 -0.37930539226E+02 -0.24219233444E+02  0.56407264591E+02  0.51100000000E-03 0. -1.
         22    1    1    0    0    0  0.37681511405E+02  0.42027298058E+02  0.26833931875E+02  0.62499999870E+02  0.00000000000E+00 0. -1.
</event>
<event>
 4    1  0.1977788E-002  0.9118800E+02  0.7818608E-02  0.1130116E+00
         25   -1    0    0    0    0  0.00000000000E+00  0.00000000000E+00  0.99999998245E-14  0.12500000000E+03  0.12500000000E+03 0.  0.
        -11    1    1    0    0    0 -0.21993899541E+02  0.13089185193E+02  0.14408315352E+02  0.29371039096E+02  0.51100000000E-03 0.  1.
         11    1    1    0    0    0 -0.24751691865E+02  0.14731943800E+02  0.16366297554E+02  0.33129022234E+02  0.51100000000E-03 0. -1.
         22    1    1    0    0    0  0.46745591405E+02 -0.27821128993E+02 -0.30774612906E+02  0.62499938670E+02  0.00000000000E+00 0. -1.
</event>
<event>
 4    1  0.1977788E-002  0.9118800E+02  0.7818608E-02  0.1130116E+00
         25   -1    0    0    0    0  0.00000000000E+00  0.00000000000E+00  0.99999998245E-14  0.12500000000E+03  0.12500000000E+03 0.  0.
        -11    1    1    0    0    0 -0.42463837940E+01 -0.49119325336E+02 -0.86784455386E+01  0.50060516518E+02  0.51100000000E-03 0. -1.
         11    1    1    0    0    0 -0.10454937779E+01 -0.12206878499E+02 -0.21540310883E+01  0.12439485122E+02  0.51100000000E-03 0.  1.
         22    1    1    0    0    0  0.52918775720E+01  0.61326203835E+02  0.10832476627E+02  0.62499998359E+02  0.00000000000E+00 0. -1.
</event>
<event>
 4    1  0.1977788E-002  0.9118800E+02  0.7818608E-02  0.1130116E+00
         25   -1    0    0    0    0  0.00000000000E+00  0.00000000000E+00  0.99999998245E-14  0.12500000000E+03  0.12500000000E+03 0.  0.
        -11    1    1    0    0    0 -0.27674042025E+02  0.32557833874E+02 -0.36149000788E+02  0.55969772260E+02  0.51100000000E-03 0. -1.
         11    1    1    0    0    0 -0.67877403825E+01 -0.34602504973E+01 -0.40364071209E+01  0.86220261952E+01  0.51100000000E-03 0.  1.
         22    1    1    0    0    0  0.34461782407E+02 -0.29097583377E+02  0.40185407909E+02  0.60408201545E+02  0.00000000000E+00 0. -1.
</event>
<event>
 4    1  0.1977788E-002  0.9118800E+02  0.7818608E-02  0.1130116E+00
         25   -1    0    0    0    0  0.00000000000E+00  0.00000000000E+00  0.99999998245E-14  0.12500000000E+03  0.12500000000E+03 0.  0.
        -11    1    1    0    0    0  0.19187189269E+01 -0.28806671353E+02 -0.23578991054E+02  0.37275657153E+02  0.51100000000E-03 0.  1.
         11    1    1    0    0    0  0.12986209562E+01 -0.19493286402E+02 -0.15955965684E+02  0.25224342852E+02  0.51100000000E-03 0.  1.
         22    1    1    0    0    0 -0.32173398831E+01  0.48299957755E+02  0.39534956738E+02  0.62499999995E+02  0.00000000000E+00 0.  1.
</event>
<event>
 4    1  0.1977788E-002  0.9118800E+02  0.7818608E-02  0.1130116E+00
         25   -1    0    0    0    0  0.00000000000E+00  0.00000000000E+00  0.99999998245E-14  0.12500000000E+03  0.12500000000E+03 0.  0.
        -11    1    1    0    0    0  0.43811509565E+01  0.31424251441E+01  0.47241755434E+01  0.71684834041E+01  0.51100000000E-03 0.  1.
         11    1    1    0    0    0  0.33732210521E+02  0.24091275503E+02  0.36651454377E+02  0.55331552393E+02  0.51100000000E-03 0. -1.
         22    1    1    0    0    0 -0.38113361478E+02 -0.27233700647E+02 -0.41375629921E+02  0.62499964203E+02  0.00000000000E+00 0. -1.
</event>
<event>
 4    1  0.1977788E-002  0.9118800E+02  0.7818608E-02  0.1130116E+00
         25   -1    0    0    0    0  0.00000000000E+00  0.00000000000E+00  0.99999998245E-14  0.12500000000E+03  0.12500000000E+03 0.  0.
        -11    1    1    0    0    0  0.10364944594E+01  0.19580358842E+01  0.26850771466E+02  0.26942014658E+02  0.51100000000E-03 0. -1.
         11    1    1    0    0    0  0.13208086833E+01  0.25120049829E+01  0.35444565599E+02  0.35558008034E+02  0.51100000000E-03 0.  1.
         22    1    1    0    0    0 -0.23573031427E+01 -0.44700408671E+01 -0.62295337064E+02  0.62499977307E+02  0.00000000000E+00 0. -1.
</event>
<event>
 4    1  0.1977788E-002  0.9118800E+02  0.7818608E-02  0.1130116E+00
         25   -1    0    0    0    0  0.00000000000E+00  0.00000000000E+00  0.99999998245E-14  0.12500000000E+03  0.12500000000E+03 0.  0.
        -11    1    1    0    0    0 -0.17908018823E+02  0.10641547461E+02 -0.46504421898E+02  0.50956853581E+02  0.51100000000E-03 0. -1.
         11    1    1    0    0    0 -0.50690540096E+01  0.23485902589E+01 -0.10125264525E+02  0.11564262480E+02  0.51100000000E-03 0.  1.
         22    1    1    0    0    0  0.22977072833E+02 -0.12990137719E+02  0.56629686423E+02  0.62478883939E+02  0.00000000000E+00 0. -1.
</event>
<event>
 4    1  0.1977788E-002  0.9118800E+02  0.7818608E-02  0.1130116E+00
         25   -1    0    0    0    0  0.00000000000E+00  0.00000000000E+00  0.99999998245E-14  0.12500000000E+03  0.12500000000E+03 0.  0.
        -11    1    1    0    0    0  0.34521445409E+02 -0.33692034706E+02 -0.19993742773E+02  0.52217172904E+02  0.51100000000E-03 0.  1.
         11    1    1    0    0    0  0.68017913761E+01 -0.22430011440E+01 -0.84475969900E+01  0.11075076308E+02  0.51100000000E-03 0. -1.
         22    1    1    0    0    0 -0.41323236785E+02  0.35935035850E+02  0.28441339763E+02  0.61707750789E+02  0.00000000000E+00 0.  1.
</event>
<event>
 4    1  0.1977788E-002  0.9118800E+02  0.7818608E-02  0.1130116E+00
         25   -1    0    0    0    0  0.00000000000E+00  0.00000000000E+00  0.99999998245E-14  0.12500000000E+03  0.12500000000E+03 0.  0.
        -11    1    1    0    0    0  0.26116119388E+01  0.29677042145E+01 -0.71639186001E-01  0.39538484616E+01  0.51100000000E-03 0.  1.
         11    1    1    0    0    0  0.47892008610E+02  0.33560797060E+02  0.38123797774E+01  0.58604657049E+02  0.51100000000E-03 0. -1.
         22    1    1    0    0    0 -0.50503620549E+02 -0.36528501274E+02 -0.37407405914E+01  0.62441494489E+02  0.00000000000E+00 0. -1.
</event>
<event>
 4    1  0.1977788E-002  0.9118800E+02  0.7818608E-02  0.1130116E+00
         25   -1    0    0    0    0  0.00000000000E+00  0.00000000000E+00  0.99999998245E-14  0.12500000000E+03  0.12500000000E+03 0.  0.
        -11    1    1    0    0    0  0.26315139949E+02  0.36567359018E+00 -0.58106265692E+01  0.26951506249E+02  0.51100000000E-03 0. -1.
         11    1    1    0    0    0  0.16553839072E+02 -0.37546497161E+02  0.45812127302E+01  0.41288697574E+02  0.51100000000E-03 0.  1.
         22    1    1    0    0    0 -0.42868979020E+02  0.37180823571E+02  0.12294138390E+01  0.56759796177E+02  0.00000000000E+00 0.  1.
</event>
<event>
 4    1  0.1977788E-002  0.9118800E+02  0.7818608E-02  0.1130116E+00
         25   -1    0    0    0    0  0.00000000000E+00  0.00000000000E+00  0.99999998245E-14  0.12500000000E+03  0.12500000000E+03 0.  0.
        -11    1    1    0    0    0 -0.80533761558E+01  0.30817552826E+02 -0.16464519691E+02  0.35856085099E+02  0.51100000000E-03 0. -1.
         11    1    1    0    0    0 -0.59832710702E+01  0.22899676377E+02 -0.12235337792E+02  0.26643914916E+02  0.51100000000E-03 0.  1.
         22    1    1    0    0    0  0.14036647226E+02 -0.53717229203E+02  0.28699857483E+02  0.62499999986E+02  0.00000000000E+00 0.  1.
</event>
<event>
 4    1  0.1977788E-002  0.9118800E+02  0.7818608E-02  0.1130116E+00
         25   -1    0    0    0    0  0.00000000000E+00  0.00000000000E+00  0.99999998245E-14  0.12500000000E+03  0.12500000000E+03 0.  0.
        -11    1    1    0    0    0 -0.23586700223E+02  0.10555247261E+02  0.54994303016E+02  0.60762809650E+02  0.51100000000E-03 0. -1.
         11    1    1    0    0    0 -0.67420240408E+00  0.30233607020E+00  0.15722195679E+01  0.17371904363E+01  0.51100000000E-03 0. -1.
         22    1    1    0    0    0  0.24260902627E+02 -0.10857583331E+02 -0.56566522583E+02  0.62499999914E+02  0.00000000000E+00 0. -1.
</event>
<event>
 4    1  0.1977788E-002  0.9118800E+02  0.7818608E-02  0.1130116E+00
         25   -1    0    0    0    0  0.00000000000E+00  0.00000000000E+00  0.99999998245E-14  0.12500000000E+03  0.12500000000E+03 0.  0.
        -11    1    1    0    0    0 -0.46147923685E+01 -0.10985737070E+01  0.33781299476E+01  0.58236530629E+01  0.51100000000E-03 0.  1.
         11    1    1    0    0    0 -0.44892964922E+02 -0.10724879371E+02  0.32890835266E+02  0.56676347639E+02  0.51100000000E-03 0. -1.
         22    1    1    0    0    0  0.49507757290E+02  0.11823453078E+02 -0.36268965213E+02  0.62499999298E+02  0.00000000000E+00 0. -1.
</event>
<event>
 4    1  0.1977788E-002  0.9118800E+02  0.7818608E-02  0.1130116E+00
         25   -1    0    0    0    0  0.00000000000E+00  0.00000000000E+00  0.99999998245E-14  0.12500000000E+03  0.12500000000E+03 0.  0.
        -11    1    1    0    0    0  0.18604415412E+02  0.29981622529E+02  0.88539752415E+01  0.36378769085E+02  0.51100000000E-03 0. -1.
         11    1    1    0    0    0  0.13392367168E+02  0.21525353402E+02  0.62947474161E+01  0.26121259210E+02  0.51100000000E-03 0.  1.
         22    1    1    0    0    0 -0.31996782580E+02 -0.51506975931E+02 -0.15148722658E+02  0.62499971705E+02  0.00000000000E+00 0. -1.
</event>
<event>
 4    1  0.1977788E-002  0.9118800E+02  0.7818608E-02  0.1130116E+00
         25   -1    0    0    0    0  0.00000000000E+00  0.00000000000E+00  0.99999998245E-14  0.12500000000E+03  0.12500000000E+03 0.  0.
        -11    1    1    0    0    0 -0.72423150627E+01  0.21587851631E+02  0.52337644804E+01  0.23364048374E+02  0.51100000000E-03 0.  1.
         11    1    1    0    0    0 -0.10012339401E+02  0.37871008363E+02  0.24519946440E+01  0.39248853394E+02  0.51100000000E-03 0. -1.
         22    1    1    0    0    0  0.17254654463E+02 -0.59458859995E+02 -0.76857591244E+01  0.62387098232E+02  0.00000000000E+00 0.  1.
</event>
<event>
 4    1  0.1977788E-002  0.9118800E+02  0.7818608E-02  0.1130116E+00
         25   -1    0    0    0    0  0.00000000000E+00  0.00000000000E+00  0.99999998245E-14  0.12500000000E+03  0.12500000000E+03 0.  0.
        -11    1    1    0    0    0  0.23773568125E+02 -0.19721012161E+02  0.10065566093E+02  0.32487174132E+02  0.51100000000E-03 0. -1.
         11    1    1    0    0    0  0.12519788458E+02 -0.26397668507E+02  0.93854135653E+01  0.30686609355E+02  0.51100000000E-03 0.  1.
         22    1    1    0    0    0 -0.36293356583E+02  0.46118680668E+02 -0.19450979658E+02  0.61826216513E+02  0.00000000000E+00 0. -1.
</event>
<event>
 4    1  0.1977788E-002  0.9118800E+02  0.7818608E-02  0.1130116E+00
         25   -1    0    0    0    0  0.00000000000E+00  0.00000000000E+00  0.99999998245E-14  0.12500000000E+03  0.12500000000E+03 0.  0.
        -11    1    1    0    0    0  0.61228856093E+01  0.13770032363E+02  0.72270658102E+01  0.16713288125E+02  0.51100000000E-03 0. -1.
         11    1    1    0    0    0  0.13242691885E+02  0.35912495284E+02  0.25247287471E+02  0.45853044946E+02  0.51100000000E-03 0.  1.
         22    1    1    0    0    0 -0.19365577494E+02 -0.49682527648E+02 -0.32474353281E+02  0.62433666929E+02  0.00000000000E+00 0.  1.
</event>
<event>
 4    1  0.1977788E-002  0.9118800E+02  0.7818608E-02  0.1130116E+00
         25   -1    0    0    0    0  0.00000000000E+00  0.00000000000E+00  0.99999998245E-14  0.12500000000E+03  0.12500000000E+03 0.  0.
        -11    1    1    0    0    0 -0.27100286284E+01 -0.17047377249E+02 -0.40731643241E+02  0.44238264970E+02  0.51100000000E-03 0.  1.
         11    1    1    0    0    0  0.11567664387E+01 -0.17856818572E+02 -0.89635020309E+01  0.20013706479E+02  0.51100000000E-03 0. -1.
         22    1    1    0    0    0  0.15532621897E+01  0.34904195820E+02  0.49695145272E+02  0.60748028551E+02  0.00000000000E+00 0.  1.
</event>
<event>
 4    1  0.1977788E-002  0.9118800E+02  0.7818608E-02  0.1130116E+00
         25   -1    0    0    0    0  0.00000000000E+00  0.00000000000E+00  0.99999998245E-14  0.12500000000E+03  0.12500000000E+03 0.  0.
        -11    1    1    0    0    0 -0.11121965594E+02  0.33770331084E+02 -0.18475692223E+02  0.40068498644E+02  0.51100000000E-03 0.  1.
         11    1    1    0    0    0 -0.17038443093E+01  0.21316490520E+02 -0.75402016372E+01  0.22674886869E+02  0.51100000000E-03 0. -1.
         22    1    1    0    0    0  0.12825809903E+02 -0.55086821604E+02  0.26015893860E+02  0.62256614487E+02  0.00000000000E+00 0.  1.
</event>
<event>
 4    1  0.1977788E-002  0.9118800E+02  0.7818608E-02  0.1130116E+00
         25   -1    0    0    0    0  0.00000000000E+00  0.00000000000E+00  0.99999998245E-14  0.12500000000E+03  0.12500000000E+03 0.  0.
        -11    1    1    0    0    0  0.92446904969E+00  0.63222967339E+00  0.25087065178E+00  0.11477341717E+01  0.51100000000E-03 0.  1.
         11    1    1    0    0    0  0.45111454632E+02  0.40010224357E+02  0.11349141289E+02  0.61356861070E+02  0.51100000000E-03 0. -1.
         22    1    1    0    0    0 -0.46035923681E+02 -0.40642454031E+02 -0.11600011941E+02  0.62495404758E+02  0.00000000000E+00 0. -1.
</event>
<event>
 4    1  0.1977788E-002  0.9118800E+02  0.7818608E-02  0.1130116E+00
         25   -1    0    0    0    0  0.00000000000E+00  0.00000000000E+00  0.99999998245E-14  0.12500000000E+03  0.12500000000E+03 0.  0.
        -11    1    1    0    0    0 -0.70676965034E+01  0.22029143158E+02 -0.34554811546E+01  0.23391789850E+02  0.51100000000E-03 0.  1.
         11    1    1    0    0    0 -0.11812209402E+02  0.36831287248E+02 -0.57775508115E+01  0.39108210199E+02  0.51100000000E-03 0. -1.
         22    1    1    0    0    0  0.18879905906E+02 -0.58860430406E+02  0.92330319661E+01  0.62499999951E+02  0.00000000000E+00 0. -1.
</event>
<event>
 4    1  0.1977788E-002  0.9118800E+02  0.7818608E-02  0.1130116E+00
         25   -1    0    0    0    0  0.00000000000E+00  0.00000000000E+00  0.99999998245E-14  0.12500000000E+03  0.12500000000E+03 0.  0.
        -11    1    1    0    0    0 -0.56694976192E+01 -0.59781937289E+01 -0.62015337129E+01  0.10312178440E+02  0.51100000000E-03 0. -1.
         11    1    1    0    0    0 -0.28659652096E+02 -0.30456460169E+02 -0.31218629461E+02  0.52187876466E+02  0.51100000000E-03 0.  1.
         22    1    1    0    0    0  0.34329149716E+02  0.36434653898E+02  0.37420163174E+02  0.62499945095E+02  0.00000000000E+00 0.  1.
</event>
<event>
 4    1  0.1977788E-002  0.9118800E+02  0.7818608E-02  0.1130116E+00
         25   -1    0    0    0    0  0.00000000000E+00  0.00000000000E+00  0.99999998245E-14  0.12500000000E+03  0.12500000000E+03 0.  0.
        -11    1    1    0    0    0  0.70464952880E+01  0.21635573821E+01  0.40762217270E+00  0.73824272761E+01  0.51100000000E-03 0. -1.
         11    1    1    0    0    0  0.52621138819E+02  0.16113742236E+02  0.30512273140E+01  0.55117573675E+02  0.51100000000E-03 0.  1.
         22    1    1    0    0    0 -0.59667634107E+02 -0.18277299618E+02 -0.34588494867E+01  0.62499999048E+02  0.00000000000E+00 0.  1.
</event>
<event>
 4    1  0.1977788E-002  0.9118800E+02  0.7818608E-02  0.1130116E+00
         25   -1    0    0    0    0  0.00000000000E+00  0.00000000000E+00  0.99999998245E-14  0.12500000000E+03  0.12500000000E+03 0.  0.
        -11    1    1    0    0    0  0.14768381327E+02 -0.79636741836E+01  0.24666674172E+02  0.29832365117E+02  0.51100000000E-03 0.  1.
         11    1    1    0    0    0  0.47003757196E+01 -0.20998307590E+01  0.33040415559E+02  0.33439077165E+02  0.51100000000E-03 0. -1.
         22    1    1    0    0    0 -0.19468757047E+02  0.10063504943E+02 -0.57707089731E+02  0.61728557717E+02  0.00000000000E+00 0. -1.
</event>
<event>
 4    1  0.1977788E-002  0.9118800E+02  0.7818608E-02  0.1130116E+00
         25   -1    0    0    0    0  0.00000000000E+00  0.00000000000E+00  0.99999998245E-14  0.12500000000E+03  0.12500000000E+03 0.  0.
        -11    1    1    0    0    0 -0.10828219315E+01  0.11420642530E+01 -0.12671680734E+01  0.20205269809E+01  0.51100000000E-03 0. -1.
         11    1    1    0    0    0 -0.32483000399E+02  0.34160561178E+02 -0.37890335474E+02  0.60479474018E+02  0.51100000000E-03 0.  1.
         22    1    1    0    0    0  0.33565822331E+02 -0.35302625431E+02  0.39157503547E+02  0.62499999001E+02  0.00000000000E+00 0.  1.
</event>
<event>
 4    1  0.1977788E-002  0.9118800E+02  0.7818608E-02  0.1130116E+00
         25   -1    0    0    0    0  0.00000000000E+00  0.00000000000E+00  0.99999998245E-14  0.12500000000E+03  0.12500000000E+03 0.  0.
        -11    1    1    0    0    0  0.15492215415E+01  0.31102297139E+02  0.33479079941E+02  0.45723098853E+02  0.51100000000E-03 0. -1.
         11    1    1    0    0    0  0.64072335682E+00  0.11388059617E+02  0.12303180000E+02  0.16776968338E+02  0.51100000000E-03 0.  1.
         22    1    1    0    0    0 -0.21899448983E+01 -0.42490356756E+02 -0.45782259941E+02  0.62499932809E+02  0.00000000000E+00 0. -1.
</event>
<event>
 4    1  0.1977788E-002  0.9118800E+02  0.7818608E-02  0.1130116E+00
         25   -1    0    0    0    0  0.00000000000E+00  0.00000000000E+00  0.99999998245E-14  0.12500000000E+03  0.12500000000E+03 0.  0.
        -11    1    1    0    0    0  0.56354743168E+00 -0.58102790200E+01 -0.17823244223E-02  0.58375449836E+01  0.51100000000E-03 0.  1.
         11    1    1    0    0    0  0.54525876775E+01 -0.56399229400E+02  0.17839045446E+00  0.56662470937E+02  0.51100000000E-03 0. -1.
         22    1    1    0    0    0 -0.60161351092E+01  0.62209508420E+02 -0.17660813003E+00  0.62499984079E+02  0.00000000000E+00 0. -1.
</event>
<event>
 4    1  0.1977788E-002  0.9118800E+02  0.7818608E-02  0.1130116E+00
         25   -1    0    0    0    0  0.00000000000E+00  0.00000000000E+00  0.99999998245E-14  0.12500000000E+03  0.12500000000E+03 0.  0.
        -11    1    1    0    0    0 -0.41110464439E+02  0.56543817039E+01 -0.40583026179E+02  0.58043297054E+02  0.51100000000E-03 0.  1.
         11    1    1    0    0    0 -0.20151584287E+01 -0.90860861254E+01  0.33907221418E+01  0.99052925991E+01  0.51100000000E-03 0. -1.
         22    1    1    0    0    0  0.43125622867E+02  0.34317044215E+01  0.37192304037E+02  0.57051410347E+02  0.00000000000E+00 0.  1.
</event>
<event>
 4    1  0.1977788E-002  0.9118800E+02  0.7818608E-02  0.1130116E+00
         25   -1    0    0    0    0  0.00000000000E+00  0.00000000000E+00  0.99999998245E-14  0.12500000000E+03  0.12500000000E+03 0.  0.
        -11    1    1    0    0    0 -0.91561356613E-01 -0.86589321168E+01 -0.48770679758E+00  0.86731394009E+01  0.51100000000E-03 0. -1.
         11    1    1    0    0    0 -0.99204100346E+01 -0.52965385015E+02 -0.41421191984E+00  0.53888014594E+02  0.51100000000E-03 0.  1.
         22    1    1    0    0    0  0.10011971391E+02  0.61624317132E+02  0.90191871742E+00  0.62438846006E+02  0.00000000000E+00 0.  1.
</event>
<event>
 4    1  0.1977788E-002  0.9118800E+02  0.7818608E-02  0.1130116E+00
         25   -1    0    0    0    0  0.00000000000E+00  0.00000000000E+00  0.99999998245E-14  0.12500000000E+03  0.12500000000E+03 0.  0.
        -11    1    1    0    0    0  0.17492588371E+02 -0.23652890072E+02  0.52108087138E+01  0.29876452005E+02  0.51100000000E-03 0. -1.
         11    1    1    0    0    0  0.19099060568E+02 -0.25828775057E+02  0.56917616123E+01  0.32623548029E+02  0.51100000000E-03 0.  1.
         22    1    1    0    0    0 -0.36591648940E+02  0.49481665128E+02 -0.10902570326E+02  0.62499999966E+02  0.00000000000E+00 0.  1.
</event>
<event>
 4    1  0.1977788E-002  0.9118800E+02  0.7818608E-02  0.1130116E+00
         25   -1    0    0    0    0  0.00000000000E+00  0.00000000000E+00  0.99999998245E-14  0.12500000000E+03  0.12500000000E+03 0.  0.
        -11    1    1    0    0    0  0.52370044974E+01  0.12484991654E+01 -0.33926690108E+01  0.63635815034E+01  0.51100000000E-03 0.  1.
         11    1    1    0    0    0  0.42177785532E+02  0.99407787189E+01 -0.35722596871E+02  0.56159492531E+02  0.51100000000E-03 0. -1.
         22    1    1    0    0    0 -0.47414790029E+02 -0.11189277884E+02  0.39115265882E+02  0.62476925965E+02  0.00000000000E+00 0. -1.
</event>
<event>
 4    1  0.1977788E-002  0.9118800E+02  0.7818608E-02  0.1130116E+00
         25   -1    0    0    0    0  0.00000000000E+00  0.00000000000E+00  0.99999998245E-14  0.12500000000E+03  0.12500000000E+03 0.  0.
        -11    1    1    0    0    0 -0.39213420238E+02 -0.97463321299E+01  0.31744054481E+02  0.51384514320E+02  0.51100000000E-03 0. -1.
         11    1    1    0    0    0 -0.83290053826E+01 -0.20820625770E+01  0.70620359549E+01  0.11116639210E+02  0.51100000000E-03 0.  1.
         22    1    1    0    0    0  0.47542425620E+02  0.11828394707E+02 -0.38806090436E+02  0.62498846470E+02  0.00000000000E+00 0. -1.
</event>
<event>
 4    1  0.1977788E-002  0.9118800E+02  0.7818608E-02  0.1130116E+00
         25   -1    0    0    0    0  0.00000000000E+00  0.00000000000E+00  0.99999998245E-14  0.12500000000E+03  0.12500000000E+03 0.  0.
        -11    1    1    0    0    0  0.11120237382E+02  0.15041583838E+02 -0.25152720448E+01  0.18874202434E+02  0.51100000000E-03 0. -1.
         11    1    1    0    0    0  0.25800005521E+02  0.34727935574E+02 -0.56167539881E+01  0.43625883598E+02  0.51100000000E-03 0.  1.
         22    1    1    0    0    0 -0.36920242903E+02 -0.49769519412E+02  0.81320260329E+01  0.62499913968E+02  0.00000000000E+00 0.  1.
</event>
<event>
 4    1  0.1977788E-002  0.9118800E+02  0.7818608E-02  0.1130116E+00
         25   -1    0    0    0    0  0.00000000000E+00  0.00000000000E+00  0.99999998245E-14  0.12500000000E+03  0.12500000000E+03 0.  0.
        -11    1    1    0    0    0  0.37312877912E+02  0.46602767148E+02  0.14487027559E+01  0.59717396995E+02  0.51100000000E-03 0. -1.
         11    1    1    0    0    0  0.17202197156E+01  0.21853807168E+01  0.91446349436E-01  0.27826978713E+01  0.51100000000E-03 0.  1.
         22    1    1    0    0    0 -0.39033097627E+02 -0.48788147865E+02 -0.15401491053E+01  0.62499905134E+02  0.00000000000E+00 0. -1.
</event>
<event>
 4    1  0.1977788E-002  0.9118800E+02  0.7818608E-02  0.1130116E+00
         25   -1    0    0    0    0  0.00000000000E+00  0.00000000000E+00  0.99999998245E-14  0.12500000000E+03  0.12500000000E+03 0.  0.
        -11    1    1    0    0    0 -0.45617433408E-01  0.19791377720E+01  0.38920153346E+00  0.20175592595E+01  0.51100000000E-03 0.  1.
         11    1    1    0    0    0 -0.21073274236E+02  0.50711046618E+02 -0.25938130131E+02  0.60732855450E+02  0.51100000000E-03 0. -1.
         22    1    1    0    0    0  0.21118891670E+02 -0.52690184390E+02  0.25548928597E+02  0.62249585291E+02  0.00000000000E+00 0. -1.
</event>
<event>
 4    1  0.1977788E-002  0.9118800E+02  0.7818608E-02  0.1130116E+00
         25   -1    0    0    0    0  0.00000000000E+00  0.00000000000E+00  0.99999998245E-14  0.12500000000E+03  0.12500000000E+03 0.  0.
        -11    1    1    0    0    0 -0.75521887944E+01  0.28035090005E+02  0.55499133376E+01  0.29560165180E+02  0.51100000000E-03 0. -1.
         11    1    1    0    0    0 -0.84151011968E+01  0.31242008180E+02  0.61770323253E+01  0.32939835032E+02  0.51100000000E-03 0.  1.
         22    1    1    0    0    0  0.15967289991E+02 -0.59277098185E+02 -0.11726945663E+02  0.62499999788E+02  0.00000000000E+00 0.  1.
</event>
<event>
 4    1  0.1977788E-002  0.9118800E+02  0.7818608E-02  0.1130116E+00
         25   -1    0    0    0    0  0.00000000000E+00  0.00000000000E+00  0.99999998245E-14  0.12500000000E+03  0.12500000000E+03 0.  0.
        -11    1    1    0    0    0  0.68586060456E+01 -0.15656909192E+02 -0.27075524319E+02  0.32019732974E+02  0.51100000000E-03 0.  1.
         11    1    1    0    0    0  0.68324880120E+01 -0.14723231044E+02 -0.25799659404E+02  0.30480794780E+02  0.51100000000E-03 0. -1.
         22    1    1    0    0    0 -0.13691094058E+02  0.30380140236E+02  0.52875183723E+02  0.62499472246E+02  0.00000000000E+00 0. -1.
</event>
<event>
 4    1  0.1977788E-002  0.9118800E+02  0.7818608E-02  0.1130116E+00
         25   -1    0    0    0    0  0.00000000000E+00  0.00000000000E+00  0.99999998245E-14  0.12500000000E+03  0.12500000000E+03 0.  0.
        -11    1    1    0    0    0 -0.25521927698E+02 -0.23159603788E+02  0.34311010588E+02  0.48631075342E+02  0.51100000000E-03 0. -1.
         11    1    1    0    0    0 -0.72763795344E+01 -0.66053788669E+01  0.97862323920E+01  0.13868924753E+02  0.51100000000E-03 0.  1.
         22    1    1    0    0    0  0.32798307232E+02  0.29764982655E+02 -0.44097242980E+02  0.62499999906E+02  0.00000000000E+00 0. -1.
</event>
<event>
 4    1  0.1977788E-002  0.9118800E+02  0.7818608E-02  0.1130116E+00
         25   -1    0    0    0    0  0.00000000000E+00  0.00000000000E+00  0.99999998245E-14  0.12500000000E+03  0.12500000000E+03 0.  0.
        -11    1    1    0    0    0 -0.49040949430E+02  0.13231008962E+02 -0.59005528693E+01  0.51136003399E+02  0.51100000000E-03 0.  1.
         11    1    1    0    0    0 -0.10888428587E+02  0.33594850803E+01  0.18981572817E+01  0.11551927044E+02  0.51100000000E-03 0. -1.
         22    1    1    0    0    0  0.59929378017E+02 -0.16590494042E+02  0.40023955876E+01  0.62312069557E+02  0.00000000000E+00 0.  1.
</event>
<event>
 4    1  0.1977788E-002  0.9118800E+02  0.7818608E-02  0.1130116E+00
         25   -1    0    0    0    0  0.00000000000E+00  0.00000000000E+00  0.99999998245E-14  0.12500000000E+03  0.12500000000E+03 0.  0.
        -11    1    1    0    0    0  0.34867433762E+02  0.23728851154E+01 -0.56039419465E+01  0.35394529048E+02  0.51100000000E-03 0.  1.
         11    1    1    0    0    0  0.26695525194E+02  0.17252936833E+01 -0.43684008344E+01  0.27105546108E+02  0.51100000000E-03 0. -1.
         22    1    1    0    0    0 -0.61562958957E+02 -0.40981787987E+01  0.99723427808E+01  0.62499924844E+02  0.00000000000E+00 0. -1.
</event>
<event>
 4    1  0.1977788E-002  0.9118800E+02  0.7818608E-02  0.1130116E+00
         25   -1    0    0    0    0  0.00000000000E+00  0.00000000000E+00  0.99999998245E-14  0.12500000000E+03  0.12500000000E+03 0.  0.
        -11    1    1    0    0    0 -0.75191170009E+01 -0.13734872512E+01 -0.19337519193E+02  0.20793345967E+02  0.51100000000E-03 0. -1.
         11    1    1    0    0    0  0.35474511248E+02  0.37387238137E+02 -0.62665961365E+01  0.51918366223E+02  0.51100000000E-03 0.  1.
         22    1    1    0    0    0 -0.27955394247E+02 -0.36013750886E+02  0.25604115329E+02  0.52288287811E+02  0.00000000000E+00 0.  1.
</event>
<event>
 4    1  0.1977788E-002  0.9118800E+02  0.7818608E-02  0.1130116E+00
         25   -1    0    0    0    0  0.00000000000E+00  0.00000000000E+00  0.99999998245E-14  0.12500000000E+03  0.12500000000E+03 0.  0.
        -11    1    1    0    0    0 -0.16636842310E+02  0.18830497082E+02  0.21942158811E+02  0.33359113836E+02  0.51100000000E-03 0.  1.
         11    1    1    0    0    0 -0.14993797057E+02  0.15832308897E+02  0.19336005943E+02  0.29143731424E+02  0.51100000000E-03 0. -1.
         22    1    1    0    0    0  0.31630639367E+02 -0.34662805979E+02 -0.41278164754E+02  0.62497154740E+02  0.00000000000E+00 0. -1.
</event>
<event>
 4    1  0.1977788E-002  0.9118800E+02  0.7818608E-02  0.1130116E+00
         25   -1    0    0    0    0  0.00000000000E+00  0.00000000000E+00  0.99999998245E-14  0.12500000000E+03  0.12500000000E+03 0.  0.
        -11    1    1    0    0    0 -0.10805483074E+01  0.11993531984E+01 -0.18599557202E+01  0.24628171433E+01  0.51100000000E-03 0.  1.
         11    1    1    0    0    0 -0.46189020554E+01  0.59732327814E+02  0.10203668428E+02  0.60773350178E+02  0.51100000000E-03 0. -1.
         22    1    1    0    0    0  0.56994503627E+01 -0.60931681012E+02 -0.83437127074E+01  0.61763832679E+02  0.00000000000E+00 0. -1.
</event>
<event>
 4    1  0.1977788E-002  0.9118800E+02  0.7818608E-02  0.1130116E+00
         25   -1    0    0    0    0  0.00000000000E+00  0.00000000000E+00  0.99999998245E-14  0.12500000000E+03  0.12500000000E+03 0.  0.
        -11    1    1    0    0    0 -0.57435799619E+02 -0.17906426566E+02  0.14210490562E+02  0.61817871465E+02  0.51100000000E-03 0. -1.
         11    1    1    0    0    0 -0.41197876253E+00 -0.86409053955E-01  0.67799274909E+00  0.79803975736E+00  0.51100000000E-03 0.  1.
         22    1    1    0    0    0  0.57847778381E+02  0.17992835620E+02 -0.14888483311E+02  0.62384088778E+02  0.00000000000E+00 0. -1.
</event>
<event>
 4    1  0.1977788E-002  0.9118800E+02  0.7818608E-02  0.1130116E+00
         25   -1    0    0    0    0  0.00000000000E+00  0.00000000000E+00  0.99999998245E-14  0.12500000000E+03  0.12500000000E+03 0.  0.
        -11    1    1    0    0    0  0.57884790310E+01  0.15693044747E+00  0.11896423776E+02  0.13230873575E+02  0.51100000000E-03 0. -1.
         11    1    1    0    0    0  0.21560644568E+02  0.60976183876E+00  0.44296881241E+02  0.49269127165E+02  0.51100000000E-03 0.  1.
         22    1    1    0    0    0 -0.27349123599E+02 -0.76669228623E+00 -0.56193305017E+02  0.62499999259E+02  0.00000000000E+00 0.  1.
</event>
<event>
 4    1  0.1977788E-002  0.9118800E+02  0.7818608E-02  0.1130116E+00
         25   -1    0    0    0    0  0.00000000000E+00  0.00000000000E+00  0.99999998245E-14  0.12500000000E+03  0.12500000000E+03 0.  0.
        -11    1    1    0    0    0 -0.17193117927E+02  0.10525548323E+02  0.80812761402E+01  0.21718597926E+02  0.51100000000E-03 0. -1.
         11    1    1    0    0    0 -0.32237643432E+02  0.19797160644E+02  0.15229268433E+02  0.40781415386E+02  0.51100000000E-03 0.  1.
         22    1    1    0    0    0  0.49430761360E+02 -0.30322708967E+02 -0.23310544573E+02  0.62499986688E+02  0.00000000000E+00 0.  1.
</event>
<event>
 4    1  0.1977788E-002  0.9118800E+02  0.7818608E-02  0.1130116E+00
         25   -1    0    0    0    0  0.00000000000E+00  0.00000000000E+00  0.99999998245E-14  0.12500000000E+03  0.12500000000E+03 0.  0.
        -11    1    1    0    0    0 -0.56414482730E+01 -0.13140128947E+01  0.94482556345E+01  0.11082513402E+02  0.51100000000E-03 0.  1.
         11    1    1    0    0    0  0.34592828776E+02  0.40439307820E+02  0.20205694223E+02  0.56923382709E+02  0.51100000000E-03 0. -1.
         22    1    1    0    0    0 -0.28951380503E+02 -0.39125294925E+02 -0.29653949857E+02  0.56994103890E+02  0.00000000000E+00 0. -1.
</event>
<event>
 4    1  0.1977788E-002  0.9118800E+02  0.7818608E-02  0.1130116E+00
         25   -1    0    0    0    0  0.00000000000E+00  0.00000000000E+00  0.99999998245E-14  0.12500000000E+03  0.12500000000E+03 0.  0.
        -11    1    1    0    0    0 -0.13926547960E+01 -0.10962112943E+01  0.15516657835E+01  0.23555962191E+01  0.51100000000E-03 0.  1.
         11    1    1    0    0    0 -0.37961357356E+02 -0.26343221698E+02  0.38503280900E+02  0.60145927726E+02  0.51100000000E-03 0. -1.
         22    1    1    0    0    0  0.39354012152E+02  0.27439432992E+02 -0.40054946683E+02  0.62498476055E+02  0.00000000000E+00 0. -1.
</event>
<event>
 4    1  0.1977788E-002  0.9118800E+02  0.7818608E-02  0.1130116E+00
         25   -1    0    0    0    0  0.00000000000E+00  0.00000000000E+00  0.99999998245E-14  0.12500000000E+03  0.12500000000E+03 0.  0.
        -11    1    1    0    0    0 -0.13585232696E+02  0.17689000830E+02  0.74400691474E+01  0.23511995384E+02  0.51100000000E-03 0. -1.
         11    1    1    0    0    0 -0.22744692731E+02  0.29223008751E+02  0.12197296232E+02  0.38988194668E+02  0.51100000000E-03 0.  1.
         22    1    1    0    0    0  0.36329925427E+02 -0.46912009580E+02 -0.19637365380E+02  0.62499809947E+02  0.00000000000E+00 0.  1.
</event>
<event>
 4    1  0.1977788E-002  0.9118800E+02  0.7818608E-02  0.1130116E+00
         25   -1    0    0    0    0  0.00000000000E+00  0.00000000000E+00  0.99999998245E-14  0.12500000000E+03  0.12500000000E+03 0.  0.
        -11    1    1    0    0    0 -0.19875981376E+02 -0.25757457644E+01 -0.13294582492E+02  0.24050676203E+02  0.51100000000E-03 0.  1.
         11    1    1    0    0    0 -0.31711622399E+02 -0.44765461609E+01 -0.21276975529E+02  0.38449657328E+02  0.51100000000E-03 0. -1.
         22    1    1    0    0    0  0.51587603776E+02  0.70522919253E+01  0.34571558021E+02  0.62499666469E+02  0.00000000000E+00 0. -1.
</event>
<event>
 4    1  0.1977788E-002  0.9118800E+02  0.7818608E-02  0.1130116E+00
         25   -1    0    0    0    0  0.00000000000E+00  0.00000000000E+00  0.99999998245E-14  0.12500000000E+03  0.12500000000E+03 0.  0.
        -11    1    1    0    0    0  0.38616003288E+02  0.38250862306E+02 -0.17148404957E+02  0.56994666153E+02  0.51100000000E-03 0. -1.
         11    1    1    0    0    0  0.37272022223E+01  0.36966557559E+01 -0.16587369315E+01  0.55053345632E+01  0.51100000000E-03 0.  1.
         22    1    1    0    0    0 -0.42343205510E+02 -0.41947518062E+02  0.18807141889E+02  0.62499999284E+02  0.00000000000E+00 0. -1.
</event>
<event>
 4    1  0.1977788E-002  0.9118800E+02  0.7818608E-02  0.1130116E+00
         25   -1    0    0    0    0  0.00000000000E+00  0.00000000000E+00  0.99999998245E-14  0.12500000000E+03  0.12500000000E+03 0.  0.
        -11    1    1    0    0    0 -0.40563655053E+02 -0.25707144967E+02  0.30771997292E+02  0.57036683206E+02  0.51100000000E-03 0.  1.
         11    1    1    0    0    0 -0.38768547371E+01 -0.24471567193E+01  0.29714731419E+01  0.54633535082E+01  0.51100000000E-03 0. -1.
         22    1    1    0    0    0  0.44440509790E+02  0.28154301686E+02 -0.33743470434E+02  0.62499963286E+02  0.00000000000E+00 0.  1.
</event>
<event>
 4    1  0.1977788E-002  0.9118800E+02  0.7818608E-02  0.1130116E+00
         25   -1    0    0    0    0  0.00000000000E+00  0.00000000000E+00  0.99999998245E-14  0.12500000000E+03  0.12500000000E+03 0.  0.
        -11    1    1    0    0    0 -0.18563464765E+01 -0.96095091188E+00  0.16538685262E+01  0.26654699883E+01  0.51100000000E-03 0. -1.
         11    1    1    0    0    0 -0.41657230914E+02 -0.21564797661E+02  0.37145734779E+02  0.59834530149E+02  0.51100000000E-03 0.  1.
         22    1    1    0    0    0  0.43513577391E+02  0.22525748573E+02 -0.38799603305E+02  0.62499999862E+02  0.00000000000E+00 0.  1.
</event>
<event>
 4    1  0.1977788E-002  0.9118800E+02  0.7818608E-02  0.1130116E+00
         25   -1    0    0    0    0  0.00000000000E+00  0.00000000000E+00  0.99999998245E-14  0.12500000000E+03  0.12500000000E+03 0.  0.
        -11    1    1    0    0    0  0.14319817325E+02  0.11726120223E+02  0.16505003587E+02  0.24798673500E+02  0.51100000000E-03 0. -1.
         11    1    1    0    0    0  0.21771005790E+02  0.17827264101E+02  0.25091870828E+02  0.37701326506E+02  0.51100000000E-03 0. -1.
         22    1    1    0    0    0 -0.36090823115E+02 -0.29553384324E+02 -0.41596874415E+02  0.62499999994E+02  0.00000000000E+00 0. -1.
</event>
<event>
 4    1  0.1977788E-002  0.9118800E+02  0.7818608E-02  0.1130116E+00
         25   -1    0    0    0    0  0.00000000000E+00  0.00000000000E+00  0.99999998245E-14  0.12500000000E+03  0.12500000000E+03 0.  0.
        -11    1    1    0    0    0  0.45825889390E+02  0.12261098185E+02 -0.38517079873E+01  0.47593931565E+02  0.51100000000E-03 0. -1.
         11    1    1    0    0    0  0.14639803263E+02  0.19266317064E+01 -0.24927190512E+01  0.14974959027E+02  0.51100000000E-03 0.  1.
         22    1    1    0    0    0 -0.60465692654E+02 -0.14187729891E+02  0.63444270385E+01  0.62431109409E+02  0.00000000000E+00 0. -1.
</event>
<event>
 4    1  0.1977788E-002  0.9118800E+02  0.7818608E-02  0.1130116E+00
         25   -1    0    0    0    0  0.00000000000E+00  0.00000000000E+00  0.99999998245E-14  0.12500000000E+03  0.12500000000E+03 0.  0.
        -11    1    1    0    0    0 -0.46669864213E+02 -0.19731692086E+02 -0.25975146311E+02  0.56939653357E+02  0.51100000000E-03 0. -1.
         11    1    1    0    0    0 -0.45573972932E+01 -0.19242612370E+01 -0.25386627161E+01  0.55603471154E+01  0.51100000000E-03 0.  1.
         22    1    1    0    0    0  0.51227261506E+02  0.21655953323E+02  0.28513809027E+02  0.62499999528E+02  0.00000000000E+00 0. -1.
</event>
<event>
 4    1  0.1977788E-002  0.9118800E+02  0.7818608E-02  0.1130116E+00
         25   -1    0    0    0    0  0.00000000000E+00  0.00000000000E+00  0.99999998245E-14  0.12500000000E+03  0.12500000000E+03 0.  0.
        -11    1    1    0    0    0  0.11796337665E+02  0.40613578098E+02  0.21620357899E+02  0.47497959790E+02  0.51100000000E-03 0.  1.
         11    1    1    0    0    0  0.37288301919E+01  0.12831208764E+02  0.68203483955E+01  0.15002041376E+02  0.51100000000E-03 0. -1.
         22    1    1    0    0    0 -0.15525167857E+02 -0.53444786862E+02 -0.28440706294E+02  0.62499998834E+02  0.00000000000E+00 0.  1.
</event>
<event>
 4    1  0.1977788E-002  0.9118800E+02  0.7818608E-02  0.1130116E+00
         25   -1    0    0    0    0  0.00000000000E+00  0.00000000000E+00  0.99999998245E-14  0.12500000000E+03  0.12500000000E+03 0.  0.
        -11    1    1    0    0    0  0.10965782934E+02 -0.14406441759E+02 -0.43460429883E+01  0.18619399814E+02  0.51100000000E-03 0. -1.
         11    1    1    0    0    0  0.25841972008E+02 -0.33953434693E+02 -0.10240304162E+02  0.43880600205E+02  0.51100000000E-03 0.  1.
         22    1    1    0    0    0 -0.36807754942E+02  0.48359876453E+02  0.14586347151E+02  0.62499999981E+02  0.00000000000E+00 0.  1.
</event>
<event>
 4    1  0.1977788E-002  0.9118800E+02  0.7818608E-02  0.1130116E+00
         25   -1    0    0    0    0  0.00000000000E+00  0.00000000000E+00  0.99999998245E-14  0.12500000000E+03  0.12500000000E+03 0.  0.
        -11    1    1    0    0    0 -0.20583583888E+02  0.13976165762E+02  0.47313299831E+01  0.25325927796E+02  0.51100000000E-03 0.  1.
         11    1    1    0    0    0 -0.30211974601E+02  0.20515495108E+02  0.69471358884E+01  0.37174072229E+02  0.51100000000E-03 0. -1.
         22    1    1    0    0    0  0.50795558489E+02 -0.34491660869E+02 -0.11678465872E+02  0.62499999975E+02  0.00000000000E+00 0. -1.
</event>
<event>
 4    1  0.1977788E-002  0.9118800E+02  0.7818608E-02  0.1130116E+00
         25   -1    0    0    0    0  0.00000000000E+00  0.00000000000E+00  0.99999998245E-14  0.12500000000E+03  0.12500000000E+03 0.  0.
        -11    1    1    0    0    0 -0.49768923737E+01  0.82321738437E+01  0.33889639396E+02  0.35228479992E+02  0.51100000000E-03 0.  1.
         11    1    1    0    0    0 -0.20516256730E+01  0.15397479007E+02  0.23009075253E+02  0.27761647500E+02  0.51100000000E-03 0. -1.
         22    1    1    0    0    0  0.70285180468E+01 -0.23629652851E+02 -0.56898714648E+02  0.62009872508E+02  0.00000000000E+00 0.  1.
</event>
<event>
 4    1  0.1977788E-002  0.9118800E+02  0.7818608E-02  0.1130116E+00
         25   -1    0    0    0    0  0.00000000000E+00  0.00000000000E+00  0.99999998245E-14  0.12500000000E+03  0.12500000000E+03 0.  0.
        -11    1    1    0    0    0  0.32402034303E+02  0.43956316060E+02  0.11262458297E+01  0.54619758133E+02  0.51100000000E-03 0. -1.
         11    1    1    0    0    0  0.46696463575E+01  0.63455449318E+01  0.16337775697E+00  0.78802430254E+01  0.51100000000E-03 0.  1.
         22    1    1    0    0    0 -0.37071680660E+02 -0.50301860992E+02 -0.12896235866E+01  0.62499998842E+02  0.00000000000E+00 0. -1.
</event>
<event>
 4    1  0.1977788E-002  0.9118800E+02  0.7818608E-02  0.1130116E+00
         25   -1    0    0    0    0  0.00000000000E+00  0.00000000000E+00  0.99999998245E-14  0.12500000000E+03  0.12500000000E+03 0.  0.
        -11    1    1    0    0    0  0.19952545409E+02 -0.13828879670E+02  0.96040233767E+01  0.26107072729E+02  0.51100000000E-03 0. -1.
         11    1    1    0    0    0  0.27813083886E+02 -0.19278637455E+02  0.13386995876E+02  0.36392927283E+02  0.51100000000E-03 0. -1.
         22    1    1    0    0    0 -0.47765629295E+02  0.33107517125E+02 -0.22991019253E+02  0.62499999987E+02  0.00000000000E+00 0. -1.
</event>
<event>
 4    1  0.1977788E-002  0.9118800E+02  0.7818608E-02  0.1130116E+00
         25   -1    0    0    0    0  0.00000000000E+00  0.00000000000E+00  0.99999998245E-14  0.12500000000E+03  0.12500000000E+03 0.  0.
        -11    1    1    0    0    0  0.34985101198E+02  0.49575201536E+01  0.25305506347E+02  0.43461511291E+02  0.51100000000E-03 0.  1.
         11    1    1    0    0    0  0.15325572767E+02  0.21744002648E+01  0.11084351943E+02  0.19038488789E+02  0.51100000000E-03 0. -1.
         22    1    1    0    0    0 -0.50310673965E+02 -0.71319204184E+01 -0.36389858290E+02  0.62499999920E+02  0.00000000000E+00 0.  1.
</event>
<event>
 4    1  0.1977788E-002  0.9118800E+02  0.7818608E-02  0.1130116E+00
         25   -1    0    0    0    0  0.00000000000E+00  0.00000000000E+00  0.99999998245E-14  0.12500000000E+03  0.12500000000E+03 0.  0.
        -11    1    1    0    0    0 -0.19230041374E+01 -0.24234057759E+01  0.33032073923E+01  0.45257065532E+01  0.51100000000E-03 0. -1.
         11    1    1    0    0    0 -0.24873722226E+02 -0.31236037674E+02  0.42031332523E+02  0.57974347955E+02  0.51100000000E-03 0.  1.
         22    1    1    0    0    0  0.26796726363E+02  0.33659443450E+02 -0.45334539915E+02  0.62499945492E+02  0.00000000000E+00 0.  1.
</event>
<event>
 4    1  0.1977788E-002  0.9118800E+02  0.7818608E-02  0.1130116E+00
         25   -1    0    0    0    0  0.00000000000E+00  0.00000000000E+00  0.99999998245E-14  0.12500000000E+03  0.12500000000E+03 0.  0.
        -11    1    1    0    0    0  0.28217726182E+02 -0.11353446562E+02 -0.39951890585E+01  0.30677391603E+02  0.51100000000E-03 0.  1.
         11    1    1    0    0    0  0.29271695093E+02 -0.11776565943E+02 -0.41423142519E+01  0.31822608420E+02  0.51100000000E-03 0. -1.
         22    1    1    0    0    0 -0.57489421275E+02  0.23130012504E+02  0.81375033105E+01  0.62499999977E+02  0.00000000000E+00 0.  1.
</event>
<event>
 4    1  0.1977788E-002  0.9118800E+02  0.7818608E-02  0.1130116E+00
         25   -1    0    0    0    0  0.00000000000E+00  0.00000000000E+00  0.99999998245E-14  0.12500000000E+03  0.12500000000E+03 0.  0.
        -11    1    1    0    0    0 -0.40259850389E+00  0.15051316020E+00  0.17745956456E+00  0.46500744607E+00  0.51100000000E-03 0. -1.
         11    1    1    0    0    0 -0.49329110468E+02 -0.99439832957E+01  0.36333431314E+02  0.62067400257E+02  0.51100000000E-03 0.  1.
         22    1    1    0    0    0  0.49731708972E+02  0.97934701355E+01 -0.36510890878E+02  0.62467592297E+02  0.00000000000E+00 0.  1.
</event>
<event>
 4    1  0.1977788E-002  0.9118800E+02  0.7818608E-02  0.1130116E+00
         25   -1    0    0    0    0  0.00000000000E+00  0.00000000000E+00  0.99999998245E-14  0.12500000000E+03  0.12500000000E+03 0.  0.
        -11    1    1    0    0    0  0.10790844452E+02  0.18850440476E+01  0.62748103290E+01  0.12624141950E+02  0.51100000000E-03 0.  1.
         11    1    1    0    0    0  0.40717231119E+02  0.10032957386E+02  0.27029617560E+02  0.49891415791E+02  0.51100000000E-03 0. -1.
         22    1    1    0    0    0 -0.51508075572E+02 -0.11918001434E+02 -0.33304427889E+02  0.62484442258E+02  0.00000000000E+00 0. -1.
</event>
<event>
 4    1  0.1977788E-002  0.9118800E+02  0.7818608E-02  0.1130116E+00
         25   -1    0    0    0    0  0.00000000000E+00  0.00000000000E+00  0.99999998245E-14  0.12500000000E+03  0.12500000000E+03 0.  0.
        -11    1    1    0    0    0  0.41472117644E+01  0.10716967817E+02 -0.20420261926E+02  0.23431599647E+02  0.51100000000E-03 0. -1.
         11    1    1    0    0    0  0.69662851808E+01  0.17885880759E+02 -0.34028027696E+02  0.39068408323E+02  0.51100000000E-03 0.  1.
         22    1    1    0    0    0 -0.11113496945E+02 -0.28602848576E+02  0.54448289622E+02  0.62499992030E+02  0.00000000000E+00 0. -1.
</event>
<event>
 4    1  0.1977788E-002  0.9118800E+02  0.7818608E-02  0.1130116E+00
         25   -1    0    0    0    0  0.00000000000E+00  0.00000000000E+00  0.99999998245E-14  0.12500000000E+03  0.12500000000E+03 0.  0.
        -11    1    1    0    0    0 -0.42374340470E-01 -0.10952847306E+01  0.10158252399E+01  0.14944381570E+01  0.51100000000E-03 0.  1.
         11    1    1    0    0    0  0.11665805792E+02 -0.59581856409E+02  0.73690621661E+01  0.61158741937E+02  0.51100000000E-03 0. -1.
         22    1    1    0    0    0 -0.11623431452E+02  0.60677141139E+02 -0.83848874060E+01  0.62346819906E+02  0.00000000000E+00 0. -1.
</event>
<event>
 4    1  0.1977788E-002  0.9118800E+02  0.7818608E-02  0.1130116E+00
         25   -1    0    0    0    0  0.00000000000E+00  0.00000000000E+00  0.99999998245E-14  0.12500000000E+03  0.12500000000E+03 0.  0.
        -11    1    1    0    0    0 -0.18751014230E+02  0.24869577346E+02  0.29208191669E+02  0.42699120282E+02  0.51100000000E-03 0. -1.
         11    1    1    0    0    0 -0.74906664382E+01  0.13401378612E+02  0.12584629012E+02  0.19851446296E+02  0.51100000000E-03 0.  1.
         22    1    1    0    0    0  0.26241680668E+02 -0.38270955958E+02 -0.41792820681E+02  0.62449433422E+02  0.00000000000E+00 0. -1.
</event>
<event>
 4    1  0.1977788E-002  0.9118800E+02  0.7818608E-02  0.1130116E+00
         25   -1    0    0    0    0  0.00000000000E+00  0.00000000000E+00  0.99999998245E-14  0.12500000000E+03  0.12500000000E+03 0.  0.
        -11    1    1    0    0    0  0.21261127287E-02 -0.31743791028E+02 -0.98125800526E+01  0.33225818288E+02  0.51100000000E-03 0. -1.
         11    1    1    0    0    0  0.78048523366E+01 -0.27893791974E+02 -0.60084760409E+01  0.29581770320E+02  0.51100000000E-03 0.  1.
         22    1    1    0    0    0 -0.78069784494E+01  0.59637583002E+02  0.15821056093E+02  0.62192411392E+02  0.00000000000E+00 0.  1.
</event>
<event>
 4    1  0.1977788E-002  0.9118800E+02  0.7818608E-02  0.1130116E+00
         25   -1    0    0    0    0  0.00000000000E+00  0.00000000000E+00  0.99999998245E-14  0.12500000000E+03  0.12500000000E+03 0.  0.
        -11    1    1    0    0    0 -0.46388310052E+01  0.24911321552E+02 -0.13196683756E+02  0.28570004498E+02  0.51100000000E-03 0. -1.
         11    1    1    0    0    0 -0.59904778027E+01  0.29197860330E+02 -0.16217236139E+02  0.33932279918E+02  0.51100000000E-03 0.  1.
         22    1    1    0    0    0  0.10629308808E+02 -0.54109181882E+02  0.29413919895E+02  0.62497715585E+02  0.00000000000E+00 0.  1.
</event>
<event>
 4    1  0.1977788E-002  0.9118800E+02  0.7818608E-02  0.1130116E+00
         25   -1    0    0    0    0  0.00000000000E+00  0.00000000000E+00  0.99999998245E-14  0.12500000000E+03  0.12500000000E+03 0.  0.
        -11    1    1    0    0    0  0.38108236658E+02 -0.12139028472E+02 -0.58265603137E+01  0.40417106759E+02  0.51100000000E-03 0. -1.
         11    1    1    0    0    0  0.20825449420E+02 -0.66165601232E+01 -0.31899942279E+01  0.22082895527E+02  0.51100000000E-03 0.  1.
         22    1    1    0    0    0 -0.58933686079E+02  0.18755588595E+02  0.90165545416E+01  0.62499997713E+02  0.00000000000E+00 0. -1.
</event>
<event>
 4    1  0.1977788E-002  0.9118800E+02  0.7818608E-02  0.1130116E+00
         25   -1    0    0    0    0  0.00000000000E+00  0.00000000000E+00  0.99999998245E-14  0.12500000000E+03  0.12500000000E+03 0.  0.
        -11    1    1    0    0    0 -0.19498532942E+02  0.92699596324E+01 -0.23834395167E+02  0.32159031885E+02  0.51100000000E-03 0.  1.
         11    1    1    0    0    0 -0.18606087015E+02  0.88538320716E+01 -0.22271591587E+02  0.30341400898E+02  0.51100000000E-03 0. -1.
         22    1    1    0    0    0  0.38104619957E+02 -0.18123791704E+02  0.46105986754E+02  0.62499567218E+02  0.00000000000E+00 0. -1.
</event>
<event>
 4    1  0.1977788E-002  0.9118800E+02  0.7818608E-02  0.1130116E+00
         25   -1    0    0    0    0  0.00000000000E+00  0.00000000000E+00  0.99999998245E-14  0.12500000000E+03  0.12500000000E+03 0.  0.
        -11    1    1    0    0    0  0.70909482452E+01 -0.35669063189E+02  0.39120118268E+02  0.53412987834E+02  0.51100000000E-03 0. -1.
         11    1    1    0    0    0  0.12070663221E+01 -0.60685124575E+01  0.66550685743E+01  0.90870121901E+01  0.51100000000E-03 0.  1.
         22    1    1    0    0    0 -0.82980145673E+01  0.41737575646E+02 -0.45775186842E+02  0.62499999976E+02  0.00000000000E+00 0. -1.
</event>
<event>
 4    1  0.1977788E-002  0.9118800E+02  0.7818608E-02  0.1130116E+00
         25   -1    0    0    0    0  0.00000000000E+00  0.00000000000E+00  0.99999998245E-14  0.12500000000E+03  0.12500000000E+03 0.  0.
        -11    1    1    0    0    0  0.19446440884E+02 -0.30401637690E+02 -0.57220090026E+01  0.36539910024E+02  0.51100000000E-03 0.  1.
         11    1    1    0    0    0  0.13893393181E+02 -0.21552835291E+02 -0.40469331701E+01  0.25960137740E+02  0.51100000000E-03 0. -1.
         22    1    1    0    0    0 -0.33339834066E+02  0.51954472981E+02  0.97689421727E+01  0.62499952235E+02  0.00000000000E+00 0. -1.
</event>
<event>
 4    1  0.1977788E-002  0.9118800E+02  0.7818608E-02  0.1130116E+00
         25   -1    0    0    0    0  0.00000000000E+00  0.00000000000E+00  0.99999998245E-14  0.12500000000E+03  0.12500000000E+03 0.  0.
        -11    1    1    0    0    0  0.43271251891E+02  0.41829375240E+02  0.84320306587E+01  0.60771679379E+02  0.51100000000E-03 0.  1.
         11    1    1    0    0    0  0.99291381840E+00  0.13567245803E+01 -0.96306313372E+00  0.19375423345E+01  0.51100000000E-03 0. -1.
         22    1    1    0    0    0 -0.44264165710E+02 -0.43186099820E+02 -0.74689675250E+01  0.62290778287E+02  0.00000000000E+00 0.  1.
</event>
<event>
 4    1  0.1977788E-002  0.9118800E+02  0.7818608E-02  0.1130116E+00
         25   -1    0    0    0    0  0.00000000000E+00  0.00000000000E+00  0.99999998245E-14  0.12500000000E+03  0.12500000000E+03 0.  0.
        -11    1    1    0    0    0  0.12727802173E+02 -0.30812052361E+02  0.52830474038E+02  0.62469500608E+02  0.51100000000E-03 0. -1.
         11    1    1    0    0    0  0.10772995283E-01 -0.17010829006E-01  0.23243501108E-01  0.30756254577E-01  0.51100000000E-03 0.  1.
         22    1    1    0    0    0 -0.12738575168E+02  0.30829063190E+02 -0.52853717539E+02  0.62499743137E+02  0.00000000000E+00 0. -1.
</event>
<event>
 4    1  0.1977788E-002  0.9118800E+02  0.7818608E-02  0.1130116E+00
         25   -1    0    0    0    0  0.00000000000E+00  0.00000000000E+00  0.99999998245E-14  0.12500000000E+03  0.12500000000E+03 0.  0.
        -11    1    1    0    0    0 -0.33546069542E+02  0.30904426083E+01 -0.10593736375E+01  0.33704775478E+02  0.51100000000E-03 0. -1.
         11    1    1    0    0    0 -0.28659338993E+02  0.26434370108E+01 -0.90525535169E+00  0.28795224574E+02  0.51100000000E-03 0.  1.
         22    1    1    0    0    0  0.62205408535E+02 -0.57338796191E+01  0.19646289891E+01  0.62499999948E+02  0.00000000000E+00 0. -1.
</event>
<event>
 4    1  0.1977788E-002  0.9118800E+02  0.7818608E-02  0.1130116E+00
         25   -1    0    0    0    0  0.00000000000E+00  0.00000000000E+00  0.99999998245E-14  0.12500000000E+03  0.12500000000E+03 0.  0.
        -11    1    1    0    0    0  0.20424178166E+02  0.10063992108E+01 -0.54641777785E+02  0.58342812521E+02  0.51100000000E-03 0.  1.
         11    1    1    0    0    0  0.14568750314E+01  0.72196555609E-01 -0.38928796314E+01  0.41571876655E+01  0.51100000000E-03 0.  1.
         22    1    1    0    0    0 -0.21881053197E+02 -0.10785957664E+01  0.58534657416E+02  0.62499999813E+02  0.00000000000E+00 0.  1.
</event>
<event>
 4    1  0.1977788E-002  0.9118800E+02  0.7818608E-02  0.1130116E+00
         25   -1    0    0    0    0  0.00000000000E+00  0.00000000000E+00  0.99999998245E-14  0.12500000000E+03  0.12500000000E+03 0.  0.
        -11    1    1    0    0    0  0.70094726463E+01 -0.15627145345E+02 -0.37288817010E+01  0.17528403732E+02  0.51100000000E-03 0. -1.
         11    1    1    0    0    0  0.17980657320E+02 -0.40093204005E+02 -0.95747290238E+01  0.44971596382E+02  0.51100000000E-03 0.  1.
         22    1    1    0    0    0 -0.24990129967E+02  0.55720349349E+02  0.13303610725E+02  0.62499999885E+02  0.00000000000E+00 0.  1.
</event>
<event>
 4    1  0.1977788E-002  0.9118800E+02  0.7818608E-02  0.1130116E+00
         25   -1    0    0    0    0  0.00000000000E+00  0.00000000000E+00  0.99999998245E-14  0.12500000000E+03  0.12500000000E+03 0.  0.
        -11    1    1    0    0    0 -0.15107872452E+02  0.42779828606E+00 -0.12483487034E+02  0.19602761800E+02  0.51100000000E-03 0.  1.
         11    1    1    0    0    0 -0.33880566249E+02  0.19389906187E+01 -0.26248107777E+02  0.42902396391E+02  0.51100000000E-03 0. -1.
         22    1    1    0    0    0  0.48988438701E+02 -0.23667889048E+01  0.38731594811E+02  0.62494841809E+02  0.00000000000E+00 0. -1.
</event>
<event>
 4    1  0.1977788E-002  0.9118800E+02  0.7818608E-02  0.1130116E+00
         25   -1    0    0    0    0  0.00000000000E+00  0.00000000000E+00  0.99999998245E-14  0.12500000000E+03  0.12500000000E+03 0.  0.
        -11    1    1    0    0    0  0.26912729241E+02 -0.44536630903E+02 -0.25734470707E+02  0.58052299440E+02  0.51100000000E-03 0.  1.
         11    1    1    0    0    0 -0.12685695314E+01 -0.52754227148E+01  0.34251753248E+00  0.54366048226E+01  0.51100000000E-03 0. -1.
         22    1    1    0    0    0 -0.25644159710E+02  0.49812053618E+02  0.25391953175E+02  0.61511095738E+02  0.00000000000E+00 0.  1.
</event>
<event>
 4    1  0.1977788E-002  0.9118800E+02  0.7818608E-02  0.1130116E+00
         25   -1    0    0    0    0  0.00000000000E+00  0.00000000000E+00  0.99999998245E-14  0.12500000000E+03  0.12500000000E+03 0.  0.
        -11    1    1    0    0    0 -0.31264627282E+01 -0.17255727823E+02  0.75453585097E+01  0.19091027924E+02  0.51100000000E-03 0.  1.
         11    1    1    0    0    0 -0.31213097877E+01 -0.40389430169E+02  0.15692367106E+02  0.43443055024E+02  0.51100000000E-03 0. -1.
         22    1    1    0    0    0  0.62477725159E+01  0.57645157992E+02 -0.23237725615E+02  0.62465917052E+02  0.00000000000E+00 0. -1.
</event>
<event>
 4    1  0.1977788E-002  0.9118800E+02  0.7818608E-02  0.1130116E+00
         25   -1    0    0    0    0  0.00000000000E+00  0.00000000000E+00  0.99999998245E-14  0.12500000000E+03  0.12500000000E+03 0.  0.
        -11    1    1    0    0    0  0.19284564576E+01 -0.80612656812E+00  0.11603158569E+02  0.11789914053E+02  0.51100000000E-03 0.  1.
         11    1    1    0    0    0  0.84368183714E+01 -0.35999078651E+01  0.49873612748E+02  0.50710122161E+02  0.51100000000E-03 0. -1.
         22    1    1    0    0    0 -0.10365274829E+02  0.44060344332E+01 -0.61476771316E+02  0.62499963785E+02  0.00000000000E+00 0. -1.
</event>
<event>
 4    1  0.1977788E-002  0.9118800E+02  0.7818608E-02  0.1130116E+00
         25   -1    0    0    0    0  0.00000000000E+00  0.00000000000E+00  0.99999998245E-14  0.12500000000E+03  0.12500000000E+03 0.  0.
        -11    1    1    0    0    0 -0.68165114446E+01  0.59148952605E+01 -0.10058130406E+00  0.90255709558E+01  0.51100000000E-03 0. -1.
         11    1    1    0    0    0 -0.40386384082E+02  0.35044149069E+02 -0.60179862329E+00  0.53474429076E+02  0.51100000000E-03 0. -1.
         22    1    1    0    0    0  0.47202895526E+02 -0.40959044330E+02  0.70237992734E+00  0.62499999968E+02  0.00000000000E+00 0. -1.
</event>
<event>
 4    1  0.1977788E-002  0.9118800E+02  0.7818608E-02  0.1130116E+00
         25   -1    0    0    0    0  0.00000000000E+00  0.00000000000E+00  0.99999998245E-14  0.12500000000E+03  0.12500000000E+03 0.  0.
        -11    1    1    0    0    0 -0.27194342151E+01 -0.16469037264E+02 -0.17089222408E+01  0.16779300532E+02  0.51100000000E-03 0.  1.
         11    1    1    0    0    0 -0.95660153297E+00 -0.28610317733E+02 -0.38313409101E+02  0.47826589723E+02  0.51100000000E-03 0. -1.
         22    1    1    0    0    0  0.36760357481E+01  0.45079354998E+02  0.40022331342E+02  0.60394109745E+02  0.00000000000E+00 0. -1.
</event>
<event>
 4    1  0.1977788E-002  0.9118800E+02  0.7818608E-02  0.1130116E+00
         25   -1    0    0    0    0  0.00000000000E+00  0.00000000000E+00  0.99999998245E-14  0.12500000000E+03  0.12500000000E+03 0.  0.
        -11    1    1    0    0    0 -0.10123619733E+02  0.33126742164E+02 -0.28393044062E+02  0.44788767278E+02  0.51100000000E-03 0. -1.
         11    1    1    0    0    0 -0.40040913146E+01  0.13099952712E+02 -0.11227032403E+02  0.17711232740E+02  0.51100000000E-03 0.  1.
         22    1    1    0    0    0  0.14127711047E+02 -0.46226694877E+02  0.39620076465E+02  0.62499999982E+02  0.00000000000E+00 0. -1.
</event>
<event>
 4    1  0.1977788E-002  0.9118800E+02  0.7818608E-02  0.1130116E+00
         25   -1    0    0    0    0  0.00000000000E+00  0.00000000000E+00  0.99999998245E-14  0.12500000000E+03  0.12500000000E+03 0.  0.
        -11    1    1    0    0    0  0.31427363950E+02 -0.70644382543E+01 -0.42968731824E+02  0.53701931134E+02  0.51100000000E-03 0.  1.
         11    1    1    0    0    0  0.10200573629E+02 -0.44188245893E+01  0.11342891234E+01  0.11174270678E+02  0.51100000000E-03 0. -1.
         22    1    1    0    0    0 -0.41627937578E+02  0.11483262844E+02  0.41834442701E+02  0.60123798189E+02  0.00000000000E+00 0.  1.
</event>
<event>
 4    1  0.1977788E-002  0.9118800E+02  0.7818608E-02  0.1130116E+00
         25   -1    0    0    0    0  0.00000000000E+00  0.00000000000E+00  0.99999998245E-14  0.12500000000E+03  0.12500000000E+03 0.  0.
        -11    1    1    0    0    0  0.10604123806E+02  0.39266935228E+02  0.20390976892E+02  0.45498698693E+02  0.51100000000E-03 0.  1.
         11    1    1    0    0    0  0.39572255232E+01  0.14691051610E+02  0.75867078663E+01  0.17001316648E+02  0.51100000000E-03 0. -1.
         22    1    1    0    0    0 -0.14561349330E+02 -0.53957986838E+02 -0.27977684758E+02  0.62499984659E+02  0.00000000000E+00 0.  1.
</event>
<event>
 4    1  0.1977788E-002  0.9118800E+02  0.7818608E-02  0.1130116E+00
         25   -1    0    0    0    0  0.00000000000E+00  0.00000000000E+00  0.99999998245E-14  0.12500000000E+03  0.12500000000E+03 0.  0.
        -11    1    1    0    0    0  0.29217682431E+02  0.50179642425E+02 -0.19440125167E+02  0.61233879081E+02  0.51100000000E-03 0. -1.
         11    1    1    0    0    0  0.58170389391E+00  0.10497762197E+01 -0.40369978704E+00  0.12662477289E+01  0.51100000000E-03 0.  1.
         22    1    1    0    0    0 -0.29799386325E+02 -0.51229418644E+02  0.19843824954E+02  0.62499873190E+02  0.00000000000E+00 0. -1.
</event>
<event>
 4    1  0.1977788E-002  0.9118800E+02  0.7818608E-02  0.1130116E+00
         25   -1    0    0    0    0  0.00000000000E+00  0.00000000000E+00  0.99999998245E-14  0.12500000000E+03  0.12500000000E+03 0.  0.
        -11    1    1    0    0    0 -0.13684326573E+02  0.53390515975E+01 -0.31741994403E+02  0.34975998551E+02  0.51100000000E-03 0.  1.
         11    1    1    0    0    0 -0.10844419158E+02  0.42109095380E+01 -0.24944727425E+02  0.27524036997E+02  0.51100000000E-03 0. -1.
         22    1    1    0    0    0  0.24528745731E+02 -0.95499611355E+01  0.56686721828E+02  0.62499964452E+02  0.00000000000E+00 0. -1.
</event>
<event>
 4    1  0.1977788E-002  0.9118800E+02  0.7818608E-02  0.1130116E+00
         25   -1    0    0    0    0  0.00000000000E+00  0.00000000000E+00  0.99999998245E-14  0.12500000000E+03  0.12500000000E+03 0.  0.
        -11    1    1    0    0    0 -0.43261543868E+02  0.86902230043E+01 -0.33222447255E+02  0.55234157508E+02  0.51100000000E-03 0. -1.
         11    1    1    0    0    0 -0.56637277359E+01  0.11346484104E+01 -0.44077438905E+01  0.72659098086E+01  0.51100000000E-03 0.  1.
         22    1    1    0    0    0  0.48925271604E+02 -0.98248714147E+01  0.37630191145E+02  0.62499932684E+02  0.00000000000E+00 0. -1.
</event>
<event>
 4    1  0.1977788E-002  0.9118800E+02  0.7818608E-02  0.1130116E+00
         25   -1    0    0    0    0  0.00000000000E+00  0.00000000000E+00  0.99999998245E-14  0.12500000000E+03  0.12500000000E+03 0.  0.
        -11    1    1    0    0    0  0.21243806887E+01  0.23475177339E+01  0.46750195573E+01  0.56462058893E+01  0.51100000000E-03 0. -1.
         11    1    1    0    0    0  0.21639493421E+02  0.24130622884E+02  0.46709945607E+02  0.56853967805E+02  0.51100000000E-03 0.  1.
         22    1    1    0    0    0 -0.23763874110E+02 -0.26478140618E+02 -0.51384965164E+02  0.62499826306E+02  0.00000000000E+00 0.  1.
</event>
<event>
 4    1  0.1977788E-002  0.9118800E+02  0.7818608E-02  0.1130116E+00
         25   -1    0    0    0    0  0.00000000000E+00  0.00000000000E+00  0.99999998245E-14  0.12500000000E+03  0.12500000000E+03 0.  0.
        -11    1    1    0    0    0  0.59656733691E+01 -0.24816955003E+02  0.25870394946E+02  0.36342094729E+02  0.51100000000E-03 0.  1.
         11    1    1    0    0    0  0.43670185903E+01 -0.18043773651E+02  0.18428489950E+02  0.26158322978E+02  0.51100000000E-03 0. -1.
         22    1    1    0    0    0 -0.10332691959E+02  0.42860728653E+02 -0.44298884896E+02  0.62499582293E+02  0.00000000000E+00 0.  1.
</event>
<event>
 4    1  0.1977788E-002  0.9118800E+02  0.7818608E-02  0.1130116E+00
         25   -1    0    0    0    0  0.00000000000E+00  0.00000000000E+00  0.99999998245E-14  0.12500000000E+03  0.12500000000E+03 0.  0.
        -11    1    1    0    0    0  0.90615957378E+01  0.21109430604E+02  0.30732916291E+02  0.38369684932E+02  0.51100000000E-03 0.  1.
         11    1    1    0    0    0  0.72353193067E+01  0.14568714105E+02  0.17876257241E+02  0.24169357653E+02  0.51100000000E-03 0. -1.
         22    1    1    0    0    0 -0.16296915045E+02 -0.35678144709E+02 -0.48609173532E+02  0.62460957416E+02  0.00000000000E+00 0.  1.
</event>
<event>
 4    1  0.1977788E-002  0.9118800E+02  0.7818608E-02  0.1130116E+00
         25   -1    0    0    0    0  0.00000000000E+00  0.00000000000E+00  0.99999998245E-14  0.12500000000E+03  0.12500000000E+03 0.  0.
        -11    1    1    0    0    0  0.16244841705E+02 -0.91582687681E+01  0.25361876020E+01  0.18820228921E+02  0.51100000000E-03 0.  1.
         11    1    1    0    0    0  0.37705975351E+02 -0.21292809690E+02  0.57273113149E+01  0.43679817042E+02  0.51100000000E-03 0. -1.
         22    1    1    0    0    0 -0.53950817056E+02  0.30451078458E+02 -0.82634989169E+01  0.62499954037E+02  0.00000000000E+00 0. -1.
</event>
<event>
 4    1  0.1977788E-002  0.9118800E+02  0.7818608E-02  0.1130116E+00
         25   -1    0    0    0    0  0.00000000000E+00  0.00000000000E+00  0.99999998245E-14  0.12500000000E+03  0.12500000000E+03 0.  0.
        -11    1    1    0    0    0 -0.61614600780E+01  0.40390099054E+02 -0.35081106592E+02  0.53851719860E+02  0.51100000000E-03 0. -1.
         11    1    1    0    0    0 -0.97008803730E+00  0.64823873033E+01 -0.56418552232E+01  0.86482915406E+01  0.51100000000E-03 0.  1.
         22    1    1    0    0    0  0.71315481153E+01 -0.46872486357E+02  0.40722961816E+02  0.62499988599E+02  0.00000000000E+00 0. -1.
</event>
<event>
 4    1  0.1977788E-002  0.9118800E+02  0.7818608E-02  0.1130116E+00
         25   -1    0    0    0    0  0.00000000000E+00  0.00000000000E+00  0.99999998245E-14  0.12500000000E+03  0.12500000000E+03 0.  0.
        -11    1    1    0    0    0  0.42728332462E+02  0.19385535063E+02  0.11852202182E+02  0.48394049857E+02  0.51100000000E-03 0. -1.
         11    1    1    0    0    0 -0.45928537988E+00 -0.28355013574E+02 -0.17041554217E+02  0.33085227946E+02  0.51100000000E-03 0.  1.
         22    1    1    0    0    0 -0.42269047082E+02  0.89694785111E+01  0.51893520345E+01  0.43520722197E+02  0.00000000000E+00 0. -1.
</event>
<event>
 4    1  0.1977788E-002  0.9118800E+02  0.7818608E-02  0.1130116E+00
         25   -1    0    0    0    0  0.00000000000E+00  0.00000000000E+00  0.99999998245E-14  0.12500000000E+03  0.12500000000E+03 0.  0.
        -11    1    1    0    0    0  0.14187231814E+01 -0.10788514329E+02 -0.22399211950E+01  0.11109548331E+02  0.51100000000E-03 0.  1.
         11    1    1    0    0    0  0.65529802917E+01 -0.49902051354E+02 -0.10383751587E+02  0.51390452200E+02  0.51100000000E-03 0. -1.
         22    1    1    0    0    0 -0.79717034731E+01  0.60690565683E+02  0.12623672782E+02  0.62499999469E+02  0.00000000000E+00 0. -1.
</event>
<event>
 4    1  0.1977788E-002  0.9118800E+02  0.7818608E-02  0.1130116E+00
         25   -1    0    0    0    0  0.00000000000E+00  0.00000000000E+00  0.99999998245E-14  0.12500000000E+03  0.12500000000E+03 0.  0.
        -11    1    1    0    0    0 -0.21233284970E+02 -0.90134757032E+01 -0.55243651962E+01  0.23719480306E+02  0.51100000000E-03 0. -1.
         11    1    1    0    0    0 -0.34466354310E+02 -0.11755293980E+02 -0.13541546985E+02  0.38852155809E+02  0.51100000000E-03 0.  1.
         22    1    1    0    0    0  0.55699639281E+02  0.20768769683E+02  0.19065912181E+02  0.62428363886E+02  0.00000000000E+00 0.  1.
</event>
<event>
 4    1  0.1977788E-002  0.9118800E+02  0.7818608E-02  0.1130116E+00
         25   -1    0    0    0    0  0.00000000000E+00  0.00000000000E+00  0.99999998245E-14  0.12500000000E+03  0.12500000000E+03 0.  0.
        -11    1    1    0    0    0  0.43879569618E+02 -0.19000933174E+02  0.33055622599E+01  0.47930979892E+02  0.51100000000E-03 0.  1.
         11    1    1    0    0    0  0.13400237853E+02 -0.56401003098E+01  0.94299451839E+00  0.14569363231E+02  0.51100000000E-03 0. -1.
         22    1    1    0    0    0 -0.57279807471E+02  0.24641033484E+02 -0.42485567783E+01  0.62499656877E+02  0.00000000000E+00 0.  1.
</event>
<event>
 4    1  0.1977788E-002  0.9118800E+02  0.7818608E-02  0.1130116E+00
         25   -1    0    0    0    0  0.00000000000E+00  0.00000000000E+00  0.99999998245E-14  0.12500000000E+03  0.12500000000E+03 0.  0.
        -11    1    1    0    0    0 -0.25571561838E+01  0.16446607047E+01 -0.40927845287E+01  0.50985137091E+01  0.51100000000E-03 0. -1.
         11    1    1    0    0    0 -0.28781832831E+02  0.18527436624E+02 -0.46078962969E+02  0.57401486370E+02  0.51100000000E-03 0.  1.
         22    1    1    0    0    0  0.31338989015E+02 -0.20172097329E+02  0.50171747498E+02  0.62499999921E+02  0.00000000000E+00 0.  1.
</event>
<event>
 4    1  0.1977788E-002  0.9118800E+02  0.7818608E-02  0.1130116E+00
         25   -1    0    0    0    0  0.00000000000E+00  0.00000000000E+00  0.99999998245E-14  0.12500000000E+03  0.12500000000E+03 0.  0.
        -11    1    1    0    0    0  0.25526469357E+02  0.13129920680E+02 -0.25316919448E+02  0.38274558985E+02  0.51100000000E-03 0.  1.
         11    1    1    0    0    0 -0.42320168762E+02 -0.27027108302E+02  0.36641063418E+02  0.62161312694E+02  0.51100000000E-03 0. -1.
         22    1    1    0    0    0  0.16793699405E+02  0.13897187621E+02 -0.11324143970E+02  0.24564128320E+02  0.00000000000E+00 0. -1.
</event>
<event>
 4    1  0.1977788E-002  0.9118800E+02  0.7818608E-02  0.1130116E+00
         25   -1    0    0    0    0  0.00000000000E+00  0.00000000000E+00  0.99999998245E-14  0.12500000000E+03  0.12500000000E+03 0.  0.
        -11    1    1    0    0    0  0.34154221990E+02 -0.49338855686E+02  0.72199577343E+00  0.60011289257E+02  0.51100000000E-03 0. -1.
         11    1    1    0    0    0  0.15703390339E+01 -0.19354035653E+01 -0.34799951337E-01  0.24925815814E+01  0.51100000000E-03 0.  1.
         22    1    1    0    0    0 -0.35724561024E+02  0.51274259251E+02 -0.68719582209E+00  0.62496129162E+02  0.00000000000E+00 0. -1.
</event>
<event>
 4    1  0.1977788E-002  0.9118800E+02  0.7818608E-02  0.1130116E+00
         25   -1    0    0    0    0  0.00000000000E+00  0.00000000000E+00  0.99999998245E-14  0.12500000000E+03  0.12500000000E+03 0.  0.
        -11    1    1    0    0    0  0.53385123894E+01  0.15246750488E+01 -0.22644136909E+02  0.23314829726E+02  0.51100000000E-03 0.  1.
         11    1    1    0    0    0  0.90431966050E+01  0.19760792828E+01 -0.38077006493E+02  0.39186001556E+02  0.51100000000E-03 0. -1.
         22    1    1    0    0    0 -0.14381708994E+02 -0.35007543316E+01  0.60721143402E+02  0.62499168719E+02  0.00000000000E+00 0.  1.
</event>
<event>
 4    1  0.1977788E-002  0.9118800E+02  0.7818608E-02  0.1130116E+00
         25   -1    0    0    0    0  0.00000000000E+00  0.00000000000E+00  0.99999998245E-14  0.12500000000E+03  0.12500000000E+03 0.  0.
        -11    1    1    0    0    0 -0.54830091012E+02  0.51890403569E+01 -0.32541548679E+01  0.55171138690E+02  0.51100000000E-03 0. -1.
         11    1    1    0    0    0 -0.44615446993E+00 -0.10410416050E+02  0.93151893786E+01  0.13976715263E+02  0.51100000000E-03 0.  1.
         22    1    1    0    0    0  0.55276245482E+02  0.52213756926E+01 -0.60610345107E+01  0.55852146047E+02  0.00000000000E+00 0. -1.
</event>
<event>
 4    1  0.1977788E-002  0.9118800E+02  0.7818608E-02  0.1130116E+00
         25   -1    0    0    0    0  0.00000000000E+00  0.00000000000E+00  0.99999998245E-14  0.12500000000E+03  0.12500000000E+03 0.  0.
        -11    1    1    0    0    0  0.40951264752E+02 -0.14650834634E+02 -0.35300825327E+02  0.56016080810E+02  0.51100000000E-03 0. -1.
         11    1    1    0    0    0  0.41080899243E+01 -0.30558108124E+01 -0.41034273808E+01  0.65614403204E+01  0.51100000000E-03 0.  1.
         22    1    1    0    0    0 -0.45059354676E+02  0.17706645446E+02  0.39404252708E+02  0.62422478870E+02  0.00000000000E+00 0. -1.
</event>
<event>
 4    1  0.1977788E-002  0.9118800E+02  0.7818608E-02  0.1130116E+00
         25   -1    0    0    0    0  0.00000000000E+00  0.00000000000E+00  0.99999998245E-14  0.12500000000E+03  0.12500000000E+03 0.  0.
        -11    1    1    0    0    0 -0.26421436100E+02 -0.25140675698E+02  0.38531551170E+02  0.53054936584E+02  0.51100000000E-03 0. -1.
         11    1    1    0    0    0 -0.47127899637E+01 -0.44809579198E+01  0.68498129401E+01  0.94450680621E+01  0.51100000000E-03 0.  1.
         22    1    1    0    0    0  0.31134226064E+02  0.29621633617E+02 -0.45381364110E+02  0.62499995354E+02  0.00000000000E+00 0. -1.
</event>
<event>
 4    1  0.1977788E-002  0.9118800E+02  0.7818608E-02  0.1130116E+00
         25   -1    0    0    0    0  0.00000000000E+00  0.00000000000E+00  0.99999998245E-14  0.12500000000E+03  0.12500000000E+03 0.  0.
        -11    1    1    0    0    0  0.74408038179E+01 -0.31011775477E+02  0.32866663506E+02  0.45796433813E+02  0.51100000000E-03 0.  1.
         11    1    1    0    0    0  0.27149392020E+01 -0.11310684102E+02  0.11987771020E+02  0.16703566206E+02  0.51100000000E-03 0.  1.
         22    1    1    0    0    0 -0.10155743020E+02  0.42322459579E+02 -0.44854434525E+02  0.62499999981E+02  0.00000000000E+00 0.  1.
</event>
<event>
 4    1  0.1977788E-002  0.9118800E+02  0.7818608E-02  0.1130116E+00
         25   -1    0    0    0    0  0.00000000000E+00  0.00000000000E+00  0.99999998245E-14  0.12500000000E+03  0.12500000000E+03 0.  0.
        -11    1    1    0    0    0  0.85306448985E+01 -0.78843180059E+01  0.94631167856E+01  0.14982821909E+02  0.51100000000E-03 0.  1.
         11    1    1    0    0    0  0.26847565844E+02 -0.24954094769E+02  0.30238968279E+02  0.47517300432E+02  0.51100000000E-03 0. -1.
         22    1    1    0    0    0 -0.35378210742E+02  0.32838412775E+02 -0.39702085065E+02  0.62499877659E+02  0.00000000000E+00 0. -1.
</event>
<event>
 4    1  0.1977788E-002  0.9118800E+02  0.7818608E-02  0.1130116E+00
         25   -1    0    0    0    0  0.00000000000E+00  0.00000000000E+00  0.99999998245E-14  0.12500000000E+03  0.12500000000E+03 0.  0.
        -11    1    1    0    0    0 -0.31476711055E+01  0.17748539396E+02 -0.10547143571E+02  0.20884461253E+02  0.51100000000E-03 0. -1.
         11    1    1    0    0    0 -0.18300492780E+01  0.36158939272E+02 -0.20602595138E+02  0.41656750909E+02  0.51100000000E-03 0.  1.
         22    1    1    0    0    0  0.49777203835E+01 -0.53907478667E+02  0.31149738710E+02  0.62458787838E+02  0.00000000000E+00 0.  1.
</event>
<event>
 4    1  0.1977788E-002  0.9118800E+02  0.7818608E-02  0.1130116E+00
         25   -1    0    0    0    0  0.00000000000E+00  0.00000000000E+00  0.99999998245E-14  0.12500000000E+03  0.12500000000E+03 0.  0.
        -11    1    1    0    0    0  0.10114760151E+02 -0.83106900690E+01 -0.15890968989E+02  0.20588803705E+02  0.51100000000E-03 0. -1.
         11    1    1    0    0    0  0.20584200498E+02 -0.16912828482E+02 -0.32354216304E+02  0.41911196479E+02  0.51100000000E-03 0.  1.
         22    1    1    0    0    0 -0.30698960649E+02  0.25223518551E+02  0.48245185293E+02  0.62499999816E+02  0.00000000000E+00 0.  1.
</event>
<event>
 4    1  0.1977788E-002  0.9118800E+02  0.7818608E-02  0.1130116E+00
         25   -1    0    0    0    0  0.00000000000E+00  0.00000000000E+00  0.99999998245E-14  0.12500000000E+03  0.12500000000E+03 0.  0.
        -11    1    1    0    0    0  0.19286106667E+01  0.43484008254E+02  0.89876521932E+01  0.44444981777E+02  0.51100000000E-03 0.  1.
         11    1    1    0    0    0  0.43250863795E+01  0.12128431514E+02  0.14912224484E+02  0.19702275567E+02  0.51100000000E-03 0. -1.
         22    1    1    0    0    0 -0.62536970463E+01 -0.55612439768E+02 -0.23899876677E+02  0.60852742657E+02  0.00000000000E+00 0. -1.
</event>
<event>
 4    1  0.1977788E-002  0.9118800E+02  0.7818608E-02  0.1130116E+00
         25   -1    0    0    0    0  0.00000000000E+00  0.00000000000E+00  0.99999998245E-14  0.12500000000E+03  0.12500000000E+03 0.  0.
        -11    1    1    0    0    0 -0.24365690425E+01  0.59425887193E+02  0.49970889276E+01  0.59685373715E+02  0.51100000000E-03 0.  1.
         11    1    1    0    0    0 -0.10539692597E+00  0.28026194556E+01  0.23744766124E+00  0.28146342530E+01  0.51100000000E-03 0. -1.
         22    1    1    0    0    0  0.25419659684E+01 -0.62228506649E+02 -0.52345365888E+01  0.62499992033E+02  0.00000000000E+00 0.  1.
</event>
<event>
 4    1  0.1977788E-002  0.9118800E+02  0.7818608E-02  0.1130116E+00
         25   -1    0    0    0    0  0.00000000000E+00  0.00000000000E+00  0.99999998245E-14  0.12500000000E+03  0.12500000000E+03 0.  0.
        -11    1    1    0    0    0  0.18277120005E+02 -0.91332076859E+01  0.30965274485E+02  0.37098744217E+02  0.51100000000E-03 0.  1.
         11    1    1    0    0    0  0.16094074550E+02 -0.80799421632E+01  0.18125584023E+02  0.25550763148E+02  0.51100000000E-03 0. -1.
         22    1    1    0    0    0 -0.34371194555E+02  0.17213149849E+02 -0.49090858508E+02  0.62350492635E+02  0.00000000000E+00 0. -1.
</event>
<event>
 4    1  0.1977788E-002  0.9118800E+02  0.7818608E-02  0.1130116E+00
         25   -1    0    0    0    0  0.00000000000E+00  0.00000000000E+00  0.99999998245E-14  0.12500000000E+03  0.12500000000E+03 0.  0.
        -11    1    1    0    0    0  0.24116695012E+00 -0.18732609597E+01 -0.69807418172E+00  0.20135977615E+01  0.51100000000E-03 0. -1.
         11    1    1    0    0    0  0.55983379292E+02  0.36287864709E+00 -0.24800211288E+02  0.61231698638E+02  0.51100000000E-03 0.  1.
         22    1    1    0    0    0 -0.56224546242E+02  0.15103823126E+01  0.25498285470E+02  0.61754703601E+02  0.00000000000E+00 0.  1.
</event>
<event>
 4    1  0.1977788E-002  0.9118800E+02  0.7818608E-02  0.1130116E+00
         25   -1    0    0    0    0  0.00000000000E+00  0.00000000000E+00  0.99999998245E-14  0.12500000000E+03  0.12500000000E+03 0.  0.
        -11    1    1    0    0    0  0.45720137429E+02  0.10227672597E+02 -0.38254105561E+01  0.47006063645E+02  0.51100000000E-03 0. -1.
         11    1    1    0    0    0  0.15069913154E+02  0.33720034002E+01 -0.12607039911E+01  0.15493936369E+02  0.51100000000E-03 0.  1.
         22    1    1    0    0    0 -0.60790050582E+02 -0.13599675997E+02  0.50861145472E+01  0.62499999986E+02  0.00000000000E+00 0. -1.
</event>
<event>
 4    1  0.1977788E-002  0.9118800E+02  0.7818608E-02  0.1130116E+00
         25   -1    0    0    0    0  0.00000000000E+00  0.00000000000E+00  0.99999998245E-14  0.12500000000E+03  0.12500000000E+03 0.  0.
        -11    1    1    0    0    0  0.98474577018E+01  0.62102446026E+01 -0.48683691216E+02  0.50056381730E+02  0.51100000000E-03 0. -1.
         11    1    1    0    0    0  0.24696703734E+01  0.14635474774E+01 -0.12108062347E+02  0.12443730029E+02  0.51100000000E-03 0.  1.
         22    1    1    0    0    0 -0.12317128075E+02 -0.76737920800E+01  0.60791753563E+02  0.62499888241E+02  0.00000000000E+00 0. -1.
</event>
<event>
 4    1  0.1977788E-002  0.9118800E+02  0.7818608E-02  0.1130116E+00
         25   -1    0    0    0    0  0.00000000000E+00  0.00000000000E+00  0.99999998245E-14  0.12500000000E+03  0.12500000000E+03 0.  0.
        -11    1    1    0    0    0  0.86565546369E+01  0.52699260956E+02 -0.26556658736E+01  0.53471493386E+02  0.51100000000E-03 0.  1.
         11    1    1    0    0    0  0.14231473339E+01  0.88997271687E+01 -0.53606100400E+00  0.90287238119E+01  0.51100000000E-03 0. -1.
         22    1    1    0    0    0 -0.10079701971E+02 -0.61598988125E+02  0.31917268775E+01  0.62499782802E+02  0.00000000000E+00 0.  1.
</event>
<event>
 4    1  0.1977788E-002  0.9118800E+02  0.7818608E-02  0.1130116E+00
         25   -1    0    0    0    0  0.00000000000E+00  0.00000000000E+00  0.99999998245E-14  0.12500000000E+03  0.12500000000E+03 0.  0.
        -11    1    1    0    0    0 -0.25228679585E+02 -0.17393307734E+01  0.36708677878E+02  0.44576210886E+02  0.51100000000E-03 0. -1.
         11    1    1    0    0    0 -0.94892601802E+01  0.78195982854E+00  0.15218927104E+02  0.17951970989E+02  0.51100000000E-03 0.  1.
         22    1    1    0    0    0  0.34717939765E+02  0.95737094490E+00 -0.51927604982E+02  0.62471818125E+02  0.00000000000E+00 0. -1.
</event>
<event>
 4    1  0.1977788E-002  0.9118800E+02  0.7818608E-02  0.1130116E+00
         25   -1    0    0    0    0  0.00000000000E+00  0.00000000000E+00  0.99999998245E-14  0.12500000000E+03  0.12500000000E+03 0.  0.
        -11    1    1    0    0    0  0.12677270012E+01 -0.64205152941E+01 -0.45484108186E+02  0.45952521652E+02  0.51100000000E-03 0. -1.
         11    1    1    0    0    0  0.13324927922E+02  0.25050616375E+02  0.68532659504E+00  0.28382331787E+02  0.51100000000E-03 0.  1.
         22    1    1    0    0    0 -0.14592654923E+02 -0.18630101081E+02  0.44798781591E+02  0.50665146561E+02  0.00000000000E+00 0.  1.
</event>
<event>
 4    1  0.1977788E-002  0.9118800E+02  0.7818608E-02  0.1130116E+00
         25   -1    0    0    0    0  0.00000000000E+00  0.00000000000E+00  0.99999998245E-14  0.12500000000E+03  0.12500000000E+03 0.  0.
        -11    1    1    0    0    0  0.43107096671E+01 -0.56652459387E+01 -0.55377438157E+01  0.90190817831E+01  0.51100000000E-03 0.  1.
         11    1    1    0    0    0  0.28280388915E+02 -0.34500499181E+02 -0.29521686141E+02  0.53493876227E+02  0.51100000000E-03 0. -1.
         22    1    1    0    0    0 -0.32591098582E+02  0.40165745119E+02  0.35059429957E+02  0.62487041990E+02  0.00000000000E+00 0. -1.
</event>
<event>
 4    1  0.1977788E-002  0.9118800E+02  0.7818608E-02  0.1130116E+00
         25   -1    0    0    0    0  0.00000000000E+00  0.00000000000E+00  0.99999998245E-14  0.12500000000E+03  0.12500000000E+03 0.  0.
        -11    1    1    0    0    0 -0.86934478628E+01  0.21727132328E+02 -0.56666756631E+02  0.61308772800E+02  0.51100000000E-03 0. -1.
         11    1    1    0    0    0 -0.17859523811E+00  0.43040151713E+00 -0.10963441448E+01  0.11912650713E+01  0.51100000000E-03 0.  1.
         22    1    1    0    0    0  0.88720431010E+01 -0.22157533846E+02  0.57763100775E+02  0.62499962129E+02  0.00000000000E+00 0. -1.
</event>
<event>
 4    1  0.1977788E-002  0.9118800E+02  0.7818608E-02  0.1130116E+00
         25   -1    0    0    0    0  0.00000000000E+00  0.00000000000E+00  0.99999998245E-14  0.12500000000E+03  0.12500000000E+03 0.  0.
        -11    1    1    0    0    0  0.65170890315E+01 -0.22843247445E+01 -0.15323286634E+02  0.16807548974E+02  0.51100000000E-03 0.  1.
         11    1    1    0    0    0  0.16942900963E+02 -0.52966732375E+01 -0.42105857984E+02  0.45694856573E+02  0.51100000000E-03 0. -1.
         22    1    1    0    0    0 -0.23459989995E+02  0.75809979820E+01  0.57429144617E+02  0.62497594453E+02  0.00000000000E+00 0. -1.
</event>
<event>
 4    1  0.1977788E-002  0.9118800E+02  0.7818608E-02  0.1130116E+00
         25   -1    0    0    0    0  0.00000000000E+00  0.00000000000E+00  0.99999998245E-14  0.12500000000E+03  0.12500000000E+03 0.  0.
        -11    1    1    0    0    0  0.34738394983E+02 -0.14291681782E+02  0.31023406695E+02  0.48718169274E+02  0.51100000000E-03 0. -1.
         11    1    1    0    0    0  0.98285309643E+01 -0.40128280994E+01  0.87884276695E+01  0.13781845719E+02  0.51100000000E-03 0.  1.
         22    1    1    0    0    0 -0.44566925947E+02  0.18304509881E+02 -0.39811834365E+02  0.62499985007E+02  0.00000000000E+00 0.  1.
</event>
<event>
 4    1  0.1977788E-002  0.9118800E+02  0.7818608E-02  0.1130116E+00
         25   -1    0    0    0    0  0.00000000000E+00  0.00000000000E+00  0.99999998245E-14  0.12500000000E+03  0.12500000000E+03 0.  0.
        -11    1    1    0    0    0 -0.60143300088E+01  0.55877595213E+01  0.44714298239E+02  0.45461672750E+02  0.51100000000E-03 0.  1.
         11    1    1    0    0    0 -0.51361638486E+01  0.16469489905E+02  0.96873270302E+01  0.19785564992E+02  0.51100000000E-03 0. -1.
         22    1    1    0    0    0  0.11150493857E+02 -0.22057249426E+02 -0.54401625269E+02  0.59752762258E+02  0.00000000000E+00 0.  1.
</event>
<event>
 4    1  0.1977788E-002  0.9118800E+02  0.7818608E-02  0.1130116E+00
         25   -1    0    0    0    0  0.00000000000E+00  0.00000000000E+00  0.99999998245E-14  0.12500000000E+03  0.12500000000E+03 0.  0.
        -11    1    1    0    0    0 -0.13497091352E+02 -0.15708788058E+02 -0.19897573626E+02  0.28720218204E+02  0.51100000000E-03 0.  1.
         11    1    1    0    0    0 -0.15877403739E+02 -0.18473713170E+02 -0.23403068887E+02  0.33779781843E+02  0.51100000000E-03 0. -1.
         22    1    1    0    0    0  0.29374495092E+02  0.34182501227E+02  0.43300642513E+02  0.62499999953E+02  0.00000000000E+00 0.  1.
</event>
<event>
 4    1  0.1977788E-002  0.9118800E+02  0.7818608E-02  0.1130116E+00
         25   -1    0    0    0    0  0.00000000000E+00  0.00000000000E+00  0.99999998245E-14  0.12500000000E+03  0.12500000000E+03 0.  0.
        -11    1    1    0    0    0 -0.14361929588E+01  0.13679063997E+02  0.36969578741E+01  0.14242434477E+02  0.51100000000E-03 0.  1.
         11    1    1    0    0    0 -0.48761866765E+01  0.46348933138E+02  0.12521655036E+02  0.48257565672E+02  0.51100000000E-03 0. -1.
         22    1    1    0    0    0  0.63123796353E+01 -0.60027997135E+02 -0.16218612910E+02  0.62499999851E+02  0.00000000000E+00 0. -1.
</event>
<event>
 4    1  0.1977788E-002  0.9118800E+02  0.7818608E-02  0.1130116E+00
         25   -1    0    0    0    0  0.00000000000E+00  0.00000000000E+00  0.99999998245E-14  0.12500000000E+03  0.12500000000E+03 0.  0.
        -11    1    1    0    0    0  0.15815393931E+02 -0.59847722985E+01  0.13530342503E+02  0.21656739209E+02  0.51100000000E-03 0. -1.
         11    1    1    0    0    0  0.29828847096E+02 -0.11285091437E+02  0.25515848918E+02  0.40843260816E+02  0.51100000000E-03 0. -1.
         22    1    1    0    0    0 -0.45644241027E+02  0.17269863735E+02 -0.39046191421E+02  0.62499999975E+02  0.00000000000E+00 0. -1.
</event>
<event>
 4    1  0.1977788E-002  0.9118800E+02  0.7818608E-02  0.1130116E+00
         25   -1    0    0    0    0  0.00000000000E+00  0.00000000000E+00  0.99999998245E-14  0.12500000000E+03  0.12500000000E+03 0.  0.
        -11    1    1    0    0    0  0.82762425750E+01  0.47281117574E+01  0.10969190480E+00  0.95322224337E+01  0.51100000000E-03 0.  1.
         11    1    1    0    0    0  0.30419088685E+02  0.41753371781E+02  0.13670947294E+02  0.53437438296E+02  0.51100000000E-03 0. -1.
         22    1    1    0    0    0 -0.38695331260E+02 -0.46481483538E+02 -0.13780639199E+02  0.62030339270E+02  0.00000000000E+00 0. -1.
</event>
<event>
 4    1  0.1977788E-002  0.9118800E+02  0.7818608E-02  0.1130116E+00
         25   -1    0    0    0    0  0.00000000000E+00  0.00000000000E+00  0.99999998245E-14  0.12500000000E+03  0.12500000000E+03 0.  0.
        -11    1    1    0    0    0 -0.16302873278E+02  0.38634380035E+02  0.67879155003E+01  0.42479110100E+02  0.51100000000E-03 0. -1.
         11    1    1    0    0    0 -0.71980046461E+01  0.18375428494E+02  0.33867316248E+01  0.20023426145E+02  0.51100000000E-03 0.  1.
         22    1    1    0    0    0  0.23500877924E+02 -0.57009808529E+02 -0.10174647125E+02  0.62497463755E+02  0.00000000000E+00 0. -1.
</event>
<event>
 4    1  0.1977788E-002  0.9118800E+02  0.7818608E-02  0.1130116E+00
         25   -1    0    0    0    0  0.00000000000E+00  0.00000000000E+00  0.99999998245E-14  0.12500000000E+03  0.12500000000E+03 0.  0.
        -11    1    1    0    0    0  0.56835010013E+00 -0.43069431141E+02 -0.35224307316E+02  0.55642166985E+02  0.51100000000E-03 0. -1.
         11    1    1    0    0    0 -0.27068922147E+00 -0.52144397135E+01 -0.44527921144E+01  0.68622891265E+01  0.51100000000E-03 0.  1.
         22    1    1    0    0    0 -0.29766087866E+00  0.48283870855E+02  0.39677099430E+02  0.62495543888E+02  0.00000000000E+00 0. -1.
</event>
<event>
 4    1  0.1977788E-002  0.9118800E+02  0.7818608E-02  0.1130116E+00
         25   -1    0    0    0    0  0.00000000000E+00  0.00000000000E+00  0.99999998245E-14  0.12500000000E+03  0.12500000000E+03 0.  0.
        -11    1    1    0    0    0 -0.75940366340E+01  0.22881527813E+02  0.14447246015E+02  0.28106167030E+02  0.51100000000E-03 0. -1.
         11    1    1    0    0    0 -0.95266927139E+01  0.27993958814E+02  0.17565061144E+02  0.34394054390E+02  0.51100000000E-03 0.  1.
         22    1    1    0    0    0  0.17120729348E+02 -0.50875486627E+02 -0.32012307159E+02  0.62499778580E+02  0.00000000000E+00 0.  1.
</event>
<event>
 4    1  0.1977788E-002  0.9118800E+02  0.7818608E-02  0.1130116E+00
         25   -1    0    0    0    0  0.00000000000E+00  0.00000000000E+00  0.99999998245E-14  0.12500000000E+03  0.12500000000E+03 0.  0.
        -11    1    1    0    0    0 -0.42831797496E+02  0.25097383212E+02  0.23637473970E+02  0.54983376549E+02  0.51100000000E-03 0.  1.
         11    1    1    0    0    0 -0.58556268187E+01  0.34303575366E+01  0.32317038778E+01  0.75166234762E+01  0.51100000000E-03 0.  1.
         22    1    1    0    0    0  0.48687424315E+02 -0.28527740748E+02 -0.26869177847E+02  0.62499999975E+02  0.00000000000E+00 0.  1.
</event>
<event>
 4    1  0.1977788E-002  0.9118800E+02  0.7818608E-02  0.1130116E+00
         25   -1    0    0    0    0  0.00000000000E+00  0.00000000000E+00  0.99999998245E-14  0.12500000000E+03  0.12500000000E+03 0.  0.
        -11    1    1    0    0    0 -0.43914282683E+02  0.18753875153E+01 -0.40255230801E+02  0.59602557907E+02  0.51100000000E-03 0.  1.
         11    1    1    0    0    0 -0.20210141183E+01 -0.11120045131E+01 -0.19437188357E+01  0.30164706657E+01  0.51100000000E-03 0. -1.
         22    1    1    0    0    0  0.45935296801E+02 -0.76338300213E+00  0.42198949637E+02  0.62380971428E+02  0.00000000000E+00 0.  1.
</event>
<event>
 4    1  0.1977788E-002  0.9118800E+02  0.7818608E-02  0.1130116E+00
         25   -1    0    0    0    0  0.00000000000E+00  0.00000000000E+00  0.99999998245E-14  0.12500000000E+03  0.12500000000E+03 0.  0.
        -11    1    1    0    0    0 -0.37838962563E+02  0.38816699707E+02  0.21063346011E+02  0.58156580104E+02  0.51100000000E-03 0. -1.
         11    1    1    0    0    0 -0.32018121393E+01  0.31637364165E+01 -0.93645351392E-01  0.45021771180E+01  0.51100000000E-03 0.  1.
         22    1    1    0    0    0  0.41040774703E+02 -0.41980436123E+02 -0.20969700660E+02  0.62341242778E+02  0.00000000000E+00 0. -1.
</event>
<event>
 4    1  0.1977788E-002  0.9118800E+02  0.7818608E-02  0.1130116E+00
         25   -1    0    0    0    0  0.00000000000E+00  0.00000000000E+00  0.99999998245E-14  0.12500000000E+03  0.12500000000E+03 0.  0.
        -11    1    1    0    0    0 -0.49090152003E+02 -0.37027506978E+01  0.28402616271E+02  0.56835393882E+02  0.51100000000E-03 0.  1.
         11    1    1    0    0    0 -0.48922464517E+01 -0.36808925782E+00  0.28316423016E+01  0.56646062026E+01  0.51100000000E-03 0. -1.
         22    1    1    0    0    0  0.53982398455E+02  0.40708399556E+01 -0.31234258572E+02  0.62499999916E+02  0.00000000000E+00 0.  1.
</event>
<event>
 4    1  0.1977788E-002  0.9118800E+02  0.7818608E-02  0.1130116E+00
         25   -1    0    0    0    0  0.00000000000E+00  0.00000000000E+00  0.99999998245E-14  0.12500000000E+03  0.12500000000E+03 0.  0.
        -11    1    1    0    0    0  0.15150841376E+01  0.36042186666E+01  0.54759468018E+01  0.67284370977E+01  0.51100000000E-03 0. -1.
         11    1    1    0    0    0 -0.51214534700E+02  0.23775541145E+02  0.14186526441E+02  0.58219090117E+02  0.51100000000E-03 0.  1.
         22    1    1    0    0    0  0.49699450563E+02 -0.27379759812E+02 -0.19662473243E+02  0.60052472785E+02  0.00000000000E+00 0.  1.
</event>
<event>
 4    1  0.1977788E-002  0.9118800E+02  0.7818608E-02  0.1130116E+00
         25   -1    0    0    0    0  0.00000000000E+00  0.00000000000E+00  0.99999998245E-14  0.12500000000E+03  0.12500000000E+03 0.  0.
        -11    1    1    0    0    0  0.31656113958E+01  0.21396989238E+02 -0.25928582791E+02  0.33766013235E+02  0.51100000000E-03 0. -1.
         11    1    1    0    0    0  0.14632208129E+01  0.20025576258E+02 -0.20599968263E+02  0.28766706665E+02  0.51100000000E-03 0.  1.
         22    1    1    0    0    0 -0.46288322087E+01 -0.41422565496E+02  0.46528551054E+02  0.62467280100E+02  0.00000000000E+00 0.  1.
</event>
<event>
 4    1  0.1977788E-002  0.9118800E+02  0.7818608E-02  0.1130116E+00
         25   -1    0    0    0    0  0.00000000000E+00  0.00000000000E+00  0.99999998245E-14  0.12500000000E+03  0.12500000000E+03 0.  0.
        -11    1    1    0    0    0 -0.29852128567E+02  0.20198690096E+02  0.44630659872E+02  0.57367520971E+02  0.51100000000E-03 0. -1.
         11    1    1    0    0    0 -0.25262473899E+01  0.16389444327E+01  0.41604962790E+01  0.51359316854E+01  0.51100000000E-03 0.  1.
         22    1    1    0    0    0  0.32378375956E+02 -0.21837634528E+02 -0.48791156151E+02  0.62496547344E+02  0.00000000000E+00 0. -1.
</event>
<event>
 4    1  0.1977788E-002  0.9118800E+02  0.7818608E-02  0.1130116E+00
         25   -1    0    0    0    0  0.00000000000E+00  0.00000000000E+00  0.99999998245E-14  0.12500000000E+03  0.12500000000E+03 0.  0.
        -11    1    1    0    0    0 -0.12399006907E+02  0.42716095998E+01  0.42038870955E+01  0.13771517267E+02  0.51100000000E-03 0.  1.
         11    1    1    0    0    0 -0.43873364322E+02  0.15115637509E+02  0.14869782742E+02  0.48728482772E+02  0.51100000000E-03 0. -1.
         22    1    1    0    0    0  0.56272371228E+02 -0.19387247109E+02 -0.19073669838E+02  0.62499999962E+02  0.00000000000E+00 0. -1.
</event>
<event>
 4    1  0.1977788E-002  0.9118800E+02  0.7818608E-02  0.1130116E+00
         25   -1    0    0    0    0  0.00000000000E+00  0.00000000000E+00  0.99999998245E-14  0.12500000000E+03  0.12500000000E+03 0.  0.
        -11    1    1    0    0    0 -0.10052603079E+02  0.17149355112E+02 -0.50481206763E+02  0.54254100729E+02  0.51100000000E-03 0. -1.
         11    1    1    0    0    0 -0.15222928498E+01  0.26030497296E+01 -0.76747398683E+01  0.82459005404E+01  0.51100000000E-03 0. -1.
         22    1    1    0    0    0  0.11574895929E+02 -0.19752404841E+02  0.58155946631E+02  0.62499998731E+02  0.00000000000E+00 0. -1.
</event>
<event>
 4    1  0.1977788E-002  0.9118800E+02  0.7818608E-02  0.1130116E+00
         25   -1    0    0    0    0  0.00000000000E+00  0.00000000000E+00  0.99999998245E-14  0.12500000000E+03  0.12500000000E+03 0.  0.
        -11    1    1    0    0    0  0.27852577089E+01 -0.78799601854E+00  0.22952442915E+01  0.36941500848E+01  0.51100000000E-03 0. -1.
         11    1    1    0    0    0  0.33795260166E+00  0.53683404491E+02 -0.30015196588E+02  0.61505561994E+02  0.51100000000E-03 0.  1.
         22    1    1    0    0    0 -0.31232103106E+01 -0.52895408473E+02  0.27719952296E+02  0.59800287921E+02  0.00000000000E+00 0.  1.
</event>
<event>
 4    1  0.1977788E-002  0.9118800E+02  0.7818608E-02  0.1130116E+00
         25   -1    0    0    0    0  0.00000000000E+00  0.00000000000E+00  0.99999998245E-14  0.12500000000E+03  0.12500000000E+03 0.  0.
        -11    1    1    0    0    0  0.12760843264E+01 -0.29743717479E+01 -0.31916237777E+01  0.45455187936E+01  0.51100000000E-03 0.  1.
         11    1    1    0    0    0  0.20058631764E+02 -0.37493808579E+02 -0.39385002216E+02  0.57959578930E+02  0.51100000000E-03 0. -1.
         22    1    1    0    0    0 -0.21334716090E+02  0.40468180326E+02  0.42576625993E+02  0.62494902277E+02  0.00000000000E+00 0. -1.
</event>
<event>
 4    1  0.1977788E-002  0.9118800E+02  0.7818608E-02  0.1130116E+00
         25   -1    0    0    0    0  0.00000000000E+00  0.00000000000E+00  0.99999998245E-14  0.12500000000E+03  0.12500000000E+03 0.  0.
        -11    1    1    0    0    0 -0.16546792414E+02 -0.15076895189E+02  0.15302426739E+02  0.27115924695E+02  0.51100000000E-03 0. -1.
         11    1    1    0    0    0 -0.21633429344E+02 -0.19670523488E+02  0.19927337081E+02  0.35384085729E+02  0.51100000000E-03 0.  1.
         22    1    1    0    0    0  0.38180221758E+02  0.34747418676E+02 -0.35229763821E+02  0.62499989576E+02  0.00000000000E+00 0.  1.
</event>
<event>
 4    1  0.1977788E-002  0.9118800E+02  0.7818608E-02  0.1130116E+00
         25   -1    0    0    0    0  0.00000000000E+00  0.00000000000E+00  0.99999998245E-14  0.12500000000E+03  0.12500000000E+03 0.  0.
        -11    1    1    0    0    0 -0.10189447262E+02 -0.61643116647E+01 -0.78399617753E+00  0.11934748597E+02  0.51100000000E-03 0. -1.
         11    1    1    0    0    0 -0.43169640906E+02 -0.26118631482E+02 -0.33232279488E+01  0.50565251416E+02  0.51100000000E-03 0.  1.
         22    1    1    0    0    0  0.53359088168E+02  0.32282943147E+02  0.41072241263E+01  0.62499999987E+02  0.00000000000E+00 0.  1.
</event>
<event>
 4    1  0.1977788E-002  0.9118800E+02  0.7818608E-02  0.1130116E+00
         25   -1    0    0    0    0  0.00000000000E+00  0.00000000000E+00  0.99999998245E-14  0.12500000000E+03  0.12500000000E+03 0.  0.
        -11    1    1    0    0    0 -0.99868048366E+01  0.12519981736E+02 -0.26409878178E+02  0.30886370443E+02  0.51100000000E-03 0.  1.
         11    1    1    0    0    0 -0.14833667132E+02  0.10720359696E+02 -0.25905950201E+02  0.31718796457E+02  0.51100000000E-03 0. -1.
         22    1    1    0    0    0  0.24820471968E+02 -0.23240341432E+02  0.52315828379E+02  0.62394833100E+02  0.00000000000E+00 0. -1.
</event>
<event>
 4    1  0.1977788E-002  0.9118800E+02  0.7818608E-02  0.1130116E+00
         25   -1    0    0    0    0  0.00000000000E+00  0.00000000000E+00  0.99999998245E-14  0.12500000000E+03  0.12500000000E+03 0.  0.
        -11    1    1    0    0    0 -0.69055435498E+01 -0.18628731578E+01  0.42436532292E+01  0.83165750830E+01  0.51100000000E-03 0. -1.
         11    1    1    0    0    0  0.84585750098E+01  0.29346545964E+02 -0.52725158320E+02  0.60932007774E+02  0.51100000000E-03 0.  1.
         22    1    1    0    0    0 -0.15530314600E+01 -0.27483672806E+02  0.48481505091E+02  0.55751417143E+02  0.00000000000E+00 0.  1.
</event>
<event>
 4    1  0.1977788E-002  0.9118800E+02  0.7818608E-02  0.1130116E+00
         25   -1    0    0    0    0  0.00000000000E+00  0.00000000000E+00  0.99999998245E-14  0.12500000000E+03  0.12500000000E+03 0.  0.
        -11    1    1    0    0    0 -0.14614423705E+02 -0.20679399842E+01  0.28350929411E+02  0.31962993520E+02  0.51100000000E-03 0.  1.
         11    1    1    0    0    0 -0.13982276909E+02 -0.20088722001E+01  0.27073410448E+02  0.30537013420E+02  0.51100000000E-03 0. -1.
         22    1    1    0    0    0  0.28596700614E+02  0.40768121843E+01 -0.55424339859E+02  0.62499993060E+02  0.00000000000E+00 0. -1.
</event>
<event>
 4    1  0.1977788E-002  0.9118800E+02  0.7818608E-02  0.1130116E+00
         25   -1    0    0    0    0  0.00000000000E+00  0.00000000000E+00  0.99999998245E-14  0.12500000000E+03  0.12500000000E+03 0.  0.
        -11    1    1    0    0    0 -0.36711599899E+01 -0.70045614923E+01  0.62978100057E+01  0.10109584982E+02  0.51100000000E-03 0. -1.
         11    1    1    0    0    0 -0.18409951159E+02 -0.36968395327E+02  0.32237349735E+02  0.52391175525E+02  0.51100000000E-03 0.  1.
         22    1    1    0    0    0  0.22081111149E+02  0.43972956819E+02 -0.38535159741E+02  0.62499239493E+02  0.00000000000E+00 0.  1.
</event>
<event>
 4    1  0.1977788E-002  0.9118800E+02  0.7818608E-02  0.1130116E+00
         25   -1    0    0    0    0  0.00000000000E+00  0.00000000000E+00  0.99999998245E-14  0.12500000000E+03  0.12500000000E+03 0.  0.
        -11    1    1    0    0    0  0.39319918909E+01  0.97640167190E+01 -0.56191786158E+01  0.11931963430E+02  0.51100000000E-03 0. -1.
         11    1    1    0    0    0  0.15147533140E+02  0.42219342532E+02 -0.23356207281E+02  0.50571069426E+02  0.51100000000E-03 0.  1.
         22    1    1    0    0    0 -0.19079525031E+02 -0.51983359251E+02  0.28975385897E+02  0.62496967144E+02  0.00000000000E+00 0.  1.
</event>
<event>
 4    1  0.1977788E-002  0.9118800E+02  0.7818608E-02  0.1130116E+00
         25   -1    0    0    0    0  0.00000000000E+00  0.00000000000E+00  0.99999998245E-14  0.12500000000E+03  0.12500000000E+03 0.  0.
        -11    1    1    0    0    0  0.15971344191E+01  0.34012116408E+01 -0.28387941245E+01  0.47093344881E+01  0.51100000000E-03 0.  1.
         11    1    1    0    0    0  0.19599706234E+02  0.41754652520E+02 -0.34816110582E+02  0.57790665750E+02  0.51100000000E-03 0. -1.
         22    1    1    0    0    0 -0.21196840653E+02 -0.45155864161E+02  0.37654904707E+02  0.62499999762E+02  0.00000000000E+00 0. -1.
</event>
<event>
 4    1  0.1977788E-002  0.9118800E+02  0.7818608E-02  0.1130116E+00
         25   -1    0    0    0    0  0.00000000000E+00  0.00000000000E+00  0.99999998245E-14  0.12500000000E+03  0.12500000000E+03 0.  0.
        -11    1    1    0    0    0 -0.18017212428E+01 -0.33481903291E+02 -0.22406392093E+02  0.40327787620E+02  0.51100000000E-03 0.  1.
         11    1    1    0    0    0 -0.18404441227E+01 -0.21237352797E+02 -0.70106637645E+01  0.22440182599E+02  0.51100000000E-03 0. -1.
         22    1    1    0    0    0  0.36421653654E+01  0.54719256088E+02  0.29417055857E+02  0.62232029781E+02  0.00000000000E+00 0.  1.
</event>
<event>
 4    1  0.1977788E-002  0.9118800E+02  0.7818608E-02  0.1130116E+00
         25   -1    0    0    0    0  0.00000000000E+00  0.00000000000E+00  0.99999998245E-14  0.12500000000E+03  0.12500000000E+03 0.  0.
        -11    1    1    0    0    0 -0.73588204521E+01  0.18556647598E+01 -0.58928282808E+01  0.96083898524E+01  0.51100000000E-03 0.  1.
         11    1    1    0    0    0  0.56254442743E+01  0.25386220183E+02 -0.48219874913E+02  0.54783776206E+02  0.51100000000E-03 0. -1.
         22    1    1    0    0    0  0.17333761779E+01 -0.27241884943E+02  0.54112703194E+02  0.60607833942E+02  0.00000000000E+00 0. -1.
</event>
<event>
 4    1  0.1977788E-002  0.9118800E+02  0.7818608E-02  0.1130116E+00
         25   -1    0    0    0    0  0.00000000000E+00  0.00000000000E+00  0.99999998245E-14  0.12500000000E+03  0.12500000000E+03 0.  0.
        -11    1    1    0    0    0 -0.31888025255E+02  0.32441389409E+02 -0.36656793390E+02  0.58420975714E+02  0.51100000000E-03 0. -1.
         11    1    1    0    0    0 -0.22309156089E+01  0.19744164691E+01 -0.27980869410E+01  0.40871255961E+01  0.51100000000E-03 0.  1.
         22    1    1    0    0    0  0.34118940864E+02 -0.34415805878E+02  0.39454880331E+02  0.62491898690E+02  0.00000000000E+00 0. -1.
</event>
<event>
 4    1  0.1977788E-002  0.9118800E+02  0.7818608E-02  0.1130116E+00
         25   -1    0    0    0    0  0.00000000000E+00  0.00000000000E+00  0.99999998245E-14  0.12500000000E+03  0.12500000000E+03 0.  0.
        -11    1    1    0    0    0  0.32730055595E+02  0.14882874589E+02 -0.30250777991E+02  0.46987935309E+02  0.51100000000E-03 0. -1.
         11    1    1    0    0    0  0.11464790685E+02  0.44156524905E+01 -0.94886613510E+01  0.15523340712E+02  0.51100000000E-03 0.  1.
         22    1    1    0    0    0 -0.44194846281E+02 -0.19298527080E+02  0.39739439342E+02  0.62488723978E+02  0.00000000000E+00 0. -1.
</event>
<event>
 4    1  0.1977788E-002  0.9118800E+02  0.7818608E-02  0.1130116E+00
         25   -1    0    0    0    0  0.00000000000E+00  0.00000000000E+00  0.99999998245E-14  0.12500000000E+03  0.12500000000E+03 0.  0.
        -11    1    1    0    0    0 -0.91289129251E+01 -0.56414778234E+01 -0.19109959768E+02  0.21916977114E+02  0.51100000000E-03 0.  1.
         11    1    1    0    0    0 -0.16902000286E+02 -0.10449371582E+02 -0.35385233769E+02  0.40583022920E+02  0.51100000000E-03 0. -1.
         22    1    1    0    0    0  0.26030913211E+02  0.16090849406E+02  0.54495193537E+02  0.62499999967E+02  0.00000000000E+00 0. -1.
</event>
<event>
 4    1  0.1977788E-002  0.9118800E+02  0.7818608E-02  0.1130116E+00
         25   -1    0    0    0    0  0.00000000000E+00  0.00000000000E+00  0.99999998245E-14  0.12500000000E+03  0.12500000000E+03 0.  0.
        -11    1    1    0    0    0  0.55788091588E+01 -0.26459529905E+01 -0.23281206834E+01  0.65988123959E+01  0.51100000000E-03 0.  1.
         11    1    1    0    0    0  0.33500694502E+02 -0.41448543843E+02 -0.17721752211E+02  0.56163500786E+02  0.51100000000E-03 0. -1.
         22    1    1    0    0    0 -0.39079503661E+02  0.44094496834E+02  0.20049872894E+02  0.62237686818E+02  0.00000000000E+00 0. -1.
</event>
<event>
 4    1  0.1977788E-002  0.9118800E+02  0.7818608E-02  0.1130116E+00
         25   -1    0    0    0    0  0.00000000000E+00  0.00000000000E+00  0.99999998245E-14  0.12500000000E+03  0.12500000000E+03 0.  0.
        -11    1    1    0    0    0 -0.22028236632E+01  0.85586838267E+01 -0.21270463142E+01  0.90899849956E+01  0.51100000000E-03 0.  1.
         11    1    1    0    0    0 -0.23606177450E+02  0.48024038313E+02  0.42688223215E+01  0.53682238347E+02  0.51100000000E-03 0. -1.
         22    1    1    0    0    0  0.25809001113E+02 -0.56582722140E+02 -0.21417760072E+01  0.62227776657E+02  0.00000000000E+00 0. -1.
</event>
<event>
 4    1  0.1977788E-002  0.9118800E+02  0.7818608E-02  0.1130116E+00
         25   -1    0    0    0    0  0.00000000000E+00  0.00000000000E+00  0.99999998245E-14  0.12500000000E+03  0.12500000000E+03 0.  0.
        -11    1    1    0    0    0 -0.42568445479E+01  0.31542659139E+02 -0.30013013603E+02  0.43747469148E+02  0.51100000000E-03 0.  1.
         11    1    1    0    0    0 -0.18063891440E+01  0.13497632777E+02 -0.12892200856E+02  0.18752545841E+02  0.51100000000E-03 0. -1.
         22    1    1    0    0    0  0.60632336919E+01 -0.45040291916E+02  0.42905214459E+02  0.62499985012E+02  0.00000000000E+00 0.  1.
</event>
<event>
 4    1  0.1977788E-002  0.9118800E+02  0.7818608E-02  0.1130116E+00
         25   -1    0    0    0    0  0.00000000000E+00  0.00000000000E+00  0.99999998245E-14  0.12500000000E+03  0.12500000000E+03 0.  0.
        -11    1    1    0    0    0  0.12020552606E+00 -0.56599646878E+01  0.10888825138E+02  0.12272577675E+02  0.51100000000E-03 0.  1.
         11    1    1    0    0    0  0.16768950523E+01 -0.24308277356E+02  0.43924891686E+02  0.50230473170E+02  0.51100000000E-03 0. -1.
         22    1    1    0    0    0 -0.17971005783E+01  0.29968242044E+02 -0.54813716824E+02  0.62496949155E+02  0.00000000000E+00 0. -1.
</event>
<event>
 4    1  0.1977788E-002  0.9118800E+02  0.7818608E-02  0.1130116E+00
         25   -1    0    0    0    0  0.00000000000E+00  0.00000000000E+00  0.99999998245E-14  0.12500000000E+03  0.12500000000E+03 0.  0.
        -11    1    1    0    0    0 -0.16044233470E+01 -0.17251263567E+01  0.84789826772E+00  0.25038304568E+01  0.51100000000E-03 0. -1.
         11    1    1    0    0    0 -0.38195078041E+02 -0.41302902035E+02  0.20850746652E+02  0.59996227709E+02  0.51100000000E-03 0.  1.
         22    1    1    0    0    0  0.39799501388E+02  0.43028028392E+02 -0.21698644919E+02  0.62499941835E+02  0.00000000000E+00 0.  1.
</event>
<event>
 4    1  0.1977788E-002  0.9118800E+02  0.7818608E-02  0.1130116E+00
         25   -1    0    0    0    0  0.00000000000E+00  0.00000000000E+00  0.99999998245E-14  0.12500000000E+03  0.12500000000E+03 0.  0.
        -11    1    1    0    0    0  0.17798201284E+02  0.37273919426E+01  0.10880271278E+02  0.21190793355E+02  0.51100000000E-03 0. -1.
         11    1    1    0    0    0  0.34695560446E+02  0.72671904508E+01  0.21209822779E+02  0.41309206652E+02  0.51100000000E-03 0. -1.
         22    1    1    0    0    0 -0.52493761730E+02 -0.10994582393E+02 -0.32090094057E+02  0.62499999993E+02  0.00000000000E+00 0. -1.
</event>
<event>
 4    1  0.1977788E-002  0.9118800E+02  0.7818608E-02  0.1130116E+00
         25   -1    0    0    0    0  0.00000000000E+00  0.00000000000E+00  0.99999998245E-14  0.12500000000E+03  0.12500000000E+03 0.  0.
        -11    1    1    0    0    0 -0.29888516829E+02 -0.36424213661E+02 -0.20874339221E+02  0.51534307187E+02  0.51100000000E-03 0.  1.
         11    1    1    0    0    0 -0.66693796954E+01 -0.80639522813E+01 -0.33615353679E+01  0.10991263449E+02  0.51100000000E-03 0. -1.
         22    1    1    0    0    0  0.36557896524E+02  0.44488165942E+02  0.24235874589E+02  0.62474429364E+02  0.00000000000E+00 0. -1.
</event>
<event>
 4    1  0.1977788E-002  0.9118800E+02  0.7818608E-02  0.1130116E+00
         25   -1    0    0    0    0  0.00000000000E+00  0.00000000000E+00  0.99999998245E-14  0.12500000000E+03  0.12500000000E+03 0.  0.
        -11    1    1    0    0    0  0.62123245785E+01 -0.28709250974E+02 -0.45059913688E+02  0.53788566536E+02  0.51100000000E-03 0.  1.
         11    1    1    0    0    0  0.94620179037E+00 -0.46296960117E+01 -0.73185786333E+01  0.87115427143E+01  0.51100000000E-03 0. -1.
         22    1    1    0    0    0 -0.71585263689E+01  0.33338946986E+02  0.52378492321E+02  0.62499890750E+02  0.00000000000E+00 0.  1.
</event>
<event>
 4    1  0.1977788E-002  0.9118800E+02  0.7818608E-02  0.1130116E+00
         25   -1    0    0    0    0  0.00000000000E+00  0.00000000000E+00  0.99999998245E-14  0.12500000000E+03  0.12500000000E+03 0.  0.
        -11    1    1    0    0    0  0.16268422698E+00  0.17931773553E+02  0.10459252838E+02  0.20759839573E+02  0.51100000000E-03 0.  1.
         11    1    1    0    0    0  0.75680583261E+01  0.38640379152E+02  0.14454087533E+02  0.41943712931E+02  0.51100000000E-03 0. -1.
         22    1    1    0    0    0 -0.77307425531E+01 -0.56572152705E+02 -0.24913340371E+02  0.62296447495E+02  0.00000000000E+00 0. -1.
</event>
<event>
 4    1  0.1977788E-002  0.9118800E+02  0.7818608E-02  0.1130116E+00
         25   -1    0    0    0    0  0.00000000000E+00  0.00000000000E+00  0.99999998245E-14  0.12500000000E+03  0.12500000000E+03 0.  0.
        -11    1    1    0    0    0  0.29241831354E+02  0.20392710569E+01 -0.18667760599E+01  0.29372234857E+02  0.51100000000E-03 0.  1.
         11    1    1    0    0    0  0.32935723978E+02  0.31888507698E+01 -0.16586660729E+01  0.33131282145E+02  0.51100000000E-03 0. -1.
         22    1    1    0    0    0 -0.62177555332E+02 -0.52281218267E+01  0.35254421327E+01  0.62496482998E+02  0.00000000000E+00 0. -1.
</event>
<event>
 4    1  0.1977788E-002  0.9118800E+02  0.7818608E-02  0.1130116E+00
         25   -1    0    0    0    0  0.00000000000E+00  0.00000000000E+00  0.99999998245E-14  0.12500000000E+03  0.12500000000E+03 0.  0.
        -11    1    1    0    0    0  0.19317925476E+01 -0.31256656880E+01 -0.25113288074E+01  0.44506607465E+01  0.51100000000E-03 0.  1.
         11    1    1    0    0    0  0.25179939544E+02 -0.40751963867E+02 -0.32786795042E+02  0.58049339736E+02  0.51100000000E-03 0. -1.
         22    1    1    0    0    0 -0.27111732091E+02  0.43877629555E+02  0.35298123849E+02  0.62499999517E+02  0.00000000000E+00 0. -1.
</event>
<event>
 4    1  0.1977788E-002  0.9118800E+02  0.7818608E-02  0.1130116E+00
         25   -1    0    0    0    0  0.00000000000E+00  0.00000000000E+00  0.99999998245E-14  0.12500000000E+03  0.12500000000E+03 0.  0.
        -11    1    1    0    0    0 -0.79067614029E+01  0.65141466834E+01 -0.34262821598E+01  0.10802332739E+02  0.51100000000E-03 0. -1.
         11    1    1    0    0    0 -0.38363855505E+02  0.32333196860E+02 -0.12524526398E+02  0.51711553740E+02  0.51100000000E-03 0.  1.
         22    1    1    0    0    0  0.46270616908E+02 -0.38847343543E+02  0.15950808558E+02  0.62486113522E+02  0.00000000000E+00 0.  1.
</event>
<event>
 4    1  0.1977788E-002  0.9118800E+02  0.7818608E-02  0.1130116E+00
         25   -1    0    0    0    0  0.00000000000E+00  0.00000000000E+00  0.99999998245E-14  0.12500000000E+03  0.12500000000E+03 0.  0.
        -11    1    1    0    0    0 -0.28692669247E+02 -0.35388505678E+02  0.26705011393E+02  0.52808836727E+02  0.51100000000E-03 0.  1.
         11    1    1    0    0    0 -0.52653653629E+01 -0.64948322726E+01  0.49001762311E+01  0.96911632950E+01  0.51100000000E-03 0. -1.
         22    1    1    0    0    0  0.33958034610E+02  0.41883337951E+02 -0.31605187624E+02  0.62499999978E+02  0.00000000000E+00 0.  1.
</event>
<event>
 4    1  0.1977788E-002  0.9118800E+02  0.7818608E-02  0.1130116E+00
         25   -1    0    0    0    0  0.00000000000E+00  0.00000000000E+00  0.99999998245E-14  0.12500000000E+03  0.12500000000E+03 0.  0.
        -11    1    1    0    0    0 -0.25272008492E+02  0.13636941629E+02  0.22046526168E+02  0.36203451583E+02  0.51100000000E-03 0.  1.
         11    1    1    0    0    0 -0.18349468258E+02  0.10030658288E+02  0.15943567876E+02  0.26296662296E+02  0.51100000000E-03 0. -1.
         22    1    1    0    0    0  0.43621476750E+02 -0.23667599917E+02 -0.37990094043E+02  0.62499886121E+02  0.00000000000E+00 0.  1.
</event>
<event>
 4    1  0.1977788E-002  0.9118800E+02  0.7818608E-02  0.1130116E+00
         25   -1    0    0    0    0  0.00000000000E+00  0.00000000000E+00  0.99999998245E-14  0.12500000000E+03  0.12500000000E+03 0.  0.
        -11    1    1    0    0    0  0.82869732124E+01  0.36696326547E+02  0.27750664382E+02  0.46748194414E+02  0.51100000000E-03 0.  1.
         11    1    1    0    0    0 -0.41923178767E+01 -0.73115689048E+01  0.20187034801E+02  0.21875807262E+02  0.51100000000E-03 0. -1.
         22    1    1    0    0    0 -0.40946553357E+01 -0.29384757642E+02 -0.47937699184E+02  0.56375998324E+02  0.00000000000E+00 0.  1.
</event>
<event>
 4    1  0.1977788E-002  0.9118800E+02  0.7818608E-02  0.1130116E+00
         25   -1    0    0    0    0  0.00000000000E+00  0.00000000000E+00  0.99999998245E-14  0.12500000000E+03  0.12500000000E+03 0.  0.
        -11    1    1    0    0    0  0.43468330073E+02  0.21103151057E+02 -0.20868054490E+02  0.52633776250E+02  0.51100000000E-03 0. -1.
         11    1    1    0    0    0  0.81412174062E+01  0.39862621577E+01 -0.38952778073E+01  0.98662503669E+01  0.51100000000E-03 0.  1.
         22    1    1    0    0    0 -0.51609547479E+02 -0.25089413215E+02  0.24763332297E+02  0.62499973383E+02  0.00000000000E+00 0. -1.
</event>
<event>
 4    1  0.1977788E-002  0.9118800E+02  0.7818608E-02  0.1130116E+00
         25   -1    0    0    0    0  0.00000000000E+00  0.00000000000E+00  0.99999998245E-14  0.12500000000E+03  0.12500000000E+03 0.  0.
        -11    1    1    0    0    0  0.81057243709E+01 -0.43805517063E+02 -0.18313478588E+02  0.48166477876E+02  0.51100000000E-03 0.  1.
         11    1    1    0    0    0 -0.48843481393E+01  0.58465997186E+02  0.95195120710E+01  0.59436948054E+02  0.51100000000E-03 0. -1.
         22    1    1    0    0    0 -0.32213762316E+01 -0.14660480123E+02  0.87939665171E+01  0.17396574070E+02  0.00000000000E+00 0. -1.
</event>
<event>
 4    1  0.1977788E-002  0.9118800E+02  0.7818608E-02  0.1130116E+00
         25   -1    0    0    0    0  0.00000000000E+00  0.00000000000E+00  0.99999998245E-14  0.12500000000E+03  0.12500000000E+03 0.  0.
        -11    1    1    0    0    0  0.21190834600E+02  0.30089534165E+02  0.39810169976E+01  0.37017293714E+02  0.51100000000E-03 0. -1.
         11    1    1    0    0    0  0.15015217290E+02  0.20386701395E+02  0.28960140830E+01  0.25484529462E+02  0.51100000000E-03 0.  1.
         22    1    1    0    0    0 -0.36206051890E+02 -0.50476235561E+02 -0.68770310807E+01  0.62498176824E+02  0.00000000000E+00 0.  1.
</event>
<event>
 4    1  0.1977788E-002  0.9118800E+02  0.7818608E-02  0.1130116E+00
         25   -1    0    0    0    0  0.00000000000E+00  0.00000000000E+00  0.99999998245E-14  0.12500000000E+03  0.12500000000E+03 0.  0.
        -11    1    1    0    0    0 -0.88075142589E+00  0.45906313575E+02  0.28775366947E+02  0.54186595135E+02  0.51100000000E-03 0. -1.
         11    1    1    0    0    0 -0.13314213622E+00  0.70479774826E+01  0.44069293032E+01  0.83134072177E+01  0.51100000000E-03 0.  1.
         22    1    1    0    0    0  0.10138935621E+01 -0.52954291057E+02 -0.33182296250E+02  0.62499997648E+02  0.00000000000E+00 0. -1.
</event>
<event>
 4    1  0.1977788E-002  0.9118800E+02  0.7818608E-02  0.1130116E+00
         25   -1    0    0    0    0  0.00000000000E+00  0.00000000000E+00  0.99999998245E-14  0.12500000000E+03  0.12500000000E+03 0.  0.
        -11    1    1    0    0    0  0.18749493790E+02  0.21660299662E+02 -0.29171439222E+01  0.28796212038E+02  0.51100000000E-03 0.  1.
         11    1    1    0    0    0  0.21925952967E+02  0.25366049934E+02 -0.34295193820E+01  0.33703790680E+02  0.51100000000E-03 0. -1.
         22    1    1    0    0    0 -0.40675446757E+02 -0.47026349595E+02  0.63466633042E+01  0.62499997282E+02  0.00000000000E+00 0. -1.
</event>
<event>
 4    1  0.1977788E-002  0.9118800E+02  0.7818608E-02  0.1130116E+00
         25   -1    0    0    0    0  0.00000000000E+00  0.00000000000E+00  0.99999998245E-14  0.12500000000E+03  0.12500000000E+03 0.  0.
        -11    1    1    0    0    0  0.10026017755E+02  0.36122621946E+01  0.29722609077E+02  0.31575353692E+02  0.51100000000E-03 0. -1.
         11    1    1    0    0    0  0.98102453031E+01  0.35323582970E+01  0.29113833713E+02  0.30924646833E+02  0.51100000000E-03 0.  1.
         22    1    1    0    0    0 -0.19836263058E+02 -0.71446204916E+01 -0.58836442790E+02  0.62499999474E+02  0.00000000000E+00 0.  1.
</event>
<event>
 4    1  0.1977788E-002  0.9118800E+02  0.7818608E-02  0.1130116E+00
         25   -1    0    0    0    0  0.00000000000E+00  0.00000000000E+00  0.99999998245E-14  0.12500000000E+03  0.12500000000E+03 0.  0.
        -11    1    1    0    0    0  0.33213743192E+02 -0.99092687133E+01  0.16363894501E+02  0.38329145395E+02  0.51100000000E-03 0. -1.
         11    1    1    0    0    0  0.20034592532E+02 -0.10342136170E+02  0.90435870018E+01  0.24292615022E+02  0.51100000000E-03 0.  1.
         22    1    1    0    0    0 -0.53248335724E+02  0.20251404883E+02 -0.25407481503E+02  0.62378239583E+02  0.00000000000E+00 0. -1.
</event>
<event>
 4    1  0.1977788E-002  0.9118800E+02  0.7818608E-02  0.1130116E+00
         25   -1    0    0    0    0  0.00000000000E+00  0.00000000000E+00  0.99999998245E-14  0.12500000000E+03  0.12500000000E+03 0.  0.
        -11    1    1    0    0    0 -0.54392077620E+02  0.28545262194E+02 -0.10154033810E+02  0.62261019140E+02  0.51100000000E-03 0.  1.
         11    1    1    0    0    0 -0.20892872745E+00  0.10933994267E+00 -0.38798681583E-01  0.23898124410E+00  0.51100000000E-03 0. -1.
         22    1    1    0    0    0  0.54601006347E+02 -0.28654602137E+02  0.10192832491E+02  0.62499999616E+02  0.00000000000E+00 0.  1.
</event>
<event>
 4    1  0.1977788E-002  0.9118800E+02  0.7818608E-02  0.1130116E+00
         25   -1    0    0    0    0  0.00000000000E+00  0.00000000000E+00  0.99999998245E-14  0.12500000000E+03  0.12500000000E+03 0.  0.
        -11    1    1    0    0    0  0.17297641332E+01  0.45775063673E+02 -0.29346331733E+02  0.54401798910E+02  0.51100000000E-03 0.  1.
         11    1    1    0    0    0  0.25708389231E+00  0.68137779447E+01 -0.43688898989E+01  0.80982011099E+01  0.51100000000E-03 0.  1.
         22    1    1    0    0    0 -0.19868480255E+01 -0.52588841618E+02  0.33715221632E+02  0.62499999980E+02  0.00000000000E+00 0.  1.
</event>
<event>
 4    1  0.1977788E-002  0.9118800E+02  0.7818608E-02  0.1130116E+00
         25   -1    0    0    0    0  0.00000000000E+00  0.00000000000E+00  0.99999998245E-14  0.12500000000E+03  0.12500000000E+03 0.  0.
        -11    1    1    0    0    0 -0.27184794156E+02 -0.15694804674E+01  0.12516072392E+02  0.29968789943E+02  0.51100000000E-03 0. -1.
         11    1    1    0    0    0 -0.29509895675E+02 -0.17050923284E+01  0.13584489190E+02  0.32531210082E+02  0.51100000000E-03 0.  1.
         22    1    1    0    0    0  0.56694689831E+02  0.32745727958E+01 -0.26100561583E+02  0.62499999975E+02  0.00000000000E+00 0. -1.
</event>
<event>
 4    1  0.1977788E-002  0.9118800E+02  0.7818608E-02  0.1130116E+00
         25   -1    0    0    0    0  0.00000000000E+00  0.00000000000E+00  0.99999998245E-14  0.12500000000E+03  0.12500000000E+03 0.  0.
        -11    1    1    0    0    0 -0.83986949383E+00  0.11607278569E+01 -0.67008255022E+00  0.15816702595E+01  0.51100000000E-03 0.  1.
         11    1    1    0    0    0  0.18536160215E+02  0.80011861742E+01  0.58693281186E+02  0.62068586840E+02  0.51100000000E-03 0. -1.
         22    1    1    0    0    0 -0.17696290721E+02 -0.91619140311E+01 -0.58023198636E+02  0.61349742900E+02  0.00000000000E+00 0. -1.
</event>
<event>
 4    1  0.1977788E-002  0.9118800E+02  0.7818608E-02  0.1130116E+00
         25   -1    0    0    0    0  0.00000000000E+00  0.00000000000E+00  0.99999998245E-14  0.12500000000E+03  0.12500000000E+03 0.  0.
        -11    1    1    0    0    0 -0.37518347253E+01 -0.30019926000E+01 -0.35101307450E+02  0.35428660832E+02  0.51100000000E-03 0. -1.
         11    1    1    0    0    0 -0.28682365318E+01 -0.22945861262E+01 -0.26820989892E+02  0.27071339186E+02  0.51100000000E-03 0.  1.
         22    1    1    0    0    0  0.66200712571E+01  0.52965787262E+01  0.61922297342E+02  0.62499999982E+02  0.00000000000E+00 0. -1.
</event>
<event>
 4    1  0.1977788E-002  0.9118800E+02  0.7818608E-02  0.1130116E+00
         25   -1    0    0    0    0  0.00000000000E+00  0.00000000000E+00  0.99999998245E-14  0.12500000000E+03  0.12500000000E+03 0.  0.
        -11    1    1    0    0    0 -0.75012938314E+01  0.97620607259E+01 -0.51214738826E+00  0.12321912756E+02  0.51100000000E-03 0.  1.
         11    1    1    0    0    0 -0.23363944953E+02  0.44489370436E+02  0.92775013710E+00  0.50259712754E+02  0.51100000000E-03 0. -1.
         22    1    1    0    0    0  0.30865238785E+02 -0.54251431162E+02 -0.41560274884E+00  0.62418374490E+02  0.00000000000E+00 0. -1.
</event>
<event>
 4    1  0.1977788E-002  0.9118800E+02  0.7818608E-02  0.1130116E+00
         25   -1    0    0    0    0  0.00000000000E+00  0.00000000000E+00  0.99999998245E-14  0.12500000000E+03  0.12500000000E+03 0.  0.
        -11    1    1    0    0    0  0.24219192899E+02 -0.12703870921E+02 -0.88979336039E+00  0.27363285138E+02  0.51100000000E-03 0. -1.
         11    1    1    0    0    0  0.31216832878E+02 -0.16099295408E+02 -0.96472009039E+00  0.35136998345E+02  0.51100000000E-03 0.  1.
         22    1    1    0    0    0 -0.55436025777E+02  0.28803166329E+02  0.18545134508E+01  0.62499716517E+02  0.00000000000E+00 0. -1.
</event>
<event>
 4    1  0.1977788E-002  0.9118800E+02  0.7818608E-02  0.1130116E+00
         25   -1    0    0    0    0  0.00000000000E+00  0.00000000000E+00  0.99999998245E-14  0.12500000000E+03  0.12500000000E+03 0.  0.
        -11    1    1    0    0    0  0.61926439920E+01 -0.16308452260E+02  0.19066921033E+02  0.25843024836E+02  0.51100000000E-03 0.  1.
         11    1    1    0    0    0  0.99949907376E+01 -0.22530318970E+02  0.27140354372E+02  0.36662159626E+02  0.51100000000E-03 0. -1.
         22    1    1    0    0    0 -0.16187634730E+02  0.38838771230E+02 -0.46207275405E+02  0.62494815538E+02  0.00000000000E+00 0. -1.
</event>
<event>
 4    1  0.1977788E-002  0.9118800E+02  0.7818608E-02  0.1130116E+00
         25   -1    0    0    0    0  0.00000000000E+00  0.00000000000E+00  0.99999998245E-14  0.12500000000E+03  0.12500000000E+03 0.  0.
        -11    1    1    0    0    0  0.29892499197E+02 -0.50673205893E+02  0.95253118955E+01  0.59599218709E+02  0.51100000000E-03 0. -1.
         11    1    1    0    0    0  0.14267789408E+01 -0.24852596107E+01  0.45049808789E+00  0.29008899094E+01  0.51100000000E-03 0.  1.
         22    1    1    0    0    0 -0.31319278138E+02  0.53158465504E+02 -0.99758099834E+01  0.62499891381E+02  0.00000000000E+00 0. -1.
</event>
<event>
 4    1  0.1977788E-002  0.9118800E+02  0.7818608E-02  0.1130116E+00
         25   -1    0    0    0    0  0.00000000000E+00  0.00000000000E+00  0.99999998245E-14  0.12500000000E+03  0.12500000000E+03 0.  0.
        -11    1    1    0    0    0 -0.32561309647E+02 -0.17001665276E+02  0.30750214869E+02  0.47904814193E+02  0.51100000000E-03 0.  1.
         11    1    1    0    0    0 -0.99207446726E+01 -0.51804016793E+01  0.93681221423E+01  0.14595185821E+02  0.51100000000E-03 0.  1.
         22    1    1    0    0    0  0.42482054320E+02  0.22182066956E+02 -0.40118337012E+02  0.62499999986E+02  0.00000000000E+00 0.  1.
</event>
<event>
 4    1  0.1977788E-002  0.9118800E+02  0.7818608E-02  0.1130116E+00
         25   -1    0    0    0    0  0.00000000000E+00  0.00000000000E+00  0.99999998245E-14  0.12500000000E+03  0.12500000000E+03 0.  0.
        -11    1    1    0    0    0  0.45456696903E+01 -0.10551615929E+02 -0.10279193034E+01  0.11535004551E+02  0.51100000000E-03 0. -1.
         11    1    1    0    0    0  0.20086227864E+02 -0.46619231864E+02 -0.45410827635E+01  0.50964995461E+02  0.51100000000E-03 0.  1.
         22    1    1    0    0    0 -0.24631897554E+02  0.57170847793E+02  0.55690020669E+01  0.62499999988E+02  0.00000000000E+00 0.  1.
</event>
<event>
 4    1  0.1977788E-002  0.9118800E+02  0.7818608E-02  0.1130116E+00
         25   -1    0    0    0    0  0.00000000000E+00  0.00000000000E+00  0.99999998245E-14  0.12500000000E+03  0.12500000000E+03 0.  0.
        -11    1    1    0    0    0 -0.35296149658E+02  0.27909931628E+02  0.88591722798E+01  0.45861393327E+02  0.51100000000E-03 0. -1.
         11    1    1    0    0    0 -0.12803200899E+02  0.10127685014E+02  0.32173408326E+01  0.16638606892E+02  0.51100000000E-03 0.  1.
         22    1    1    0    0    0  0.48099350557E+02 -0.38037616641E+02 -0.12076513112E+02  0.62499999782E+02  0.00000000000E+00 0. -1.
</event>
<event>
 4    1  0.1977788E-002  0.9118800E+02  0.7818608E-02  0.1130116E+00
         25   -1    0    0    0    0  0.00000000000E+00  0.00000000000E+00  0.99999998245E-14  0.12500000000E+03  0.12500000000E+03 0.  0.
        -11    1    1    0    0    0 -0.22427263662E+02 -0.49270280646E+02 -0.19529499494E+02  0.57549492274E+02  0.51100000000E-03 0. -1.
         11    1    1    0    0    0  0.68107759733E+01 -0.34701877668E+01 -0.27249849114E+01  0.81150733529E+01  0.51100000000E-03 0.  1.
         22    1    1    0    0    0  0.15616487689E+02  0.52740468412E+02  0.22254484405E+02  0.59335434373E+02  0.00000000000E+00 0. -1.
</event>
<event>
 4    1  0.1977788E-002  0.9118800E+02  0.7818608E-02  0.1130116E+00
         25   -1    0    0    0    0  0.00000000000E+00  0.00000000000E+00  0.99999998245E-14  0.12500000000E+03  0.12500000000E+03 0.  0.
        -11    1    1    0    0    0  0.60573994612E+01  0.47094985595E+01 -0.39164431419E+01  0.86145221608E+01  0.51100000000E-03 0. -1.
         11    1    1    0    0    0  0.43692870949E+02 -0.26654203469E+01 -0.32649340355E+02  0.54609073085E+02  0.51100000000E-03 0.  1.
         22    1    1    0    0    0 -0.49750270410E+02 -0.20440782126E+01  0.36565783496E+02  0.61776404754E+02  0.00000000000E+00 0.  1.
</event>
<event>
 4    1  0.1977788E-002  0.9118800E+02  0.7818608E-02  0.1130116E+00
         25   -1    0    0    0    0  0.00000000000E+00  0.00000000000E+00  0.99999998245E-14  0.12500000000E+03  0.12500000000E+03 0.  0.
        -11    1    1    0    0    0  0.15645524623E+02 -0.75511868664E+01 -0.45172951925E+01  0.17950176042E+02  0.51100000000E-03 0.  1.
         11    1    1    0    0    0  0.38840030234E+02 -0.18719664256E+02 -0.11212186062E+02  0.44549824859E+02  0.51100000000E-03 0. -1.
         22    1    1    0    0    0 -0.54485554857E+02  0.26270851122E+02  0.15729481255E+02  0.62499999099E+02  0.00000000000E+00 0. -1.
</event>
<event>
 4    1  0.1977788E-002  0.9118800E+02  0.7818608E-02  0.1130116E+00
         25   -1    0    0    0    0  0.00000000000E+00  0.00000000000E+00  0.99999998245E-14  0.12500000000E+03  0.12500000000E+03 0.  0.
        -11    1    1    0    0    0  0.11481628221E+02  0.26072806778E+02 -0.15831365075E+02  0.32592194775E+02  0.51100000000E-03 0.  1.
         11    1    1    0    0    0  0.10537262180E+02  0.23924743489E+02 -0.14527545169E+02  0.29907805238E+02  0.51100000000E-03 0.  1.
         22    1    1    0    0    0 -0.22018890401E+02 -0.49997550267E+02  0.30358910244E+02  0.62499999987E+02  0.00000000000E+00 0.  1.
</event>
<event>
 4    1  0.1977788E-002  0.9118800E+02  0.7818608E-02  0.1130116E+00
         25   -1    0    0    0    0  0.00000000000E+00  0.00000000000E+00  0.99999998245E-14  0.12500000000E+03  0.12500000000E+03 0.  0.
        -11    1    1    0    0    0  0.38047540759E+01  0.70253006639E+01  0.78597750068E+01  0.11207455840E+02  0.51100000000E-03 0. -1.
         11    1    1    0    0    0  0.68942144745E+01  0.38865312230E+02  0.32979759692E+02  0.51436438811E+02  0.51100000000E-03 0.  1.
         22    1    1    0    0    0 -0.10698968550E+02 -0.45890612894E+02 -0.40839534699E+02  0.62356105349E+02  0.00000000000E+00 0.  1.
</event>
<event>
 4    1  0.1977788E-002  0.9118800E+02  0.7818608E-02  0.1130116E+00
         25   -1    0    0    0    0  0.00000000000E+00  0.00000000000E+00  0.99999998245E-14  0.12500000000E+03  0.12500000000E+03 0.  0.
        -11    1    1    0    0    0  0.60864429205E+01 -0.24399453059E+01  0.25589284088E+01  0.70389086784E+01  0.51100000000E-03 0. -1.
         11    1    1    0    0    0  0.15866621874E+02 -0.46115225293E+02  0.28298508689E+02  0.56384122657E+02  0.51100000000E-03 0.  1.
         22    1    1    0    0    0 -0.21953064794E+02  0.48555170599E+02 -0.30857437098E+02  0.61576968665E+02  0.00000000000E+00 0.  1.
</event>
<event>
 4    1  0.1977788E-002  0.9118800E+02  0.7818608E-02  0.1130116E+00
         25   -1    0    0    0    0  0.00000000000E+00  0.00000000000E+00  0.99999998245E-14  0.12500000000E+03  0.12500000000E+03 0.  0.
        -11    1    1    0    0    0  0.14777999035E+00 -0.35848129203E+01 -0.14497437947E+01  0.38696873168E+01  0.51100000000E-03 0. -1.
         11    1    1    0    0    0  0.54705659262E+01 -0.53224635218E+02 -0.23983553199E+02  0.58634458384E+02  0.51100000000E-03 0.  1.
         22    1    1    0    0    0 -0.56183459165E+01  0.56809448138E+02  0.25433296994E+02  0.62495854299E+02  0.00000000000E+00 0.  1.
</event>
<event>
 4    1  0.1977788E-002  0.9118800E+02  0.7818608E-02  0.1130116E+00
         25   -1    0    0    0    0  0.00000000000E+00  0.00000000000E+00  0.99999998245E-14  0.12500000000E+03  0.12500000000E+03 0.  0.
        -11    1    1    0    0    0  0.79827986107E+01  0.40013902525E+02 -0.25357414091E+02  0.48039940868E+02  0.51100000000E-03 0.  1.
         11    1    1    0    0    0  0.24034791675E+01  0.12043045809E+02 -0.76342417613E+01  0.14460059197E+02  0.51100000000E-03 0. -1.
         22    1    1    0    0    0 -0.10386277778E+02 -0.52056948334E+02  0.32991655853E+02  0.62499999935E+02  0.00000000000E+00 0.  1.
</event>
<event>
 4    1  0.1977788E-002  0.9118800E+02  0.7818608E-02  0.1130116E+00
         25   -1    0    0    0    0  0.00000000000E+00  0.00000000000E+00  0.99999998245E-14  0.12500000000E+03  0.12500000000E+03 0.  0.
        -11    1    1    0    0    0  0.16105407411E+01 -0.52104302957E+00  0.25196933369E+01  0.30354871257E+01  0.51100000000E-03 0. -1.
         11    1    1    0    0    0 -0.15704607652E+02 -0.23171521655E+02  0.53022114734E+02  0.59957474667E+02  0.51100000000E-03 0.  1.
         22    1    1    0    0    0  0.14094066911E+02  0.23692564685E+02 -0.55541808071E+02  0.62007038207E+02  0.00000000000E+00 0.  1.
</event>
<event>
 4    1  0.1977788E-002  0.9118800E+02  0.7818608E-02  0.1130116E+00
         25   -1    0    0    0    0  0.00000000000E+00  0.00000000000E+00  0.99999998245E-14  0.12500000000E+03  0.12500000000E+03 0.  0.
        -11    1    1    0    0    0 -0.19078769919E+02 -0.86382832364E+01  0.37551289452E+02  0.42996729395E+02  0.51100000000E-03 0. -1.
         11    1    1    0    0    0 -0.86544305416E+01 -0.39184514509E+01  0.17033030691E+02  0.19503270612E+02  0.51100000000E-03 0. -1.
         22    1    1    0    0    0  0.27733200460E+02  0.12556734687E+02 -0.54584320143E+02  0.62499999994E+02  0.00000000000E+00 0. -1.
</event>
<event>
 4    1  0.1977788E-002  0.9118800E+02  0.7818608E-02  0.1130116E+00
         25   -1    0    0    0    0  0.00000000000E+00  0.00000000000E+00  0.99999998245E-14  0.12500000000E+03  0.12500000000E+03 0.  0.
        -11    1    1    0    0    0  0.39144466177E+02 -0.31083236928E+02 -0.66318116270E+01  0.50422591920E+02  0.51100000000E-03 0.  1.
         11    1    1    0    0    0  0.93762135886E+01 -0.74449242535E+01 -0.15885551528E+01  0.12077408088E+02  0.51100000000E-03 0. -1.
         22    1    1    0    0    0 -0.48520679765E+02  0.38528161182E+02  0.82203667799E+01  0.62499999992E+02  0.00000000000E+00 0.  1.
</event>
<event>
 4    1  0.1977788E-002  0.9118800E+02  0.7818608E-02  0.1130116E+00
         25   -1    0    0    0    0  0.00000000000E+00  0.00000000000E+00  0.99999998245E-14  0.12500000000E+03  0.12500000000E+03 0.  0.
        -11    1    1    0    0    0 -0.37005523809E+00 -0.99564116459E+00 -0.49071687052E+01  0.50208114056E+01  0.51100000000E-03 0.  1.
         11    1    1    0    0    0 -0.42177579448E+01 -0.11213315306E+02 -0.56216818203E+02  0.57479201207E+02  0.51100000000E-03 0. -1.
         22    1    1    0    0    0  0.45878131829E+01  0.12208956470E+02  0.61123986908E+02  0.62499987388E+02  0.00000000000E+00 0. -1.
</event>
<event>
 4    1  0.1977788E-002  0.9118800E+02  0.7818608E-02  0.1130116E+00
         25   -1    0    0    0    0  0.00000000000E+00  0.00000000000E+00  0.99999998245E-14  0.12500000000E+03  0.12500000000E+03 0.  0.
        -11    1    1    0    0    0 -0.46891191958E+01 -0.19909748488E+02 -0.26726780979E+02  0.33655708958E+02  0.51100000000E-03 0.  1.
         11    1    1    0    0    0 -0.34719812506E+02  0.16644669973E+02 -0.72839643438E+01  0.39186305718E+02  0.51100000000E-03 0. -1.
         22    1    1    0    0    0  0.39408931702E+02  0.32650785154E+01  0.34010745323E+02  0.52157985324E+02  0.00000000000E+00 0. -1.
</event>
<event>
 4    1  0.1977788E-002  0.9118800E+02  0.7818608E-02  0.1130116E+00
         25   -1    0    0    0    0  0.00000000000E+00  0.00000000000E+00  0.99999998245E-14  0.12500000000E+03  0.12500000000E+03 0.  0.
        -11    1    1    0    0    0 -0.46117096929E+00  0.42461141088E+01  0.33347871060E+01  0.54187608353E+01  0.51100000000E-03 0.  1.
         11    1    1    0    0    0 -0.14273003753E+02  0.54922344912E+02  0.87572370116E+01  0.57418392585E+02  0.51100000000E-03 0. -1.
         22    1    1    0    0    0  0.14734174722E+02 -0.59168459020E+02 -0.12092024118E+02  0.62162846579E+02  0.00000000000E+00 0. -1.
</event>
<event>
 4    1  0.1977788E-002  0.9118800E+02  0.7818608E-02  0.1130116E+00
         25   -1    0    0    0    0  0.00000000000E+00  0.00000000000E+00  0.99999998245E-14  0.12500000000E+03  0.12500000000E+03 0.  0.
        -11    1    1    0    0    0 -0.53156738289E+02 -0.72492559043E+01 -0.15338670589E+02  0.55798435035E+02  0.51100000000E-03 0. -1.
         11    1    1    0    0    0 -0.64445411596E+01  0.51649309892E+00 -0.19963942808E+01  0.67664219691E+01  0.51100000000E-03 0.  1.
         22    1    1    0    0    0  0.59601279448E+02  0.67327628054E+01  0.17335064870E+02  0.62435142996E+02  0.00000000000E+00 0. -1.
</event>
<event>
 4    1  0.1977788E-002  0.9118800E+02  0.7818608E-02  0.1130116E+00
         25   -1    0    0    0    0  0.00000000000E+00  0.00000000000E+00  0.99999998245E-14  0.12500000000E+03  0.12500000000E+03 0.  0.
        -11    1    1    0    0    0  0.41915472809E+01  0.14572319774E+02 -0.36956042941E+01  0.15607019688E+02  0.51100000000E-03 0. -1.
         11    1    1    0    0    0  0.12593696160E+02  0.43783967947E+02 -0.11104709395E+02  0.46892980318E+02  0.51100000000E-03 0. -1.
         22    1    1    0    0    0 -0.16785243440E+02 -0.58356287721E+02  0.14800313689E+02  0.62499999993E+02  0.00000000000E+00 0. -1.
</event>
<event>
 4    1  0.1977788E-002  0.9118800E+02  0.7818608E-02  0.1130116E+00
         25   -1    0    0    0    0  0.00000000000E+00  0.00000000000E+00  0.99999998245E-14  0.12500000000E+03  0.12500000000E+03 0.  0.
        -11    1    1    0    0    0  0.33101830066E+00  0.12853720911E+01  0.13959458581E+01  0.19262449553E+01  0.51100000000E-03 0. -1.
         11    1    1    0    0    0  0.30582240256E+02  0.27983325967E+02  0.44266258440E+02  0.60645210757E+02  0.51100000000E-03 0.  1.
         22    1    1    0    0    0 -0.30913258557E+02 -0.29268698058E+02 -0.45662204298E+02  0.62428544288E+02  0.00000000000E+00 0.  1.
</event>
<event>
 4    1  0.1977788E-002  0.9118800E+02  0.7818608E-02  0.1130116E+00
         25   -1    0    0    0    0  0.00000000000E+00  0.00000000000E+00  0.99999998245E-14  0.12500000000E+03  0.12500000000E+03 0.  0.
        -11    1    1    0    0    0 -0.13882564458E+00  0.10606911857E+00  0.43831876384E+00  0.47185465703E+00  0.51100000000E-03 0. -1.
         11    1    1    0    0    0 -0.18481639456E+02  0.13592273559E+02  0.57629598329E+02  0.62028150878E+02  0.51100000000E-03 0.  1.
         22    1    1    0    0    0  0.18620465101E+02 -0.13698342678E+02 -0.58067917093E+02  0.62499994465E+02  0.00000000000E+00 0.  1.
</event>
<event>
 4    1  0.1977788E-002  0.9118800E+02  0.7818608E-02  0.1130116E+00
         25   -1    0    0    0    0  0.00000000000E+00  0.00000000000E+00  0.99999998245E-14  0.12500000000E+03  0.12500000000E+03 0.  0.
        -11    1    1    0    0    0 -0.10061498758E+02 -0.41798606556E+02  0.13515681335E+02  0.45066960287E+02  0.51100000000E-03 0. -1.
         11    1    1    0    0    0 -0.18519612088E+01 -0.16958313930E+02 -0.10228165019E+02  0.19890438195E+02  0.51100000000E-03 0.  1.
         22    1    1    0    0    0  0.11913459967E+02  0.58756920487E+02 -0.32875163161E+01  0.60042601518E+02  0.00000000000E+00 0. -1.
</event>
<event>
 4    1  0.1977788E-002  0.9118800E+02  0.7818608E-02  0.1130116E+00
         25   -1    0    0    0    0  0.00000000000E+00  0.00000000000E+00  0.99999998245E-14  0.12500000000E+03  0.12500000000E+03 0.  0.
        -11    1    1    0    0    0  0.19236743135E+02  0.56295561459E+02 -0.15262913924E+02  0.61418230747E+02  0.51100000000E-03 0. -1.
         11    1    1    0    0    0  0.27927283758E+00  0.10815490983E+01  0.30167893796E+00  0.11570446027E+01  0.51100000000E-03 0.  1.
         22    1    1    0    0    0 -0.19516015973E+02 -0.57377110557E+02  0.14961234986E+02  0.62424724650E+02  0.00000000000E+00 0. -1.
</event>
<event>
 4    1  0.1977788E-002  0.9118800E+02  0.7818608E-02  0.1130116E+00
         25   -1    0    0    0    0  0.00000000000E+00  0.00000000000E+00  0.99999998245E-14  0.12500000000E+03  0.12500000000E+03 0.  0.
        -11    1    1    0    0    0  0.27224169409E+02 -0.16382962113E+02  0.10410488530E+02  0.33435536774E+02  0.51100000000E-03 0. -1.
         11    1    1    0    0    0  0.23636828178E+02 -0.14233465735E+02  0.91353176682E+01  0.29064501068E+02  0.51100000000E-03 0.  1.
         22    1    1    0    0    0 -0.50860997588E+02  0.30616427849E+02 -0.19545806198E+02  0.62499962158E+02  0.00000000000E+00 0. -1.
</event>
<event>
 4    1  0.1977788E-002  0.9118800E+02  0.7818608E-02  0.1130116E+00
         25   -1    0    0    0    0  0.00000000000E+00  0.00000000000E+00  0.99999998245E-14  0.12500000000E+03  0.12500000000E+03 0.  0.
        -11    1    1    0    0    0  0.35728113775E+02  0.14794132369E+02 -0.74535003151E+01  0.39381710649E+02  0.51100000000E-03 0.  1.
         11    1    1    0    0    0  0.59334315131E+01  0.25299406052E+02 -0.50240380138E+01  0.26467083601E+02  0.51100000000E-03 0. -1.
         22    1    1    0    0    0 -0.41661545288E+02 -0.40093538421E+02  0.12477538329E+02  0.59151205750E+02  0.00000000000E+00 0.  1.
</event>
<event>
 4    1  0.1977788E-002  0.9118800E+02  0.7818608E-02  0.1130116E+00
         25   -1    0    0    0    0  0.00000000000E+00  0.00000000000E+00  0.99999998245E-14  0.12500000000E+03  0.12500000000E+03 0.  0.
        -11    1    1    0    0    0 -0.74571391394E+00 -0.12008217697E+01  0.34763662320E+01  0.37527569338E+01  0.51100000000E-03 0.  1.
         11    1    1    0    0    0 -0.11692495296E+02 -0.18795506073E+02  0.54417396907E+02  0.58747243179E+02  0.51100000000E-03 0. -1.
         22    1    1    0    0    0  0.12438209210E+02  0.19996327843E+02 -0.57893763139E+02  0.62499999887E+02  0.00000000000E+00 0. -1.
</event>
<event>
 4    1  0.1977788E-002  0.9118800E+02  0.7818608E-02  0.1130116E+00
         25   -1    0    0    0    0  0.00000000000E+00  0.00000000000E+00  0.99999998245E-14  0.12500000000E+03  0.12500000000E+03 0.  0.
        -11    1    1    0    0    0 -0.37327010561E+02  0.11509447317E+02 -0.35957180238E+02  0.53091354342E+02  0.51100000000E-03 0.  1.
         11    1    1    0    0    0 -0.68039762086E+01  0.21259581104E+01 -0.61440436981E+01  0.94107950439E+01  0.51100000000E-03 0. -1.
         22    1    1    0    0    0  0.44130986770E+02 -0.13635405428E+02  0.42101223936E+02  0.62497850614E+02  0.00000000000E+00 0.  1.
</event>
<event>
 4    1  0.1977788E-002  0.9118800E+02  0.7818608E-02  0.1130116E+00
         25   -1    0    0    0    0  0.00000000000E+00  0.00000000000E+00  0.99999998245E-14  0.12500000000E+03  0.12500000000E+03 0.  0.
        -11    1    1    0    0    0  0.26607610629E+02 -0.23520868233E+00  0.35922191389E+02  0.44703736991E+02  0.51100000000E-03 0. -1.
         11    1    1    0    0    0  0.10591829512E+02 -0.92375536833E-01  0.14300754947E+02  0.17796263034E+02  0.51100000000E-03 0.  1.
         22    1    1    0    0    0 -0.37199440141E+02  0.32758421916E+00 -0.50222946336E+02  0.62499999975E+02  0.00000000000E+00 0.  1.
</event>
<event>
 4    1  0.1977788E-002  0.9118800E+02  0.7818608E-02  0.1130116E+00
         25   -1    0    0    0    0  0.00000000000E+00  0.00000000000E+00  0.99999998245E-14  0.12500000000E+03  0.12500000000E+03 0.  0.
        -11    1    1    0    0    0  0.13310443457E+02 -0.17875596763E+02 -0.80357591004E+01  0.23691312527E+02  0.51100000000E-03 0. -1.
         11    1    1    0    0    0  0.38750429692E+02  0.97829007067E+01 -0.16439312735E+02  0.43215181951E+02  0.51100000000E-03 0.  1.
         22    1    1    0    0    0 -0.52060873149E+02  0.80926960560E+01  0.24475071836E+02  0.58093505523E+02  0.00000000000E+00 0.  1.
</event>
<event>
 4    1  0.1977788E-002  0.9118800E+02  0.7818608E-02  0.1130116E+00
         25   -1    0    0    0    0  0.00000000000E+00  0.00000000000E+00  0.99999998245E-14  0.12500000000E+03  0.12500000000E+03 0.  0.
        -11    1    1    0    0    0  0.81082749157E+01  0.97690563917E+01 -0.35001302676E+01  0.13169263345E+02  0.51100000000E-03 0. -1.
         11    1    1    0    0    0  0.30370387155E+02  0.36591018672E+02 -0.13124729971E+02  0.49330736874E+02  0.51100000000E-03 0.  1.
         22    1    1    0    0    0 -0.38478662071E+02 -0.46360075064E+02  0.16624860239E+02  0.62499999781E+02  0.00000000000E+00 0.  1.
</event>
<event>
 4    1  0.1977788E-002  0.9118800E+02  0.7818608E-02  0.1130116E+00
         25   -1    0    0    0    0  0.00000000000E+00  0.00000000000E+00  0.99999998245E-14  0.12500000000E+03  0.12500000000E+03 0.  0.
        -11    1    1    0    0    0 -0.71583213874E+01  0.13007674172E+02  0.90663002454E+01  0.17396521286E+02  0.51100000000E-03 0. -1.
         11    1    1    0    0    0 -0.18151205061E+02  0.34056241817E+02  0.23346775680E+02  0.45103944249E+02  0.51100000000E-03 0.  1.
         22    1    1    0    0    0  0.25309526448E+02 -0.47063915990E+02 -0.32413075926E+02  0.62499534465E+02  0.00000000000E+00 0. -1.
</event>
<event>
 4    1  0.1977788E-002  0.9118800E+02  0.7818608E-02  0.1130116E+00
         25   -1    0    0    0    0  0.00000000000E+00  0.00000000000E+00  0.99999998245E-14  0.12500000000E+03  0.12500000000E+03 0.  0.
        -11    1    1    0    0    0 -0.41443531819E+02  0.16015674475E+02  0.31684140104E+02  0.54570622985E+02  0.51100000000E-03 0.  1.
         11    1    1    0    0    0 -0.60154426237E+01  0.23250390705E+01  0.46134286057E+01  0.79293808333E+01  0.51100000000E-03 0. -1.
         22    1    1    0    0    0  0.47458974443E+02 -0.18340713546E+02 -0.36297568710E+02  0.62499996182E+02  0.00000000000E+00 0.  1.
</event>
<event>
 4    1  0.1977788E-002  0.9118800E+02  0.7818608E-02  0.1130116E+00
         25   -1    0    0    0    0  0.00000000000E+00  0.00000000000E+00  0.99999998245E-14  0.12500000000E+03  0.12500000000E+03 0.  0.
        -11    1    1    0    0    0 -0.82639124300E+01  0.29396870504E+02 -0.19863356108E+02  0.36428301638E+02  0.51100000000E-03 0.  1.
         11    1    1    0    0    0 -0.59108093761E+01  0.21041420956E+02 -0.14214583992E+02  0.26071698480E+02  0.51100000000E-03 0. -1.
         22    1    1    0    0    0  0.14174721806E+02 -0.50438291460E+02  0.34077940100E+02  0.62499999881E+02  0.00000000000E+00 0.  1.
</event>
<event>
 4    1  0.1977788E-002  0.9118800E+02  0.7818608E-02  0.1130116E+00
         25   -1    0    0    0    0  0.00000000000E+00  0.00000000000E+00  0.99999998245E-14  0.12500000000E+03  0.12500000000E+03 0.  0.
        -11    1    1    0    0    0 -0.90694993160E+01  0.28448723925E+02  0.18959926441E+02  0.35370390466E+02  0.51100000000E-03 0.  1.
         11    1    1    0    0    0 -0.70410418444E+01  0.21831628521E+02  0.14485248633E+02  0.27129664619E+02  0.51100000000E-03 0. -1.
         22    1    1    0    0    0  0.16110541160E+02 -0.50280352446E+02 -0.33445175074E+02  0.62499944915E+02  0.00000000000E+00 0.  1.
</event>
<event>
 4    1  0.1977788E-002  0.9118800E+02  0.7818608E-02  0.1130116E+00
         25   -1    0    0    0    0  0.00000000000E+00  0.00000000000E+00  0.99999998245E-14  0.12500000000E+03  0.12500000000E+03 0.  0.
        -11    1    1    0    0    0  0.44171819305E+02 -0.27773435672E+01  0.40941377393E+02  0.60291455789E+02  0.51100000000E-03 0.  1.
         11    1    1    0    0    0  0.16213035436E+01 -0.98023190084E-01  0.14964793648E+01  0.22085480472E+01  0.51100000000E-03 0. -1.
         22    1    1    0    0    0 -0.45793122849E+02  0.28753667573E+01 -0.42437856758E+02  0.62499996164E+02  0.00000000000E+00 0.  1.
</event>
<event>
 4    1  0.1977788E-002  0.9118800E+02  0.7818608E-02  0.1130116E+00
         25   -1    0    0    0    0  0.00000000000E+00  0.00000000000E+00  0.99999998245E-14  0.12500000000E+03  0.12500000000E+03 0.  0.
        -11    1    1    0    0    0  0.12000074289E+02  0.66637681598E+01  0.34489695541E+02  0.37120704301E+02  0.51100000000E-03 0.  1.
         11    1    1    0    0    0  0.85779245952E+01  0.37964666228E+01  0.23586595130E+02  0.25383487137E+02  0.51100000000E-03 0. -1.
         22    1    1    0    0    0 -0.20577998884E+02 -0.10460234783E+02 -0.58076290670E+02  0.62495808562E+02  0.00000000000E+00 0.  1.
</event>
<event>
 4    1  0.1977788E-002  0.9118800E+02  0.7818608E-02  0.1130116E+00
         25   -1    0    0    0    0  0.00000000000E+00  0.00000000000E+00  0.99999998245E-14  0.12500000000E+03  0.12500000000E+03 0.  0.
        -11    1    1    0    0    0  0.10990556858E+02  0.27091153553E+01 -0.54513939474E+01  0.12563810819E+02  0.51100000000E-03 0. -1.
         11    1    1    0    0    0  0.43623178349E+02  0.10791761569E+02 -0.21775692577E+02  0.49936205248E+02  0.51100000000E-03 0.  1.
         22    1    1    0    0    0 -0.54613735208E+02 -0.13500876925E+02  0.27227086524E+02  0.62499983933E+02  0.00000000000E+00 0.  1.
</event>
<event>
 4    1  0.1977788E-002  0.9118800E+02  0.7818608E-02  0.1130116E+00
         25   -1    0    0    0    0  0.00000000000E+00  0.00000000000E+00  0.99999998245E-14  0.12500000000E+03  0.12500000000E+03 0.  0.
        -11    1    1    0    0    0  0.21073735823E+02 -0.40058955407E+02 -0.74015190191E+01  0.45865070956E+02  0.51100000000E-03 0. -1.
         11    1    1    0    0    0  0.57475706082E+01 -0.15161698159E+02 -0.39874977130E+01  0.16697658436E+02  0.51100000000E-03 0.  1.
         22    1    1    0    0    0 -0.26821306431E+02  0.55220653566E+02  0.11389016732E+02  0.62437270608E+02  0.00000000000E+00 0.  1.
</event>
<event>
 4    1  0.1977788E-002  0.9118800E+02  0.7818608E-02  0.1130116E+00
         25   -1    0    0    0    0  0.00000000000E+00  0.00000000000E+00  0.99999998245E-14  0.12500000000E+03  0.12500000000E+03 0.  0.
        -11    1    1    0    0    0 -0.83011952151E+00 -0.87428181419E+00 -0.40117063119E+00  0.12705924788E+01  0.51100000000E-03 0. -1.
         11    1    1    0    0    0 -0.33531383459E+02 -0.14273216643E+02 -0.49380911798E+02  0.61372248128E+02  0.51100000000E-03 0.  1.
         22    1    1    0    0    0  0.34361502980E+02  0.15147498457E+02  0.49782082430E+02  0.62357159393E+02  0.00000000000E+00 0.  1.
</event>
<event>
 4    1  0.1977788E-002  0.9118800E+02  0.7818608E-02  0.1130116E+00
         25   -1    0    0    0    0  0.00000000000E+00  0.00000000000E+00  0.99999998245E-14  0.12500000000E+03  0.12500000000E+03 0.  0.
        -11    1    1    0    0    0 -0.39548298337E+01  0.12339298199E+01 -0.29430164977E+02  0.29720327600E+02  0.51100000000E-03 0.  1.
         11    1    1    0    0    0 -0.50202833030E+01  0.16827377813E+01 -0.32351237097E+02  0.32781662448E+02  0.51100000000E-03 0. -1.
         22    1    1    0    0    0  0.89751131367E+01 -0.29166676011E+01  0.61781402074E+02  0.62498009952E+02  0.00000000000E+00 0. -1.
</event>
<event>
 4    1  0.1977788E-002  0.9118800E+02  0.7818608E-02  0.1130116E+00
         25   -1    0    0    0    0  0.00000000000E+00  0.00000000000E+00  0.99999998245E-14  0.12500000000E+03  0.12500000000E+03 0.  0.
        -11    1    1    0    0    0  0.82924916307E+01  0.14854591809E+01 -0.43777126501E+02  0.44580363518E+02  0.51100000000E-03 0. -1.
         11    1    1    0    0    0  0.33141538094E+01  0.58253485567E+00 -0.17600869900E+02  0.17919642403E+02  0.51100000000E-03 0.  1.
         22    1    1    0    0    0 -0.11606645440E+02 -0.20679940366E+01  0.61377996401E+02  0.62499994080E+02  0.00000000000E+00 0. -1.
</event>
<event>
 4    1  0.1977788E-002  0.9118800E+02  0.7818608E-02  0.1130116E+00
         25   -1    0    0    0    0  0.00000000000E+00  0.00000000000E+00  0.99999998245E-14  0.12500000000E+03  0.12500000000E+03 0.  0.
        -11    1    1    0    0    0 -0.89950573984E+01 -0.52960332488E+00 -0.28759499516E+01  0.94584684631E+01  0.51100000000E-03 0. -1.
         11    1    1    0    0    0  0.98445734455E+00 -0.30535694330E+02  0.49963356151E+02  0.58563937219E+02  0.51100000000E-03 0.  1.
         22    1    1    0    0    0  0.80106000539E+01  0.31065297655E+02 -0.47087406200E+02  0.56977594318E+02  0.00000000000E+00 0.  1.
</event>
<event>
 4    1  0.1977788E-002  0.9118800E+02  0.7818608E-02  0.1130116E+00
         25   -1    0    0    0    0  0.00000000000E+00  0.00000000000E+00  0.99999998245E-14  0.12500000000E+03  0.12500000000E+03 0.  0.
        -11    1    1    0    0    0 -0.17484103749E+01  0.21401599979E+02  0.19254838831E+02  0.28841536699E+02  0.51100000000E-03 0. -1.
         11    1    1    0    0    0 -0.24985935839E+02 -0.38791654638E+02 -0.37461882354E+02  0.59434687591E+02  0.51100000000E-03 0.  1.
         22    1    1    0    0    0  0.26734346214E+02  0.17390054659E+02  0.18207043523E+02  0.36723775710E+02  0.00000000000E+00 0.  1.
</event>
<event>
 4    1  0.1977788E-002  0.9118800E+02  0.7818608E-02  0.1130116E+00
         25   -1    0    0    0    0  0.00000000000E+00  0.00000000000E+00  0.99999998245E-14  0.12500000000E+03  0.12500000000E+03 0.  0.
        -11    1    1    0    0    0 -0.16744270877E+01 -0.54655047561E+01  0.22435769344E+00  0.57206455008E+01  0.51100000000E-03 0.  1.
         11    1    1    0    0    0 -0.16114681084E+02 -0.54421440309E+02  0.15969312462E+01  0.56779629282E+02  0.51100000000E-03 0. -1.
         22    1    1    0    0    0  0.17789108171E+02  0.59886945065E+02 -0.18212889397E+01  0.62499725217E+02  0.00000000000E+00 0. -1.
</event>
<event>
 4    1  0.1977788E-002  0.9118800E+02  0.7818608E-02  0.1130116E+00
         25   -1    0    0    0    0  0.00000000000E+00  0.00000000000E+00  0.99999998245E-14  0.12500000000E+03  0.12500000000E+03 0.  0.
        -11    1    1    0    0    0 -0.11722569430E+02 -0.35951022210E+01 -0.40390970104E+02  0.42211063245E+02  0.51100000000E-03 0.  1.
         11    1    1    0    0    0 -0.56348934967E+01 -0.17276003539E+01 -0.19414023977E+02  0.20288936763E+02  0.51100000000E-03 0.  1.
         22    1    1    0    0    0  0.17357462927E+02  0.53227025749E+01  0.59804994082E+02  0.62499999993E+02  0.00000000000E+00 0.  1.
</event>
<event>
 4    1  0.1977788E-002  0.9118800E+02  0.7818608E-02  0.1130116E+00
         25   -1    0    0    0    0  0.00000000000E+00  0.00000000000E+00  0.99999998245E-14  0.12500000000E+03  0.12500000000E+03 0.  0.
        -11    1    1    0    0    0  0.28630093613E+01 -0.18040595163E+01 -0.30446710326E+00  0.33976688802E+01  0.51100000000E-03 0.  1.
         11    1    1    0    0    0  0.49746723157E+02 -0.31586883100E+02 -0.45425285168E+01  0.59102472152E+02  0.51100000000E-03 0. -1.
         22    1    1    0    0    0 -0.52609732519E+02  0.33390942616E+02  0.48469956201E+01  0.62499858968E+02  0.00000000000E+00 0. -1.
</event>
<event>
 4    1  0.1977788E-002  0.9118800E+02  0.7818608E-02  0.1130116E+00
         25   -1    0    0    0    0  0.00000000000E+00  0.00000000000E+00  0.99999998245E-14  0.12500000000E+03  0.12500000000E+03 0.  0.
        -11    1    1    0    0    0 -0.98459742271E+01  0.24997880706E+01 -0.35096329091E+01  0.10747542617E+02  0.51100000000E-03 0. -1.
         11    1    1    0    0    0 -0.46815622466E+02  0.13705364705E+02 -0.17293362814E+02  0.51755192264E+02  0.51100000000E-03 0.  1.
         22    1    1    0    0    0  0.56661596693E+02 -0.16205152775E+02  0.20802995723E+02  0.62497265119E+02  0.00000000000E+00 0.  1.
</event>
<event>
 4    1  0.1977788E-002  0.9118800E+02  0.7818608E-02  0.1130116E+00
         25   -1    0    0    0    0  0.00000000000E+00  0.00000000000E+00  0.99999998245E-14  0.12500000000E+03  0.12500000000E+03 0.  0.
        -11    1    1    0    0    0 -0.44137140375E+02 -0.93229289498E+01  0.41479198716E+02  0.61282363622E+02  0.51100000000E-03 0. -1.
         11    1    1    0    0    0 -0.92214474365E+00 -0.23267406774E-01  0.80363659302E+00  0.12234068560E+01  0.51100000000E-03 0.  1.
         22    1    1    0    0    0  0.45059285119E+02  0.93461963566E+01 -0.42282835310E+02  0.62494229522E+02  0.00000000000E+00 0. -1.
</event>
<event>
 4    1  0.1977788E-002  0.9118800E+02  0.7818608E-02  0.1130116E+00
         25   -1    0    0    0    0  0.00000000000E+00  0.00000000000E+00  0.99999998245E-14  0.12500000000E+03  0.12500000000E+03 0.  0.
        -11    1    1    0    0    0  0.12352638457E+02 -0.27874894632E+02  0.19442285992E+02  0.36160750994E+02  0.51100000000E-03 0.  1.
         11    1    1    0    0    0  0.10555040445E+02 -0.16472635277E+02  0.17888131536E+02  0.26509278411E+02  0.51100000000E-03 0. -1.
         22    1    1    0    0    0 -0.22907678903E+02  0.44347529908E+02 -0.37330417527E+02  0.62329970596E+02  0.00000000000E+00 0.  1.
</event>
<event>
 4    1  0.1977788E-002  0.9118800E+02  0.7818608E-02  0.1130116E+00
         25   -1    0    0    0    0  0.00000000000E+00  0.00000000000E+00  0.99999998245E-14  0.12500000000E+03  0.12500000000E+03 0.  0.
        -11    1    1    0    0    0 -0.21598775230E+02  0.48763471318E+02 -0.17051904761E+02  0.55992416297E+02  0.51100000000E-03 0.  1.
         11    1    1    0    0    0  0.42516826243E+01  0.56527365912E+01 -0.40132336750E+01  0.81324215888E+01  0.51100000000E-03 0. -1.
         22    1    1    0    0    0  0.17347092606E+02 -0.54416207910E+02  0.21065138436E+02  0.60875162115E+02  0.00000000000E+00 0.  1.
</event>
<event>
 4    1  0.1977788E-002  0.9118800E+02  0.7818608E-02  0.1130116E+00
         25   -1    0    0    0    0  0.00000000000E+00  0.00000000000E+00  0.99999998245E-14  0.12500000000E+03  0.12500000000E+03 0.  0.
        -11    1    1    0    0    0  0.20765423315E+02  0.31903198301E+02 -0.43664754354E+02  0.57927779522E+02  0.51100000000E-03 0.  1.
         11    1    1    0    0    0  0.16461044715E+01  0.25059294458E+01 -0.34519507229E+01  0.45722320996E+01  0.51100000000E-03 0. -1.
         22    1    1    0    0    0 -0.22411527787E+02 -0.34409127747E+02  0.47116705076E+02  0.62499988379E+02  0.00000000000E+00 0.  1.
</event>
<event>
 4    1  0.1977788E-002  0.9118800E+02  0.7818608E-02  0.1130116E+00
         25   -1    0    0    0    0  0.00000000000E+00  0.00000000000E+00  0.99999998245E-14  0.12500000000E+03  0.12500000000E+03 0.  0.
        -11    1    1    0    0    0  0.45920295423E+01 -0.82043287912E+00 -0.20060860938E+01  0.50778171593E+01  0.51100000000E-03 0.  1.
         11    1    1    0    0    0  0.38943942309E+02  0.34543846922E+02  0.27907497586E+02  0.59065526532E+02  0.51100000000E-03 0. -1.
         22    1    1    0    0    0 -0.43535971851E+02 -0.33723414043E+02 -0.25901411493E+02  0.60856656308E+02  0.00000000000E+00 0. -1.
</event>
<event>
 4    1  0.1977788E-002  0.9118800E+02  0.7818608E-02  0.1130116E+00
         25   -1    0    0    0    0  0.00000000000E+00  0.00000000000E+00  0.99999998245E-14  0.12500000000E+03  0.12500000000E+03 0.  0.
        -11    1    1    0    0    0  0.32275540937E+02 -0.33169228085E+02  0.26402648384E+02  0.53282343009E+02  0.51100000000E-03 0. -1.
         11    1    1    0    0    0  0.98455612003E+01  0.11311214493E+02  0.37959910561E+01  0.15468942983E+02  0.51100000000E-03 0.  1.
         22    1    1    0    0    0 -0.42121102137E+02  0.21858013592E+02 -0.30198639440E+02  0.56248714008E+02  0.00000000000E+00 0. -1.
</event>
<event>
 4    1  0.1977788E-002  0.9118800E+02  0.7818608E-02  0.1130116E+00
         25   -1    0    0    0    0  0.00000000000E+00  0.00000000000E+00  0.99999998245E-14  0.12500000000E+03  0.12500000000E+03 0.  0.
        -11    1    1    0    0    0 -0.22070343399E-01  0.27092409199E+02 -0.48761854185E+02  0.55782771060E+02  0.51100000000E-03 0. -1.
         11    1    1    0    0    0 -0.85428680317E-02  0.32525002487E+01 -0.58772788221E+01  0.67172343611E+01  0.51100000000E-03 0.  1.
         22    1    1    0    0    0  0.30613211430E-01 -0.30344909447E+02  0.54639133008E+02  0.62499994579E+02  0.00000000000E+00 0. -1.
</event>
<event>
 4    1  0.1977788E-002  0.9118800E+02  0.7818608E-02  0.1130116E+00
         25   -1    0    0    0    0  0.00000000000E+00  0.00000000000E+00  0.99999998245E-14  0.12500000000E+03  0.12500000000E+03 0.  0.
        -11    1    1    0    0    0 -0.42743827134E+02  0.26083845481E+02  0.21839570115E+02  0.54629374664E+02  0.51100000000E-03 0.  1.
         11    1    1    0    0    0 -0.61833614016E+01  0.36052458547E+01  0.32760951559E+01  0.78717568323E+01  0.51100000000E-03 0. -1.
         22    1    1    0    0    0  0.48927188535E+02 -0.29689091335E+02 -0.25115665271E+02  0.62498868504E+02  0.00000000000E+00 0.  1.
</event>
<event>
 4    1  0.1977788E-002  0.9118800E+02  0.7818608E-02  0.1130116E+00
         25   -1    0    0    0    0  0.00000000000E+00  0.00000000000E+00  0.99999998245E-14  0.12500000000E+03  0.12500000000E+03 0.  0.
        -11    1    1    0    0    0  0.11579269227E+02 -0.40446719605E+02 -0.43493141676E+01  0.42295781547E+02  0.51100000000E-03 0. -1.
         11    1    1    0    0    0  0.55310517739E+01 -0.19321064207E+02 -0.20771103794E+01  0.20204218461E+02  0.51100000000E-03 0. -1.
         22    1    1    0    0    0 -0.17110321001E+02  0.59767783812E+02  0.64264245470E+01  0.62499999992E+02  0.00000000000E+00 0. -1.
</event>
<event>
 4    1  0.1977788E-002  0.9118800E+02  0.7818608E-02  0.1130116E+00
         25   -1    0    0    0    0  0.00000000000E+00  0.00000000000E+00  0.99999998245E-14  0.12500000000E+03  0.12500000000E+03 0.  0.
        -11    1    1    0    0    0  0.23943048931E+02 -0.97662034408E+01 -0.12589803111E+02  0.28760241035E+02  0.51100000000E-03 0. -1.
         11    1    1    0    0    0  0.28077589612E+02 -0.11378625144E+02 -0.14850931074E+02  0.33739802942E+02  0.51100000000E-03 0.  1.
         22    1    1    0    0    0 -0.52020638542E+02  0.21144828585E+02  0.27440734185E+02  0.62499956023E+02  0.00000000000E+00 0.  1.
</event>
<event>
 4    1  0.1977788E-002  0.9118800E+02  0.7818608E-02  0.1130116E+00
         25   -1    0    0    0    0  0.00000000000E+00  0.00000000000E+00  0.99999998245E-14  0.12500000000E+03  0.12500000000E+03 0.  0.
        -11    1    1    0    0    0 -0.64393800008E+00  0.23114866693E+01  0.50784445772E+01  0.56167807822E+01  0.51100000000E-03 0.  1.
         11    1    1    0    0    0 -0.65247330282E+01  0.23403891724E+02  0.51433319384E+02  0.56883219248E+02  0.51100000000E-03 0.  1.
         22    1    1    0    0    0  0.71686710283E+01 -0.25715378393E+02 -0.56511763961E+02  0.62499999970E+02  0.00000000000E+00 0.  1.
</event>
<event>
 4    1  0.1977788E-002  0.9118800E+02  0.7818608E-02  0.1130116E+00
         25   -1    0    0    0    0  0.00000000000E+00  0.00000000000E+00  0.99999998245E-14  0.12500000000E+03  0.12500000000E+03 0.  0.
        -11    1    1    0    0    0 -0.35573236159E+02  0.22755380656E+02 -0.12080602212E-01  0.42228694342E+02  0.51100000000E-03 0. -1.
         11    1    1    0    0    0 -0.17119599169E+02  0.10855664545E+02 -0.50625481309E-01  0.20271376166E+02  0.51100000000E-03 0.  1.
         22    1    1    0    0    0  0.52692835329E+02 -0.33611045201E+02  0.62706083521E-01  0.62499929492E+02  0.00000000000E+00 0. -1.
</event>
<event>
 4    1  0.1977788E-002  0.9118800E+02  0.7818608E-02  0.1130116E+00
         25   -1    0    0    0    0  0.00000000000E+00  0.00000000000E+00  0.99999998245E-14  0.12500000000E+03  0.12500000000E+03 0.  0.
        -11    1    1    0    0    0 -0.46267484453E+02 -0.23769578375E+02  0.19023113212E+02  0.55385483750E+02  0.51100000000E-03 0. -1.
         11    1    1    0    0    0 -0.51267655524E+01 -0.38415930526E+01  0.32280146452E+01  0.71736769527E+01  0.51100000000E-03 0.  1.
         22    1    1    0    0    0  0.51394250005E+02  0.27611171428E+02 -0.22251127858E+02  0.62440839297E+02  0.00000000000E+00 0. -1.
</event>
<event>
 4    1  0.1977788E-002  0.9118800E+02  0.7818608E-02  0.1130116E+00
         25   -1    0    0    0    0  0.00000000000E+00  0.00000000000E+00  0.99999998245E-14  0.12500000000E+03  0.12500000000E+03 0.  0.
        -11    1    1    0    0    0 -0.88524276928E+01 -0.87320409663E+00 -0.72114255482E+01  0.11451315215E+02  0.51100000000E-03 0.  1.
         11    1    1    0    0    0 -0.39503644727E+02 -0.38746203965E+01 -0.32100124244E+02  0.51048688590E+02  0.51100000000E-03 0. -1.
         22    1    1    0    0    0  0.48356072420E+02  0.47478244931E+01  0.39311549793E+02  0.62499996195E+02  0.00000000000E+00 0. -1.
</event>
<event>
 4    1  0.1977788E-002  0.9118800E+02  0.7818608E-02  0.1130116E+00
         25   -1    0    0    0    0  0.00000000000E+00  0.00000000000E+00  0.99999998245E-14  0.12500000000E+03  0.12500000000E+03 0.  0.
        -11    1    1    0    0    0  0.18370460808E+00  0.23958188841E+00  0.59044247673E+00  0.66315114698E+00  0.51100000000E-03 0. -1.
         11    1    1    0    0    0  0.17138729435E+02  0.22362199691E+02  0.55045361931E+02  0.61836848982E+02  0.51100000000E-03 0. -1.
         22    1    1    0    0    0 -0.17322434043E+02 -0.22601781580E+02 -0.55635804408E+02  0.62499999871E+02  0.00000000000E+00 0. -1.
</event>
<event>
 4    1  0.1977788E-002  0.9118800E+02  0.7818608E-02  0.1130116E+00
         25   -1    0    0    0    0  0.00000000000E+00  0.00000000000E+00  0.99999998245E-14  0.12500000000E+03  0.12500000000E+03 0.  0.
        -11    1    1    0    0    0  0.14672757653E+02 -0.23054405033E+02  0.28792323078E+02  0.39696262759E+02  0.51100000000E-03 0.  1.
         11    1    1    0    0    0  0.35505398083E+01 -0.17647292796E+02  0.14527635211E+02  0.23131914340E+02  0.51100000000E-03 0. -1.
         22    1    1    0    0    0 -0.18223297461E+02  0.40701697830E+02 -0.43319958289E+02  0.62171822900E+02  0.00000000000E+00 0. -1.
</event>
<event>
 4    1  0.1977788E-002  0.9118800E+02  0.7818608E-02  0.1130116E+00
         25   -1    0    0    0    0  0.00000000000E+00  0.00000000000E+00  0.99999998245E-14  0.12500000000E+03  0.12500000000E+03 0.  0.
        -11    1    1    0    0    0  0.28734404535E+02 -0.85637026794E+01  0.51361544040E+02  0.59472777084E+02  0.51100000000E-03 0.  1.
         11    1    1    0    0    0  0.14624023362E+01 -0.43612227672E+00  0.26144321134E+01  0.30272229468E+01  0.51100000000E-03 0. -1.
         22    1    1    0    0    0 -0.30196806871E+02  0.89998249561E+01 -0.53975976154E+02  0.62499999970E+02  0.00000000000E+00 0.  1.
</event>
<event>
 4    1  0.1977788E-002  0.9118800E+02  0.7818608E-02  0.1130116E+00
         25   -1    0    0    0    0  0.00000000000E+00  0.00000000000E+00  0.99999998245E-14  0.12500000000E+03  0.12500000000E+03 0.  0.
        -11    1    1    0    0    0  0.35292694003E+02  0.14924811630E+02  0.20516899375E+02  0.43465703864E+02  0.51100000000E-03 0. -1.
         11    1    1    0    0    0  0.15454618103E+02  0.65368554539E+01  0.89849168011E+01  0.19034296155E+02  0.51100000000E-03 0.  1.
         22    1    1    0    0    0 -0.50747312106E+02 -0.21461667084E+02 -0.29501816176E+02  0.62499999981E+02  0.00000000000E+00 0. -1.
</event>
<event>
 4    1  0.1977788E-002  0.9118800E+02  0.7818608E-02  0.1130116E+00
         25   -1    0    0    0    0  0.00000000000E+00  0.00000000000E+00  0.99999998245E-14  0.12500000000E+03  0.12500000000E+03 0.  0.
        -11    1    1    0    0    0 -0.32820347458E+02 -0.25165638334E+02 -0.56367661275E+00  0.41361845844E+02  0.51100000000E-03 0. -1.
         11    1    1    0    0    0 -0.16606764652E+02 -0.13069724374E+02 -0.50884025403E+00  0.21139092840E+02  0.51100000000E-03 0.  1.
         22    1    1    0    0    0  0.49427112110E+02  0.38235362709E+02  0.10725168668E+01  0.62499061316E+02  0.00000000000E+00 0. -1.
</event>
<event>
 4    1  0.1977788E-002  0.9118800E+02  0.7818608E-02  0.1130116E+00
         25   -1    0    0    0    0  0.00000000000E+00  0.00000000000E+00  0.99999998245E-14  0.12500000000E+03  0.12500000000E+03 0.  0.
        -11    1    1    0    0    0 -0.10870423049E+02 -0.18639000163E+02 -0.17902287539E+02  0.28036945692E+02  0.51100000000E-03 0.  1.
         11    1    1    0    0    0 -0.52445738734E+01 -0.36571188733E+02  0.13295609504E+02  0.39264877852E+02  0.51100000000E-03 0. -1.
         22    1    1    0    0    0  0.16114996923E+02  0.55210188896E+02  0.46066780354E+01  0.57698176455E+02  0.00000000000E+00 0. -1.
</event>
<event>
 4    1  0.1977788E-002  0.9118800E+02  0.7818608E-02  0.1130116E+00
         25   -1    0    0    0    0  0.00000000000E+00  0.00000000000E+00  0.99999998245E-14  0.12500000000E+03  0.12500000000E+03 0.  0.
        -11    1    1    0    0    0 -0.27463363097E+02  0.25268094974E+02  0.40395306346E+02  0.54995397182E+02  0.51100000000E-03 0. -1.
         11    1    1    0    0    0 -0.37725710441E+01  0.36999476468E+01  0.53328713102E+01  0.75074244282E+01  0.51100000000E-03 0.  1.
         22    1    1    0    0    0  0.31235934141E+02 -0.28968042621E+02 -0.45728177656E+02  0.62497178390E+02  0.00000000000E+00 0. -1.
</event>
<event>
 4    1  0.1977788E-002  0.9118800E+02  0.7818608E-02  0.1130116E+00
         25   -1    0    0    0    0  0.00000000000E+00  0.00000000000E+00  0.99999998245E-14  0.12500000000E+03  0.12500000000E+03 0.  0.
        -11    1    1    0    0    0 -0.69425220496E+00  0.22757382582E+01 -0.28661776648E+01  0.37250430080E+01  0.51100000000E-03 0. -1.
         11    1    1    0    0    0 -0.10872676964E+02  0.35900253564E+02 -0.45248784286E+02  0.58774958868E+02  0.51100000000E-03 0.  1.
         22    1    1    0    0    0  0.11566929169E+02 -0.38175991822E+02  0.48114961950E+02  0.62499998124E+02  0.00000000000E+00 0.  1.
</event>
<event>
 4    1  0.1977788E-002  0.9118800E+02  0.7818608E-02  0.1130116E+00
         25   -1    0    0    0    0  0.00000000000E+00  0.00000000000E+00  0.99999998245E-14  0.12500000000E+03  0.12500000000E+03 0.  0.
        -11    1    1    0    0    0  0.13501142219E+01 -0.65118216989E+01 -0.10889614424E+01  0.67388773200E+01  0.51100000000E-03 0. -1.
         11    1    1    0    0    0  0.11138253435E+02 -0.53844732340E+02 -0.92731204562E+01  0.55761157212E+02  0.51100000000E-03 0.  1.
         22    1    1    0    0    0 -0.12488367657E+02  0.60356554039E+02  0.10362081899E+02  0.62499965468E+02  0.00000000000E+00 0.  1.
</event>
<event>
 4    1  0.1977788E-002  0.9118800E+02  0.7818608E-02  0.1130116E+00
         25   -1    0    0    0    0  0.00000000000E+00  0.00000000000E+00  0.99999998245E-14  0.12500000000E+03  0.12500000000E+03 0.  0.
        -11    1    1    0    0    0  0.57212063203E+00  0.12603806222E+02 -0.85650764381E+01  0.15249386478E+02  0.51100000000E-03 0. -1.
         11    1    1    0    0    0  0.89874539850E+01  0.34713522978E+02 -0.30949146430E+02  0.47367210935E+02  0.51100000000E-03 0.  1.
         22    1    1    0    0    0 -0.95595746171E+01 -0.47317329200E+02  0.39514222869E+02  0.62383402588E+02  0.00000000000E+00 0.  1.
</event>
<event>
 4    1  0.1977788E-002  0.9118800E+02  0.7818608E-02  0.1130116E+00
         25   -1    0    0    0    0  0.00000000000E+00  0.00000000000E+00  0.99999998245E-14  0.12500000000E+03  0.12500000000E+03 0.  0.
        -11    1    1    0    0    0  0.19049096808E+02 -0.13846070859E+02  0.38797721235E+02  0.45385514657E+02  0.51100000000E-03 0. -1.
         11    1    1    0    0    0  0.71814596157E+01 -0.52129159003E+01  0.14634130849E+02  0.17114486273E+02  0.51100000000E-03 0.  1.
         22    1    1    0    0    0 -0.26230556424E+02  0.19058986759E+02 -0.53431852084E+02  0.62499999070E+02  0.00000000000E+00 0. -1.
</event>
<event>
 4    1  0.1977788E-002  0.9118800E+02  0.7818608E-02  0.1130116E+00
         25   -1    0    0    0    0  0.00000000000E+00  0.00000000000E+00  0.99999998245E-14  0.12500000000E+03  0.12500000000E+03 0.  0.
        -11    1    1    0    0    0 -0.35948598144E+02 -0.23083456680E+02  0.41860422541E+01  0.42926339593E+02  0.51100000000E-03 0.  1.
         11    1    1    0    0    0 -0.16390817562E+02 -0.10527429968E+02  0.19085337592E+01  0.19573660451E+02  0.51100000000E-03 0. -1.
         22    1    1    0    0    0  0.52339415706E+02  0.33610886649E+02 -0.60945760133E+01  0.62499999956E+02  0.00000000000E+00 0.  1.
</event>
<event>
 4    1  0.1977788E-002  0.9118800E+02  0.7818608E-02  0.1130116E+00
         25   -1    0    0    0    0  0.00000000000E+00  0.00000000000E+00  0.99999998245E-14  0.12500000000E+03  0.12500000000E+03 0.  0.
        -11    1    1    0    0    0  0.25805829795E+02 -0.19736639036E+02  0.13501909467E+02  0.35182059795E+02  0.51100000000E-03 0.  1.
         11    1    1    0    0    0  0.23853468545E+02  0.14185083912E+02  0.15756528611E+02  0.31913520040E+02  0.51100000000E-03 0. -1.
         22    1    1    0    0    0 -0.49659298340E+02  0.55515551246E+01 -0.29258438078E+02  0.57904420166E+02  0.00000000000E+00 0. -1.
</event>
<event>
 4    1  0.1977788E-002  0.9118800E+02  0.7818608E-02  0.1130116E+00
         25   -1    0    0    0    0  0.00000000000E+00  0.00000000000E+00  0.99999998245E-14  0.12500000000E+03  0.12500000000E+03 0.  0.
        -11    1    1    0    0    0 -0.61814362878E+01  0.11471606668E+02 -0.23506113455E+02  0.26876481990E+02  0.51100000000E-03 0. -1.
         11    1    1    0    0    0  0.45033299961E+02 -0.20172251194E+02  0.30050600969E+02  0.57775050346E+02  0.51100000000E-03 0.  1.
         22    1    1    0    0    0 -0.38851863673E+02  0.87006445257E+01 -0.65444875137E+01  0.40348467664E+02  0.00000000000E+00 0.  1.
</event>
<event>
 4    1  0.1977788E-002  0.9118800E+02  0.7818608E-02  0.1130116E+00
         25   -1    0    0    0    0  0.00000000000E+00  0.00000000000E+00  0.99999998245E-14  0.12500000000E+03  0.12500000000E+03 0.  0.
        -11    1    1    0    0    0 -0.26282561831E+00  0.19888978759E+01 -0.62770856999E+00  0.21020966620E+01  0.51100000000E-03 0.  1.
         11    1    1    0    0    0 -0.14118079825E+01  0.56231108650E+02 -0.22020241256E+02  0.60405478286E+02  0.51100000000E-03 0. -1.
         22    1    1    0    0    0  0.16746336008E+01 -0.58220006525E+02  0.22647949826E+02  0.62492425052E+02  0.00000000000E+00 0. -1.
</event>
<event>
 4    1  0.1977788E-002  0.9118800E+02  0.7818608E-02  0.1130116E+00
         25   -1    0    0    0    0  0.00000000000E+00  0.00000000000E+00  0.99999998245E-14  0.12500000000E+03  0.12500000000E+03 0.  0.
        -11    1    1    0    0    0 -0.53745201941E+00 -0.32830847786E+02 -0.22329028513E+02  0.39708172152E+02  0.51100000000E-03 0. -1.
         11    1    1    0    0    0  0.74231691406E+00 -0.19245138773E+02 -0.12209017906E+02  0.22803212916E+02  0.51100000000E-03 0.  1.
         22    1    1    0    0    0 -0.20486489465E+00  0.52075986559E+02  0.34538046420E+02  0.62488614932E+02  0.00000000000E+00 0. -1.
</event>
<event>
 4    1  0.1977788E-002  0.9118800E+02  0.7818608E-02  0.1130116E+00
         25   -1    0    0    0    0  0.00000000000E+00  0.00000000000E+00  0.99999998245E-14  0.12500000000E+03  0.12500000000E+03 0.  0.
        -11    1    1    0    0    0 -0.27319921503E+02 -0.28699932275E+02 -0.23143276720E+02  0.45887639742E+02  0.51100000000E-03 0.  1.
         11    1    1    0    0    0 -0.10666446455E+02 -0.93440537755E+01 -0.86916665285E+01  0.16632182306E+02  0.51100000000E-03 0. -1.
         22    1    1    0    0    0  0.37986367959E+02  0.38043986050E+02  0.31834943249E+02  0.62480177952E+02  0.00000000000E+00 0. -1.
</event>
<event>
 4    1  0.1977788E-002  0.9118800E+02  0.7818608E-02  0.1130116E+00
         25   -1    0    0    0    0  0.00000000000E+00  0.00000000000E+00  0.99999998245E-14  0.12500000000E+03  0.12500000000E+03 0.  0.
        -11    1    1    0    0    0 -0.10188693807E+02 -0.13763077811E+02 -0.52473599210E+02  0.55197014472E+02  0.51100000000E-03 0. -1.
         11    1    1    0    0    0 -0.13456852013E+01 -0.18238444690E+01 -0.69423574065E+01  0.73029859598E+01  0.51100000000E-03 0.  1.
         22    1    1    0    0    0  0.11534379009E+02  0.15586922280E+02  0.59415956617E+02  0.62499999568E+02  0.00000000000E+00 0. -1.
</event>
<event>
 4    1  0.1977788E-002  0.9118800E+02  0.7818608E-02  0.1130116E+00
         25   -1    0    0    0    0  0.00000000000E+00  0.00000000000E+00  0.99999998245E-14  0.12500000000E+03  0.12500000000E+03 0.  0.
        -11    1    1    0    0    0  0.16270010010E+02  0.34578958392E+02  0.28854859198E+02  0.47885493511E+02  0.51100000000E-03 0.  1.
         11    1    1    0    0    0  0.49369172231E+01  0.10534427565E+02  0.88451971277E+01  0.14614541672E+02  0.51100000000E-03 0. -1.
         22    1    1    0    0    0 -0.21206927233E+02 -0.45113385957E+02 -0.37700056326E+02  0.62499964817E+02  0.00000000000E+00 0. -1.
</event>
<event>
 4    1  0.1977788E-002  0.9118800E+02  0.7818608E-02  0.1130116E+00
         25   -1    0    0    0    0  0.00000000000E+00  0.00000000000E+00  0.99999998245E-14  0.12500000000E+03  0.12500000000E+03 0.  0.
        -11    1    1    0    0    0 -0.20175271190E+02 -0.74897784649E+01 -0.18363511962E+02  0.28290580074E+02  0.51100000000E-03 0.  1.
         11    1    1    0    0    0 -0.24395651851E+02 -0.90567866729E+01 -0.22206107219E+02  0.34209419933E+02  0.51100000000E-03 0. -1.
         22    1    1    0    0    0  0.44570923041E+02  0.16546565138E+02  0.40569619182E+02  0.62499999993E+02  0.00000000000E+00 0. -1.
</event>
<event>
 4    1  0.1977788E-002  0.9118800E+02  0.7818608E-02  0.1130116E+00
         25   -1    0    0    0    0  0.00000000000E+00  0.00000000000E+00  0.99999998245E-14  0.12500000000E+03  0.12500000000E+03 0.  0.
        -11    1    1    0    0    0  0.17302269426E+02  0.90256212542E+01  0.38284478317E+01  0.19886864493E+02  0.51100000000E-03 0. -1.
         11    1    1    0    0    0 -0.37414478336E+02  0.28778196220E+02 -0.29041756322E+02  0.55420676442E+02  0.51100000000E-03 0.  1.
         22    1    1    0    0    0  0.20112208910E+02 -0.37803817474E+02  0.25213308490E+02  0.49692459065E+02  0.00000000000E+00 0.  1.
</event>
<event>
 4    1  0.1977788E-002  0.9118800E+02  0.7818608E-02  0.1130116E+00
         25   -1    0    0    0    0  0.00000000000E+00  0.00000000000E+00  0.99999998245E-14  0.12500000000E+03  0.12500000000E+03 0.  0.
        -11    1    1    0    0    0  0.12667694466E+02 -0.86797713776E+01  0.14301013307E+02  0.20983991424E+02  0.51100000000E-03 0. -1.
         11    1    1    0    0    0  0.25232573594E+02 -0.17502218540E+02  0.27939447748E+02  0.41516540857E+02  0.51100000000E-03 0.  1.
         22    1    1    0    0    0 -0.37900268059E+02  0.26181989918E+02 -0.42240461055E+02  0.62499467719E+02  0.00000000000E+00 0.  1.
</event>
<event>
 4    1  0.1977788E-002  0.9118800E+02  0.7818608E-02  0.1130116E+00
         25   -1    0    0    0    0  0.00000000000E+00  0.00000000000E+00  0.99999998245E-14  0.12500000000E+03  0.12500000000E+03 0.  0.
        -11    1    1    0    0    0  0.25649390236E+02  0.75115601822E+01 -0.14108481423E+02  0.30221912649E+02  0.51100000000E-03 0.  1.
         11    1    1    0    0    0  0.27450200671E+02  0.80687536405E+01 -0.14941946007E+02  0.32278166814E+02  0.51100000000E-03 0. -1.
         22    1    1    0    0    0 -0.53099590906E+02 -0.15580313823E+02  0.29050427430E+02  0.62499920537E+02  0.00000000000E+00 0. -1.
</event>
<event>
 4    1  0.1977788E-002  0.9118800E+02  0.7818608E-02  0.1130116E+00
         25   -1    0    0    0    0  0.00000000000E+00  0.00000000000E+00  0.99999998245E-14  0.12500000000E+03  0.12500000000E+03 0.  0.
        -11    1    1    0    0    0  0.27014850440E+02  0.13378450328E+02 -0.98559142386E+01  0.31716306898E+02  0.51100000000E-03 0.  1.
         11    1    1    0    0    0  0.26215685886E+02  0.12977316231E+02 -0.95897341326E+01  0.30783695750E+02  0.51100000000E-03 0. -1.
         22    1    1    0    0    0 -0.53230536326E+02 -0.26355766559E+02  0.19445648371E+02  0.62499997352E+02  0.00000000000E+00 0.  1.
</event>
<event>
 4    1  0.1977788E-002  0.9118800E+02  0.7818608E-02  0.1130116E+00
         25   -1    0    0    0    0  0.00000000000E+00  0.00000000000E+00  0.99999998245E-14  0.12500000000E+03  0.12500000000E+03 0.  0.
        -11    1    1    0    0    0 -0.37737466106E+00  0.17474585105E+01  0.16808295867E+01  0.24538156494E+01  0.51100000000E-03 0.  1.
         11    1    1    0    0    0 -0.91879098089E+01  0.42779198302E+02  0.41122582779E+02  0.60046184798E+02  0.51100000000E-03 0. -1.
         22    1    1    0    0    0  0.95652844700E+01 -0.44526656813E+02 -0.42803412366E+02  0.62499999553E+02  0.00000000000E+00 0. -1.
</event>
<event>
 4    1  0.1977788E-002  0.9118800E+02  0.7818608E-02  0.1130116E+00
         25   -1    0    0    0    0  0.00000000000E+00  0.00000000000E+00  0.99999998245E-14  0.12500000000E+03  0.12500000000E+03 0.  0.
        -11    1    1    0    0    0  0.11625613301E+02 -0.45683780148E+01  0.13068426916E+02  0.18077852323E+02  0.51100000000E-03 0. -1.
         11    1    1    0    0    0  0.24867972794E+02 -0.16256700595E+02  0.33112211647E+02  0.44487244751E+02  0.51100000000E-03 0.  1.
         22    1    1    0    0    0 -0.36493586095E+02  0.20825078610E+02 -0.46180638563E+02  0.62434902925E+02  0.00000000000E+00 0.  1.
</event>
<event>
 4    1  0.1977788E-002  0.9118800E+02  0.7818608E-02  0.1130116E+00
         25   -1    0    0    0    0  0.00000000000E+00  0.00000000000E+00  0.99999998245E-14  0.12500000000E+03  0.12500000000E+03 0.  0.
        -11    1    1    0    0    0 -0.17214605597E+02  0.34450289999E+02  0.19988938782E+02  0.43390353775E+02  0.51100000000E-03 0. -1.
         11    1    1    0    0    0 -0.76165811950E+01  0.15158988490E+02  0.87961266628E+01  0.19109659486E+02  0.51100000000E-03 0.  1.
         22    1    1    0    0    0  0.24831186791E+02 -0.49609278489E+02 -0.28785065445E+02  0.62499986739E+02  0.00000000000E+00 0. -1.
</event>
<event>
 4    1  0.1977788E-002  0.9118800E+02  0.7818608E-02  0.1130116E+00
         25   -1    0    0    0    0  0.00000000000E+00  0.00000000000E+00  0.99999998245E-14  0.12500000000E+03  0.12500000000E+03 0.  0.
        -11    1    1    0    0    0  0.69508833137E+00 -0.17711231146E+01 -0.58094538666E+01  0.61130826401E+01  0.51100000000E-03 0.  1.
         11    1    1    0    0    0  0.65129767961E+01 -0.16481466947E+02 -0.53529697503E+02  0.56386932303E+02  0.51100000000E-03 0. -1.
         22    1    1    0    0    0 -0.72080651274E+01  0.18252590062E+02  0.59339151370E+02  0.62499985057E+02  0.00000000000E+00 0. -1.
</event>
<event>
 4    1  0.1977788E-002  0.9118800E+02  0.7818608E-02  0.1130116E+00
         25   -1    0    0    0    0  0.00000000000E+00  0.00000000000E+00  0.99999998245E-14  0.12500000000E+03  0.12500000000E+03 0.  0.
        -11    1    1    0    0    0  0.18066441577E+02 -0.61554121730E+01  0.51483250918E+02  0.54907290368E+02  0.51100000000E-03 0.  1.
         11    1    1    0    0    0  0.24524040096E+01 -0.93304387373E+00  0.71251853499E+01  0.75929653514E+01  0.51100000000E-03 0. -1.
         22    1    1    0    0    0 -0.20518845587E+02  0.70884560467E+01 -0.58608436268E+02  0.62499744280E+02  0.00000000000E+00 0.  1.
</event>
<event>
 4    1  0.1977788E-002  0.9118800E+02  0.7818608E-02  0.1130116E+00
         25   -1    0    0    0    0  0.00000000000E+00  0.00000000000E+00  0.99999998245E-14  0.12500000000E+03  0.12500000000E+03 0.  0.
        -11    1    1    0    0    0 -0.67668261480E+01 -0.37718110359E+02 -0.16933646147E+02  0.41895037382E+02  0.51100000000E-03 0.  1.
         11    1    1    0    0    0 -0.35380604077E+01 -0.18803421511E+02 -0.76592565343E+01  0.20609481869E+02  0.51100000000E-03 0. -1.
         22    1    1    0    0    0  0.10304886556E+02  0.56521531870E+02  0.24592902681E+02  0.62495480750E+02  0.00000000000E+00 0.  1.
</event>
<event>
 4    1  0.1977788E-002  0.9118800E+02  0.7818608E-02  0.1130116E+00
         25   -1    0    0    0    0  0.00000000000E+00  0.00000000000E+00  0.99999998245E-14  0.12500000000E+03  0.12500000000E+03 0.  0.
        -11    1    1    0    0    0 -0.18114636075E+02 -0.76187501578E+01 -0.24268025098E+02  0.31226950484E+02  0.51100000000E-03 0.  1.
         11    1    1    0    0    0 -0.18133171280E+02 -0.76352294858E+01 -0.24308332414E+02  0.31273049979E+02  0.51100000000E-03 0. -1.
         22    1    1    0    0    0  0.36247807355E+02  0.15253979644E+02  0.48576357512E+02  0.62499999537E+02  0.00000000000E+00 0.  1.
</event>
<event>
 4    1  0.1977788E-002  0.9118800E+02  0.7818608E-02  0.1130116E+00
         25   -1    0    0    0    0  0.00000000000E+00  0.00000000000E+00  0.99999998245E-14  0.12500000000E+03  0.12500000000E+03 0.  0.
        -11    1    1    0    0    0  0.28796269531E+02  0.48378607465E+02 -0.12867997145E+02  0.57752057538E+02  0.51100000000E-03 0.  1.
         11    1    1    0    0    0  0.22708305496E+01  0.40402037457E+01 -0.10341361610E+01  0.47486161724E+01  0.51100000000E-03 0. -1.
         22    1    1    0    0    0 -0.31067100081E+02 -0.52418811210E+02  0.13902133306E+02  0.62499326289E+02  0.00000000000E+00 0.  1.
</event>
<event>
 4    1  0.1977788E-002  0.9118800E+02  0.7818608E-02  0.1130116E+00
         25   -1    0    0    0    0  0.00000000000E+00  0.00000000000E+00  0.99999998245E-14  0.12500000000E+03  0.12500000000E+03 0.  0.
        -11    1    1    0    0    0  0.17230196411E+02 -0.11005682584E+02 -0.44615974481E+02  0.49077386816E+02  0.51100000000E-03 0. -1.
         11    1    1    0    0    0  0.28211902825E+01 -0.22212467044E+01 -0.13006892336E+02  0.13493416914E+02  0.51100000000E-03 0.  1.
         22    1    1    0    0    0 -0.20051386694E+02  0.13226929289E+02  0.57622866817E+02  0.62429196270E+02  0.00000000000E+00 0.  1.
</event>
<event>
 4    1  0.1977788E-002  0.9118800E+02  0.7818608E-02  0.1130116E+00
         25   -1    0    0    0    0  0.00000000000E+00  0.00000000000E+00  0.99999998245E-14  0.12500000000E+03  0.12500000000E+03 0.  0.
        -11    1    1    0    0    0  0.39714612743E+02 -0.30264926653E+01  0.31202256629E+02  0.50596353052E+02  0.51100000000E-03 0.  1.
         11    1    1    0    0    0  0.93420585863E+01 -0.66907509853E+00  0.73468260298E+01  0.11903678973E+02  0.51100000000E-03 0. -1.
         22    1    1    0    0    0 -0.49056671329E+02  0.36955677638E+01 -0.38549082659E+02  0.62499967975E+02  0.00000000000E+00 0.  1.
</event>
<event>
 4    1  0.1977788E-002  0.9118800E+02  0.7818608E-02  0.1130116E+00
         25   -1    0    0    0    0  0.00000000000E+00  0.00000000000E+00  0.99999998245E-14  0.12500000000E+03  0.12500000000E+03 0.  0.
        -11    1    1    0    0    0 -0.29672672709E+02  0.48597027378E+02  0.16373088638E+02  0.59247081004E+02  0.51100000000E-03 0.  1.
         11    1    1    0    0    0 -0.16294188158E+01  0.26678906845E+01  0.89935290133E+00  0.32529190405E+01  0.51100000000E-03 0.  1.
         22    1    1    0    0    0  0.31302091524E+02 -0.51264918062E+02 -0.17272441540E+02  0.62499999956E+02  0.00000000000E+00 0.  1.
</event>
<event>
 4    1  0.1977788E-002  0.9118800E+02  0.7818608E-02  0.1130116E+00
         25   -1    0    0    0    0  0.00000000000E+00  0.00000000000E+00  0.99999998245E-14  0.12500000000E+03  0.12500000000E+03 0.  0.
        -11    1    1    0    0    0 -0.89547220305E+00 -0.11570271633E+01  0.11140459115E+01  0.18389347126E+01  0.51100000000E-03 0.  1.
         11    1    1    0    0    0 -0.29528868921E+02 -0.38143409661E+02  0.36781667593E+02  0.60661065532E+02  0.51100000000E-03 0. -1.
         22    1    1    0    0    0  0.30424341124E+02  0.39300436824E+02 -0.37895713504E+02  0.62499999755E+02  0.00000000000E+00 0. -1.
</event>
<event>
 4    1  0.1977788E-002  0.9118800E+02  0.7818608E-02  0.1130116E+00
         25   -1    0    0    0    0  0.00000000000E+00  0.00000000000E+00  0.99999998245E-14  0.12500000000E+03  0.12500000000E+03 0.  0.
        -11    1    1    0    0    0 -0.49605555988E+02 -0.11974347622E+01  0.41087407451E+00  0.49621707474E+02  0.51100000000E-03 0. -1.
         11    1    1    0    0    0 -0.12873867934E+02 -0.31671094566E+00  0.11702028120E+00  0.12878294740E+02  0.51100000000E-03 0.  1.
         22    1    1    0    0    0  0.62479423922E+02  0.15141457079E+01 -0.52789435571E+00  0.62499997786E+02  0.00000000000E+00 0. -1.
</event>
<event>
 4    1  0.1977788E-002  0.9118800E+02  0.7818608E-02  0.1130116E+00
         25   -1    0    0    0    0  0.00000000000E+00  0.00000000000E+00  0.99999998245E-14  0.12500000000E+03  0.12500000000E+03 0.  0.
        -11    1    1    0    0    0  0.10119061565E+02  0.13832620600E+00  0.20117859002E+01  0.10318033915E+02  0.51100000000E-03 0. -1.
         11    1    1    0    0    0 -0.73828440773E+00 -0.40284472949E+02  0.39324129524E+02  0.56300719247E+02  0.51100000000E-03 0.  1.
         22    1    1    0    0    0 -0.93807771573E+01  0.40146146743E+02 -0.41335915424E+02  0.58381246838E+02  0.00000000000E+00 0.  1.
</event>
<event>
 4    1  0.1977788E-002  0.9118800E+02  0.7818608E-02  0.1130116E+00
         25   -1    0    0    0    0  0.00000000000E+00  0.00000000000E+00  0.99999998245E-14  0.12500000000E+03  0.12500000000E+03 0.  0.
        -11    1    1    0    0    0  0.12329462458E+02  0.59509478985E+02  0.98131087452E+01  0.61560464887E+02  0.51100000000E-03 0.  1.
         11    1    1    0    0    0  0.89412670658E-01  0.94146152577E+00  0.29524142500E-01  0.94615874265E+00  0.51100000000E-03 0. -1.
         22    1    1    0    0    0 -0.12418875129E+02 -0.60450940511E+02 -0.98426328877E+01  0.62493376371E+02  0.00000000000E+00 0.  1.
</event>
<event>
 4    1  0.1977788E-002  0.9118800E+02  0.7818608E-02  0.1130116E+00
         25   -1    0    0    0    0  0.00000000000E+00  0.00000000000E+00  0.99999998245E-14  0.12500000000E+03  0.12500000000E+03 0.  0.
        -11    1    1    0    0    0  0.41209237093E+02  0.73265913852E+01  0.60520417514E+01  0.42290748074E+02  0.51100000000E-03 0. -1.
         11    1    1    0    0    0  0.19826055891E+02  0.35702859651E+01  0.17455378876E+01  0.20220443537E+02  0.51100000000E-03 0.  1.
         22    1    1    0    0    0 -0.61035292983E+02 -0.10896877350E+02 -0.77975796390E+01  0.62488808388E+02  0.00000000000E+00 0.  1.
</event>
<event>
 4    1  0.1977788E-002  0.9118800E+02  0.7818608E-02  0.1130116E+00
         25   -1    0    0    0    0  0.00000000000E+00  0.00000000000E+00  0.99999998245E-14  0.12500000000E+03  0.12500000000E+03 0.  0.
        -11    1    1    0    0    0 -0.18370468815E+01 -0.31868761634E+01  0.50334285975E+01  0.62342862168E+01  0.51100000000E-03 0.  1.
         11    1    1    0    0    0 -0.14081806912E+02 -0.30321101280E+02  0.45261439105E+02  0.56269568497E+02  0.51100000000E-03 0. -1.
         22    1    1    0    0    0  0.15918853794E+02  0.33507977443E+02 -0.50294867702E+02  0.62496145286E+02  0.00000000000E+00 0. -1.
</event>
<event>
 4    1  0.1977788E-002  0.9118800E+02  0.7818608E-02  0.1130116E+00
         25   -1    0    0    0    0  0.00000000000E+00  0.00000000000E+00  0.99999998245E-14  0.12500000000E+03  0.12500000000E+03 0.  0.
        -11    1    1    0    0    0 -0.34623595987E+02  0.20205280990E+01 -0.47526532371E+02  0.58835764738E+02  0.51100000000E-03 0. -1.
         11    1    1    0    0    0 -0.21565185419E+01  0.12536762118E+00 -0.29597856003E+01  0.36642352985E+01  0.51100000000E-03 0.  1.
         22    1    1    0    0    0  0.36780114529E+02 -0.21458957202E+01  0.50486317971E+02  0.62499999964E+02  0.00000000000E+00 0. -1.
</event>
<event>
 4    1  0.1977788E-002  0.9118800E+02  0.7818608E-02  0.1130116E+00
         25   -1    0    0    0    0  0.00000000000E+00  0.00000000000E+00  0.99999998245E-14  0.12500000000E+03  0.12500000000E+03 0.  0.
        -11    1    1    0    0    0  0.48845462151E+02 -0.63180370040E+01 -0.28695146214E+02  0.57001826119E+02  0.51100000000E-03 0.  1.
         11    1    1    0    0    0  0.47132013256E+01 -0.60137126101E+00 -0.27665923755E+01  0.54981767671E+01  0.51100000000E-03 0. -1.
         22    1    1    0    0    0 -0.53558663477E+02  0.69194082650E+01  0.31461738590E+02  0.62499997114E+02  0.00000000000E+00 0.  1.
</event>
<event>
 4    1  0.1977788E-002  0.9118800E+02  0.7818608E-02  0.1130116E+00
         25   -1    0    0    0    0  0.00000000000E+00  0.00000000000E+00  0.99999998245E-14  0.12500000000E+03  0.12500000000E+03 0.  0.
        -11    1    1    0    0    0 -0.22380801741E+02 -0.34114878766E+02 -0.40100114067E+02  0.57207904946E+02  0.51100000000E-03 0.  1.
         11    1    1    0    0    0 -0.53362345267E+01 -0.19369940788E+01 -0.18014842779E+01  0.59558954700E+01  0.51100000000E-03 0. -1.
         22    1    1    0    0    0  0.27717036268E+02  0.36051872845E+02  0.41901598345E+02  0.61836199584E+02  0.00000000000E+00 0.  1.
</event>
<event>
 4    1  0.1977788E-002  0.9118800E+02  0.7818608E-02  0.1130116E+00
         25   -1    0    0    0    0  0.00000000000E+00  0.00000000000E+00  0.99999998245E-14  0.12500000000E+03  0.12500000000E+03 0.  0.
        -11    1    1    0    0    0  0.15416053658E+02 -0.16258005435E+01  0.18969602721E+02  0.24497831852E+02  0.51100000000E-03 0.  1.
         11    1    1    0    0    0  0.24128686019E+02 -0.30703320097E+01  0.29199698414E+02  0.38003194805E+02  0.51100000000E-03 0. -1.
         22    1    1    0    0    0 -0.39544739677E+02  0.46961325533E+01 -0.48169301135E+02  0.62498973343E+02  0.00000000000E+00 0. -1.
</event>
<event>
 4    1  0.1977788E-002  0.9118800E+02  0.7818608E-02  0.1130116E+00
         25   -1    0    0    0    0  0.00000000000E+00  0.00000000000E+00  0.99999998245E-14  0.12500000000E+03  0.12500000000E+03 0.  0.
        -11    1    1    0    0    0 -0.23920050707E+02 -0.11905629940E+02  0.32963129859E+02  0.42432072545E+02  0.51100000000E-03 0. -1.
         11    1    1    0    0    0 -0.11389049062E+02 -0.55849392490E+01  0.15550656808E+02  0.20068007185E+02  0.51100000000E-03 0.  1.
         22    1    1    0    0    0  0.35309099769E+02  0.17490569189E+02 -0.48513786667E+02  0.62499920270E+02  0.00000000000E+00 0. -1.
</event>
<event>
 4    1  0.1977788E-002  0.9118800E+02  0.7818608E-02  0.1130116E+00
         25   -1    0    0    0    0  0.00000000000E+00  0.00000000000E+00  0.99999998245E-14  0.12500000000E+03  0.12500000000E+03 0.  0.
        -11    1    1    0    0    0 -0.93341959685E+01  0.14694692971E+02 -0.26746554269E+01  0.17612921331E+02  0.51100000000E-03 0. -1.
         11    1    1    0    0    0  0.79537976239E+01  0.40139520097E+02 -0.22871888311E+02  0.46878217175E+02  0.51100000000E-03 0.  1.
         22    1    1    0    0    0  0.13803983446E+01 -0.54834213068E+02  0.25546543738E+02  0.60508861495E+02  0.00000000000E+00 0.  1.
</event>
<event>
 4    1  0.1977788E-002  0.9118800E+02  0.7818608E-02  0.1130116E+00
         25   -1    0    0    0    0  0.00000000000E+00  0.00000000000E+00  0.99999998245E-14  0.12500000000E+03  0.12500000000E+03 0.  0.
        -11    1    1    0    0    0 -0.51655212987E+02  0.79226146952E+01 -0.27952381973E+02  0.59265204890E+02  0.51100000000E-03 0. -1.
         11    1    1    0    0    0 -0.15008669010E+01 -0.34692964577E+01  0.78821577210E+01  0.87416834743E+01  0.51100000000E-03 0.  1.
         22    1    1    0    0    0  0.53156079888E+02 -0.44533182375E+01  0.20070224252E+02  0.56993111636E+02  0.00000000000E+00 0. -1.
</event>
<event>
 4    1  0.1977788E-002  0.9118800E+02  0.7818608E-02  0.1130116E+00
         25   -1    0    0    0    0  0.00000000000E+00  0.00000000000E+00  0.99999998245E-14  0.12500000000E+03  0.12500000000E+03 0.  0.
        -11    1    1    0    0    0  0.23462141600E+02 -0.93651366526E+01  0.20885997758E+02  0.32778083770E+02  0.51100000000E-03 0. -1.
         11    1    1    0    0    0  0.18582248637E+02 -0.12708817403E+02  0.19576978261E+02  0.29834075858E+02  0.51100000000E-03 0.  1.
         22    1    1    0    0    0 -0.42044390237E+02  0.22073954055E+02 -0.40462976019E+02  0.62387840373E+02  0.00000000000E+00 0. -1.
</event>
<event>
 4    1  0.1977788E-002  0.9118800E+02  0.7818608E-02  0.1130116E+00
         25   -1    0    0    0    0  0.00000000000E+00  0.00000000000E+00  0.99999998245E-14  0.12500000000E+03  0.12500000000E+03 0.  0.
        -11    1    1    0    0    0 -0.14371574343E+02  0.15167666505E+02 -0.37397662353E+01  0.21227013639E+02  0.51100000000E-03 0.  1.
         11    1    1    0    0    0 -0.27940000594E+02  0.29494838624E+02 -0.72711944506E+01  0.41272986415E+02  0.51100000000E-03 0.  1.
         22    1    1    0    0    0  0.42311574936E+02 -0.44662505129E+02  0.11010960686E+02  0.62499999946E+02  0.00000000000E+00 0.  1.
</event>
<event>
 4    1  0.1977788E-002  0.9118800E+02  0.7818608E-02  0.1130116E+00
         25   -1    0    0    0    0  0.00000000000E+00  0.00000000000E+00  0.99999998245E-14  0.12500000000E+03  0.12500000000E+03 0.  0.
        -11    1    1    0    0    0  0.29064351168E+02  0.14548904006E+01  0.53877498149E+02  0.61234287960E+02  0.51100000000E-03 0. -1.
         11    1    1    0    0    0  0.14185571485E+01  0.75128379350E+00  0.23153023985E+00  0.16218317530E+01  0.51100000000E-03 0.  1.
         22    1    1    0    0    0 -0.30482908316E+02 -0.22061741941E+01 -0.54109028389E+02  0.62143880287E+02  0.00000000000E+00 0. -1.
</event>
<event>
 4    1  0.1977788E-002  0.9118800E+02  0.7818608E-02  0.1130116E+00
         25   -1    0    0    0    0  0.00000000000E+00  0.00000000000E+00  0.99999998245E-14  0.12500000000E+03  0.12500000000E+03 0.  0.
        -11    1    1    0    0    0 -0.19628910216E+01 -0.12589594628E+00 -0.15384835917E+01  0.24971429625E+01  0.51100000000E-03 0.  1.
         11    1    1    0    0    0 -0.38963174537E+02 -0.43166559733E+02  0.17681911728E+02  0.60779362055E+02  0.51100000000E-03 0. -1.
         22    1    1    0    0    0  0.40926065559E+02  0.43292455680E+02 -0.16143428136E+02  0.61723494982E+02  0.00000000000E+00 0. -1.
</event>
<event>
 4    1  0.1977788E-002  0.9118800E+02  0.7818608E-02  0.1130116E+00
         25   -1    0    0    0    0  0.00000000000E+00  0.00000000000E+00  0.99999998245E-14  0.12500000000E+03  0.12500000000E+03 0.  0.
        -11    1    1    0    0    0  0.32186347049E+02 -0.27528740558E+02  0.34620401302E+02  0.54702510725E+02  0.51100000000E-03 0. -1.
         11    1    1    0    0    0  0.43219101611E+01 -0.39376222632E+01  0.51644142144E+01  0.78009583365E+01  0.51100000000E-03 0.  1.
         22    1    1    0    0    0 -0.36508257210E+02  0.31466362821E+02 -0.39784815516E+02  0.62496530939E+02  0.00000000000E+00 0. -1.
</event>
<event>
 4    1  0.1977788E-002  0.9118800E+02  0.7818608E-02  0.1130116E+00
         25   -1    0    0    0    0  0.00000000000E+00  0.00000000000E+00  0.99999998245E-14  0.12500000000E+03  0.12500000000E+03 0.  0.
        -11    1    1    0    0    0  0.13797638954E+02  0.18532766354E+02  0.28485161341E+01  0.23279869283E+02  0.51100000000E-03 0.  1.
         11    1    1    0    0    0  0.23541267690E+02  0.31051538938E+02  0.44578849108E+01  0.39220684505E+02  0.51100000000E-03 0. -1.
         22    1    1    0    0    0 -0.37338906644E+02 -0.49584305292E+02 -0.73064010449E+01  0.62499446212E+02  0.00000000000E+00 0. -1.
</event>
<event>
 4    1  0.1977788E-002  0.9118800E+02  0.7818608E-02  0.1130116E+00
         25   -1    0    0    0    0  0.00000000000E+00  0.00000000000E+00  0.99999998245E-14  0.12500000000E+03  0.12500000000E+03 0.  0.
        -11    1    1    0    0    0 -0.92357236543E+01  0.36422395499E+02 -0.20699737636E+02  0.42899517756E+02  0.51100000000E-03 0. -1.
         11    1    1    0    0    0 -0.41067366066E+01  0.16781746768E+02 -0.92580464327E+01  0.19601115635E+02  0.51100000000E-03 0.  1.
         22    1    1    0    0    0  0.13342460261E+02 -0.53204142267E+02  0.29957784069E+02  0.62499366608E+02  0.00000000000E+00 0. -1.
</event>
<event>
 4    1  0.1977788E-002  0.9118800E+02  0.7818608E-02  0.1130116E+00
         25   -1    0    0    0    0  0.00000000000E+00  0.00000000000E+00  0.99999998245E-14  0.12500000000E+03  0.12500000000E+03 0.  0.
        -11    1    1    0    0    0 -0.11367841440E+02 -0.94072520478E+01  0.13979769976E+02  0.20326292799E+02  0.51100000000E-03 0.  1.
         11    1    1    0    0    0 -0.24556920174E+02 -0.18946007437E+02  0.28580830557E+02  0.42176502958E+02  0.51100000000E-03 0. -1.
         22    1    1    0    0    0  0.35924761613E+02  0.28353259485E+02 -0.42560600533E+02  0.62497204243E+02  0.00000000000E+00 0.  1.
</event>
<event>
 4    1  0.1977788E-002  0.9118800E+02  0.7818608E-02  0.1130116E+00
         25   -1    0    0    0    0  0.00000000000E+00  0.00000000000E+00  0.99999998245E-14  0.12500000000E+03  0.12500000000E+03 0.  0.
        -11    1    1    0    0    0 -0.32824220724E+02  0.54033279409E+01  0.26929809172E+02  0.42800000482E+02  0.51100000000E-03 0. -1.
         11    1    1    0    0    0 -0.15132901429E+02  0.23636464260E+01  0.12389668354E+02  0.19700137367E+02  0.51100000000E-03 0.  1.
         22    1    1    0    0    0  0.47957122154E+02 -0.77669743669E+01 -0.39319477525E+02  0.62499862151E+02  0.00000000000E+00 0. -1.
</event>
<event>
 4    1  0.1977788E-002  0.9118800E+02  0.7818608E-02  0.1130116E+00
         25   -1    0    0    0    0  0.00000000000E+00  0.00000000000E+00  0.99999998245E-14  0.12500000000E+03  0.12500000000E+03 0.  0.
        -11    1    1    0    0    0  0.32140888412E+02 -0.12440901666E+02 -0.72097760100E+01  0.35210703097E+02  0.51100000000E-03 0. -1.
         11    1    1    0    0    0 -0.20326305711E+02 -0.29567965629E+02 -0.17197165472E+02  0.39789016020E+02  0.51100000000E-03 0.  1.
         22    1    1    0    0    0 -0.11814582701E+02  0.42008867295E+02  0.24406941482E+02  0.50000280883E+02  0.00000000000E+00 0. -1.
</event>
<event>
 4    1  0.1977788E-002  0.9118800E+02  0.7818608E-02  0.1130116E+00
         25   -1    0    0    0    0  0.00000000000E+00  0.00000000000E+00  0.99999998245E-14  0.12500000000E+03  0.12500000000E+03 0.  0.
        -11    1    1    0    0    0 -0.41932115959E+02 -0.16693477048E+02 -0.78429790928E+01  0.45809244112E+02  0.51100000000E-03 0.  1.
         11    1    1    0    0    0 -0.15273095806E+02 -0.60855470051E+01 -0.28775254055E+01  0.16690760635E+02  0.51100000000E-03 0. -1.
         22    1    1    0    0    0  0.57205211765E+02  0.22779024053E+02  0.10720504498E+02  0.62499995253E+02  0.00000000000E+00 0.  1.
</event>
<event>
 4    1  0.1977788E-002  0.9118800E+02  0.7818608E-02  0.1130116E+00
         25   -1    0    0    0    0  0.00000000000E+00  0.00000000000E+00  0.99999998245E-14  0.12500000000E+03  0.12500000000E+03 0.  0.
        -11    1    1    0    0    0 -0.64183804086E+01 -0.35304329825E+02 -0.17543951836E+02  0.39942227752E+02  0.51100000000E-03 0.  1.
         11    1    1    0    0    0 -0.36138349448E+01 -0.19927252921E+02 -0.99346958374E+01  0.22557779004E+02  0.51100000000E-03 0. -1.
         22    1    1    0    0    0  0.10032215353E+02  0.55231582746E+02  0.27478647673E+02  0.62499993244E+02  0.00000000000E+00 0.  1.
</event>
<event>
 4    1  0.1977788E-002  0.9118800E+02  0.7818608E-02  0.1130116E+00
         25   -1    0    0    0    0  0.00000000000E+00  0.00000000000E+00  0.99999998245E-14  0.12500000000E+03  0.12500000000E+03 0.  0.
        -11    1    1    0    0    0 -0.47936927237E+02 -0.11864688020E+02  0.26024479532E+02  0.55821083382E+02  0.51100000000E-03 0.  1.
         11    1    1    0    0    0 -0.57479191268E+01 -0.13917766678E+01  0.31036703610E+01  0.66789510068E+01  0.51100000000E-03 0. -1.
         22    1    1    0    0    0  0.53684846364E+02  0.13256464688E+02 -0.29128149893E+02  0.62499965611E+02  0.00000000000E+00 0.  1.
</event>
<event>
 4    1  0.1977788E-002  0.9118800E+02  0.7818608E-02  0.1130116E+00
         25   -1    0    0    0    0  0.00000000000E+00  0.00000000000E+00  0.99999998245E-14  0.12500000000E+03  0.12500000000E+03 0.  0.
        -11    1    1    0    0    0 -0.16135456664E+00 -0.42943377218E-01 -0.99731365444E-01  0.19448916730E+00  0.51100000000E-03 0.  1.
         11    1    1    0    0    0 -0.12309342439E+02  0.24984634450E+02 -0.55784040252E+02  0.62350709836E+02  0.51100000000E-03 0. -1.
         22    1    1    0    0    0  0.12470697006E+02 -0.24941691073E+02  0.55883771617E+02  0.62454800997E+02  0.00000000000E+00 0. -1.
</event>
<event>
 4    1  0.1977788E-002  0.9118800E+02  0.7818608E-02  0.1130116E+00
         25   -1    0    0    0    0  0.00000000000E+00  0.00000000000E+00  0.99999998245E-14  0.12500000000E+03  0.12500000000E+03 0.  0.
        -11    1    1    0    0    0 -0.19323171291E+01  0.62847083733E+01 -0.77409913775E+00  0.66204711737E+01  0.51100000000E-03 0. -1.
         11    1    1    0    0    0 -0.90285814307E+01  0.55182799784E+02 -0.80798940307E+00  0.55922352613E+02  0.51100000000E-03 0.  1.
         22    1    1    0    0    0  0.10960898560E+02 -0.61467508158E+02  0.15820885408E+01  0.62457176213E+02  0.00000000000E+00 0.  1.
</event>
<event>
 4    1  0.1977788E-002  0.9118800E+02  0.7818608E-02  0.1130116E+00
         25   -1    0    0    0    0  0.00000000000E+00  0.00000000000E+00  0.99999998245E-14  0.12500000000E+03  0.12500000000E+03 0.  0.
        -11    1    1    0    0    0 -0.51619599374E+01 -0.97321641899E+01  0.69392385238E+01  0.13019749681E+02  0.51100000000E-03 0. -1.
         11    1    1    0    0    0 -0.19102493134E+02 -0.35967164645E+02  0.28110561270E+02  0.49484804049E+02  0.51100000000E-03 0.  1.
         22    1    1    0    0    0  0.24264453072E+02  0.45699328835E+02 -0.35049799794E+02  0.62495446270E+02  0.00000000000E+00 0.  1.
</event>
<event>
 4    1  0.1977788E-002  0.9118800E+02  0.7818608E-02  0.1130116E+00
         25   -1    0    0    0    0  0.00000000000E+00  0.00000000000E+00  0.99999998245E-14  0.12500000000E+03  0.12500000000E+03 0.  0.
        -11    1    1    0    0    0 -0.10053410337E+02 -0.31273620278E+02  0.14475521274E+02  0.35897786855E+02  0.51100000000E-03 0.  1.
         11    1    1    0    0    0 -0.74714939142E+01 -0.23157147852E+02  0.10751810465E+02  0.26602220706E+02  0.51100000000E-03 0. -1.
         22    1    1    0    0    0  0.17524904251E+02  0.54430768130E+02 -0.25227331739E+02  0.62499992439E+02  0.00000000000E+00 0. -1.
</event>
<event>
 4    1  0.1977788E-002  0.9118800E+02  0.7818608E-02  0.1130116E+00
         25   -1    0    0    0    0  0.00000000000E+00  0.00000000000E+00  0.99999998245E-14  0.12500000000E+03  0.12500000000E+03 0.  0.
        -11    1    1    0    0    0 -0.53802406426E+01  0.20588310208E+02  0.58366559119E+01  0.22065630720E+02  0.51100000000E-03 0. -1.
         11    1    1    0    0    0 -0.98661538861E+01  0.37724465483E+02  0.10698688834E+02  0.40434369434E+02  0.51100000000E-03 0.  1.
         22    1    1    0    0    0  0.15246394529E+02 -0.58312775691E+02 -0.16535344746E+02  0.62499999846E+02  0.00000000000E+00 0.  1.
</event>
<event>
 4    1  0.1977788E-002  0.9118800E+02  0.7818608E-02  0.1130116E+00
         25   -1    0    0    0    0  0.00000000000E+00  0.00000000000E+00  0.99999998245E-14  0.12500000000E+03  0.12500000000E+03 0.  0.
        -11    1    1    0    0    0  0.54020292730E+01  0.35130288963E+01 -0.55524651560E+01  0.85060661802E+01  0.51100000000E-03 0.  1.
         11    1    1    0    0    0  0.34299389498E+02  0.22292831864E+02 -0.35240976540E+02  0.53993933920E+02  0.51100000000E-03 0. -1.
         22    1    1    0    0    0 -0.39701418771E+02 -0.25805860760E+02  0.40793441696E+02  0.62499999899E+02  0.00000000000E+00 0. -1.
</event>
<event>
 4    1  0.1977788E-002  0.9118800E+02  0.7818608E-02  0.1130116E+00
         25   -1    0    0    0    0  0.00000000000E+00  0.00000000000E+00  0.99999998245E-14  0.12500000000E+03  0.12500000000E+03 0.  0.
        -11    1    1    0    0    0  0.48453850479E+02  0.14274825596E+02  0.10579441057E+02  0.51608825267E+02  0.51100000000E-03 0.  1.
         11    1    1    0    0    0  0.94154655631E+01 -0.15702127468E+01 -0.10436590479E+02  0.14143513740E+02  0.51100000000E-03 0. -1.
         22    1    1    0    0    0 -0.57869316042E+02 -0.12704612849E+02 -0.14285057873E+00  0.59247660993E+02  0.00000000000E+00 0.  1.
</event>
<event>
 4    1  0.1977788E-002  0.9118800E+02  0.7818608E-02  0.1130116E+00
         25   -1    0    0    0    0  0.00000000000E+00  0.00000000000E+00  0.99999998245E-14  0.12500000000E+03  0.12500000000E+03 0.  0.
        -11    1    1    0    0    0 -0.25707057186E+01 -0.32292825628E+01 -0.64946304968E+01  0.76952595352E+01  0.51100000000E-03 0. -1.
         11    1    1    0    0    0 -0.18026022646E+02 -0.23177265673E+02 -0.46275731660E+02  0.54804803415E+02  0.51100000000E-03 0.  1.
         22    1    1    0    0    0  0.20596728364E+02  0.26406548236E+02  0.52770362157E+02  0.62499937049E+02  0.00000000000E+00 0.  1.
</event>
<event>
 4    1  0.1977788E-002  0.9118800E+02  0.7818608E-02  0.1130116E+00
         25   -1    0    0    0    0  0.00000000000E+00  0.00000000000E+00  0.99999998245E-14  0.12500000000E+03  0.12500000000E+03 0.  0.
        -11    1    1    0    0    0  0.29109705517E+01  0.29891967900E+01 -0.40712328030E+00  0.41922305076E+01  0.51100000000E-03 0.  1.
         11    1    1    0    0    0  0.40312727279E+02  0.41771634578E+02 -0.54602413321E+01  0.58307801121E+02  0.51100000000E-03 0. -1.
         22    1    1    0    0    0 -0.43223697831E+02 -0.44760831368E+02  0.58673646124E+01  0.62499968371E+02  0.00000000000E+00 0. -1.
</event>
<event>
 4    1  0.1977788E-002  0.9118800E+02  0.7818608E-02  0.1130116E+00
         25   -1    0    0    0    0  0.00000000000E+00  0.00000000000E+00  0.99999998245E-14  0.12500000000E+03  0.12500000000E+03 0.  0.
        -11    1    1    0    0    0 -0.42260289204E+02 -0.16254679189E+01 -0.66436164640E+01  0.42810183713E+02  0.51100000000E-03 0.  1.
         11    1    1    0    0    0 -0.19405288986E+02 -0.48195550601E+00 -0.33071939011E+01  0.19690989145E+02  0.51100000000E-03 0. -1.
         22    1    1    0    0    0  0.61665578191E+02  0.21074234250E+01  0.99508103651E+01  0.62498827141E+02  0.00000000000E+00 0.  1.
</event>
<event>
 4    1  0.1977788E-002  0.9118800E+02  0.7818608E-02  0.1130116E+00
         25   -1    0    0    0    0  0.00000000000E+00  0.00000000000E+00  0.99999998245E-14  0.12500000000E+03  0.12500000000E+03 0.  0.
        -11    1    1    0    0    0  0.27113346505E+02 -0.26236502184E+02  0.13718813984E+02  0.40145902194E+02  0.51100000000E-03 0. -1.
         11    1    1    0    0    0  0.15089305035E+02 -0.14616148241E+02  0.76411262964E+01  0.22354098666E+02  0.51100000000E-03 0.  1.
         22    1    1    0    0    0 -0.42202651540E+02  0.40852650425E+02 -0.21359940281E+02  0.62499999140E+02  0.00000000000E+00 0. -1.
</event>
<event>
 4    1  0.1977788E-002  0.9118800E+02  0.7818608E-02  0.1130116E+00
         25   -1    0    0    0    0  0.00000000000E+00  0.00000000000E+00  0.99999998245E-14  0.12500000000E+03  0.12500000000E+03 0.  0.
        -11    1    1    0    0    0  0.17317416136E+01 -0.18385319428E+02 -0.33037168647E+01  0.18759889255E+02  0.51100000000E-03 0.  1.
         11    1    1    0    0    0  0.15187303722E+02 -0.28276842224E+02  0.34889187071E+02  0.47407693207E+02  0.51100000000E-03 0. -1.
         22    1    1    0    0    0 -0.16919045335E+02  0.46662161652E+02 -0.31585470207E+02  0.58832417537E+02  0.00000000000E+00 0. -1.
</event>
<event>
 4    1  0.1977788E-002  0.9118800E+02  0.7818608E-02  0.1130116E+00
         25   -1    0    0    0    0  0.00000000000E+00  0.00000000000E+00  0.99999998245E-14  0.12500000000E+03  0.12500000000E+03 0.  0.
        -11    1    1    0    0    0 -0.25805128654E+01  0.62321295621E+01  0.36993136054E+01  0.76930752589E+01  0.51100000000E-03 0.  1.
         11    1    1    0    0    0 -0.18772796602E+02  0.44501668633E+02  0.25903765311E+02  0.54807129654E+02  0.51100000000E-03 0. -1.
         22    1    1    0    0    0  0.21353309468E+02 -0.50733798195E+02 -0.29603078917E+02  0.62499795087E+02  0.00000000000E+00 0.  1.
</event>
<event>
 4    1  0.1977788E-002  0.9118800E+02  0.7818608E-02  0.1130116E+00
         25   -1    0    0    0    0  0.00000000000E+00  0.00000000000E+00  0.99999998245E-14  0.12500000000E+03  0.12500000000E+03 0.  0.
        -11    1    1    0    0    0  0.29677064273E+02 -0.39579232450E+02  0.29661765847E+01  0.49558470406E+02  0.51100000000E-03 0.  1.
         11    1    1    0    0    0  0.92983702347E+01 -0.25138763850E+01  0.12732820347E+02  0.15965712566E+02  0.51100000000E-03 0. -1.
         22    1    1    0    0    0 -0.38975434508E+02  0.42093108835E+02 -0.15698996931E+02  0.59475817028E+02  0.00000000000E+00 0.  1.
</event>
<event>
 4    1  0.1977788E-002  0.9118800E+02  0.7818608E-02  0.1130116E+00
         25   -1    0    0    0    0  0.00000000000E+00  0.00000000000E+00  0.99999998245E-14  0.12500000000E+03  0.12500000000E+03 0.  0.
        -11    1    1    0    0    0 -0.30187703092E+02  0.36114830002E+02 -0.39669660009E+02  0.61556967839E+02  0.51100000000E-03 0.  1.
         11    1    1    0    0    0 -0.40963160762E+00  0.67695994671E+00 -0.52492267477E+00  0.94953509625E+00  0.51100000000E-03 0. -1.
         22    1    1    0    0    0  0.30597334700E+02 -0.36791789948E+02  0.40194582684E+02  0.62493497065E+02  0.00000000000E+00 0.  1.
</event>
<event>
 4    1  0.1977788E-002  0.9118800E+02  0.7818608E-02  0.1130116E+00
         25   -1    0    0    0    0  0.00000000000E+00  0.00000000000E+00  0.99999998245E-14  0.12500000000E+03  0.12500000000E+03 0.  0.
        -11    1    1    0    0    0  0.31583035274E+01 -0.41285451421E+01 -0.17156239263E+01  0.54738589568E+01  0.51100000000E-03 0.  1.
         11    1    1    0    0    0  0.32940567444E+02 -0.42588672279E+02 -0.18792275759E+02  0.57026534337E+02  0.51100000000E-03 0. -1.
         22    1    1    0    0    0 -0.36098870971E+02  0.46717217421E+02  0.20507899685E+02  0.62499606706E+02  0.00000000000E+00 0. -1.
</event>
<event>
 4    1  0.1977788E-002  0.9118800E+02  0.7818608E-02  0.1130116E+00
         25   -1    0    0    0    0  0.00000000000E+00  0.00000000000E+00  0.99999998245E-14  0.12500000000E+03  0.12500000000E+03 0.  0.
        -11    1    1    0    0    0  0.25359973173E+00 -0.24753441989E+02  0.20928472970E+02  0.32416017402E+02  0.51100000000E-03 0. -1.
         11    1    1    0    0    0  0.22974342267E+00 -0.22995890674E+02  0.19395426840E+02  0.30083988308E+02  0.51100000000E-03 0.  1.
         22    1    1    0    0    0 -0.48334315440E+00  0.47749332663E+02 -0.40323899810E+02  0.62499994290E+02  0.00000000000E+00 0. -1.
</event>
<event>
 4    1  0.1977788E-002  0.9118800E+02  0.7818608E-02  0.1130116E+00
         25   -1    0    0    0    0  0.00000000000E+00  0.00000000000E+00  0.99999998245E-14  0.12500000000E+03  0.12500000000E+03 0.  0.
        -11    1    1    0    0    0  0.15795282492E+02  0.87884399837E+01  0.42186957574E+01  0.18561385199E+02  0.51100000000E-03 0. -1.
         11    1    1    0    0    0  0.37394906842E+02  0.20801140443E+02  0.99767423256E+01  0.43938615012E+02  0.51100000000E-03 0.  1.
         22    1    1    0    0    0 -0.53190189334E+02 -0.29589580427E+02 -0.14195438083E+02  0.62499999789E+02  0.00000000000E+00 0. -1.
</event>
<event>
 4    1  0.1977788E-002  0.9118800E+02  0.7818608E-02  0.1130116E+00
         25   -1    0    0    0    0  0.00000000000E+00  0.00000000000E+00  0.99999998245E-14  0.12500000000E+03  0.12500000000E+03 0.  0.
        -11    1    1    0    0    0 -0.31068186376E+01 -0.32088330686E+01  0.67169039307E+00  0.45166469814E+01  0.51100000000E-03 0.  1.
         11    1    1    0    0    0 -0.32255746695E+02 -0.44078164815E+02  0.19635170766E+02  0.58041861958E+02  0.51100000000E-03 0. -1.
         22    1    1    0    0    0  0.35362565333E+02  0.47286997883E+02 -0.20306861159E+02  0.62441491061E+02  0.00000000000E+00 0. -1.
</event>
<event>
 4    1  0.1977788E-002  0.9118800E+02  0.7818608E-02  0.1130116E+00
         25   -1    0    0    0    0  0.00000000000E+00  0.00000000000E+00  0.99999998245E-14  0.12500000000E+03  0.12500000000E+03 0.  0.
        -11    1    1    0    0    0 -0.76675723262E+00 -0.79740463913E+00  0.39519572813E+00  0.11747130445E+01  0.51100000000E-03 0.  1.
         11    1    1    0    0    0 -0.44980101114E+02 -0.39322942059E+02  0.13856380724E+02  0.61331089632E+02  0.51100000000E-03 0. -1.
         22    1    1    0    0    0  0.45746858346E+02  0.40120346698E+02 -0.14251576452E+02  0.62494197324E+02  0.00000000000E+00 0. -1.
</event>
<event>
 4    1  0.1977788E-002  0.9118800E+02  0.7818608E-02  0.1130116E+00
         25   -1    0    0    0    0  0.00000000000E+00  0.00000000000E+00  0.99999998245E-14  0.12500000000E+03  0.12500000000E+03 0.  0.
        -11    1    1    0    0    0 -0.14093193096E+02  0.79990322947E+01  0.30419902552E+02  0.34466985375E+02  0.51100000000E-03 0.  1.
         11    1    1    0    0    0 -0.11461695020E+02  0.65062384426E+01  0.24741631267E+02  0.28033014633E+02  0.51100000000E-03 0. -1.
         22    1    1    0    0    0  0.25554888116E+02 -0.14505270737E+02 -0.55161533819E+02  0.62499999992E+02  0.00000000000E+00 0. -1.
</event>
<event>
 4    1  0.1977788E-002  0.9118800E+02  0.7818608E-02  0.1130116E+00
         25   -1    0    0    0    0  0.00000000000E+00  0.00000000000E+00  0.99999998245E-14  0.12500000000E+03  0.12500000000E+03 0.  0.
        -11    1    1    0    0    0  0.16240489932E+02  0.11747245246E+02 -0.71812120598E+00  0.20056594488E+02  0.51100000000E-03 0. -1.
         11    1    1    0    0    0  0.40173446930E+02 -0.19691344518E+02 -0.12512737278E+02  0.46456683928E+02  0.51100000000E-03 0.  1.
         22    1    1    0    0    0 -0.56413936862E+02  0.79440992722E+01  0.13230858484E+02  0.58486721585E+02  0.00000000000E+00 0. -1.
</event>
<event>
 4    1  0.1977788E-002  0.9118800E+02  0.7818608E-02  0.1130116E+00
         25   -1    0    0    0    0  0.00000000000E+00  0.00000000000E+00  0.99999998245E-14  0.12500000000E+03  0.12500000000E+03 0.  0.
        -11    1    1    0    0    0 -0.17204179498E+02 -0.94323311831E+01 -0.12370953761E+01  0.19659172642E+02  0.51100000000E-03 0.  1.
         11    1    1    0    0    0 -0.30365733536E+02 -0.41872198583E+01 -0.33099463802E+02  0.45113025697E+02  0.51100000000E-03 0. -1.
         22    1    1    0    0    0  0.47569913034E+02  0.13619551041E+02  0.34336559178E+02  0.60227801660E+02  0.00000000000E+00 0. -1.
</event>
<event>
 4    1  0.1977788E-002  0.9118800E+02  0.7818608E-02  0.1130116E+00
         25   -1    0    0    0    0  0.00000000000E+00  0.00000000000E+00  0.99999998245E-14  0.12500000000E+03  0.12500000000E+03 0.  0.
        -11    1    1    0    0    0 -0.21558300757E+02  0.44312982368E+01  0.41710706678E+01  0.22400771558E+02  0.51100000000E-03 0.  1.
         11    1    1    0    0    0 -0.38585921254E+02  0.79571720487E+01  0.74671501058E+01  0.40099229881E+02  0.51100000000E-03 0. -1.
         22    1    1    0    0    0  0.60144222012E+02 -0.12388470285E+02 -0.11638220774E+02  0.62499998561E+02  0.00000000000E+00 0. -1.
</event>
<event>
 4    1  0.1977788E-002  0.9118800E+02  0.7818608E-02  0.1130116E+00
         25   -1    0    0    0    0  0.00000000000E+00  0.00000000000E+00  0.99999998245E-14  0.12500000000E+03  0.12500000000E+03 0.  0.
        -11    1    1    0    0    0 -0.15325884072E+02 -0.57631100426E+01  0.92450977186E+01  0.18803403736E+02  0.51100000000E-03 0.  1.
         11    1    1    0    0    0 -0.44594668789E+02  0.67714480673E+01 -0.10263956555E+02  0.46258899660E+02  0.51100000000E-03 0. -1.
         22    1    1    0    0    0  0.59920552862E+02 -0.10083380247E+01  0.10188588364E+01  0.59937696604E+02  0.00000000000E+00 0. -1.
</event>
<event>
 4    1  0.1977788E-002  0.9118800E+02  0.7818608E-02  0.1130116E+00
         25   -1    0    0    0    0  0.00000000000E+00  0.00000000000E+00  0.99999998245E-14  0.12500000000E+03  0.12500000000E+03 0.  0.
        -11    1    1    0    0    0 -0.14711650028E+02  0.75460530463E+01 -0.36923514668E+01  0.16941340641E+02  0.51100000000E-03 0.  1.
         11    1    1    0    0    0  0.22369135266E+02  0.19545429511E+02 -0.43756148186E+02  0.52886695223E+02  0.51100000000E-03 0. -1.
         22    1    1    0    0    0 -0.76574852384E+01 -0.27091482557E+02  0.47448499653E+02  0.55171964136E+02  0.00000000000E+00 0. -1.
</event>
<event>
 4    1  0.1977788E-002  0.9118800E+02  0.7818608E-02  0.1130116E+00
         25   -1    0    0    0    0  0.00000000000E+00  0.00000000000E+00  0.99999998245E-14  0.12500000000E+03  0.12500000000E+03 0.  0.
        -11    1    1    0    0    0  0.15011007362E+02 -0.10038250485E+02 -0.14203366855E+01  0.18113922032E+02  0.51100000000E-03 0.  1.
         11    1    1    0    0    0  0.37070608325E+02 -0.24211560292E+02 -0.31219358337E+01  0.44386666207E+02  0.51100000000E-03 0. -1.
         22    1    1    0    0    0 -0.52081615688E+02  0.34249810776E+02  0.45422725192E+01  0.62499411761E+02  0.00000000000E+00 0.  1.
</event>
<event>
 4    1  0.1977788E-002  0.9118800E+02  0.7818608E-02  0.1130116E+00
         25   -1    0    0    0    0  0.00000000000E+00  0.00000000000E+00  0.99999998245E-14  0.12500000000E+03  0.12500000000E+03 0.  0.
        -11    1    1    0    0    0  0.17153234342E+02 -0.44661228378E-03  0.27200811570E+02  0.32157698906E+02  0.51100000000E-03 0.  1.
         11    1    1    0    0    0  0.16388342307E+02 -0.81460599223E+01  0.24559618495E+02  0.30628596388E+02  0.51100000000E-03 0. -1.
         22    1    1    0    0    0 -0.33541576649E+02  0.81465065346E+01 -0.51760430065E+02  0.62213704706E+02  0.00000000000E+00 0.  1.
</event>
<event>
 4    1  0.1977788E-002  0.9118800E+02  0.7818608E-02  0.1130116E+00
         25   -1    0    0    0    0  0.00000000000E+00  0.00000000000E+00  0.99999998245E-14  0.12500000000E+03  0.12500000000E+03 0.  0.
        -11    1    1    0    0    0 -0.15417460113E+00  0.16414517068E+01 -0.32337967205E-01  0.16489934865E+01  0.51100000000E-03 0.  1.
         11    1    1    0    0    0 -0.76940134988E+01  0.60361599758E+02  0.46283544853E+00  0.60851744314E+02  0.51100000000E-03 0. -1.
         22    1    1    0    0    0  0.78481880999E+01 -0.62003051465E+02 -0.43049748132E+00  0.62499262200E+02  0.00000000000E+00 0. -1.
</event>
<event>
 4    1  0.1977788E-002  0.9118800E+02  0.7818608E-02  0.1130116E+00
         25   -1    0    0    0    0  0.00000000000E+00  0.00000000000E+00  0.99999998245E-14  0.12500000000E+03  0.12500000000E+03 0.  0.
        -11    1    1    0    0    0 -0.39958425673E+01  0.12410813079E+01  0.32793982665E+01  0.53161540504E+01  0.51100000000E-03 0. -1.
         11    1    1    0    0    0 -0.45633223378E+02  0.11222453012E+02  0.32595316716E+02  0.57190813943E+02  0.51100000000E-03 0.  1.
         22    1    1    0    0    0  0.49629065945E+02 -0.12463534319E+02 -0.35874714982E+02  0.62493032006E+02  0.00000000000E+00 0.  1.
</event>
<event>
 4    1  0.1977788E-002  0.9118800E+02  0.7818608E-02  0.1130116E+00
         25   -1    0    0    0    0  0.00000000000E+00  0.00000000000E+00  0.99999998245E-14  0.12500000000E+03  0.12500000000E+03 0.  0.
        -11    1    1    0    0    0 -0.25480016136E+02  0.40002198977E+01  0.41723885472E+02  0.49052172232E+02  0.51100000000E-03 0.  1.
         11    1    1    0    0    0 -0.70423519818E+01  0.10721445295E+01  0.11406216679E+02  0.13447899260E+02  0.51100000000E-03 0. -1.
         22    1    1    0    0    0  0.32522368118E+02 -0.50723644272E+01 -0.53130102151E+02  0.62499928508E+02  0.00000000000E+00 0.  1.
</event>
<event>
 4    1  0.1977788E-002  0.9118800E+02  0.7818608E-02  0.1130116E+00
         25   -1    0    0    0    0  0.00000000000E+00  0.00000000000E+00  0.99999998245E-14  0.12500000000E+03  0.12500000000E+03 0.  0.
        -11    1    1    0    0    0 -0.20646211115E+02 -0.39278136480E+02 -0.91565599755E+01  0.45308725756E+02  0.51100000000E-03 0. -1.
         11    1    1    0    0    0 -0.82090812828E+01 -0.13987752801E+02 -0.59173858268E+01  0.17264463479E+02  0.51100000000E-03 0.  1.
         22    1    1    0    0    0  0.28855292398E+02  0.53265889281E+02  0.15073945802E+02  0.62426810765E+02  0.00000000000E+00 0. -1.
</event>
<event>
 4    1  0.1977788E-002  0.9118800E+02  0.7818608E-02  0.1130116E+00
         25   -1    0    0    0    0  0.00000000000E+00  0.00000000000E+00  0.99999998245E-14  0.12500000000E+03  0.12500000000E+03 0.  0.
        -11    1    1    0    0    0  0.38662364825E+02  0.26860237270E+02  0.21310853317E+02  0.51675944785E+02  0.51100000000E-03 0.  1.
         11    1    1    0    0    0  0.80732218312E+01  0.55983915334E+01  0.45436202843E+01  0.10824203622E+02  0.51100000000E-03 0. -1.
         22    1    1    0    0    0 -0.46735586656E+02 -0.32458628804E+02 -0.25854473602E+02  0.62499851593E+02  0.00000000000E+00 0.  1.
</event>
<event>
 4    1  0.1977788E-002  0.9118800E+02  0.7818608E-02  0.1130116E+00
         25   -1    0    0    0    0  0.00000000000E+00  0.00000000000E+00  0.99999998245E-14  0.12500000000E+03  0.12500000000E+03 0.  0.
        -11    1    1    0    0    0 -0.34742251017E+02 -0.21825504708E+02 -0.83669356677E+01  0.41873407722E+02  0.51100000000E-03 0.  1.
         11    1    1    0    0    0 -0.17111645462E+02 -0.10754795781E+02 -0.41209552870E+01  0.20626592434E+02  0.51100000000E-03 0. -1.
         22    1    1    0    0    0  0.51853896479E+02  0.32580300489E+02  0.12487890955E+02  0.62499999844E+02  0.00000000000E+00 0. -1.
</event>
<event>
 4    1  0.1977788E-002  0.9118800E+02  0.7818608E-02  0.1130116E+00
         25   -1    0    0    0    0  0.00000000000E+00  0.00000000000E+00  0.99999998245E-14  0.12500000000E+03  0.12500000000E+03 0.  0.
        -11    1    1    0    0    0 -0.64522201870E+01  0.35860324686E+02  0.43418110486E+02  0.56680916986E+02  0.51100000000E-03 0.  1.
         11    1    1    0    0    0 -0.70626269693E+00  0.36478399843E+01  0.44785905494E+01  0.58192196314E+01  0.51100000000E-03 0. -1.
         22    1    1    0    0    0  0.71584828839E+01 -0.39508164670E+02 -0.47896701035E+02  0.62499863383E+02  0.00000000000E+00 0.  1.
</event>
<event>
 4    1  0.1977788E-002  0.9118800E+02  0.7818608E-02  0.1130116E+00
         25   -1    0    0    0    0  0.00000000000E+00  0.00000000000E+00  0.99999998245E-14  0.12500000000E+03  0.12500000000E+03 0.  0.
        -11    1    1    0    0    0  0.48395929770E+02 -0.31289296711E+02 -0.13864265392E+02  0.59273973733E+02  0.51100000000E-03 0.  1.
         11    1    1    0    0    0  0.27749091655E+01 -0.13585557578E+01 -0.97478320604E+00  0.32397526424E+01  0.51100000000E-03 0. -1.
         22    1    1    0    0    0 -0.51170838935E+02  0.32647852469E+02  0.14839048598E+02  0.62486273625E+02  0.00000000000E+00 0.  1.
</event>
<event>
 4    1  0.1977788E-002  0.9118800E+02  0.7818608E-02  0.1130116E+00
         25   -1    0    0    0    0  0.00000000000E+00  0.00000000000E+00  0.99999998245E-14  0.12500000000E+03  0.12500000000E+03 0.  0.
        -11    1    1    0    0    0 -0.19824590369E+00 -0.71034804731E+00  0.65572323244E+00  0.98684801532E+00  0.51100000000E-03 0.  1.
         11    1    1    0    0    0 -0.12447191587E+02 -0.44281440796E+02  0.40842249806E+02  0.61513152633E+02  0.51100000000E-03 0.  1.
         22    1    1    0    0    0  0.12645437491E+02  0.44991788844E+02 -0.41497973038E+02  0.62499999352E+02  0.00000000000E+00 0.  1.
</event>
<event>
 4    1  0.1977788E-002  0.9118800E+02  0.7818608E-02  0.1130116E+00
         25   -1    0    0    0    0  0.00000000000E+00  0.00000000000E+00  0.99999998245E-14  0.12500000000E+03  0.12500000000E+03 0.  0.
        -11    1    1    0    0    0 -0.16228810853E+02 -0.32012375714E+02 -0.50861349011E+02  0.62249845976E+02  0.51100000000E-03 0.  1.
         11    1    1    0    0    0  0.13094910197E+01  0.78094972690E+00  0.43043897370E+00  0.15842749691E+01  0.51100000000E-03 0. -1.
         22    1    1    0    0    0  0.14919319833E+02  0.31231425987E+02  0.50430910037E+02  0.61165879055E+02  0.00000000000E+00 0.  1.
</event>
<event>
 4    1  0.1977788E-002  0.9118800E+02  0.7818608E-02  0.1130116E+00
         25   -1    0    0    0    0  0.00000000000E+00  0.00000000000E+00  0.99999998245E-14  0.12500000000E+03  0.12500000000E+03 0.  0.
        -11    1    1    0    0    0 -0.20313557766E+02  0.45669915251E+02 -0.24579016347E+02  0.55700178033E+02  0.51100000000E-03 0. -1.
         11    1    1    0    0    0 -0.24837855805E+01  0.55735367624E+01 -0.30006806117E+01  0.67998225893E+01  0.51100000000E-03 0.  1.
         22    1    1    0    0    0  0.22797343346E+02 -0.51243452013E+02  0.27579696958E+02  0.62499999377E+02  0.00000000000E+00 0. -1.
</event>
<event>
 4    1  0.1977788E-002  0.9118800E+02  0.7818608E-02  0.1130116E+00
         25   -1    0    0    0    0  0.00000000000E+00  0.00000000000E+00  0.99999998245E-14  0.12500000000E+03  0.12500000000E+03 0.  0.
        -11    1    1    0    0    0  0.89909222850E+01  0.94670014016E+01  0.32265885645E+01  0.13448853970E+02  0.51100000000E-03 0. -1.
         11    1    1    0    0    0  0.33677258123E+02  0.33377804109E+02  0.12572821048E+02  0.49054167522E+02  0.51100000000E-03 0.  1.
         22    1    1    0    0    0 -0.42668180408E+02 -0.42844805511E+02 -0.15799409612E+02  0.62496978509E+02  0.00000000000E+00 0.  1.
</event>
<event>
 4    1  0.1977788E-002  0.9118800E+02  0.7818608E-02  0.1130116E+00
         25   -1    0    0    0    0  0.00000000000E+00  0.00000000000E+00  0.99999998245E-14  0.12500000000E+03  0.12500000000E+03 0.  0.
        -11    1    1    0    0    0 -0.68033451555E+01  0.15943217326E+01 -0.39981717824E+01  0.80506363074E+01  0.51100000000E-03 0. -1.
         11    1    1    0    0    0 -0.46026534413E+02  0.10957126769E+02 -0.26948751799E+02  0.54449386782E+02  0.51100000000E-03 0.  1.
         22    1    1    0    0    0  0.52829879569E+02 -0.12551448502E+02  0.30946923581E+02  0.62499976911E+02  0.00000000000E+00 0.  1.
</event>
<event>
 4    1  0.1977788E-002  0.9118800E+02  0.7818608E-02  0.1130116E+00
         25   -1    0    0    0    0  0.00000000000E+00  0.00000000000E+00  0.99999998245E-14  0.12500000000E+03  0.12500000000E+03 0.  0.
        -11    1    1    0    0    0 -0.51652844751E+01  0.22395542439E+02 -0.33193542442E+02  0.40373899304E+02  0.51100000000E-03 0. -1.
         11    1    1    0    0    0 -0.35487783891E+01  0.13017207950E+02 -0.17549952900E+02  0.22136900820E+02  0.51100000000E-03 0.  1.
         22    1    1    0    0    0  0.87140628642E+01 -0.35412750389E+02  0.50743495342E+02  0.62489199877E+02  0.00000000000E+00 0. -1.
</event>
<event>
 4    1  0.1977788E-002  0.9118800E+02  0.7818608E-02  0.1130116E+00
         25   -1    0    0    0    0  0.00000000000E+00  0.00000000000E+00  0.99999998245E-14  0.12500000000E+03  0.12500000000E+03 0.  0.
        -11    1    1    0    0    0 -0.17756551571E+01  0.24463802984E+00  0.13414300579E+01  0.22388018813E+01  0.51100000000E-03 0.  1.
         11    1    1    0    0    0 -0.48095721775E+02  0.67528505891E+01  0.35673772511E+02  0.60261243677E+02  0.51100000000E-03 0. -1.
         22    1    1    0    0    0  0.49871376932E+02 -0.69974886190E+01 -0.37015202568E+02  0.62499954442E+02  0.00000000000E+00 0. -1.
</event>
<event>
 4    1  0.1977788E-002  0.9118800E+02  0.7818608E-02  0.1130116E+00
         25   -1    0    0    0    0  0.00000000000E+00  0.00000000000E+00  0.99999998245E-14  0.12500000000E+03  0.12500000000E+03 0.  0.
        -11    1    1    0    0    0 -0.15096493937E+02  0.27989875802E+02  0.35303805293E+01  0.31996888342E+02  0.51100000000E-03 0.  1.
         11    1    1    0    0    0 -0.14394116295E+02  0.26681768824E+02  0.33663706676E+01  0.30503111698E+02  0.51100000000E-03 0. -1.
         22    1    1    0    0    0  0.29490610232E+02 -0.54671644627E+02 -0.68967511969E+01  0.62499999961E+02  0.00000000000E+00 0.  1.
</event>
<event>
 4    1  0.1977788E-002  0.9118800E+02  0.7818608E-02  0.1130116E+00
         25   -1    0    0    0    0  0.00000000000E+00  0.00000000000E+00  0.99999998245E-14  0.12500000000E+03  0.12500000000E+03 0.  0.
        -11    1    1    0    0    0 -0.25881585020E+02  0.20249728989E+01 -0.40465718495E+00  0.25963834580E+02  0.51100000000E-03 0.  1.
         11    1    1    0    0    0 -0.36082676159E+02 -0.57790135050E+01 -0.42246339750E+01  0.36785921878E+02  0.51100000000E-03 0. -1.
         22    1    1    0    0    0  0.61964261180E+02  0.37540406061E+01  0.46292911599E+01  0.62250243542E+02  0.00000000000E+00 0. -1.
</event>
<event>
 4    1  0.1977788E-002  0.9118800E+02  0.7818608E-02  0.1130116E+00
         25   -1    0    0    0    0  0.00000000000E+00  0.00000000000E+00  0.99999998245E-14  0.12500000000E+03  0.12500000000E+03 0.  0.
        -11    1    1    0    0    0 -0.41110242560E+00  0.87280187898E+00  0.48159193573E+01  0.49116054240E+01  0.51100000000E-03 0. -1.
         11    1    1    0    0    0 -0.33333407362E+01  0.10814869551E+02  0.56466368465E+02  0.57589264032E+02  0.51100000000E-03 0.  1.
         22    1    1    0    0    0  0.37444431618E+01 -0.11687671430E+02 -0.61282287822E+02  0.62499130544E+02  0.00000000000E+00 0.  1.
</event>
<event>
 4    1  0.1977788E-002  0.9118800E+02  0.7818608E-02  0.1130116E+00
         25   -1    0    0    0    0  0.00000000000E+00  0.00000000000E+00  0.99999998245E-14  0.12500000000E+03  0.12500000000E+03 0.  0.
        -11    1    1    0    0    0  0.26418428496E+02  0.10753183233E+02  0.27151265713E+02  0.39379633618E+02  0.51100000000E-03 0.  1.
         11    1    1    0    0    0  0.10070817492E+02  0.12737349260E+02  0.17141543362E+02  0.23611309583E+02  0.51100000000E-03 0. -1.
         22    1    1    0    0    0 -0.36489245987E+02 -0.23490532493E+02 -0.44292809074E+02  0.62009056800E+02  0.00000000000E+00 0.  1.
</event>
<event>
 4    1  0.1977788E-002  0.9118800E+02  0.7818608E-02  0.1130116E+00
         25   -1    0    0    0    0  0.00000000000E+00  0.00000000000E+00  0.99999998245E-14  0.12500000000E+03  0.12500000000E+03 0.  0.
        -11    1    1    0    0    0 -0.12512239642E+02 -0.61190941157E+01  0.72160941747E+01  0.15686665326E+02  0.51100000000E-03 0. -1.
         11    1    1    0    0    0 -0.36412675871E+02 -0.16981222321E+02  0.24048913098E+02  0.46825154533E+02  0.51100000000E-03 0.  1.
         22    1    1    0    0    0  0.48924915513E+02  0.23100316437E+02 -0.31265007273E+02  0.62488180140E+02  0.00000000000E+00 0.  1.
</event>
<event>
 4    1  0.1977788E-002  0.9118800E+02  0.7818608E-02  0.1130116E+00
         25   -1    0    0    0    0  0.00000000000E+00  0.00000000000E+00  0.99999998245E-14  0.12500000000E+03  0.12500000000E+03 0.  0.
        -11    1    1    0    0    0 -0.42554885466E+02 -0.13727506652E+01  0.36958851144E+02  0.56380487756E+02  0.51100000000E-03 0. -1.
         11    1    1    0    0    0 -0.48545807423E+01 -0.16067401040E+01  0.35208408638E+01  0.62084529953E+01  0.51100000000E-03 0.  1.
         22    1    1    0    0    0  0.47409466209E+02  0.29794907692E+01 -0.40479692008E+02  0.62411059249E+02  0.00000000000E+00 0. -1.
</event>
<event>
 4    1  0.1977788E-002  0.9118800E+02  0.7818608E-02  0.1130116E+00
         25   -1    0    0    0    0  0.00000000000E+00  0.00000000000E+00  0.99999998245E-14  0.12500000000E+03  0.12500000000E+03 0.  0.
        -11    1    1    0    0    0  0.51899188461E+00  0.33064255249E+01 -0.18056142172E+02  0.18363716202E+02  0.51100000000E-03 0.  1.
         11    1    1    0    0    0  0.11587217769E+01  0.80694181343E+01 -0.43376915800E+02  0.44136322567E+02  0.51100000000E-03 0. -1.
         22    1    1    0    0    0 -0.16777136615E+01 -0.11375843659E+02  0.61433057972E+02  0.62499961231E+02  0.00000000000E+00 0. -1.
</event>
<event>
 4    1  0.1977788E-002  0.9118800E+02  0.7818608E-02  0.1130116E+00
         25   -1    0    0    0    0  0.00000000000E+00  0.00000000000E+00  0.99999998245E-14  0.12500000000E+03  0.12500000000E+03 0.  0.
        -11    1    1    0    0    0  0.39734822589E+00 -0.15720222252E+01 -0.22370727620E+01  0.27629032362E+01  0.51100000000E-03 0. -1.
         11    1    1    0    0    0  0.87670723142E+01 -0.33866768679E+02 -0.48422125453E+02  0.59737105817E+02  0.51100000000E-03 0.  1.
         22    1    1    0    0    0 -0.91644205401E+01  0.35438790904E+02  0.50659198215E+02  0.62499990947E+02  0.00000000000E+00 0.  1.
</event>
<event>
 4    1  0.1977788E-002  0.9118800E+02  0.7818608E-02  0.1130116E+00
         25   -1    0    0    0    0  0.00000000000E+00  0.00000000000E+00  0.99999998245E-14  0.12500000000E+03  0.12500000000E+03 0.  0.
        -11    1    1    0    0    0 -0.29452536123E+01 -0.61555989132E+01 -0.51856672854E+01  0.85707095550E+01  0.51100000000E-03 0. -1.
         11    1    1    0    0    0 -0.18805925296E+02 -0.38782428657E+02 -0.32413535341E+02  0.53929369293E+02  0.51100000000E-03 0.  1.
         22    1    1    0    0    0  0.21751178908E+02  0.44938027570E+02  0.37599202627E+02  0.62499921152E+02  0.00000000000E+00 0.  1.
</event>
<event>
 4    1  0.1977788E-002  0.9118800E+02  0.7818608E-02  0.1130116E+00
         25   -1    0    0    0    0  0.00000000000E+00  0.00000000000E+00  0.99999998245E-14  0.12500000000E+03  0.12500000000E+03 0.  0.
        -11    1    1    0    0    0 -0.30085273250E+02 -0.67127265701E+01 -0.31312746404E+02  0.43939417977E+02  0.51100000000E-03 0. -1.
         11    1    1    0    0    0 -0.12708111780E+02 -0.28336421024E+01 -0.13227606504E+02  0.18560582067E+02  0.51100000000E-03 0.  1.
         22    1    1    0    0    0  0.42793385031E+02  0.95463686724E+01  0.44540352908E+02  0.62499999955E+02  0.00000000000E+00 0. -1.
</event>
<event>
 4    1  0.1977788E-002  0.9118800E+02  0.7818608E-02  0.1130116E+00
         25   -1    0    0    0    0  0.00000000000E+00  0.00000000000E+00  0.99999998245E-14  0.12500000000E+03  0.12500000000E+03 0.  0.
        -11    1    1    0    0    0  0.44762512534E+02  0.28549596853E+02 -0.25027709132E+02  0.58695385112E+02  0.51100000000E-03 0. -1.
         11    1    1    0    0    0 -0.27910459179E+02 -0.19456453566E+01  0.35885826569E+01  0.28207396072E+02  0.51100000000E-03 0.  1.
         22    1    1    0    0    0 -0.16852053355E+02 -0.26603951496E+02  0.21439126475E+02  0.38097218816E+02  0.00000000000E+00 0. -1.
</event>
<event>
 4    1  0.1977788E-002  0.9118800E+02  0.7818608E-02  0.1130116E+00
         25   -1    0    0    0    0  0.00000000000E+00  0.00000000000E+00  0.99999998245E-14  0.12500000000E+03  0.12500000000E+03 0.  0.
        -11    1    1    0    0    0  0.29117447485E+02 -0.13409558880E+02 -0.13388343997E+02  0.34740319121E+02  0.51100000000E-03 0.  1.
         11    1    1    0    0    0  0.25125226522E+02 -0.13679564924E+02  0.33447781223E+01  0.28802691632E+02  0.51100000000E-03 0. -1.
         22    1    1    0    0    0 -0.54242674007E+02  0.27089123803E+02  0.10043565874E+02  0.61456989247E+02  0.00000000000E+00 0. -1.
</event>
<event>
 4    1  0.1977788E-002  0.9118800E+02  0.7818608E-02  0.1130116E+00
         25   -1    0    0    0    0  0.00000000000E+00  0.00000000000E+00  0.99999998245E-14  0.12500000000E+03  0.12500000000E+03 0.  0.
        -11    1    1    0    0    0  0.11174915237E+02 -0.23948503282E+02  0.56080166677E+01  0.27015909965E+02  0.51100000000E-03 0.  1.
         11    1    1    0    0    0  0.14682111892E+02 -0.31451561066E+02  0.73726222950E+01  0.35484090278E+02  0.51100000000E-03 0. -1.
         22    1    1    0    0    0 -0.25857027129E+02  0.55400064348E+02 -0.12980638963E+02  0.62499999757E+02  0.00000000000E+00 0. -1.
</event>
<event>
 4    1  0.1977788E-002  0.9118800E+02  0.7818608E-02  0.1130116E+00
         25   -1    0    0    0    0  0.00000000000E+00  0.00000000000E+00  0.99999998245E-14  0.12500000000E+03  0.12500000000E+03 0.  0.
        -11    1    1    0    0    0  0.12351031076E+01 -0.33311334699E+02 -0.38419593910E+02  0.50864876837E+02  0.51100000000E-03 0.  1.
         11    1    1    0    0    0 -0.16913791626E+02  0.12935596568E+02 -0.65989850432E+01  0.22292433909E+02  0.51100000000E-03 0. -1.
         22    1    1    0    0    0  0.15678688519E+02  0.20375738131E+02  0.45018578954E+02  0.51842689254E+02  0.00000000000E+00 0.  1.
</event>
<event>
 4    1  0.1977788E-002  0.9118800E+02  0.7818608E-02  0.1130116E+00
         25   -1    0    0    0    0  0.00000000000E+00  0.00000000000E+00  0.99999998245E-14  0.12500000000E+03  0.12500000000E+03 0.  0.
        -11    1    1    0    0    0 -0.23176637586E+02  0.19922941671E+02 -0.18008698630E+02  0.35473840520E+02  0.51100000000E-03 0.  1.
         11    1    1    0    0    0 -0.18010791463E+02  0.15413635727E+02 -0.12986470503E+02  0.27029931407E+02  0.51100000000E-03 0. -1.
         22    1    1    0    0    0  0.41187429049E+02 -0.35336577398E+02  0.30995169133E+02  0.62496228074E+02  0.00000000000E+00 0.  1.
</event>
<event>
 4    1  0.1977788E-002  0.9118800E+02  0.7818608E-02  0.1130116E+00
         25   -1    0    0    0    0  0.00000000000E+00  0.00000000000E+00  0.99999998245E-14  0.12500000000E+03  0.12500000000E+03 0.  0.
        -11    1    1    0    0    0 -0.19717454219E+01  0.75134295378E+01  0.68618881681E+01  0.10364599024E+02  0.51100000000E-03 0.  1.
         11    1    1    0    0    0  0.26352578474E+02  0.30660982913E+02  0.34611101628E+02  0.53221073097E+02  0.51100000000E-03 0. -1.
         22    1    1    0    0    0 -0.24380833052E+02 -0.38174412451E+02 -0.41472989796E+02  0.61414327880E+02  0.00000000000E+00 0. -1.
</event>
<event>
 4    1  0.1977788E-002  0.9118800E+02  0.7818608E-02  0.1130116E+00
         25   -1    0    0    0    0  0.00000000000E+00  0.00000000000E+00  0.99999998245E-14  0.12500000000E+03  0.12500000000E+03 0.  0.
        -11    1    1    0    0    0 -0.59495151378E+01 -0.40640280266E+02 -0.15079518450E+02  0.43754096807E+02  0.51100000000E-03 0. -1.
         11    1    1    0    0    0  0.30440055759E+01 -0.18224885289E+02 -0.47226683698E+01  0.19071340030E+02  0.51100000000E-03 0.  1.
         22    1    1    0    0    0  0.29055095619E+01  0.58865165555E+02  0.19802186820E+02  0.62174563163E+02  0.00000000000E+00 0. -1.
</event>
<event>
 4    1  0.1977788E-002  0.9118800E+02  0.7818608E-02  0.1130116E+00
         25   -1    0    0    0    0  0.00000000000E+00  0.00000000000E+00  0.99999998245E-14  0.12500000000E+03  0.12500000000E+03 0.  0.
        -11    1    1    0    0    0  0.35786894927E+02 -0.32537175154E+02  0.31859068234E+02  0.57916921919E+02  0.51100000000E-03 0. -1.
         11    1    1    0    0    0  0.25209064172E+01 -0.27092825175E+01  0.27166859429E+01  0.45908129669E+01  0.51100000000E-03 0.  1.
         22    1    1    0    0    0 -0.38307801345E+02  0.35246457671E+02 -0.34575754177E+02  0.62492265114E+02  0.00000000000E+00 0. -1.
</event>
<event>
 4    1  0.1977788E-002  0.9118800E+02  0.7818608E-02  0.1130116E+00
         25   -1    0    0    0    0  0.00000000000E+00  0.00000000000E+00  0.99999998245E-14  0.12500000000E+03  0.12500000000E+03 0.  0.
        -11    1    1    0    0    0  0.22253555174E+02  0.12646943633E+01  0.10792512919E+02  0.24764864326E+02  0.51100000000E-03 0. -1.
         11    1    1    0    0    0  0.32522262321E+02  0.39448672826E+00  0.19194583504E+02  0.37766191261E+02  0.51100000000E-03 0.  1.
         22    1    1    0    0    0 -0.54775817495E+02 -0.16591810916E+01 -0.29987096423E+02  0.62468944413E+02  0.00000000000E+00 0. -1.
</event>
<event>
 4    1  0.1977788E-002  0.9118800E+02  0.7818608E-02  0.1130116E+00
         25   -1    0    0    0    0  0.00000000000E+00  0.00000000000E+00  0.99999998245E-14  0.12500000000E+03  0.12500000000E+03 0.  0.
        -11    1    1    0    0    0 -0.12059177574E+02 -0.25532391584E+02  0.15560830370E+02  0.32240754114E+02  0.51100000000E-03 0. -1.
         11    1    1    0    0    0 -0.11249327292E+02 -0.24027669399E+02  0.14551587937E+02  0.30259295646E+02  0.51100000000E-03 0.  1.
         22    1    1    0    0    0  0.23308504866E+02  0.49560060983E+02 -0.30112418307E+02  0.62499950240E+02  0.00000000000E+00 0.  1.
</event>
<event>
 4    1  0.1977788E-002  0.9118800E+02  0.7818608E-02  0.1130116E+00
         25   -1    0    0    0    0  0.00000000000E+00  0.00000000000E+00  0.99999998245E-14  0.12500000000E+03  0.12500000000E+03 0.  0.
        -11    1    1    0    0    0  0.46185637184E+01  0.10916437391E+02  0.23483137255E+01  0.12083638266E+02  0.51100000000E-03 0.  1.
         11    1    1    0    0    0  0.19256806400E+02  0.45555698588E+02  0.97807626190E+01  0.50416362267E+02  0.51100000000E-03 0. -1.
         22    1    1    0    0    0 -0.23875370118E+02 -0.56472135979E+02 -0.12129076344E+02  0.62499999467E+02  0.00000000000E+00 0. -1.
</event>
<event>
 4    1  0.1977788E-002  0.9118800E+02  0.7818608E-02  0.1130116E+00
         25   -1    0    0    0    0  0.00000000000E+00  0.00000000000E+00  0.99999998245E-14  0.12500000000E+03  0.12500000000E+03 0.  0.
        -11    1    1    0    0    0 -0.20668675727E+02 -0.35816728951E+02  0.15703745498E+01  0.41382342920E+02  0.51100000000E-03 0. -1.
         11    1    1    0    0    0 -0.51737318993E+00 -0.19069396285E+02 -0.13777533437E+02  0.23531467816E+02  0.51100000000E-03 0.  1.
         22    1    1    0    0    0  0.21186048917E+02  0.54886125237E+02  0.12207158887E+02  0.60086189264E+02  0.00000000000E+00 0.  1.
</event>
<event>
 4    1  0.1977788E-002  0.9118800E+02  0.7818608E-02  0.1130116E+00
         25   -1    0    0    0    0  0.00000000000E+00  0.00000000000E+00  0.99999998245E-14  0.12500000000E+03  0.12500000000E+03 0.  0.
        -11    1    1    0    0    0  0.12113635167E+02  0.80557139636E+00  0.40490753614E+01  0.12797816759E+02  0.51100000000E-03 0. -1.
         11    1    1    0    0    0  0.47048828594E+02  0.31036624078E+01  0.15718845248E+02  0.49702183942E+02  0.51100000000E-03 0.  1.
         22    1    1    0    0    0 -0.59162463761E+02 -0.39092338042E+01 -0.19767920609E+02  0.62499999300E+02  0.00000000000E+00 0.  1.
</event>
<event>
 4    1  0.1977788E-002  0.9118800E+02  0.7818608E-02  0.1130116E+00
         25   -1    0    0    0    0  0.00000000000E+00  0.00000000000E+00  0.99999998245E-14  0.12500000000E+03  0.12500000000E+03 0.  0.
        -11    1    1    0    0    0  0.49736270072E+01 -0.19226571386E+01 -0.12358307268E+02  0.13459618675E+02  0.51100000000E-03 0.  1.
         11    1    1    0    0    0  0.33590346539E+02 -0.11201061151E+02 -0.34509460305E+02  0.49443685161E+02  0.51100000000E-03 0. -1.
         22    1    1    0    0    0 -0.38563973546E+02  0.13123718289E+02  0.46867767572E+02  0.62096696165E+02  0.00000000000E+00 0.  1.
</event>
<event>
 4    1  0.1977788E-002  0.9118800E+02  0.7818608E-02  0.1130116E+00
         25   -1    0    0    0    0  0.00000000000E+00  0.00000000000E+00  0.99999998245E-14  0.12500000000E+03  0.12500000000E+03 0.  0.
        -11    1    1    0    0    0  0.14014405263E+02  0.41073542430E+02  0.35600997358E+02  0.56132614902E+02  0.51100000000E-03 0. -1.
         11    1    1    0    0    0  0.80767223513E+01  0.37931512329E+01 -0.47862851756E+01  0.10125708186E+02  0.51100000000E-03 0.  1.
         22    1    1    0    0    0 -0.22091127614E+02 -0.44866693663E+02 -0.30814712182E+02  0.58741676912E+02  0.00000000000E+00 0. -1.
</event>
<event>
 4    1  0.1977788E-002  0.9118800E+02  0.7818608E-02  0.1130116E+00
         25   -1    0    0    0    0  0.00000000000E+00  0.00000000000E+00  0.99999998245E-14  0.12500000000E+03  0.12500000000E+03 0.  0.
        -11    1    1    0    0    0 -0.66493684406E+01  0.52042662868E+01 -0.73013020436E+01  0.11162772955E+02  0.51100000000E-03 0. -1.
         11    1    1    0    0    0 -0.20612132530E+02  0.38070969638E+02  0.35001230719E+02  0.55671760245E+02  0.51100000000E-03 0.  1.
         22    1    1    0    0    0  0.27261500971E+02 -0.43275235925E+02 -0.27699928675E+02  0.58165466801E+02  0.00000000000E+00 0.  1.
</event>
<event>
 4    1  0.1977788E-002  0.9118800E+02  0.7818608E-02  0.1130116E+00
         25   -1    0    0    0    0  0.00000000000E+00  0.00000000000E+00  0.99999998245E-14  0.12500000000E+03  0.12500000000E+03 0.  0.
        -11    1    1    0    0    0 -0.71289609689E+01 -0.49119379781E+02  0.47266877726E+01  0.49858571300E+02  0.51100000000E-03 0. -1.
         11    1    1    0    0    0 -0.16648057725E+01 -0.12428538715E+02  0.16270298251E+01  0.12644658128E+02  0.51100000000E-03 0.  1.
         22    1    1    0    0    0  0.87937667414E+01  0.61547918496E+02 -0.63537175978E+01  0.62496770572E+02  0.00000000000E+00 0. -1.
</event>
<event>
 4    1  0.1977788E-002  0.9118800E+02  0.7818608E-02  0.1130116E+00
         25   -1    0    0    0    0  0.00000000000E+00  0.00000000000E+00  0.99999998245E-14  0.12500000000E+03  0.12500000000E+03 0.  0.
        -11    1    1    0    0    0  0.13352140527E+01 -0.95505902926E+01  0.87818334003E+00  0.96833763608E+01  0.51100000000E-03 0.  1.
         11    1    1    0    0    0  0.73707220376E+01 -0.52106027185E+02  0.44985898074E+01  0.52816691707E+02  0.51100000000E-03 0. -1.
         22    1    1    0    0    0 -0.87059360903E+01  0.61656617478E+02 -0.53767731474E+01  0.62499931932E+02  0.00000000000E+00 0. -1.
</event>
<event>
 4    1  0.1977788E-002  0.9118800E+02  0.7818608E-02  0.1130116E+00
         25   -1    0    0    0    0  0.00000000000E+00  0.00000000000E+00  0.99999998245E-14  0.12500000000E+03  0.12500000000E+03 0.  0.
        -11    1    1    0    0    0 -0.38673916392E+02 -0.34297612738E+01 -0.36620201866E+02  0.53371099449E+02  0.51100000000E-03 0. -1.
         11    1    1    0    0    0 -0.55834425844E+01  0.37636574954E+01 -0.68410988708E+01  0.95989886372E+01  0.51100000000E-03 0.  1.
         22    1    1    0    0    0  0.44257358976E+02 -0.33389622163E+00  0.43461300737E+02  0.62029911913E+02  0.00000000000E+00 0. -1.
</event>
<event>
 4    1  0.1977788E-002  0.9118800E+02  0.7818608E-02  0.1130116E+00
         25   -1    0    0    0    0  0.00000000000E+00  0.00000000000E+00  0.99999998245E-14  0.12500000000E+03  0.12500000000E+03 0.  0.
        -11    1    1    0    0    0 -0.19718844009E+02 -0.22628934033E+02  0.39228649995E+01  0.30270287983E+02  0.51100000000E-03 0.  1.
         11    1    1    0    0    0 -0.20908102578E+02 -0.24149612411E+02  0.42903991705E+01  0.32229800780E+02  0.51100000000E-03 0. -1.
         22    1    1    0    0    0  0.40626946586E+02  0.46778546444E+02 -0.82132641699E+01  0.62499911237E+02  0.00000000000E+00 0. -1.
</event>
<event>
 4    1  0.1977788E-002  0.9118800E+02  0.7818608E-02  0.1130116E+00
         25   -1    0    0    0    0  0.00000000000E+00  0.00000000000E+00  0.99999998245E-14  0.12500000000E+03  0.12500000000E+03 0.  0.
        -11    1    1    0    0    0  0.80992543909E+00 -0.41641004275E+01 -0.87999620402E+01  0.97690861270E+01  0.51100000000E-03 0. -1.
         11    1    1    0    0    0  0.43136442447E+01 -0.22585449238E+02 -0.47453562460E+02  0.52730926735E+02  0.51100000000E-03 0.  1.
         22    1    1    0    0    0 -0.51235696838E+01  0.26749549665E+02  0.56253524500E+02  0.62499987138E+02  0.00000000000E+00 0.  1.
</event>
<event>
 4    1  0.1977788E-002  0.9118800E+02  0.7818608E-02  0.1130116E+00
         25   -1    0    0    0    0  0.00000000000E+00  0.00000000000E+00  0.99999998245E-14  0.12500000000E+03  0.12500000000E+03 0.  0.
        -11    1    1    0    0    0  0.99231162725E+00  0.36361608408E+02 -0.14651565543E+02  0.39215043306E+02  0.51100000000E-03 0.  1.
         11    1    1    0    0    0  0.58312886476E+00  0.21589374054E+02 -0.87033391875E+01  0.23284957045E+02  0.51100000000E-03 0. -1.
         22    1    1    0    0    0 -0.15754404920E+01 -0.57950982462E+02  0.23354904731E+02  0.62499999648E+02  0.00000000000E+00 0.  1.
</event>
<event>
 4    1  0.1977788E-002  0.9118800E+02  0.7818608E-02  0.1130116E+00
         25   -1    0    0    0    0  0.00000000000E+00  0.00000000000E+00  0.99999998245E-14  0.12500000000E+03  0.12500000000E+03 0.  0.
        -11    1    1    0    0    0 -0.20239028794E+01 -0.47692780007E+01 -0.47589021479E+02  0.47870211625E+02  0.51100000000E-03 0. -1.
         11    1    1    0    0    0 -0.82428573256E+00 -0.21590022093E+01 -0.14453296565E+02  0.14636888992E+02  0.51100000000E-03 0.  1.
         22    1    1    0    0    0  0.28481886120E+01  0.69282802100E+01  0.62042318043E+02  0.62492899383E+02  0.00000000000E+00 0. -1.
</event>
<event>
 4    1  0.1977788E-002  0.9118800E+02  0.7818608E-02  0.1130116E+00
         25   -1    0    0    0    0  0.00000000000E+00  0.00000000000E+00  0.99999998245E-14  0.12500000000E+03  0.12500000000E+03 0.  0.
        -11    1    1    0    0    0 -0.11366333497E+02  0.30666189446E+02 -0.19937031820E+02  0.38302662445E+02  0.51100000000E-03 0.  1.
         11    1    1    0    0    0 -0.69447914907E+01  0.19466426919E+02 -0.12584076487E+02  0.24197745497E+02  0.51100000000E-03 0. -1.
         22    1    1    0    0    0  0.18311124988E+02 -0.50132616365E+02  0.32521108306E+02  0.62499592058E+02  0.00000000000E+00 0. -1.
</event>
<event>
 4    1  0.1977788E-002  0.9118800E+02  0.7818608E-02  0.1130116E+00
         25   -1    0    0    0    0  0.00000000000E+00  0.00000000000E+00  0.99999998245E-14  0.12500000000E+03  0.12500000000E+03 0.  0.
        -11    1    1    0    0    0  0.46287830450E+00  0.25209915584E+02 -0.12857921518E+02  0.28303361039E+02  0.51100000000E-03 0.  1.
         11    1    1    0    0    0  0.59433006490E+00  0.30507030584E+02 -0.15439586814E+02  0.34196680900E+02  0.51100000000E-03 0. -1.
         22    1    1    0    0    0 -0.10572083694E+01 -0.55716946169E+02  0.28297508332E+02  0.62499958061E+02  0.00000000000E+00 0. -1.
</event>
<event>
 4    1  0.1977788E-002  0.9118800E+02  0.7818608E-02  0.1130116E+00
         25   -1    0    0    0    0  0.00000000000E+00  0.00000000000E+00  0.99999998245E-14  0.12500000000E+03  0.12500000000E+03 0.  0.
        -11    1    1    0    0    0  0.37765949296E+02 -0.91867418081E+01 -0.38547942943E+02  0.54741273795E+02  0.51100000000E-03 0.  1.
         11    1    1    0    0    0  0.86545240030E+01  0.79758888974E+01  0.41866679867E+01  0.12491748417E+02  0.51100000000E-03 0. -1.
         22    1    1    0    0    0 -0.46420473299E+02  0.12108529107E+01  0.34361274957E+02  0.57766977788E+02  0.00000000000E+00 0.  1.
</event>
<event>
 4    1  0.1977788E-002  0.9118800E+02  0.7818608E-02  0.1130116E+00
         25   -1    0    0    0    0  0.00000000000E+00  0.00000000000E+00  0.99999998245E-14  0.12500000000E+03  0.12500000000E+03 0.  0.
        -11    1    1    0    0    0 -0.18085044402E+02 -0.13022795235E+02 -0.30092065759E+02  0.37445886939E+02  0.51100000000E-03 0. -1.
         11    1    1    0    0    0 -0.11709529774E+02 -0.85627614971E+01 -0.20429225693E+02  0.25055682682E+02  0.51100000000E-03 0.  1.
         22    1    1    0    0    0  0.29794574176E+02  0.21585556732E+02  0.50521291452E+02  0.62498430379E+02  0.00000000000E+00 0. -1.
</event>
<event>
 4    1  0.1977788E-002  0.9118800E+02  0.7818608E-02  0.1130116E+00
         25   -1    0    0    0    0  0.00000000000E+00  0.00000000000E+00  0.99999998245E-14  0.12500000000E+03  0.12500000000E+03 0.  0.
        -11    1    1    0    0    0  0.39793034793E+01  0.19416639550E+01 -0.13078361123E+02  0.13807550290E+02  0.51100000000E-03 0. -1.
         11    1    1    0    0    0  0.13526658288E+02  0.71856074172E+01 -0.46221134751E+02  0.48692881783E+02  0.51100000000E-03 0.  1.
         22    1    1    0    0    0 -0.17505961768E+02 -0.91272713722E+01  0.59299495874E+02  0.62499567927E+02  0.00000000000E+00 0.  1.
</event>
<event>
 4    1  0.1977788E-002  0.9118800E+02  0.7818608E-02  0.1130116E+00
         25   -1    0    0    0    0  0.00000000000E+00  0.00000000000E+00  0.99999998245E-14  0.12500000000E+03  0.12500000000E+03 0.  0.
        -11    1    1    0    0    0  0.12145369072E+02 -0.11473564590E+02 -0.32373666961E+02  0.36430852132E+02  0.51100000000E-03 0.  1.
         11    1    1    0    0    0  0.21154264086E+01 -0.11852944334E+02 -0.23477669576E+02  0.26385001180E+02  0.51100000000E-03 0. -1.
         22    1    1    0    0    0 -0.14260795481E+02  0.23326508925E+02  0.55851336537E+02  0.62184146688E+02  0.00000000000E+00 0. -1.
</event>
<event>
 4    1  0.1977788E-002  0.9118800E+02  0.7818608E-02  0.1130116E+00
         25   -1    0    0    0    0  0.00000000000E+00  0.00000000000E+00  0.99999998245E-14  0.12500000000E+03  0.12500000000E+03 0.  0.
        -11    1    1    0    0    0  0.64090142866E+01 -0.24628221060E+01 -0.45776198480E+02  0.46288241535E+02  0.51100000000E-03 0. -1.
         11    1    1    0    0    0 -0.15814751507E+02 -0.11825258974E+01 -0.12109579391E+02  0.19953612355E+02  0.51100000000E-03 0.  1.
         22    1    1    0    0    0  0.94057372201E+01  0.36453480035E+01  0.57885777870E+02  0.58758146111E+02  0.00000000000E+00 0. -1.
</event>
<event>
 4    1  0.1977788E-002  0.9118800E+02  0.7818608E-02  0.1130116E+00
         25   -1    0    0    0    0  0.00000000000E+00  0.00000000000E+00  0.99999998245E-14  0.12500000000E+03  0.12500000000E+03 0.  0.
        -11    1    1    0    0    0 -0.15813857776E+01  0.55215783652E-01 -0.17000705000E+01  0.23225136655E+01  0.51100000000E-03 0. -1.
         11    1    1    0    0    0 -0.44876374705E+02 -0.72589268252E+01 -0.39456646323E+02  0.60194750308E+02  0.51100000000E-03 0.  1.
         22    1    1    0    0    0  0.46457760482E+02  0.72037110415E+01  0.41156716823E+02  0.62482736027E+02  0.00000000000E+00 0.  1.
</event>
<event>
 4    1  0.1977788E-002  0.9118800E+02  0.7818608E-02  0.1130116E+00
         25   -1    0    0    0    0  0.00000000000E+00  0.00000000000E+00  0.99999998245E-14  0.12500000000E+03  0.12500000000E+03 0.  0.
        -11    1    1    0    0    0  0.28230204850E+02  0.55014085974E+02  0.34657956407E+01  0.61931460997E+02  0.51100000000E-03 0. -1.
         11    1    1    0    0    0  0.34720106667E+00  0.37014279577E+00 -0.44173638853E+00  0.67281911985E+00  0.51100000000E-03 0.  1.
         22    1    1    0    0    0 -0.28577405917E+02 -0.55384228770E+02 -0.30240592522E+01  0.62395719883E+02  0.00000000000E+00 0. -1.
</event>
<event>
 4    1  0.1977788E-002  0.9118800E+02  0.7818608E-02  0.1130116E+00
         25   -1    0    0    0    0  0.00000000000E+00  0.00000000000E+00  0.99999998245E-14  0.12500000000E+03  0.12500000000E+03 0.  0.
        -11    1    1    0    0    0 -0.26904083672E+02 -0.15029072408E+02 -0.13651665759E+02  0.33705648101E+02  0.51100000000E-03 0. -1.
         11    1    1    0    0    0 -0.24920635348E+02 -0.10287706545E+02 -0.10272765497E+02  0.28851424285E+02  0.51100000000E-03 0.  1.
         22    1    1    0    0    0  0.51824719020E+02  0.25316778953E+02  0.23924431256E+02  0.62442927613E+02  0.00000000000E+00 0.  1.
</event>
<event>
 4    1  0.1977788E-002  0.9118800E+02  0.7818608E-02  0.1130116E+00
         25   -1    0    0    0    0  0.00000000000E+00  0.00000000000E+00  0.99999998245E-14  0.12500000000E+03  0.12500000000E+03 0.  0.
        -11    1    1    0    0    0  0.10538397978E+02 -0.41459556378E+01 -0.60129175602E+02  0.61186310062E+02  0.51100000000E-03 0. -1.
         11    1    1    0    0    0  0.22716255500E+00 -0.89184624157E-01 -0.12908233137E+01  0.13136901506E+01  0.51100000000E-03 0. -1.
         22    1    1    0    0    0 -0.10765560533E+02  0.42351402620E+01  0.61419998916E+02  0.62499999788E+02  0.00000000000E+00 0. -1.
</event>
<event>
 4    1  0.1977788E-002  0.9118800E+02  0.7818608E-02  0.1130116E+00
         25   -1    0    0    0    0  0.00000000000E+00  0.00000000000E+00  0.99999998245E-14  0.12500000000E+03  0.12500000000E+03 0.  0.
        -11    1    1    0    0    0 -0.98868887925E+01 -0.11864147021E+01 -0.28518742809E+02  0.30207231609E+02  0.51100000000E-03 0.  1.
         11    1    1    0    0    0 -0.10570954319E+02 -0.12699683745E+01 -0.30487128377E+02  0.32292768414E+02  0.51100000000E-03 0.  1.
         22    1    1    0    0    0  0.20457843112E+02  0.24563830766E+01  0.59005871186E+02  0.62499999976E+02  0.00000000000E+00 0.  1.
</event>
<event>
 4    1  0.1977788E-002  0.9118800E+02  0.7818608E-02  0.1130116E+00
         25   -1    0    0    0    0  0.00000000000E+00  0.00000000000E+00  0.99999998245E-14  0.12500000000E+03  0.12500000000E+03 0.  0.
        -11    1    1    0    0    0 -0.41098561829E+01 -0.27199731172E+02 -0.40355564857E+02  0.48839409383E+02  0.51100000000E-03 0. -1.
         11    1    1    0    0    0 -0.30400198377E+01 -0.16712751921E+02  0.14332175238E+01  0.17047343198E+02  0.51100000000E-03 0.  1.
         22    1    1    0    0    0  0.71498760207E+01  0.43912483093E+02  0.38922347333E+02  0.59113247419E+02  0.00000000000E+00 0.  1.
</event>
<event>
 4    1  0.1977788E-002  0.9118800E+02  0.7818608E-02  0.1130116E+00
         25   -1    0    0    0    0  0.00000000000E+00  0.00000000000E+00  0.99999998245E-14  0.12500000000E+03  0.12500000000E+03 0.  0.
        -11    1    1    0    0    0 -0.20043313384E+02 -0.36480511915E+02 -0.24662576051E+02  0.48381864564E+02  0.51100000000E-03 0. -1.
         11    1    1    0    0    0 -0.35026431963E+01 -0.15104640408E+02  0.83637952093E+01  0.17617370456E+02  0.51100000000E-03 0.  1.
         22    1    1    0    0    0  0.23545956580E+02  0.51585152322E+02  0.16298780842E+02  0.59000764981E+02  0.00000000000E+00 0. -1.
</event>
<event>
 4    1  0.1977788E-002  0.9118800E+02  0.7818608E-02  0.1130116E+00
         25   -1    0    0    0    0  0.00000000000E+00  0.00000000000E+00  0.99999998245E-14  0.12500000000E+03  0.12500000000E+03 0.  0.
        -11    1    1    0    0    0 -0.17392347192E+02 -0.40808913369E+02 -0.58758685586E+00  0.44364472383E+02  0.51100000000E-03 0. -1.
         11    1    1    0    0    0 -0.71097412068E+01 -0.16682045628E+02 -0.24144578145E+00  0.18135527638E+02  0.51100000000E-03 0.  1.
         22    1    1    0    0    0  0.24502088399E+02  0.57490958997E+02  0.82903263731E+00  0.62499999980E+02  0.00000000000E+00 0.  1.
</event>
<event>
 4    1  0.1977788E-002  0.9118800E+02  0.7818608E-02  0.1130116E+00
         25   -1    0    0    0    0  0.00000000000E+00  0.00000000000E+00  0.99999998245E-14  0.12500000000E+03  0.12500000000E+03 0.  0.
        -11    1    1    0    0    0 -0.22644669566E+02 -0.18958839537E+02 -0.30602751399E+02  0.42529366910E+02  0.51100000000E-03 0. -1.
         11    1    1    0    0    0 -0.10624539731E+02 -0.89414650437E+01 -0.14352567424E+02  0.19970649302E+02  0.51100000000E-03 0.  1.
         22    1    1    0    0    0  0.33269209298E+02  0.27900304581E+02  0.44955318823E+02  0.62499983788E+02  0.00000000000E+00 0. -1.
</event>
<event>
 4    1  0.1977788E-002  0.9118800E+02  0.7818608E-02  0.1130116E+00
         25   -1    0    0    0    0  0.00000000000E+00  0.00000000000E+00  0.99999998245E-14  0.12500000000E+03  0.12500000000E+03 0.  0.
        -11    1    1    0    0    0 -0.55001183302E+01  0.12296019100E+02 -0.43091011436E+02  0.45147299523E+02  0.51100000000E-03 0. -1.
         11    1    1    0    0    0  0.37522638243E+01  0.18135425094E+01 -0.17308125037E+02  0.17802797892E+02  0.51100000000E-03 0.  1.
         22    1    1    0    0    0  0.17478545059E+01 -0.14109561609E+02  0.60399136473E+02  0.62049902585E+02  0.00000000000E+00 0.  1.
</event>
<event>
 4    1  0.1977788E-002  0.9118800E+02  0.7818608E-02  0.1130116E+00
         25   -1    0    0    0    0  0.00000000000E+00  0.00000000000E+00  0.99999998245E-14  0.12500000000E+03  0.12500000000E+03 0.  0.
        -11    1    1    0    0    0  0.30223133284E+02  0.20324663620E+02 -0.48218330393E+02  0.60427949848E+02  0.51100000000E-03 0.  1.
         11    1    1    0    0    0  0.10597401115E+01  0.69094056814E+00 -0.16411271846E+01  0.20721357749E+01  0.51100000000E-03 0. -1.
         22    1    1    0    0    0 -0.31282873395E+02 -0.21015604188E+02  0.49859457577E+02  0.62499914377E+02  0.00000000000E+00 0.  1.
</event>
<event>
 4    1  0.1977788E-002  0.9118800E+02  0.7818608E-02  0.1130116E+00
         25   -1    0    0    0    0  0.00000000000E+00  0.00000000000E+00  0.99999998245E-14  0.12500000000E+03  0.12500000000E+03 0.  0.
        -11    1    1    0    0    0  0.19215117353E+02 -0.94432667838E+01 -0.25629728094E+02  0.33395792922E+02  0.51100000000E-03 0. -1.
         11    1    1    0    0    0  0.15256030519E+02 -0.14213225414E+02 -0.20574401329E+02  0.29292801746E+02  0.51100000000E-03 0.  1.
         22    1    1    0    0    0 -0.34471147872E+02  0.23656492197E+02  0.46204129423E+02  0.62311405332E+02  0.00000000000E+00 0. -1.
</event>
<event>
 4    1  0.1977788E-002  0.9118800E+02  0.7818608E-02  0.1130116E+00
         25   -1    0    0    0    0  0.00000000000E+00  0.00000000000E+00  0.99999998245E-14  0.12500000000E+03  0.12500000000E+03 0.  0.
        -11    1    1    0    0    0  0.40998951760E+02  0.22310776017E+02  0.26963734728E+02  0.53904802779E+02  0.51100000000E-03 0. -1.
         11    1    1    0    0    0  0.65236018630E+01  0.36343677098E+01  0.42561534807E+01  0.85953971770E+01  0.51100000000E-03 0.  1.
         22    1    1    0    0    0 -0.47522553623E+02 -0.25945143727E+02 -0.31219888209E+02  0.62499800044E+02  0.00000000000E+00 0.  1.
</event>
<event>
 4    1  0.1977788E-002  0.9118800E+02  0.7818608E-02  0.1130116E+00
         25   -1    0    0    0    0  0.00000000000E+00  0.00000000000E+00  0.99999998245E-14  0.12500000000E+03  0.12500000000E+03 0.  0.
        -11    1    1    0    0    0 -0.16961428956E+02  0.96749065976E+01 -0.36545118627E+01  0.19865783325E+02  0.51100000000E-03 0. -1.
         11    1    1    0    0    0 -0.10254186965E+02  0.36234314392E+02 -0.24368886785E+02  0.44854392574E+02  0.51100000000E-03 0.  1.
         22    1    1    0    0    0  0.27215615921E+02 -0.45909220990E+02  0.28023398648E+02  0.60279824101E+02  0.00000000000E+00 0.  1.
</event>
<event>
 4    1  0.1977788E-002  0.9118800E+02  0.7818608E-02  0.1130116E+00
         25   -1    0    0    0    0  0.00000000000E+00  0.00000000000E+00  0.99999998245E-14  0.12500000000E+03  0.12500000000E+03 0.  0.
        -11    1    1    0    0    0 -0.67279576828E+01  0.34417096361E+02 -0.10951492870E+00  0.35068703003E+02  0.51100000000E-03 0.  1.
         11    1    1    0    0    0  0.24770922879E+02  0.20312051781E+02 -0.33021839290E+01  0.32203765103E+02  0.51100000000E-03 0. -1.
         22    1    1    0    0    0 -0.18042965196E+02 -0.54729148143E+02  0.34116988577E+01  0.57727531894E+02  0.00000000000E+00 0.  1.
</event>
<event>
 4    1  0.1977788E-002  0.9118800E+02  0.7818608E-02  0.1130116E+00
         25   -1    0    0    0    0  0.00000000000E+00  0.00000000000E+00  0.99999998245E-14  0.12500000000E+03  0.12500000000E+03 0.  0.
        -11    1    1    0    0    0 -0.41760664376E+01 -0.52894080081E+01 -0.61960577353E+00  0.67676642605E+01  0.51100000000E-03 0. -1.
         11    1    1    0    0    0 -0.34834539780E+02 -0.43323990863E+02 -0.39702619788E+01  0.55733081078E+02  0.51100000000E-03 0.  1.
         22    1    1    0    0    0  0.39010606218E+02  0.48613398871E+02  0.45898677523E+01  0.62499254662E+02  0.00000000000E+00 0.  1.
</event>
<event>
 4    1  0.1977788E-002  0.9118800E+02  0.7818608E-02  0.1130116E+00
         25   -1    0    0    0    0  0.00000000000E+00  0.00000000000E+00  0.99999998245E-14  0.12500000000E+03  0.12500000000E+03 0.  0.
        -11    1    1    0    0    0  0.12543208561E+02  0.52916822522E+02  0.22167090781E+02  0.58727353940E+02  0.51100000000E-03 0. -1.
         11    1    1    0    0    0  0.80668344087E+00  0.33995148748E+01  0.14231722817E+01  0.37726461750E+01  0.51100000000E-03 0.  1.
         22    1    1    0    0    0 -0.13349892002E+02 -0.56316337397E+02 -0.23590263063E+02  0.62499999885E+02  0.00000000000E+00 0. -1.
</event>
<event>
 4    1  0.1977788E-002  0.9118800E+02  0.7818608E-02  0.1130116E+00
         25   -1    0    0    0    0  0.00000000000E+00  0.00000000000E+00  0.99999998245E-14  0.12500000000E+03  0.12500000000E+03 0.  0.
        -11    1    1    0    0    0  0.94925003248E+00  0.17169862890E+01  0.21183736036E+01  0.28873213410E+01  0.51100000000E-03 0.  1.
         11    1    1    0    0    0  0.19500951255E+02  0.35477575706E+02  0.43757584828E+02  0.59612680765E+02  0.51100000000E-03 0. -1.
         22    1    1    0    0    0 -0.20450201288E+02 -0.37194561995E+02 -0.45875958431E+02  0.62499997894E+02  0.00000000000E+00 0. -1.
</event>
<event>
 4    1  0.1977788E-002  0.9118800E+02  0.7818608E-02  0.1130116E+00
         25   -1    0    0    0    0  0.00000000000E+00  0.00000000000E+00  0.99999998245E-14  0.12500000000E+03  0.12500000000E+03 0.  0.
        -11    1    1    0    0    0  0.44534034063E+02 -0.19572753828E+02 -0.51700667963E+01  0.48919346615E+02  0.51100000000E-03 0.  1.
         11    1    1    0    0    0  0.12003290862E+02  0.28905058163E+01  0.11400795854E+02  0.16805123080E+02  0.51100000000E-03 0. -1.
         22    1    1    0    0    0 -0.56537324924E+02  0.16682248011E+02 -0.62307290575E+01  0.59275530305E+02  0.00000000000E+00 0.  1.
</event>
<event>
 4    1  0.1977788E-002  0.9118800E+02  0.7818608E-02  0.1130116E+00
         25   -1    0    0    0    0  0.00000000000E+00  0.00000000000E+00  0.99999998245E-14  0.12500000000E+03  0.12500000000E+03 0.  0.
        -11    1    1    0    0    0 -0.49792502083E+02  0.28907433408E+02 -0.13011289466E+02  0.59027337935E+02  0.51100000000E-03 0. -1.
         11    1    1    0    0    0 -0.29328868790E+01  0.16935149209E+01 -0.76785163859E+00  0.34726667897E+01  0.51100000000E-03 0.  1.
         22    1    1    0    0    0  0.52725388962E+02 -0.30600948329E+02  0.13779141105E+02  0.62499995275E+02  0.00000000000E+00 0. -1.
</event>
<event>
 4    1  0.1977788E-002  0.9118800E+02  0.7818608E-02  0.1130116E+00
         25   -1    0    0    0    0  0.00000000000E+00  0.00000000000E+00  0.99999998245E-14  0.12500000000E+03  0.12500000000E+03 0.  0.
        -11    1    1    0    0    0 -0.35114348983E+01 -0.22531355562E+01 -0.13267261589E+01  0.43780129558E+01  0.51100000000E-03 0. -1.
         11    1    1    0    0    0 -0.46618077049E+02 -0.29929444716E+02 -0.17582623649E+02  0.58121987435E+02  0.51100000000E-03 0.  1.
         22    1    1    0    0    0  0.50129511947E+02  0.32182580272E+02  0.18909349808E+02  0.62499999609E+02  0.00000000000E+00 0.  1.
</event>
<event>
 4    1  0.1977788E-002  0.9118800E+02  0.7818608E-02  0.1130116E+00
         25   -1    0    0    0    0  0.00000000000E+00  0.00000000000E+00  0.99999998245E-14  0.12500000000E+03  0.12500000000E+03 0.  0.
        -11    1    1    0    0    0  0.86358568890E+01 -0.86880564652E+01 -0.26105479845E+01  0.12524987441E+02  0.51100000000E-03 0.  1.
         11    1    1    0    0    0  0.34934322897E+02 -0.34716195409E+02 -0.85012488297E+01  0.49978919275E+02  0.51100000000E-03 0. -1.
         22    1    1    0    0    0 -0.43570179786E+02  0.43404251874E+02  0.11111796814E+02  0.62496093284E+02  0.00000000000E+00 0. -1.
</event>
<event>
 4    1  0.1977788E-002  0.9118800E+02  0.7818608E-02  0.1130116E+00
         25   -1    0    0    0    0  0.00000000000E+00  0.00000000000E+00  0.99999998245E-14  0.12500000000E+03  0.12500000000E+03 0.  0.
        -11    1    1    0    0    0 -0.22712320818E+02 -0.32010918486E+01  0.57134273463E+02  0.61566400824E+02  0.51100000000E-03 0.  1.
         11    1    1    0    0    0 -0.49755001566E+00  0.15685325545E+01  0.10214577357E+00  0.16487220544E+01  0.51100000000E-03 0. -1.
         22    1    1    0    0    0  0.23209870834E+02  0.16325592941E+01 -0.57236419236E+02  0.61784877122E+02  0.00000000000E+00 0.  1.
</event>
<event>
 4    1  0.1977788E-002  0.9118800E+02  0.7818608E-02  0.1130116E+00
         25   -1    0    0    0    0  0.00000000000E+00  0.00000000000E+00  0.99999998245E-14  0.12500000000E+03  0.12500000000E+03 0.  0.
        -11    1    1    0    0    0  0.18203791952E+01  0.93287694397E+01  0.13401197010E+01  0.95987312051E+01  0.51100000000E-03 0. -1.
         11    1    1    0    0    0  0.12936951791E+02  0.50922748488E+02  0.62307244292E+01  0.52908533927E+02  0.51100000000E-03 0.  1.
         22    1    1    0    0    0 -0.14757330986E+02 -0.60251517927E+02 -0.75708441302E+01  0.62492734868E+02  0.00000000000E+00 0.  1.
</event>
<event>
 4    1  0.1977788E-002  0.9118800E+02  0.7818608E-02  0.1130116E+00
         25   -1    0    0    0    0  0.00000000000E+00  0.00000000000E+00  0.99999998245E-14  0.12500000000E+03  0.12500000000E+03 0.  0.
        -11    1    1    0    0    0 -0.27278913757E+01  0.14237923788E+00 -0.12584496803E+00  0.27345018599E+01  0.51100000000E-03 0.  1.
         11    1    1    0    0    0 -0.59712734045E+02 -0.18980749731E+01  0.19314058740E+01  0.59774104968E+02  0.51100000000E-03 0. -1.
         22    1    1    0    0    0  0.62440625421E+02  0.17556957352E+01 -0.18055609060E+01  0.62491393173E+02  0.00000000000E+00 0. -1.
</event>
<event>
 4    1  0.1977788E-002  0.9118800E+02  0.7818608E-02  0.1130116E+00
         25   -1    0    0    0    0  0.00000000000E+00  0.00000000000E+00  0.99999998245E-14  0.12500000000E+03  0.12500000000E+03 0.  0.
        -11    1    1    0    0    0  0.50976631986E+01 -0.63683752206E+01 -0.41840295256E+00  0.81680740893E+01  0.51100000000E-03 0. -1.
         11    1    1    0    0    0  0.33876846769E+02 -0.42385277652E+02 -0.27938820370E+01  0.54331926947E+02  0.51100000000E-03 0.  1.
         22    1    1    0    0    0 -0.38974509967E+02  0.48753652873E+02  0.32122849896E+01  0.62499998964E+02  0.00000000000E+00 0.  1.
</event>
<event>
 4    1  0.1977788E-002  0.9118800E+02  0.7818608E-02  0.1130116E+00
         25   -1    0    0    0    0  0.00000000000E+00  0.00000000000E+00  0.99999998245E-14  0.12500000000E+03  0.12500000000E+03 0.  0.
        -11    1    1    0    0    0 -0.41966718207E+01  0.11217972390E+02  0.33885249326E+02  0.35939742362E+02  0.51100000000E-03 0. -1.
         11    1    1    0    0    0  0.35605706352E+02  0.12589396189E+02 -0.32171042410E+02  0.49610837437E+02  0.51100000000E-03 0.  1.
         22    1    1    0    0    0 -0.31409034532E+02 -0.23807368578E+02 -0.17142069159E+01  0.39449420201E+02  0.00000000000E+00 0.  1.
</event>
<event>
 4    1  0.1977788E-002  0.9118800E+02  0.7818608E-02  0.1130116E+00
         25   -1    0    0    0    0  0.00000000000E+00  0.00000000000E+00  0.99999998245E-14  0.12500000000E+03  0.12500000000E+03 0.  0.
        -11    1    1    0    0    0  0.14870797470E+02  0.20296539701E+02 -0.76159502995E+00  0.25172806130E+02  0.51100000000E-03 0.  1.
         11    1    1    0    0    0  0.22044653865E+02  0.30101725655E+02 -0.11130220005E+01  0.37327194773E+02  0.51100000000E-03 0. -1.
         22    1    1    0    0    0 -0.36915451335E+02 -0.50398265355E+02  0.18746170305E+01  0.62499999097E+02  0.00000000000E+00 0. -1.
</event>
<event>
 4    1  0.1977788E-002  0.9118800E+02  0.7818608E-02  0.1130116E+00
         25   -1    0    0    0    0  0.00000000000E+00  0.00000000000E+00  0.99999998245E-14  0.12500000000E+03  0.12500000000E+03 0.  0.
        -11    1    1    0    0    0 -0.66730527250E+01 -0.15592284462E+01 -0.22136469730E+02  0.23172917778E+02  0.51100000000E-03 0. -1.
         11    1    1    0    0    0 -0.11800183398E+02 -0.23639329043E+01 -0.37441240823E+02  0.39327840286E+02  0.51100000000E-03 0.  1.
         22    1    1    0    0    0  0.18473236123E+02  0.39231613505E+01  0.59577710552E+02  0.62499241935E+02  0.00000000000E+00 0. -1.
</event>
<event>
 4    1  0.1977788E-002  0.9118800E+02  0.7818608E-02  0.1130116E+00
         25   -1    0    0    0    0  0.00000000000E+00  0.00000000000E+00  0.99999998245E-14  0.12500000000E+03  0.12500000000E+03 0.  0.
        -11    1    1    0    0    0 -0.17007011018E+02 -0.88373917082E+01  0.11408369548E+02  0.22304457222E+02  0.51100000000E-03 0.  1.
         11    1    1    0    0    0 -0.30628049076E+02 -0.15947045010E+02  0.20574163869E+02  0.40195545200E+02  0.51100000000E-03 0. -1.
         22    1    1    0    0    0  0.47635060093E+02  0.24784436718E+02 -0.31982533417E+02  0.62499997578E+02  0.00000000000E+00 0. -1.
</event>
<event>
 4    1  0.1977788E-002  0.9118800E+02  0.7818608E-02  0.1130116E+00
         25   -1    0    0    0    0  0.00000000000E+00  0.00000000000E+00  0.99999998245E-14  0.12500000000E+03  0.12500000000E+03 0.  0.
        -11    1    1    0    0    0 -0.33551689892E+02  0.14830558029E+02 -0.28486071912E+02  0.46444780539E+02  0.51100000000E-03 0. -1.
         11    1    1    0    0    0 -0.11587048048E+02  0.51223329761E+01 -0.98626688768E+01  0.16055223923E+02  0.51100000000E-03 0.  1.
         22    1    1    0    0    0  0.45138737940E+02 -0.19952891005E+02  0.38348740789E+02  0.62499995539E+02  0.00000000000E+00 0. -1.
</event>
<event>
 4    1  0.1977788E-002  0.9118800E+02  0.7818608E-02  0.1130116E+00
         25   -1    0    0    0    0  0.00000000000E+00  0.00000000000E+00  0.99999998245E-14  0.12500000000E+03  0.12500000000E+03 0.  0.
        -11    1    1    0    0    0 -0.72066077765E+01  0.26770745052E+02 -0.69034469551E+01  0.28570361678E+02  0.51100000000E-03 0. -1.
         11    1    1    0    0    0 -0.43390705393E+01  0.48375014141E+01 -0.38986195895E+02  0.39524073977E+02  0.51100000000E-03 0.  1.
         22    1    1    0    0    0  0.11545678316E+02 -0.31608246466E+02  0.45889642850E+02  0.56905564345E+02  0.00000000000E+00 0.  1.
</event>
<event>
 4    1  0.1977788E-002  0.9118800E+02  0.7818608E-02  0.1130116E+00
         25   -1    0    0    0    0  0.00000000000E+00  0.00000000000E+00  0.99999998245E-14  0.12500000000E+03  0.12500000000E+03 0.  0.
        -11    1    1    0    0    0 -0.79937568316E+01 -0.42986900493E+01  0.64009671930E+01  0.11106361496E+02  0.51100000000E-03 0.  1.
         11    1    1    0    0    0 -0.44566223949E+02 -0.19513625892E+02  0.17128436562E+02  0.51578224590E+02  0.51100000000E-03 0. -1.
         22    1    1    0    0    0  0.52559980780E+02  0.23812315941E+02 -0.23529403755E+02  0.62315413914E+02  0.00000000000E+00 0. -1.
</event>
<event>
 4    1  0.1977788E-002  0.9118800E+02  0.7818608E-02  0.1130116E+00
         25   -1    0    0    0    0  0.00000000000E+00  0.00000000000E+00  0.99999998245E-14  0.12500000000E+03  0.12500000000E+03 0.  0.
        -11    1    1    0    0    0  0.19518379070E+01 -0.98927640698E+00 -0.76505414200E+01  0.79573314186E+01  0.51100000000E-03 0. -1.
         11    1    1    0    0    0 -0.28402710086E+02 -0.41095459297E+02 -0.26679098907E+02  0.56633250249E+02  0.51100000000E-03 0.  1.
         22    1    1    0    0    0  0.26450872179E+02  0.42084735704E+02  0.34329640327E+02  0.60409418332E+02  0.00000000000E+00 0.  1.
</event>
<event>
 4    1  0.1977788E-002  0.9118800E+02  0.7818608E-02  0.1130116E+00
         25   -1    0    0    0    0  0.00000000000E+00  0.00000000000E+00  0.99999998245E-14  0.12500000000E+03  0.12500000000E+03 0.  0.
        -11    1    1    0    0    0  0.10971311014E+02 -0.17489497904E+01 -0.24316167459E+01  0.11372829507E+02  0.51100000000E-03 0. -1.
         11    1    1    0    0    0  0.49320629260E+02 -0.78676553337E+01 -0.10934491093E+02  0.51127170534E+02  0.51100000000E-03 0.  1.
         22    1    1    0    0    0 -0.60291940274E+02  0.96166051241E+01  0.13366107838E+02  0.62499999959E+02  0.00000000000E+00 0.  1.
</event>
<event>
 4    1  0.1977788E-002  0.9118800E+02  0.7818608E-02  0.1130116E+00
         25   -1    0    0    0    0  0.00000000000E+00  0.00000000000E+00  0.99999998245E-14  0.12500000000E+03  0.12500000000E+03 0.  0.
        -11    1    1    0    0    0  0.37935647789E+01  0.30400774626E+01  0.16524960219E+01  0.51345835346E+01  0.51100000000E-03 0. -1.
         11    1    1    0    0    0  0.43161257875E+02  0.34541356951E+02  0.15337247983E+02  0.57369248708E+02  0.51100000000E-03 0.  1.
         22    1    1    0    0    0 -0.46954822654E+02 -0.37581434413E+02 -0.16989744005E+02  0.62496167758E+02  0.00000000000E+00 0.  1.
</event>
<event>
 4    1  0.1977788E-002  0.9118800E+02  0.7818608E-02  0.1130116E+00
         25   -1    0    0    0    0  0.00000000000E+00  0.00000000000E+00  0.99999998245E-14  0.12500000000E+03  0.12500000000E+03 0.  0.
        -11    1    1    0    0    0 -0.69178623338E+01 -0.20793271116E+02  0.24883922207E+02  0.33157601355E+02  0.51100000000E-03 0.  1.
         11    1    1    0    0    0 -0.61161074582E+01 -0.18393100097E+02  0.22028697143E+02  0.29342399351E+02  0.51100000000E-03 0. -1.
         22    1    1    0    0    0  0.13033969792E+02  0.39186371212E+02 -0.46912619350E+02  0.62499999293E+02  0.00000000000E+00 0.  1.
</event>
<event>
 4    1  0.1977788E-002  0.9118800E+02  0.7818608E-02  0.1130116E+00
         25   -1    0    0    0    0  0.00000000000E+00  0.00000000000E+00  0.99999998245E-14  0.12500000000E+03  0.12500000000E+03 0.  0.
        -11    1    1    0    0    0 -0.94806434868E+00  0.67149250485E+00 -0.64246731028E+00  0.13275890551E+01  0.51100000000E-03 0.  1.
         11    1    1    0    0    0 -0.38792896576E+02  0.42495996210E+02 -0.20826812172E+02  0.61192766110E+02  0.51100000000E-03 0. -1.
         22    1    1    0    0    0  0.39740960925E+02 -0.43167488715E+02  0.21469279483E+02  0.62479644835E+02  0.00000000000E+00 0. -1.
</event>
<event>
 4    1  0.1977788E-002  0.9118800E+02  0.7818608E-02  0.1130116E+00
         25   -1    0    0    0    0  0.00000000000E+00  0.00000000000E+00  0.99999998245E-14  0.12500000000E+03  0.12500000000E+03 0.  0.
        -11    1    1    0    0    0  0.25428925440E+02 -0.10841237660E+02  0.76704981748E+01  0.28687963078E+02  0.51100000000E-03 0. -1.
         11    1    1    0    0    0  0.29983123019E+02 -0.12758018546E+02  0.90276961791E+01  0.33812039302E+02  0.51100000000E-03 0.  1.
         22    1    1    0    0    0 -0.55412048459E+02  0.23599256206E+02 -0.16698194354E+02  0.62499997621E+02  0.00000000000E+00 0.  1.
</event>
<event>
 4    1  0.1977788E-002  0.9118800E+02  0.7818608E-02  0.1130116E+00
         25   -1    0    0    0    0  0.00000000000E+00  0.00000000000E+00  0.99999998245E-14  0.12500000000E+03  0.12500000000E+03 0.  0.
        -11    1    1    0    0    0 -0.10409104462E+02 -0.43821668694E+02  0.16193337625E+02  0.47863475496E+02  0.51100000000E-03 0.  1.
         11    1    1    0    0    0  0.12765066299E+00 -0.11395765856E+02  0.10000774010E+02  0.15162297161E+02  0.51100000000E-03 0. -1.
         22    1    1    0    0    0  0.10281453799E+02  0.55217434550E+02 -0.26194111635E+02  0.61974227343E+02  0.00000000000E+00 0.  1.
</event>
<event>
 4    1  0.1977788E-002  0.9118800E+02  0.7818608E-02  0.1130116E+00
         25   -1    0    0    0    0  0.00000000000E+00  0.00000000000E+00  0.99999998245E-14  0.12500000000E+03  0.12500000000E+03 0.  0.
        -11    1    1    0    0    0  0.70061463356E+01 -0.30144674995E+01  0.97128574689E+01  0.12349603283E+02  0.51100000000E-03 0.  1.
         11    1    1    0    0    0  0.28459650926E+02 -0.12235117591E+02  0.39438717914E+02  0.50150396850E+02  0.51100000000E-03 0.  1.
         22    1    1    0    0    0 -0.35465797261E+02  0.15249585090E+02 -0.49151575382E+02  0.62499999867E+02  0.00000000000E+00 0.  1.
</event>
<event>
 4    1  0.1977788E-002  0.9118800E+02  0.7818608E-02  0.1130116E+00
         25   -1    0    0    0    0  0.00000000000E+00  0.00000000000E+00  0.99999998245E-14  0.12500000000E+03  0.12500000000E+03 0.  0.
        -11    1    1    0    0    0  0.65718323765E+01 -0.32860511996E+02  0.38658335611E+02  0.51161207393E+02  0.51100000000E-03 0.  1.
         11    1    1    0    0    0 -0.32775977060E+01  0.53608983633E+00  0.12666000336E+02  0.13094182060E+02  0.51100000000E-03 0. -1.
         22    1    1    0    0    0 -0.32942346706E+01  0.32324422160E+02 -0.51324335948E+02  0.60744610547E+02  0.00000000000E+00 0.  1.
</event>
<event>
 4    1  0.1977788E-002  0.9118800E+02  0.7818608E-02  0.1130116E+00
         25   -1    0    0    0    0  0.00000000000E+00  0.00000000000E+00  0.99999998245E-14  0.12500000000E+03  0.12500000000E+03 0.  0.
        -11    1    1    0    0    0  0.11211134372E+02  0.41779770073E+01  0.18348747565E+01  0.12104205526E+02  0.51100000000E-03 0. -1.
         11    1    1    0    0    0  0.46509469159E+02  0.17917680598E+02  0.74561750108E+01  0.50396116373E+02  0.51100000000E-03 0.  1.
         22    1    1    0    0    0 -0.57720603531E+02 -0.22095657606E+02 -0.92910497672E+01  0.62499678101E+02  0.00000000000E+00 0.  1.
</event>
<event>
 4    1  0.1977788E-002  0.9118800E+02  0.7818608E-02  0.1130116E+00
         25   -1    0    0    0    0  0.00000000000E+00  0.00000000000E+00  0.99999998245E-14  0.12500000000E+03  0.12500000000E+03 0.  0.
        -11    1    1    0    0    0 -0.47218872588E+02  0.37297478418E+02 -0.77671981416E+01  0.60671683610E+02  0.51100000000E-03 0. -1.
         11    1    1    0    0    0 -0.14232133808E+01  0.11233476818E+01 -0.23514919263E+00  0.18283166426E+01  0.51100000000E-03 0.  1.
         22    1    1    0    0    0  0.48642085969E+02 -0.38420826099E+02  0.80023473342E+01  0.62499999748E+02  0.00000000000E+00 0. -1.
</event>
<event>
 4    1  0.1977788E-002  0.9118800E+02  0.7818608E-02  0.1130116E+00
         25   -1    0    0    0    0  0.00000000000E+00  0.00000000000E+00  0.99999998245E-14  0.12500000000E+03  0.12500000000E+03 0.  0.
        -11    1    1    0    0    0  0.10358289805E+02  0.50823675110E+01 -0.72045788722E+01  0.13602594759E+02  0.51100000000E-03 0. -1.
         11    1    1    0    0    0  0.39471684836E+02  0.21836071345E+02 -0.19056633358E+02  0.48969206556E+02  0.51100000000E-03 0.  1.
         22    1    1    0    0    0 -0.49829974641E+02 -0.26918438856E+02  0.26261212230E+02  0.62428198684E+02  0.00000000000E+00 0.  1.
</event>
<event>
 4    1  0.1977788E-002  0.9118800E+02  0.7818608E-02  0.1130116E+00
         25   -1    0    0    0    0  0.00000000000E+00  0.00000000000E+00  0.99999998245E-14  0.12500000000E+03  0.12500000000E+03 0.  0.
        -11    1    1    0    0    0  0.17271248802E+02 -0.39900517898E+02 -0.28188798169E+02  0.51816558224E+02  0.51100000000E-03 0.  1.
         11    1    1    0    0    0  0.50415636795E+01 -0.76697951059E+01 -0.55639028775E+01  0.10733132664E+02  0.51100000000E-03 0. -1.
         22    1    1    0    0    0 -0.22312812482E+02  0.47570313004E+02  0.33752701046E+02  0.62450309111E+02  0.00000000000E+00 0.  1.
</event>
<event>
 4    1  0.1977788E-002  0.9118800E+02  0.7818608E-02  0.1130116E+00
         25   -1    0    0    0    0  0.00000000000E+00  0.00000000000E+00  0.99999998245E-14  0.12500000000E+03  0.12500000000E+03 0.  0.
        -11    1    1    0    0    0  0.34457811136E+02  0.20114482254E+02 -0.16646156202E+02  0.43232252558E+02  0.51100000000E-03 0.  1.
         11    1    1    0    0    0  0.15215344656E+02  0.92613881203E+01 -0.73488217323E+01  0.19268762389E+02  0.51100000000E-03 0. -1.
         22    1    1    0    0    0 -0.49673155792E+02 -0.29375870374E+02  0.23994977935E+02  0.62498985053E+02  0.00000000000E+00 0. -1.
</event>
<event>
 4    1  0.1977788E-002  0.9118800E+02  0.7818608E-02  0.1130116E+00
         25   -1    0    0    0    0  0.00000000000E+00  0.00000000000E+00  0.99999998245E-14  0.12500000000E+03  0.12500000000E+03 0.  0.
        -11    1    1    0    0    0 -0.29815138052E+01 -0.49186386321E+02  0.24367830649E+01  0.49336882105E+02  0.51100000000E-03 0.  1.
         11    1    1    0    0    0 -0.11307114752E+01 -0.13106766396E+02  0.50463741135E+00  0.13165124115E+02  0.51100000000E-03 0. -1.
         22    1    1    0    0    0  0.41122252804E+01  0.62293152716E+02 -0.29414204762E+01  0.62497993780E+02  0.00000000000E+00 0.  1.
</event>
<event>
 4    1  0.1977788E-002  0.9118800E+02  0.7818608E-02  0.1130116E+00
         25   -1    0    0    0    0  0.00000000000E+00  0.00000000000E+00  0.99999998245E-14  0.12500000000E+03  0.12500000000E+03 0.  0.
        -11    1    1    0    0    0  0.10858680996E+02  0.30388544336E+02  0.61595185956E+00  0.32276213793E+02  0.51100000000E-03 0. -1.
         11    1    1    0    0    0  0.10152420086E+02  0.28461857720E+02  0.57301873537E+00  0.30223787472E+02  0.51100000000E-03 0.  1.
         22    1    1    0    0    0 -0.21011101081E+02 -0.58850402056E+02 -0.11889705949E+01  0.62499998735E+02  0.00000000000E+00 0. -1.
</event>
<event>
 4    1  0.1977788E-002  0.9118800E+02  0.7818608E-02  0.1130116E+00
         25   -1    0    0    0    0  0.00000000000E+00  0.00000000000E+00  0.99999998245E-14  0.12500000000E+03  0.12500000000E+03 0.  0.
        -11    1    1    0    0    0  0.22707193618E+02  0.29818413344E+02 -0.32607576667E+02  0.49679054668E+02  0.51100000000E-03 0. -1.
         11    1    1    0    0    0  0.58579459501E+01  0.76950327544E+01 -0.84171006103E+01  0.12820945472E+02  0.51100000000E-03 0.  1.
         22    1    1    0    0    0 -0.28565139568E+02 -0.37513446099E+02  0.41024677278E+02  0.62499999860E+02  0.00000000000E+00 0. -1.
</event>
<event>
 4    1  0.1977788E-002  0.9118800E+02  0.7818608E-02  0.1130116E+00
         25   -1    0    0    0    0  0.00000000000E+00  0.00000000000E+00  0.99999998245E-14  0.12500000000E+03  0.12500000000E+03 0.  0.
        -11    1    1    0    0    0  0.81141383722E+01 -0.11814276838E+02 -0.18963022454E+02  0.23769993681E+02  0.51100000000E-03 0.  1.
         11    1    1    0    0    0  0.12918015333E+02 -0.19015975714E+02 -0.31170063902E+02  0.38730547846E+02  0.51100000000E-03 0. -1.
         22    1    1    0    0    0 -0.21032153705E+02  0.30830252552E+02  0.50133086356E+02  0.62499458474E+02  0.00000000000E+00 0. -1.
</event>
<event>
 4    1  0.1977788E-002  0.9118800E+02  0.7818608E-02  0.1130116E+00
         25   -1    0    0    0    0  0.00000000000E+00  0.00000000000E+00  0.99999998245E-14  0.12500000000E+03  0.12500000000E+03 0.  0.
        -11    1    1    0    0    0 -0.10594134116E+02  0.43017913712E+01 -0.19388460674E+00  0.11435850566E+02  0.51100000000E-03 0.  1.
         11    1    1    0    0    0 -0.47359737446E+02  0.19087938145E+02 -0.51579920584E+00  0.51064274818E+02  0.51100000000E-03 0. -1.
         22    1    1    0    0    0  0.57953871562E+02 -0.23389729517E+02  0.70968381258E+00  0.62499874616E+02  0.00000000000E+00 0. -1.
</event>
<event>
 4    1  0.1977788E-002  0.9118800E+02  0.7818608E-02  0.1130116E+00
         25   -1    0    0    0    0  0.00000000000E+00  0.00000000000E+00  0.99999998245E-14  0.12500000000E+03  0.12500000000E+03 0.  0.
        -11    1    1    0    0    0  0.79570506927E+01  0.70879891754E+01 -0.55339360108E+01  0.12007443288E+02  0.51100000000E-03 0. -1.
         11    1    1    0    0    0  0.33462041736E+02  0.29794951346E+02 -0.23281987554E+02  0.50492556952E+02  0.51100000000E-03 0.  1.
         22    1    1    0    0    0 -0.41419092429E+02 -0.36882940521E+02  0.28815923565E+02  0.62499999760E+02  0.00000000000E+00 0.  1.
</event>
<event>
 4    1  0.1977788E-002  0.9118800E+02  0.7818608E-02  0.1130116E+00
         25   -1    0    0    0    0  0.00000000000E+00  0.00000000000E+00  0.99999998245E-14  0.12500000000E+03  0.12500000000E+03 0.  0.
        -11    1    1    0    0    0  0.23338753660E+01  0.31210550223E+01 -0.94482233830E+00  0.40100683521E+01  0.51100000000E-03 0.  1.
         11    1    1    0    0    0  0.33550649634E+02  0.45749824432E+02 -0.14226571109E+02  0.58490066270E+02  0.51100000000E-03 0. -1.
         22    1    1    0    0    0 -0.35884525000E+02 -0.48870879455E+02  0.15171393447E+02  0.62499865378E+02  0.00000000000E+00 0. -1.
</event>
<event>
 4    1  0.1977788E-002  0.9118800E+02  0.7818608E-02  0.1130116E+00
         25   -1    0    0    0    0  0.00000000000E+00  0.00000000000E+00  0.99999998245E-14  0.12500000000E+03  0.12500000000E+03 0.  0.
        -11    1    1    0    0    0  0.39497549965E+02 -0.18303039456E+02 -0.26323211930E+02  0.50872086581E+02  0.51100000000E-03 0.  1.
         11    1    1    0    0    0  0.92168548018E+01 -0.47025860582E+01 -0.53345388604E+01  0.11641393095E+02  0.51100000000E-03 0. -1.
         22    1    1    0    0    0 -0.48714404767E+02  0.23005625514E+02  0.31657750790E+02  0.62486520324E+02  0.00000000000E+00 0. -1.
</event>
<event>
 4    1  0.1977788E-002  0.9118800E+02  0.7818608E-02  0.1130116E+00
         25   -1    0    0    0    0  0.00000000000E+00  0.00000000000E+00  0.99999998245E-14  0.12500000000E+03  0.12500000000E+03 0.  0.
        -11    1    1    0    0    0  0.88399621753E+00 -0.35984420931E+02  0.38294954082E+02  0.52556288943E+02  0.51100000000E-03 0.  1.
         11    1    1    0    0    0 -0.36725373896E+01 -0.98881935327E+01  0.26680934136E+01  0.10880377978E+02  0.51100000000E-03 0. -1.
         22    1    1    0    0    0  0.27885411720E+01  0.45872614464E+02 -0.40963047496E+02  0.61563333079E+02  0.00000000000E+00 0.  1.
</event>
<event>
 4    1  0.1977788E-002  0.9118800E+02  0.7818608E-02  0.1130116E+00
         25   -1    0    0    0    0  0.00000000000E+00  0.00000000000E+00  0.99999998245E-14  0.12500000000E+03  0.12500000000E+03 0.  0.
        -11    1    1    0    0    0 -0.26443076851E+02 -0.21081120071E+02  0.48769305000E+00  0.33821410106E+02  0.51100000000E-03 0. -1.
         11    1    1    0    0    0 -0.22422626125E+02 -0.17875041654E+02  0.41260410478E+00  0.28678589904E+02  0.51100000000E-03 0. -1.
         22    1    1    0    0    0  0.48865702977E+02  0.38956161725E+02 -0.90029715479E+00  0.62499999990E+02  0.00000000000E+00 0. -1.
</event>
<event>
 4    1  0.1977788E-002  0.9118800E+02  0.7818608E-02  0.1130116E+00
         25   -1    0    0    0    0  0.00000000000E+00  0.00000000000E+00  0.99999998245E-14  0.12500000000E+03  0.12500000000E+03 0.  0.
        -11    1    1    0    0    0 -0.28754189193E+02  0.31346143099E+02 -0.21127528792E+02  0.47494805574E+02  0.51100000000E-03 0. -1.
         11    1    1    0    0    0 -0.78537709063E+01  0.10083423385E+02 -0.79367807921E+01  0.15044920545E+02  0.51100000000E-03 0.  1.
         22    1    1    0    0    0  0.36607960099E+02 -0.41429566484E+02  0.29064309584E+02  0.62460273881E+02  0.00000000000E+00 0. -1.
</event>
<event>
 4    1  0.1977788E-002  0.9118800E+02  0.7818608E-02  0.1130116E+00
         25   -1    0    0    0    0  0.00000000000E+00  0.00000000000E+00  0.99999998245E-14  0.12500000000E+03  0.12500000000E+03 0.  0.
        -11    1    1    0    0    0  0.39190411877E+01  0.58888162234E+01 -0.65200350406E+01  0.96201817829E+01  0.51100000000E-03 0.  1.
         11    1    1    0    0    0 -0.57949887832E+02 -0.65386742501E+01 -0.93508002823E+01  0.59062519646E+02  0.51100000000E-03 0. -1.
         22    1    1    0    0    0  0.54030846644E+02  0.64985802679E+00  0.15870835323E+02  0.56317298572E+02  0.00000000000E+00 0. -1.
</event>
<event>
 4    1  0.1977788E-002  0.9118800E+02  0.7818608E-02  0.1130116E+00
         25   -1    0    0    0    0  0.00000000000E+00  0.00000000000E+00  0.99999998245E-14  0.12500000000E+03  0.12500000000E+03 0.  0.
        -11    1    1    0    0    0 -0.52670474636E+02  0.18639777225E+02 -0.26220736703E+02  0.61718289241E+02  0.51100000000E-03 0.  1.
         11    1    1    0    0    0 -0.54829440031E+00 -0.40472344626E+00 -0.64625764911E+00  0.93918955888E+00  0.51100000000E-03 0. -1.
         22    1    1    0    0    0  0.53218769036E+02 -0.18235053779E+02  0.26866994352E+02  0.62342521200E+02  0.00000000000E+00 0.  1.
</event>
<event>
 4    1  0.1977788E-002  0.9118800E+02  0.7818608E-02  0.1130116E+00
         25   -1    0    0    0    0  0.00000000000E+00  0.00000000000E+00  0.99999998245E-14  0.12500000000E+03  0.12500000000E+03 0.  0.
        -11    1    1    0    0    0  0.11642264354E+00 -0.15706295367E+01  0.14135870203E+00  0.15812697168E+01  0.51100000000E-03 0.  1.
         11    1    1    0    0    0  0.22209850425E+02 -0.55725970332E+02  0.10819462803E+02  0.60956722361E+02  0.51100000000E-03 0. -1.
         22    1    1    0    0    0 -0.22326273069E+02  0.57296599869E+02 -0.10960821505E+02  0.62462007923E+02  0.00000000000E+00 0. -1.
</event>
<event>
 4    1  0.1977788E-002  0.9118800E+02  0.7818608E-02  0.1130116E+00
         25   -1    0    0    0    0  0.00000000000E+00  0.00000000000E+00  0.99999998245E-14  0.12500000000E+03  0.12500000000E+03 0.  0.
        -11    1    1    0    0    0 -0.40020459545E+02 -0.12181148062E+02  0.15989926500E+02  0.44784989673E+02  0.51100000000E-03 0. -1.
         11    1    1    0    0    0 -0.17244750286E+02  0.26812106346E+01  0.55290636726E+01  0.18306852495E+02  0.51100000000E-03 0.  1.
         22    1    1    0    0    0  0.57265209831E+02  0.94999374270E+01 -0.21518990173E+02  0.61908157832E+02  0.00000000000E+00 0. -1.
</event>
<event>
 4    1  0.1977788E-002  0.9118800E+02  0.7818608E-02  0.1130116E+00
         25   -1    0    0    0    0  0.00000000000E+00  0.00000000000E+00  0.99999998245E-14  0.12500000000E+03  0.12500000000E+03 0.  0.
        -11    1    1    0    0    0  0.51774113489E+02 -0.60849938445E+01  0.17392027913E+02  0.54955150922E+02  0.51100000000E-03 0.  1.
         11    1    1    0    0    0  0.70172086797E+01 -0.80357409120E+00  0.26597761669E+01  0.75472749051E+01  0.51100000000E-03 0. -1.
         22    1    1    0    0    0 -0.58791322169E+02  0.68885679357E+01 -0.20051804080E+02  0.62497574173E+02  0.00000000000E+00 0.  1.
</event>
<event>
 4    1  0.1977788E-002  0.9118800E+02  0.7818608E-02  0.1130116E+00
         25   -1    0    0    0    0  0.00000000000E+00  0.00000000000E+00  0.99999998245E-14  0.12500000000E+03  0.12500000000E+03 0.  0.
        -11    1    1    0    0    0  0.23797370615E+02  0.36813515423E+02 -0.17433752451E+02  0.47175051571E+02  0.51100000000E-03 0.  1.
         11    1    1    0    0    0  0.77561657299E+01  0.11947764974E+02 -0.56521845608E+01  0.15324959552E+02  0.51100000000E-03 0. -1.
         22    1    1    0    0    0 -0.31553536345E+02 -0.48761280397E+02  0.23085937012E+02  0.62499988876E+02  0.00000000000E+00 0.  1.
</event>
<event>
 4    1  0.1977788E-002  0.9118800E+02  0.7818608E-02  0.1130116E+00
         25   -1    0    0    0    0  0.00000000000E+00  0.00000000000E+00  0.99999998245E-14  0.12500000000E+03  0.12500000000E+03 0.  0.
        -11    1    1    0    0    0 -0.11788471280E+02 -0.21942231962E+02  0.14545485964E+01  0.24950857911E+02  0.51100000000E-03 0. -1.
         11    1    1    0    0    0 -0.17751462235E+02 -0.33015211827E+02  0.21953329565E+01  0.37549142607E+02  0.51100000000E-03 0.  1.
         22    1    1    0    0    0  0.29539933515E+02  0.54957443789E+02 -0.36498815529E+01  0.62499999482E+02  0.00000000000E+00 0.  1.
</event>
<event>
 4    1  0.1977788E-002  0.9118800E+02  0.7818608E-02  0.1130116E+00
         25   -1    0    0    0    0  0.00000000000E+00  0.00000000000E+00  0.99999998245E-14  0.12500000000E+03  0.12500000000E+03 0.  0.
        -11    1    1    0    0    0 -0.19600282836E+01 -0.12388315832E+02 -0.28939583686E+01  0.12871949166E+02  0.51100000000E-03 0.  1.
         11    1    1    0    0    0  0.30185214817E+02  0.46994768851E+02 -0.23116045303E+02  0.60448383300E+02  0.51100000000E-03 0. -1.
         22    1    1    0    0    0 -0.28225186534E+02 -0.34606453019E+02  0.26010003671E+02  0.51679667534E+02  0.00000000000E+00 0. -1.
</event>
<event>
 4    1  0.1977788E-002  0.9118800E+02  0.7818608E-02  0.1130116E+00
         25   -1    0    0    0    0  0.00000000000E+00  0.00000000000E+00  0.99999998245E-14  0.12500000000E+03  0.12500000000E+03 0.  0.
        -11    1    1    0    0    0 -0.95011169277E+01 -0.19956763164E+02 -0.36115792222E+02  0.42342579834E+02  0.51100000000E-03 0. -1.
         11    1    1    0    0    0 -0.23998913691E+01 -0.14898283535E+02 -0.13918458959E+02  0.20529048466E+02  0.51100000000E-03 0.  1.
         22    1    1    0    0    0  0.11901008297E+02  0.34855046699E+02  0.50034251181E+02  0.62128371700E+02  0.00000000000E+00 0. -1.
</event>
<event>
 4    1  0.1977788E-002  0.9118800E+02  0.7818608E-02  0.1130116E+00
         25   -1    0    0    0    0  0.00000000000E+00  0.00000000000E+00  0.99999998245E-14  0.12500000000E+03  0.12500000000E+03 0.  0.
        -11    1    1    0    0    0  0.11879695487E+01  0.11073907950E+01  0.35029424162E+01  0.38611127740E+01  0.51100000000E-03 0. -1.
         11    1    1    0    0    0  0.14281156415E+02  0.17782000904E+02  0.54026426834E+02  0.58643036939E+02  0.51100000000E-03 0.  1.
         22    1    1    0    0    0 -0.15469125964E+02 -0.18889391699E+02 -0.57529369250E+02  0.62495850287E+02  0.00000000000E+00 0.  1.
</event>
<event>
 4    1  0.1977788E-002  0.9118800E+02  0.7818608E-02  0.1130116E+00
         25   -1    0    0    0    0  0.00000000000E+00  0.00000000000E+00  0.99999998245E-14  0.12500000000E+03  0.12500000000E+03 0.  0.
        -11    1    1    0    0    0  0.31772803067E+02  0.29352291162E+02 -0.23992335918E+01  0.43322330654E+02  0.51100000000E-03 0.  1.
         11    1    1    0    0    0  0.18200467541E+01  0.20233974229E+02 -0.60344055851E+01  0.21192931235E+02  0.51100000000E-03 0. -1.
         22    1    1    0    0    0 -0.33592849821E+02 -0.49586265392E+02  0.84336391768E+01  0.60484738111E+02  0.00000000000E+00 0.  1.
</event>
<event>
 4    1  0.1977788E-002  0.9118800E+02  0.7818608E-02  0.1130116E+00
         25   -1    0    0    0    0  0.00000000000E+00  0.00000000000E+00  0.99999998245E-14  0.12500000000E+03  0.12500000000E+03 0.  0.
        -11    1    1    0    0    0  0.26640516414E+02 -0.33484309959E+02  0.25059967774E+02  0.49587479401E+02  0.51100000000E-03 0.  1.
         11    1    1    0    0    0  0.69370384577E+01 -0.87203213887E+01  0.65243146401E+01  0.12912520647E+02  0.51100000000E-03 0. -1.
         22    1    1    0    0    0 -0.33577554872E+02  0.42204631347E+02 -0.31584282414E+02  0.62499999952E+02  0.00000000000E+00 0.  1.
</event>
<event>
 4    1  0.1977788E-002  0.9118800E+02  0.7818608E-02  0.1130116E+00
         25   -1    0    0    0    0  0.00000000000E+00  0.00000000000E+00  0.99999998245E-14  0.12500000000E+03  0.12500000000E+03 0.  0.
        -11    1    1    0    0    0 -0.32328558708E+02  0.32453209515E+02  0.14640871657E+02  0.48090556652E+02  0.51100000000E-03 0. -1.
         11    1    1    0    0    0 -0.97844830106E+01  0.96294791409E+01  0.43790665790E+01  0.14409691207E+02  0.51100000000E-03 0.  1.
         22    1    1    0    0    0  0.42113041718E+02 -0.42082688656E+02 -0.19019938236E+02  0.62499752142E+02  0.00000000000E+00 0. -1.
</event>
<event>
 4    1  0.1977788E-002  0.9118800E+02  0.7818608E-02  0.1130116E+00
         25   -1    0    0    0    0  0.00000000000E+00  0.00000000000E+00  0.99999998245E-14  0.12500000000E+03  0.12500000000E+03 0.  0.
        -11    1    1    0    0    0  0.27293599931E+02  0.26792248537E+02 -0.35555815974E+02  0.52220505825E+02  0.51100000000E-03 0.  1.
         11    1    1    0    0    0  0.36190251745E+01  0.52280817261E+01 -0.81929065242E+01  0.10370819607E+02  0.51100000000E-03 0. -1.
         22    1    1    0    0    0 -0.30912625106E+02 -0.32020330263E+02  0.43748722498E+02  0.62408674567E+02  0.00000000000E+00 0.  1.
</event>
<event>
 4    1  0.1977788E-002  0.9118800E+02  0.7818608E-02  0.1130116E+00
         25   -1    0    0    0    0  0.00000000000E+00  0.00000000000E+00  0.99999998245E-14  0.12500000000E+03  0.12500000000E+03 0.  0.
        -11    1    1    0    0    0  0.62846428572E+01 -0.85438380830E+01  0.16917209493E+02  0.19967120031E+02  0.51100000000E-03 0. -1.
         11    1    1    0    0    0  0.13394379130E+02 -0.18196591726E+02  0.36034990575E+02  0.42532880090E+02  0.51100000000E-03 0.  1.
         22    1    1    0    0    0 -0.19679021987E+02  0.26740429809E+02 -0.52952200069E+02  0.62499999879E+02  0.00000000000E+00 0.  1.
</event>
<event>
 4    1  0.1977788E-002  0.9118800E+02  0.7818608E-02  0.1130116E+00
         25   -1    0    0    0    0  0.00000000000E+00  0.00000000000E+00  0.99999998245E-14  0.12500000000E+03  0.12500000000E+03 0.  0.
        -11    1    1    0    0    0 -0.40618341568E+02 -0.89762340126E+01 -0.31109793091E+02  0.51944601984E+02  0.51100000000E-03 0. -1.
         11    1    1    0    0    0 -0.82552090231E+01 -0.18384526804E+01 -0.63157062190E+01  0.10555402862E+02  0.51100000000E-03 0.  1.
         22    1    1    0    0    0  0.48873550591E+02  0.10814686693E+02  0.37425499310E+02  0.62499995154E+02  0.00000000000E+00 0.  1.
</event>
<event>
 4    1  0.1977788E-002  0.9118800E+02  0.7818608E-02  0.1130116E+00
         25   -1    0    0    0    0  0.00000000000E+00  0.00000000000E+00  0.99999998245E-14  0.12500000000E+03  0.12500000000E+03 0.  0.
        -11    1    1    0    0    0  0.21772893350E+02  0.73941885054E+01  0.37588097532E+01  0.23299389681E+02  0.51100000000E-03 0. -1.
         11    1    1    0    0    0  0.37801381898E+02  0.10438832156E+02  0.18662339776E+01  0.39260623017E+02  0.51100000000E-03 0.  1.
         22    1    1    0    0    0 -0.59574275248E+02 -0.17833020661E+02 -0.56250437308E+01  0.62439987302E+02  0.00000000000E+00 0.  1.
</event>
<event>
 4    1  0.1977788E-002  0.9118800E+02  0.7818608E-02  0.1130116E+00
         25   -1    0    0    0    0  0.00000000000E+00  0.00000000000E+00  0.99999998245E-14  0.12500000000E+03  0.12500000000E+03 0.  0.
        -11    1    1    0    0    0  0.34582434766E+02 -0.15839612102E+02 -0.63005050665E+01  0.38555602320E+02  0.51100000000E-03 0. -1.
         11    1    1    0    0    0  0.21506473353E+02 -0.97827282183E+01 -0.38865668954E+01  0.23944426700E+02  0.51100000000E-03 0.  1.
         22    1    1    0    0    0 -0.56088908119E+02  0.25622340320E+02  0.10187071962E+02  0.62499970981E+02  0.00000000000E+00 0.  1.
</event>
<event>
 4    1  0.1977788E-002  0.9118800E+02  0.7818608E-02  0.1130116E+00
         25   -1    0    0    0    0  0.00000000000E+00  0.00000000000E+00  0.99999998245E-14  0.12500000000E+03  0.12500000000E+03 0.  0.
        -11    1    1    0    0    0 -0.27752768136E+02 -0.19925046321E+02  0.50943543142E+01  0.34542380581E+02  0.51100000000E-03 0.  1.
         11    1    1    0    0    0 -0.22646514439E+02 -0.15829853145E+02  0.42683930531E+01  0.27958326959E+02  0.51100000000E-03 0. -1.
         22    1    1    0    0    0  0.50399282574E+02  0.35754899466E+02 -0.93627473673E+01  0.62499292460E+02  0.00000000000E+00 0.  1.
</event>
<event>
 4    1  0.1977788E-002  0.9118800E+02  0.7818608E-02  0.1130116E+00
         25   -1    0    0    0    0  0.00000000000E+00  0.00000000000E+00  0.99999998245E-14  0.12500000000E+03  0.12500000000E+03 0.  0.
        -11    1    1    0    0    0  0.57466001755E+02  0.17185595302E+02  0.94110407558E+01  0.60714526531E+02  0.51100000000E-03 0. -1.
         11    1    1    0    0    0  0.14621319474E+01  0.11408532334E+01 -0.58988040546E+00  0.19461076757E+01  0.51100000000E-03 0.  1.
         22    1    1    0    0    0 -0.58928133702E+02 -0.18326448535E+02 -0.88211603503E+01  0.62339365793E+02  0.00000000000E+00 0. -1.
</event>
<event>
 4    1  0.1977788E-002  0.9118800E+02  0.7818608E-02  0.1130116E+00
         25   -1    0    0    0    0  0.00000000000E+00  0.00000000000E+00  0.99999998245E-14  0.12500000000E+03  0.12500000000E+03 0.  0.
        -11    1    1    0    0    0  0.72800940691E+00  0.11609343536E+02 -0.20449924641E+02  0.23526714032E+02  0.51100000000E-03 0. -1.
         11    1    1    0    0    0  0.10199407757E+01  0.19665473025E+02 -0.33633301876E+02  0.38973967001E+02  0.51100000000E-03 0.  1.
         22    1    1    0    0    0 -0.17479501826E+01 -0.31274816561E+02  0.54083226517E+02  0.62499318967E+02  0.00000000000E+00 0.  1.
</event>
<event>
 4    1  0.1977788E-002  0.9118800E+02  0.7818608E-02  0.1130116E+00
         25   -1    0    0    0    0  0.00000000000E+00  0.00000000000E+00  0.99999998245E-14  0.12500000000E+03  0.12500000000E+03 0.  0.
        -11    1    1    0    0    0  0.18734764120E+01  0.47021337052E+01 -0.69094936036E+01  0.85651081352E+01  0.51100000000E-03 0. -1.
         11    1    1    0    0    0  0.11991980251E+02  0.29841404326E+02 -0.43297400808E+02  0.53934978627E+02  0.51100000000E-03 0.  1.
         22    1    1    0    0    0 -0.13865456663E+02 -0.34543538032E+02  0.50206894412E+02  0.62499913238E+02  0.00000000000E+00 0.  1.
</event>
<event>
 4    1  0.1977788E-002  0.9118800E+02  0.7818608E-02  0.1130116E+00
         25   -1    0    0    0    0  0.00000000000E+00  0.00000000000E+00  0.99999998245E-14  0.12500000000E+03  0.12500000000E+03 0.  0.
        -11    1    1    0    0    0 -0.28075094830E+01  0.21076936327E+01  0.50335322538E+01  0.61368501006E+01  0.51100000000E-03 0. -1.
         11    1    1    0    0    0 -0.25784161016E+02  0.19354029430E+02  0.46232058727E+02  0.56363149920E+02  0.51100000000E-03 0. -1.
         22    1    1    0    0    0  0.28591670499E+02 -0.21461723063E+02 -0.51265590981E+02  0.62499999979E+02  0.00000000000E+00 0. -1.
</event>
<event>
 4    1  0.1977788E-002  0.9118800E+02  0.7818608E-02  0.1130116E+00
         25   -1    0    0    0    0  0.00000000000E+00  0.00000000000E+00  0.99999998245E-14  0.12500000000E+03  0.12500000000E+03 0.  0.
        -11    1    1    0    0    0 -0.32439130861E+02  0.66230109804E+01 -0.69552677639E+01  0.33831009967E+02  0.51100000000E-03 0.  1.
         11    1    1    0    0    0 -0.27496046934E+02  0.55812207001E+01 -0.58931013820E+01  0.28668994849E+02  0.51100000000E-03 0. -1.
         22    1    1    0    0    0  0.59935177795E+02 -0.12204231681E+02  0.12848369146E+02  0.62499995184E+02  0.00000000000E+00 0.  1.
</event>
<event>
 4    1  0.1977788E-002  0.9118800E+02  0.7818608E-02  0.1130116E+00
         25   -1    0    0    0    0  0.00000000000E+00  0.00000000000E+00  0.99999998245E-14  0.12500000000E+03  0.12500000000E+03 0.  0.
        -11    1    1    0    0    0 -0.20592455550E+01  0.92405123220E+01 -0.11744847455E+00  0.94679118413E+01  0.51100000000E-03 0.  1.
         11    1    1    0    0    0 -0.79315320259E+01  0.52440512694E+02 -0.71028541857E+00  0.53041691880E+02  0.51100000000E-03 0. -1.
         22    1    1    0    0    0  0.99907775809E+01 -0.61681025016E+02  0.82773389312E+00  0.62490396279E+02  0.00000000000E+00 0. -1.
</event>
<event>
 4    1  0.1977788E-002  0.9118800E+02  0.7818608E-02  0.1130116E+00
         25   -1    0    0    0    0  0.00000000000E+00  0.00000000000E+00  0.99999998245E-14  0.12500000000E+03  0.12500000000E+03 0.  0.
        -11    1    1    0    0    0 -0.23900788560E+02  0.79201425250E+01 -0.13988450242E+02  0.28803699274E+02  0.51100000000E-03 0.  1.
         11    1    1    0    0    0 -0.16109073970E+02 -0.54666441042E+01  0.43310469109E+02  0.46531529060E+02  0.51100000000E-03 0. -1.
         22    1    1    0    0    0  0.40009862530E+02 -0.24534984208E+01 -0.29322018867E+02  0.49664771666E+02  0.00000000000E+00 0. -1.
</event>
<event>
 4    1  0.1977788E-002  0.9118800E+02  0.7818608E-02  0.1130116E+00
         25   -1    0    0    0    0  0.00000000000E+00  0.00000000000E+00  0.99999998245E-14  0.12500000000E+03  0.12500000000E+03 0.  0.
        -11    1    1    0    0    0  0.34768795830E+02 -0.32410063753E+01  0.46490888827E+02  0.58144441093E+02  0.51100000000E-03 0. -1.
         11    1    1    0    0    0  0.57504772038E+01 -0.35745299488E+00 -0.10318829797E+01  0.58532506746E+01  0.51100000000E-03 0.  1.
         22    1    1    0    0    0 -0.40519273034E+02  0.35984593702E+01 -0.45459005847E+02  0.61002308232E+02  0.00000000000E+00 0. -1.
</event>
<event>
 4    1  0.1977788E-002  0.9118800E+02  0.7818608E-02  0.1130116E+00
         25   -1    0    0    0    0  0.00000000000E+00  0.00000000000E+00  0.99999998245E-14  0.12500000000E+03  0.12500000000E+03 0.  0.
        -11    1    1    0    0    0 -0.13886351110E+02  0.77899208647E+01 -0.18218153949E+02  0.24195345582E+02  0.51100000000E-03 0.  1.
         11    1    1    0    0    0 -0.21984918122E+02  0.12330698104E+02 -0.28842049345E+02  0.38304654433E+02  0.51100000000E-03 0. -1.
         22    1    1    0    0    0  0.35871269233E+02 -0.20120618968E+02  0.47060203294E+02  0.62499999985E+02  0.00000000000E+00 0. -1.
</event>
<event>
 4    1  0.1977788E-002  0.9118800E+02  0.7818608E-02  0.1130116E+00
         25   -1    0    0    0    0  0.00000000000E+00  0.00000000000E+00  0.99999998245E-14  0.12500000000E+03  0.12500000000E+03 0.  0.
        -11    1    1    0    0    0  0.34646672791E+02 -0.12224518555E+02  0.58515059547E+01  0.37203103521E+02  0.51100000000E-03 0. -1.
         11    1    1    0    0    0  0.23560093718E+02 -0.83072167377E+01  0.39805922541E+01  0.25296896665E+02  0.51100000000E-03 0.  1.
         22    1    1    0    0    0 -0.58206766509E+02  0.20531735292E+02 -0.98320982088E+01  0.62499999814E+02  0.00000000000E+00 0. -1.
</event>
<event>
 4    1  0.1977788E-002  0.9118800E+02  0.7818608E-02  0.1130116E+00
         25   -1    0    0    0    0  0.00000000000E+00  0.00000000000E+00  0.99999998245E-14  0.12500000000E+03  0.12500000000E+03 0.  0.
        -11    1    1    0    0    0  0.44339041131E+02 -0.30616927081E+02  0.22501996032E+02  0.58392521935E+02  0.51100000000E-03 0.  1.
         11    1    1    0    0    0  0.30934320562E+01 -0.22322916016E+01  0.15243741403E+01  0.41080609126E+01  0.51100000000E-03 0. -1.
         22    1    1    0    0    0 -0.47432473188E+02  0.32849218682E+02 -0.24026370172E+02  0.62499417152E+02  0.00000000000E+00 0.  1.
</event>
<event>
 4    1  0.1977788E-002  0.9118800E+02  0.7818608E-02  0.1130116E+00
         25   -1    0    0    0    0  0.00000000000E+00  0.00000000000E+00  0.99999998245E-14  0.12500000000E+03  0.12500000000E+03 0.  0.
        -11    1    1    0    0    0 -0.62085185225E+01 -0.36382500914E+01 -0.53825254956E+01  0.89863311170E+01  0.51100000000E-03 0.  1.
         11    1    1    0    0    0 -0.15504851795E+02 -0.52098079144E+02 -0.73677919304E+01  0.54853392219E+02  0.51100000000E-03 0. -1.
         22    1    1    0    0    0  0.21713370318E+02  0.55736329236E+02  0.12750317426E+02  0.61160276664E+02  0.00000000000E+00 0. -1.
</event>
<event>
 4    1  0.1977788E-002  0.9118800E+02  0.7818608E-02  0.1130116E+00
         25   -1    0    0    0    0  0.00000000000E+00  0.00000000000E+00  0.99999998245E-14  0.12500000000E+03  0.12500000000E+03 0.  0.
        -11    1    1    0    0    0 -0.77857915381E+01 -0.13444555446E+02 -0.15128275506E+02  0.21685002676E+02  0.51100000000E-03 0.  1.
         11    1    1    0    0    0 -0.14543890552E+02 -0.25316733919E+02 -0.28520251467E+02  0.40815028025E+02  0.51100000000E-03 0. -1.
         22    1    1    0    0    0  0.22329682090E+02  0.38761289365E+02  0.43648526973E+02  0.62499969299E+02  0.00000000000E+00 0. -1.
</event>
<event>
 4    1  0.1977788E-002  0.9118800E+02  0.7818608E-02  0.1130116E+00
         25   -1    0    0    0    0  0.00000000000E+00  0.00000000000E+00  0.99999998245E-14  0.12500000000E+03  0.12500000000E+03 0.  0.
        -11    1    1    0    0    0 -0.26415701244E+02  0.35068628656E+02  0.44058958869E+02  0.62199596823E+02  0.51100000000E-03 0. -1.
         11    1    1    0    0    0 -0.16112435953E+00  0.19362998065E+00  0.16910164828E+00  0.30339620501E+00  0.51100000000E-03 0.  1.
         22    1    1    0    0    0  0.26576825604E+02 -0.35262258637E+02 -0.44228060518E+02  0.62497006972E+02  0.00000000000E+00 0. -1.
</event>
<event>
 4    1  0.1977788E-002  0.9118800E+02  0.7818608E-02  0.1130116E+00
         25   -1    0    0    0    0  0.00000000000E+00  0.00000000000E+00  0.99999998245E-14  0.12500000000E+03  0.12500000000E+03 0.  0.
        -11    1    1    0    0    0  0.12035592416E+02  0.70063579741E+00  0.33411365966E+02  0.35519934562E+02  0.51100000000E-03 0. -1.
         11    1    1    0    0    0  0.95431709310E+01 -0.27405244706E-01  0.25238687608E+02  0.26982665082E+02  0.51100000000E-03 0.  1.
         22    1    1    0    0    0 -0.21578763347E+02 -0.67323055270E+00 -0.58650053575E+02  0.62497400356E+02  0.00000000000E+00 0. -1.
</event>
<event>
 4    1  0.1977788E-002  0.9118800E+02  0.7818608E-02  0.1130116E+00
         25   -1    0    0    0    0  0.00000000000E+00  0.00000000000E+00  0.99999998245E-14  0.12500000000E+03  0.12500000000E+03 0.  0.
        -11    1    1    0    0    0  0.41621315079E+02  0.10468030697E+02 -0.26497806046E+02  0.50438549356E+02  0.51100000000E-03 0.  1.
         11    1    1    0    0    0  0.46671611570E+01  0.90435482362E+00 -0.12246006598E+02  0.13136397100E+02  0.51100000000E-03 0. -1.
         22    1    1    0    0    0 -0.46288476236E+02 -0.11372385521E+02  0.38743812645E+02  0.61425053544E+02  0.00000000000E+00 0.  1.
</event>
<event>
 4    1  0.1977788E-002  0.9118800E+02  0.7818608E-02  0.1130116E+00
         25   -1    0    0    0    0  0.00000000000E+00  0.00000000000E+00  0.99999998245E-14  0.12500000000E+03  0.12500000000E+03 0.  0.
        -11    1    1    0    0    0 -0.11094551849E-01 -0.14383515341E+01  0.19543572164E+01  0.24266212344E+01  0.51100000000E-03 0. -1.
         11    1    1    0    0    0  0.37948265714E+02 -0.30881249733E+02  0.35316683724E+02  0.60340621519E+02  0.51100000000E-03 0.  1.
         22    1    1    0    0    0 -0.37937171162E+02  0.32319601267E+02 -0.37271040940E+02  0.62232757247E+02  0.00000000000E+00 0.  1.
</event>
<event>
 4    1  0.1977788E-002  0.9118800E+02  0.7818608E-02  0.1130116E+00
         25   -1    0    0    0    0  0.00000000000E+00  0.00000000000E+00  0.99999998245E-14  0.12500000000E+03  0.12500000000E+03 0.  0.
        -11    1    1    0    0    0 -0.36704714232E+02  0.28648921668E+02 -0.11352762355E+02  0.47925796529E+02  0.51100000000E-03 0.  1.
         11    1    1    0    0    0 -0.11164981385E+02  0.87124444098E+01 -0.34415053074E+01  0.14574205157E+02  0.51100000000E-03 0. -1.
         22    1    1    0    0    0  0.47869695616E+02 -0.37361366078E+02  0.14794267663E+02  0.62499998314E+02  0.00000000000E+00 0. -1.
</event>
<event>
 4    1  0.1977788E-002  0.9118800E+02  0.7818608E-02  0.1130116E+00
         25   -1    0    0    0    0  0.00000000000E+00  0.00000000000E+00  0.99999998245E-14  0.12500000000E+03  0.12500000000E+03 0.  0.
        -11    1    1    0    0    0  0.21620360548E+02 -0.12305451503E+01  0.28385406169E+02  0.35702738204E+02  0.51100000000E-03 0.  1.
         11    1    1    0    0    0  0.16875456318E+02 -0.16672850209E+01  0.20758029224E+02  0.26804041539E+02  0.51100000000E-03 0. -1.
         22    1    1    0    0    0 -0.38495816866E+02  0.28978301712E+01 -0.49143435393E+02  0.62493220257E+02  0.00000000000E+00 0. -1.
</event>
<event>
 4    1  0.1977788E-002  0.9118800E+02  0.7818608E-02  0.1130116E+00
         25   -1    0    0    0    0  0.00000000000E+00  0.00000000000E+00  0.99999998245E-14  0.12500000000E+03  0.12500000000E+03 0.  0.
        -11    1    1    0    0    0 -0.26073692791E+02  0.65329642622E+01 -0.51327886723E+01  0.27365353965E+02  0.51100000000E-03 0. -1.
         11    1    1    0    0    0 -0.33766915975E+02  0.76481382219E+01 -0.59966700633E+01  0.35137710296E+02  0.51100000000E-03 0.  1.
         22    1    1    0    0    0  0.59840608766E+02 -0.14181102484E+02  0.11129458736E+02  0.62496935740E+02  0.00000000000E+00 0. -1.
</event>
<event>
 4    1  0.1977788E-002  0.9118800E+02  0.7818608E-02  0.1130116E+00
         25   -1    0    0    0    0  0.00000000000E+00  0.00000000000E+00  0.99999998245E-14  0.12500000000E+03  0.12500000000E+03 0.  0.
        -11    1    1    0    0    0 -0.46414323903E+01  0.58776906465E+01  0.81232857853E+01  0.11048887463E+02  0.51100000000E-03 0. -1.
         11    1    1    0    0    0 -0.21582726369E+02  0.27370445926E+02  0.37845233601E+02  0.51451113635E+02  0.51100000000E-03 0.  1.
         22    1    1    0    0    0  0.26224158759E+02 -0.33248136572E+02 -0.45968519386E+02  0.62499998902E+02  0.00000000000E+00 0.  1.
</event>
<event>
 4    1  0.1977788E-002  0.9118800E+02  0.7818608E-02  0.1130116E+00
         25   -1    0    0    0    0  0.00000000000E+00  0.00000000000E+00  0.99999998245E-14  0.12500000000E+03  0.12500000000E+03 0.  0.
        -11    1    1    0    0    0  0.21388524625E+02 -0.11739414600E+02 -0.18486601773E+02  0.30611064767E+02  0.51100000000E-03 0. -1.
         11    1    1    0    0    0 -0.60750138997E+01 -0.38905945802E+02  0.43088042545E+01  0.39612424907E+02  0.51100000000E-03 0.  1.
         22    1    1    0    0    0 -0.15313510726E+02  0.50645360402E+02  0.14177797519E+02  0.54776510326E+02  0.00000000000E+00 0.  1.
</event>
<event>
 4    1  0.1977788E-002  0.9118800E+02  0.7818608E-02  0.1130116E+00
         25   -1    0    0    0    0  0.00000000000E+00  0.00000000000E+00  0.99999998245E-14  0.12500000000E+03  0.12500000000E+03 0.  0.
        -11    1    1    0    0    0 -0.50216538311E+01  0.16233577510E+02  0.66281624107E+01  0.18239478698E+02  0.51100000000E-03 0. -1.
         11    1    1    0    0    0 -0.14641983725E+02  0.38679999170E+02  0.15793374419E+02  0.44271443380E+02  0.51100000000E-03 0.  1.
         22    1    1    0    0    0  0.19663637556E+02 -0.54913576680E+02 -0.22421536830E+02  0.62489077922E+02  0.00000000000E+00 0.  1.
</event>
<event>
 4    1  0.1977788E-002  0.9118800E+02  0.7818608E-02  0.1130116E+00
         25   -1    0    0    0    0  0.00000000000E+00  0.00000000000E+00  0.99999998245E-14  0.12500000000E+03  0.12500000000E+03 0.  0.
        -11    1    1    0    0    0  0.45731650881E+02  0.74266082638E+01 -0.41851521381E+02  0.62434671816E+02  0.51100000000E-03 0. -1.
         11    1    1    0    0    0  0.68088517312E-01  0.52498746432E-01  0.15957164235E+00  0.18126095754E+00  0.51100000000E-03 0.  1.
         22    1    1    0    0    0 -0.45799739398E+02 -0.74791070102E+01  0.41691949739E+02  0.62384067226E+02  0.00000000000E+00 0. -1.
</event>
<event>
 4    1  0.1977788E-002  0.9118800E+02  0.7818608E-02  0.1130116E+00
         25   -1    0    0    0    0  0.00000000000E+00  0.00000000000E+00  0.99999998245E-14  0.12500000000E+03  0.12500000000E+03 0.  0.
        -11    1    1    0    0    0  0.67133925540E+01 -0.18454288568E+01  0.30912149064E+02  0.31686530376E+02  0.51100000000E-03 0.  1.
         11    1    1    0    0    0  0.65442617012E+01 -0.18210844185E+01  0.30055389678E+02  0.30813473654E+02  0.51100000000E-03 0. -1.
         22    1    1    0    0    0 -0.13257654255E+02  0.36665132753E+01 -0.60967538742E+02  0.62499995970E+02  0.00000000000E+00 0.  1.
</event>
<event>
 4    1  0.1977788E-002  0.9118800E+02  0.7818608E-02  0.1130116E+00
         25   -1    0    0    0    0  0.00000000000E+00  0.00000000000E+00  0.99999998245E-14  0.12500000000E+03  0.12500000000E+03 0.  0.
        -11    1    1    0    0    0 -0.33026375628E+02 -0.78347544970E+01 -0.16485794691E+02  0.37734682879E+02  0.51100000000E-03 0. -1.
         11    1    1    0    0    0 -0.22004334837E+02 -0.31290496396E+01 -0.10981961429E+02  0.24790828553E+02  0.51100000000E-03 0.  1.
         22    1    1    0    0    0  0.55030710465E+02  0.10963804137E+02  0.27467756120E+02  0.62474488567E+02  0.00000000000E+00 0. -1.
</event>
<event>
 4    1  0.1977788E-002  0.9118800E+02  0.7818608E-02  0.1130116E+00
         25   -1    0    0    0    0  0.00000000000E+00  0.00000000000E+00  0.99999998245E-14  0.12500000000E+03  0.12500000000E+03 0.  0.
        -11    1    1    0    0    0 -0.22602232062E+02  0.13408313411E+02  0.24925599844E+02  0.36220564471E+02  0.51100000000E-03 0. -1.
         11    1    1    0    0    0 -0.16387896785E+02  0.97586322069E+01  0.18078024839E+02  0.26279441507E+02  0.51100000000E-03 0.  1.
         22    1    1    0    0    0  0.38990128847E+02 -0.23166945618E+02 -0.43003624684E+02  0.62499994022E+02  0.00000000000E+00 0.  1.
</event>
<event>
 4    1  0.1977788E-002  0.9118800E+02  0.7818608E-02  0.1130116E+00
         25   -1    0    0    0    0  0.00000000000E+00  0.00000000000E+00  0.99999998245E-14  0.12500000000E+03  0.12500000000E+03 0.  0.
        -11    1    1    0    0    0 -0.15316457441E+02 -0.30401615640E+02  0.23351412669E+02  0.41281237578E+02  0.51100000000E-03 0. -1.
         11    1    1    0    0    0 -0.78685111764E+01 -0.15633518005E+02  0.11996481152E+02  0.21218763245E+02  0.51100000000E-03 0.  1.
         22    1    1    0    0    0  0.23184968617E+02  0.46035133645E+02 -0.35347893822E+02  0.62499999177E+02  0.00000000000E+00 0.  1.
</event>
<event>
 4    1  0.1977788E-002  0.9118800E+02  0.7818608E-02  0.1130116E+00
         25   -1    0    0    0    0  0.00000000000E+00  0.00000000000E+00  0.99999998245E-14  0.12500000000E+03  0.12500000000E+03 0.  0.
        -11    1    1    0    0    0  0.42070637964E+02 -0.34996016577E+02  0.15370867745E+02  0.56841211549E+02  0.51100000000E-03 0.  1.
         11    1    1    0    0    0  0.41941570968E+01 -0.34787658759E+01  0.15261574008E+01  0.56587916064E+01  0.51100000000E-03 0. -1.
         22    1    1    0    0    0 -0.46264795061E+02  0.38474782452E+02 -0.16897025146E+02  0.62499996844E+02  0.00000000000E+00 0.  1.
</event>
<event>
 4    1  0.1977788E-002  0.9118800E+02  0.7818608E-02  0.1130116E+00
         25   -1    0    0    0    0  0.00000000000E+00  0.00000000000E+00  0.99999998245E-14  0.12500000000E+03  0.12500000000E+03 0.  0.
        -11    1    1    0    0    0  0.27049526534E+01 -0.44904456383E+01 -0.13148654178E+01  0.54046037982E+01  0.51100000000E-03 0. -1.
         11    1    1    0    0    0  0.28497509368E+02 -0.47485936318E+02 -0.13887492377E+02  0.57095399402E+02  0.51100000000E-03 0.  1.
         22    1    1    0    0    0 -0.31202462021E+02  0.51976381956E+02  0.15202357795E+02  0.62499996799E+02  0.00000000000E+00 0.  1.
</event>
<event>
 4    1  0.1977788E-002  0.9118800E+02  0.7818608E-02  0.1130116E+00
         25   -1    0    0    0    0  0.00000000000E+00  0.00000000000E+00  0.99999998245E-14  0.12500000000E+03  0.12500000000E+03 0.  0.
        -11    1    1    0    0    0  0.11751627770E+02  0.24343833086E+01  0.49047618645E+01  0.12964708502E+02  0.51100000000E-03 0.  1.
         11    1    1    0    0    0  0.44858927399E+02  0.93455140515E+01  0.18817122576E+02  0.49535301580E+02  0.51100000000E-03 0. -1.
         22    1    1    0    0    0 -0.56610555169E+02 -0.11779897360E+02 -0.23721884440E+02  0.62499989918E+02  0.00000000000E+00 0. -1.
</event>
<event>
 4    1  0.1977788E-002  0.9118800E+02  0.7818608E-02  0.1130116E+00
         25   -1    0    0    0    0  0.00000000000E+00  0.00000000000E+00  0.99999998245E-14  0.12500000000E+03  0.12500000000E+03 0.  0.
        -11    1    1    0    0    0 -0.42426470245E+01  0.11210991089E+01 -0.11031526368E+01  0.45248052983E+01  0.51100000000E-03 0. -1.
         11    1    1    0    0    0 -0.36207770626E+02 -0.65150797978E+01 -0.45511630488E+02  0.58521427088E+02  0.51100000000E-03 0.  1.
         22    1    1    0    0    0  0.40450417651E+02  0.53939806888E+01  0.46614783125E+02  0.61953767614E+02  0.00000000000E+00 0.  1.
</event>
<event>
 4    1  0.1977788E-002  0.9118800E+02  0.7818608E-02  0.1130116E+00
         25   -1    0    0    0    0  0.00000000000E+00  0.00000000000E+00  0.99999998245E-14  0.12500000000E+03  0.12500000000E+03 0.  0.
        -11    1    1    0    0    0  0.38619468586E+01  0.40293720222E+01 -0.38781147006E+01  0.67963406569E+01  0.51100000000E-03 0. -1.
         11    1    1    0    0    0  0.30275874553E+02  0.34016095247E+02 -0.32083261451E+02  0.55705107319E+02  0.51100000000E-03 0.  1.
         22    1    1    0    0    0 -0.34137821411E+02 -0.38045467269E+02  0.35961376152E+02  0.62498552025E+02  0.00000000000E+00 0.  1.
</event>
<event>
 4    1  0.1977788E-002  0.9118800E+02  0.7818608E-02  0.1130116E+00
         25   -1    0    0    0    0  0.00000000000E+00  0.00000000000E+00  0.99999998245E-14  0.12500000000E+03  0.12500000000E+03 0.  0.
        -11    1    1    0    0    0  0.43522422947E+02  0.34299574987E+02  0.23586297108E+02  0.60224376751E+02  0.51100000000E-03 0.  1.
         11    1    1    0    0    0  0.15257551872E+01  0.18393470439E+01  0.67141368904E-02  0.23898058038E+01  0.51100000000E-03 0. -1.
         22    1    1    0    0    0 -0.45048178134E+02 -0.36138922031E+02 -0.23593011245E+02  0.62385817446E+02  0.00000000000E+00 0.  1.
</event>
<event>
 4    1  0.1977788E-002  0.9118800E+02  0.7818608E-02  0.1130116E+00
         25   -1    0    0    0    0  0.00000000000E+00  0.00000000000E+00  0.99999998245E-14  0.12500000000E+03  0.12500000000E+03 0.  0.
        -11    1    1    0    0    0 -0.15776473748E+02  0.46687248316E+02 -0.35904598010E+02  0.60973243622E+02  0.51100000000E-03 0. -1.
         11    1    1    0    0    0 -0.38498536596E+00  0.11804644917E+01 -0.88850544173E+00  0.15268111636E+01  0.51100000000E-03 0.  1.
         22    1    1    0    0    0  0.16161459114E+02 -0.47867712808E+02  0.36793103452E+02  0.62499945214E+02  0.00000000000E+00 0. -1.
</event>
<event>
 4    1  0.1977788E-002  0.9118800E+02  0.7818608E-02  0.1130116E+00
         25   -1    0    0    0    0  0.00000000000E+00  0.00000000000E+00  0.99999998245E-14  0.12500000000E+03  0.12500000000E+03 0.  0.
        -11    1    1    0    0    0  0.38815718525E+02 -0.13490035389E+02 -0.88188380988E+01  0.42028715958E+02  0.51100000000E-03 0.  1.
         11    1    1    0    0    0  0.20430075890E+02  0.10330062352E+01  0.91977489302E+01  0.22428858384E+02  0.51100000000E-03 0. -1.
         22    1    1    0    0    0 -0.59245794415E+02  0.12457029154E+02 -0.37891083141E+00  0.60542425658E+02  0.00000000000E+00 0.  1.
</event>
<event>
 4    1  0.1977788E-002  0.9118800E+02  0.7818608E-02  0.1130116E+00
         25   -1    0    0    0    0  0.00000000000E+00  0.00000000000E+00  0.99999998245E-14  0.12500000000E+03  0.12500000000E+03 0.  0.
        -11    1    1    0    0    0 -0.11272904998E+02  0.10693094977E+02 -0.99452556588E+01  0.18448001996E+02  0.51100000000E-03 0. -1.
         11    1    1    0    0    0 -0.27037642749E+02  0.25461539432E+02 -0.23690879408E+02  0.44052036083E+02  0.51100000000E-03 0.  1.
         22    1    1    0    0    0  0.38310547747E+02 -0.36154634409E+02  0.33636135066E+02  0.62499961921E+02  0.00000000000E+00 0.  1.
</event>
<event>
 4    1  0.1977788E-002  0.9118800E+02  0.7818608E-02  0.1130116E+00
         25   -1    0    0    0    0  0.00000000000E+00  0.00000000000E+00  0.99999998245E-14  0.12500000000E+03  0.12500000000E+03 0.  0.
        -11    1    1    0    0    0 -0.51358976007E+00  0.71845488642E+01  0.23941916672E+02  0.25001937745E+02  0.51100000000E-03 0.  1.
         11    1    1    0    0    0 -0.76325692116E+00  0.10780995310E+02  0.35906716203E+02  0.37498062480E+02  0.51100000000E-03 0. -1.
         22    1    1    0    0    0  0.12768466812E+01 -0.17965544174E+02 -0.59848632875E+02  0.62499999775E+02  0.00000000000E+00 0. -1.
</event>
<event>
 4    1  0.1977788E-002  0.9118800E+02  0.7818608E-02  0.1130116E+00
         25   -1    0    0    0    0  0.00000000000E+00  0.00000000000E+00  0.99999998245E-14  0.12500000000E+03  0.12500000000E+03 0.  0.
        -11    1    1    0    0    0  0.21405608150E+02 -0.38640762528E+02  0.30335144179E+01  0.44277655753E+02  0.51100000000E-03 0. -1.
         11    1    1    0    0    0  0.89854302092E+01 -0.15814207002E+02  0.11165255817E+01  0.18222890242E+02  0.51100000000E-03 0.  1.
         22    1    1    0    0    0 -0.30391038359E+02  0.54454969529E+02 -0.41500399996E+01  0.62499454005E+02  0.00000000000E+00 0. -1.
</event>
<event>
 4    1  0.1977788E-002  0.9118800E+02  0.7818608E-02  0.1130116E+00
         25   -1    0    0    0    0  0.00000000000E+00  0.00000000000E+00  0.99999998245E-14  0.12500000000E+03  0.12500000000E+03 0.  0.
        -11    1    1    0    0    0  0.29922946436E+02 -0.36401820644E+02  0.37138658420E+01  0.47268044907E+02  0.51100000000E-03 0. -1.
         11    1    1    0    0    0  0.96767890583E+01 -0.11707665693E+02  0.11421641905E+01  0.15232013057E+02  0.51100000000E-03 0.  1.
         22    1    1    0    0    0 -0.39599735494E+02  0.48109486337E+02 -0.48560300325E+01  0.62499942036E+02  0.00000000000E+00 0. -1.
</event>
<event>
 4    1  0.1977788E-002  0.9118800E+02  0.7818608E-02  0.1130116E+00
         25   -1    0    0    0    0  0.00000000000E+00  0.00000000000E+00  0.99999998245E-14  0.12500000000E+03  0.12500000000E+03 0.  0.
        -11    1    1    0    0    0  0.12497375800E+02  0.30555266543E+01  0.44257991271E+02  0.46090025348E+02  0.51100000000E-03 0.  1.
         11    1    1    0    0    0  0.43486924395E+01 -0.10554302469E+02  0.13849119735E+02  0.17947215501E+02  0.51100000000E-03 0. -1.
         22    1    1    0    0    0 -0.16846068239E+02  0.74987758142E+01 -0.58107111006E+02  0.60962759151E+02  0.00000000000E+00 0.  1.
</event>
<event>
 4    1  0.1977788E-002  0.9118800E+02  0.7818608E-02  0.1130116E+00
         25   -1    0    0    0    0  0.00000000000E+00  0.00000000000E+00  0.99999998245E-14  0.12500000000E+03  0.12500000000E+03 0.  0.
        -11    1    1    0    0    0  0.13497317225E+02 -0.10231682589E+02 -0.33630527096E+01  0.17267745211E+02  0.51100000000E-03 0.  1.
         11    1    1    0    0    0  0.40127790387E+02 -0.19067357050E+02 -0.91428350341E+01  0.45358517380E+02  0.51100000000E-03 0. -1.
         22    1    1    0    0    0 -0.53625107612E+02  0.29299039639E+02  0.12505887744E+02  0.62373737409E+02  0.00000000000E+00 0. -1.
</event>
<event>
 4    1  0.1977788E-002  0.9118800E+02  0.7818608E-02  0.1130116E+00
         25   -1    0    0    0    0  0.00000000000E+00  0.00000000000E+00  0.99999998245E-14  0.12500000000E+03  0.12500000000E+03 0.  0.
        -11    1    1    0    0    0  0.14087815096E+02 -0.12065424348E+02  0.44185039148E+02  0.47920336848E+02  0.51100000000E-03 0. -1.
         11    1    1    0    0    0 -0.14828621509E+01 -0.36663946391E+01  0.14499542038E+02  0.15029239814E+02  0.51100000000E-03 0.  1.
         22    1    1    0    0    0 -0.12604952945E+02  0.15731818987E+02 -0.58684581186E+02  0.62050423338E+02  0.00000000000E+00 0. -1.
</event>
<event>
 4    1  0.1977788E-002  0.9118800E+02  0.7818608E-02  0.1130116E+00
         25   -1    0    0    0    0  0.00000000000E+00  0.00000000000E+00  0.99999998245E-14  0.12500000000E+03  0.12500000000E+03 0.  0.
        -11    1    1    0    0    0 -0.16668692425E+02  0.25653970945E+02 -0.17108717404E+02  0.35052528352E+02  0.51100000000E-03 0. -1.
         11    1    1    0    0    0 -0.13029666375E+02  0.19309006060E+02 -0.14535747295E+02  0.27457200705E+02  0.51100000000E-03 0.  1.
         22    1    1    0    0    0  0.29698358800E+02 -0.44962977005E+02  0.31644464698E+02  0.62490270943E+02  0.00000000000E+00 0. -1.
</event>
<event>
 4    1  0.1977788E-002  0.9118800E+02  0.7818608E-02  0.1130116E+00
         25   -1    0    0    0    0  0.00000000000E+00  0.00000000000E+00  0.99999998245E-14  0.12500000000E+03  0.12500000000E+03 0.  0.
        -11    1    1    0    0    0 -0.41775874094E+02 -0.17625134165E+02 -0.35616444325E+02  0.57657611095E+02  0.51100000000E-03 0.  1.
         11    1    1    0    0    0 -0.35078277137E+01 -0.14810978435E+01 -0.29916926242E+01  0.48423889879E+01  0.51100000000E-03 0. -1.
         22    1    1    0    0    0  0.45283701807E+02  0.19106232008E+02  0.38608136949E+02  0.62499999917E+02  0.00000000000E+00 0.  1.
</event>
<event>
 4    1  0.1977788E-002  0.9118800E+02  0.7818608E-02  0.1130116E+00
         25   -1    0    0    0    0  0.00000000000E+00  0.00000000000E+00  0.99999998245E-14  0.12500000000E+03  0.12500000000E+03 0.  0.
        -11    1    1    0    0    0 -0.57821241518E+00  0.13376428523E+01 -0.25511411653E+01  0.29380162531E+01  0.51100000000E-03 0. -1.
         11    1    1    0    0    0 -0.11887590904E+02  0.27229999433E+02 -0.51622121072E+02  0.59561993510E+02  0.51100000000E-03 0.  1.
         22    1    1    0    0    0  0.12465803320E+02 -0.28567642285E+02  0.54173262238E+02  0.62499990237E+02  0.00000000000E+00 0.  1.
</event>
<event>
 4    1  0.1977788E-002  0.9118800E+02  0.7818608E-02  0.1130116E+00
         25   -1    0    0    0    0  0.00000000000E+00  0.00000000000E+00  0.99999998245E-14  0.12500000000E+03  0.12500000000E+03 0.  0.
        -11    1    1    0    0    0  0.11450576058E+02  0.29847090561E+02 -0.49580421935E+02  0.58993073717E+02  0.51100000000E-03 0. -1.
         11    1    1    0    0    0 -0.42815867767E+01  0.33724137700E+01 -0.51222859612E+00  0.54742614441E+01  0.51100000000E-03 0.  1.
         22    1    1    0    0    0 -0.71689892809E+01 -0.33219504331E+02  0.50092650531E+02  0.60532664839E+02  0.00000000000E+00 0. -1.
</event>
<event>
 4    1  0.1977788E-002  0.9118800E+02  0.7818608E-02  0.1130116E+00
         25   -1    0    0    0    0  0.00000000000E+00  0.00000000000E+00  0.99999998245E-14  0.12500000000E+03  0.12500000000E+03 0.  0.
        -11    1    1    0    0    0  0.34860981715E+02 -0.31030393158E+02  0.32024409697E+02  0.56601556184E+02  0.51100000000E-03 0. -1.
         11    1    1    0    0    0  0.78453482265E+01  0.35174292800E+00 -0.43331795226E+01  0.89693732735E+01  0.51100000000E-03 0.  1.
         22    1    1    0    0    0 -0.42706329941E+02  0.30678650230E+02 -0.27691230175E+02  0.59429070543E+02  0.00000000000E+00 0. -1.
</event>
<event>
 4    1  0.1977788E-002  0.9118800E+02  0.7818608E-02  0.1130116E+00
         25   -1    0    0    0    0  0.00000000000E+00  0.00000000000E+00  0.99999998245E-14  0.12500000000E+03  0.12500000000E+03 0.  0.
        -11    1    1    0    0    0 -0.21888114385E+02 -0.36697680762E+02  0.39390606708E+02  0.58115653844E+02  0.51100000000E-03 0.  1.
         11    1    1    0    0    0 -0.16420876667E+01 -0.27456041165E+01  0.29980500181E+01  0.43844153591E+01  0.51100000000E-03 0. -1.
         22    1    1    0    0    0  0.23530202052E+02  0.39443284878E+02 -0.42388656726E+02  0.62499930797E+02  0.00000000000E+00 0.  1.
</event>
<event>
 4    1  0.1977788E-002  0.9118800E+02  0.7818608E-02  0.1130116E+00
         25   -1    0    0    0    0  0.00000000000E+00  0.00000000000E+00  0.99999998245E-14  0.12500000000E+03  0.12500000000E+03 0.  0.
        -11    1    1    0    0    0  0.17475419169E+02 -0.15266800094E+01 -0.57924103817E+02  0.60522085475E+02  0.51100000000E-03 0. -1.
         11    1    1    0    0    0  0.68021540717E+00 -0.18545925574E+00 -0.18521702794E+01  0.19818231860E+01  0.51100000000E-03 0.  1.
         22    1    1    0    0    0 -0.18155634576E+02  0.17121392651E+01  0.59776274097E+02  0.62496091339E+02  0.00000000000E+00 0. -1.
</event>
<event>
 4    1  0.1977788E-002  0.9118800E+02  0.7818608E-02  0.1130116E+00
         25   -1    0    0    0    0  0.00000000000E+00  0.00000000000E+00  0.99999998245E-14  0.12500000000E+03  0.12500000000E+03 0.  0.
        -11    1    1    0    0    0 -0.14399903674E+02 -0.14694369815E+02  0.16541743948E+02  0.26399072392E+02  0.51100000000E-03 0. -1.
         11    1    1    0    0    0 -0.19684283539E+02 -0.20098365162E+02  0.22624360574E+02  0.36100927859E+02  0.51100000000E-03 0.  1.
         22    1    1    0    0    0  0.34084187214E+02  0.34792734977E+02 -0.39166104522E+02  0.62499999749E+02  0.00000000000E+00 0. -1.
</event>
<event>
 4    1  0.1977788E-002  0.9118800E+02  0.7818608E-02  0.1130116E+00
         25   -1    0    0    0    0  0.00000000000E+00  0.00000000000E+00  0.99999998245E-14  0.12500000000E+03  0.12500000000E+03 0.  0.
        -11    1    1    0    0    0  0.58579785022E+01  0.24241970148E+02  0.11989046882E+02  0.27671759507E+02  0.51100000000E-03 0.  1.
         11    1    1    0    0    0  0.73175135828E+01  0.30592647570E+02  0.14951809021E+02  0.34828331623E+02  0.51100000000E-03 0. -1.
         22    1    1    0    0    0 -0.13175492085E+02 -0.54834617718E+02 -0.26940855903E+02  0.62499908870E+02  0.00000000000E+00 0.  1.
</event>
<event>
 4    1  0.1977788E-002  0.9118800E+02  0.7818608E-02  0.1130116E+00
         25   -1    0    0    0    0  0.00000000000E+00  0.00000000000E+00  0.99999998245E-14  0.12500000000E+03  0.12500000000E+03 0.  0.
        -11    1    1    0    0    0 -0.27466794140E+01 -0.61529542363E+01  0.95467896950E+01  0.11685216617E+02  0.51100000000E-03 0.  1.
         11    1    1    0    0    0 -0.12051788853E+02 -0.26667667640E+02  0.41541954569E+02  0.50814801993E+02  0.51100000000E-03 0. -1.
         22    1    1    0    0    0  0.14798468267E+02  0.32820621876E+02 -0.51088744264E+02  0.62499981391E+02  0.00000000000E+00 0. -1.
</event>
<event>
 4    1  0.1977788E-002  0.9118800E+02  0.7818608E-02  0.1130116E+00
         25   -1    0    0    0    0  0.00000000000E+00  0.00000000000E+00  0.99999998245E-14  0.12500000000E+03  0.12500000000E+03 0.  0.
        -11    1    1    0    0    0  0.18904462025E+02  0.35097771983E+02 -0.25924354539E+02  0.47553174880E+02  0.51100000000E-03 0.  1.
         11    1    1    0    0    0  0.52120158134E+01  0.11360319287E+02 -0.82116347628E+01  0.14955029551E+02  0.51100000000E-03 0. -1.
         22    1    1    0    0    0 -0.24116477838E+02 -0.46458091270E+02  0.34135989302E+02  0.62491795569E+02  0.00000000000E+00 0.  1.
</event>
<event>
 4    1  0.1977788E-002  0.9118800E+02  0.7818608E-02  0.1130116E+00
         25   -1    0    0    0    0  0.00000000000E+00  0.00000000000E+00  0.99999998245E-14  0.12500000000E+03  0.12500000000E+03 0.  0.
        -11    1    1    0    0    0  0.10662886875E+02 -0.42837865947E+02 -0.15428396878E+02  0.46763397502E+02  0.51100000000E-03 0.  1.
         11    1    1    0    0    0  0.35865604178E+01 -0.14416361690E+02 -0.51909305224E+01  0.15736602555E+02  0.51100000000E-03 0.  1.
         22    1    1    0    0    0 -0.14249447293E+02  0.57254227638E+02  0.20619327400E+02  0.62499999944E+02  0.00000000000E+00 0.  1.
</event>
<event>
 4    1  0.1977788E-002  0.9118800E+02  0.7818608E-02  0.1130116E+00
         25   -1    0    0    0    0  0.00000000000E+00  0.00000000000E+00  0.99999998245E-14  0.12500000000E+03  0.12500000000E+03 0.  0.
        -11    1    1    0    0    0  0.93144775646E+01 -0.43340874617E+02 -0.12144401845E+02  0.45963870609E+02  0.51100000000E-03 0. -1.
         11    1    1    0    0    0  0.34046760374E+01 -0.15585923934E+02 -0.43510832787E+01  0.16536165509E+02  0.51100000000E-03 0.  1.
         22    1    1    0    0    0 -0.12719153602E+02  0.58926798551E+02  0.16495485124E+02  0.62499963882E+02  0.00000000000E+00 0. -1.
</event>
<event>
 4    1  0.1977788E-002  0.9118800E+02  0.7818608E-02  0.1130116E+00
         25   -1    0    0    0    0  0.00000000000E+00  0.00000000000E+00  0.99999998245E-14  0.12500000000E+03  0.12500000000E+03 0.  0.
        -11    1    1    0    0    0  0.19363050526E+01  0.24147005316E+01  0.76595607879E+01  0.82612909184E+01  0.51100000000E-03 0. -1.
         11    1    1    0    0    0  0.12708931019E+02  0.15866034769E+02  0.50285083161E+02  0.54238709201E+02  0.51100000000E-03 0.  1.
         22    1    1    0    0    0 -0.14645236072E+02 -0.18280735300E+02 -0.57944643949E+02  0.62499999881E+02  0.00000000000E+00 0.  1.
</event>
<event>
 4    1  0.1977788E-002  0.9118800E+02  0.7818608E-02  0.1130116E+00
         25   -1    0    0    0    0  0.00000000000E+00  0.00000000000E+00  0.99999998245E-14  0.12500000000E+03  0.12500000000E+03 0.  0.
        -11    1    1    0    0    0 -0.24878976977E+02 -0.86952725775E+01  0.15789551927E+02  0.30722649803E+02  0.51100000000E-03 0. -1.
         11    1    1    0    0    0 -0.25808456571E+02 -0.87229287164E+01  0.16360125214E+02  0.31777659027E+02  0.51100000000E-03 0.  1.
         22    1    1    0    0    0  0.50687433548E+02  0.17418201294E+02 -0.32149677140E+02  0.62499691169E+02  0.00000000000E+00 0.  1.
</event>
<event>
 4    1  0.1977788E-002  0.9118800E+02  0.7818608E-02  0.1130116E+00
         25   -1    0    0    0    0  0.00000000000E+00  0.00000000000E+00  0.99999998245E-14  0.12500000000E+03  0.12500000000E+03 0.  0.
        -11    1    1    0    0    0  0.39924252559E+02  0.18216061295E+02 -0.34425432573E+02  0.55775274446E+02  0.51100000000E-03 0. -1.
         11    1    1    0    0    0  0.48303970259E+01  0.22419613420E+01 -0.41066685293E+01  0.67248682335E+01  0.51100000000E-03 0.  1.
         22    1    1    0    0    0 -0.44754649584E+02 -0.20458022637E+02  0.38532101103E+02  0.62499857320E+02  0.00000000000E+00 0. -1.
</event>
<event>
 4    1  0.1977788E-002  0.9118800E+02  0.7818608E-02  0.1130116E+00
         25   -1    0    0    0    0  0.00000000000E+00  0.00000000000E+00  0.99999998245E-14  0.12500000000E+03  0.12500000000E+03 0.  0.
        -11    1    1    0    0    0  0.49050071916E+00 -0.16431432583E+02  0.27003531185E+02  0.31613656296E+02  0.51100000000E-03 0. -1.
         11    1    1    0    0    0  0.46910293798E+00 -0.16056016176E+02  0.26380874558E+02  0.30886344163E+02  0.51100000000E-03 0.  1.
         22    1    1    0    0    0 -0.95960365714E+00  0.32487448759E+02 -0.53384405744E+02  0.62499999541E+02  0.00000000000E+00 0.  1.
</event>
<event>
 4    1  0.1977788E-002  0.9118800E+02  0.7818608E-02  0.1130116E+00
         25   -1    0    0    0    0  0.00000000000E+00  0.00000000000E+00  0.99999998245E-14  0.12500000000E+03  0.12500000000E+03 0.  0.
        -11    1    1    0    0    0  0.66303910974E+01 -0.12367252447E+02  0.31881472684E+02  0.34833020540E+02  0.51100000000E-03 0.  1.
         11    1    1    0    0    0  0.52676614797E+01 -0.98219140617E+01  0.25322786180E+02  0.27666979479E+02  0.51100000000E-03 0. -1.
         22    1    1    0    0    0 -0.11898052577E+02  0.22189166508E+02 -0.57204258864E+02  0.62499999981E+02  0.00000000000E+00 0.  1.
</event>
<event>
 4    1  0.1977788E-002  0.9118800E+02  0.7818608E-02  0.1130116E+00
         25   -1    0    0    0    0  0.00000000000E+00  0.00000000000E+00  0.99999998245E-14  0.12500000000E+03  0.12500000000E+03 0.  0.
        -11    1    1    0    0    0  0.27142157744E+02  0.37514109272E+02 -0.38171816701E+02  0.60009105242E+02  0.51100000000E-03 0.  1.
         11    1    1    0    0    0  0.10197452279E+01  0.16283530574E+01 -0.15877869416E+01  0.24924850336E+01  0.51100000000E-03 0. -1.
         22    1    1    0    0    0 -0.28161902972E+02 -0.39142462329E+02  0.39759603643E+02  0.62498409724E+02  0.00000000000E+00 0.  1.
</event>
<event>
 4    1  0.1977788E-002  0.9118800E+02  0.7818608E-02  0.1130116E+00
         25   -1    0    0    0    0  0.00000000000E+00  0.00000000000E+00  0.99999998245E-14  0.12500000000E+03  0.12500000000E+03 0.  0.
        -11    1    1    0    0    0 -0.30882257659E+02  0.20470255428E+02 -0.18546330265E+02  0.41433218098E+02  0.51100000000E-03 0.  1.
         11    1    1    0    0    0 -0.15703616834E+02  0.10408208805E+02 -0.94273490629E+01  0.21066781976E+02  0.51100000000E-03 0. -1.
         22    1    1    0    0    0  0.46585874493E+02 -0.30878464233E+02  0.27973679327E+02  0.62499999926E+02  0.00000000000E+00 0.  1.
</event>
<event>
 4    1  0.1977788E-002  0.9118800E+02  0.7818608E-02  0.1130116E+00
         25   -1    0    0    0    0  0.00000000000E+00  0.00000000000E+00  0.99999998245E-14  0.12500000000E+03  0.12500000000E+03 0.  0.
        -11    1    1    0    0    0 -0.36473250308E+01  0.12959497054E+02 -0.29952778683E+02  0.32839313252E+02  0.51100000000E-03 0. -1.
         11    1    1    0    0    0 -0.18550024073E+01  0.12047732114E+02 -0.27050741069E+02  0.29670380444E+02  0.51100000000E-03 0.  1.
         22    1    1    0    0    0  0.55023274382E+01 -0.25007229168E+02  0.57003519752E+02  0.62490306304E+02  0.00000000000E+00 0. -1.
</event>
<event>
 4    1  0.1977788E-002  0.9118800E+02  0.7818608E-02  0.1130116E+00
         25   -1    0    0    0    0  0.00000000000E+00  0.00000000000E+00  0.99999998245E-14  0.12500000000E+03  0.12500000000E+03 0.  0.
        -11    1    1    0    0    0  0.23635831675E+02  0.13902172733E+01 -0.68774885652E-01  0.23676781312E+02  0.51100000000E-03 0.  1.
         11    1    1    0    0    0  0.37115604207E+02  0.76119162479E+01  0.98177814106E+01  0.39139470828E+02  0.51100000000E-03 0. -1.
         22    1    1    0    0    0 -0.60751435882E+02 -0.90021335212E+01 -0.97490065250E+01  0.62183747860E+02  0.00000000000E+00 0.  1.
</event>
<event>
 4    1  0.1977788E-002  0.9118800E+02  0.7818608E-02  0.1130116E+00
         25   -1    0    0    0    0  0.00000000000E+00  0.00000000000E+00  0.99999998245E-14  0.12500000000E+03  0.12500000000E+03 0.  0.
        -11    1    1    0    0    0  0.23845714263E+01  0.22912515849E+01  0.83314107444E+00  0.34102989639E+01  0.51100000000E-03 0.  1.
         11    1    1    0    0    0  0.41318695040E+02  0.39703247974E+02  0.14422562748E+02  0.59089701099E+02  0.51100000000E-03 0. -1.
         22    1    1    0    0    0 -0.43703266466E+02 -0.41994499559E+02 -0.15255703822E+02  0.62499999937E+02  0.00000000000E+00 0. -1.
</event>
<event>
 4    1  0.1977788E-002  0.9118800E+02  0.7818608E-02  0.1130116E+00
         25   -1    0    0    0    0  0.00000000000E+00  0.00000000000E+00  0.99999998245E-14  0.12500000000E+03  0.12500000000E+03 0.  0.
        -11    1    1    0    0    0 -0.11556425975E+01  0.42481050767E+00  0.84981424916E+00  0.14960475593E+01  0.51100000000E-03 0. -1.
         11    1    1    0    0    0 -0.48048093117E+02  0.36305220138E+02  0.10306300228E+02  0.61097529296E+02  0.51100000000E-03 0.  1.
         22    1    1    0    0    0  0.49203735714E+02 -0.36730030646E+02 -0.11156114477E+02  0.62406423145E+02  0.00000000000E+00 0.  1.
</event>
<event>
 4    1  0.1977788E-002  0.9118800E+02  0.7818608E-02  0.1130116E+00
         25   -1    0    0    0    0  0.00000000000E+00  0.00000000000E+00  0.99999998245E-14  0.12500000000E+03  0.12500000000E+03 0.  0.
        -11    1    1    0    0    0 -0.10228039820E+02  0.73702444598E+01  0.81480516968E+01  0.15010797736E+02  0.51100000000E-03 0.  1.
         11    1    1    0    0    0 -0.31806803275E+02  0.23725524721E+02  0.26090599282E+02  0.47489921341E+02  0.51100000000E-03 0. -1.
         22    1    1    0    0    0  0.42034843095E+02 -0.31095769181E+02 -0.34238650979E+02  0.62499280922E+02  0.00000000000E+00 0. -1.
</event>
<event>
 4    1  0.1977788E-002  0.9118800E+02  0.7818608E-02  0.1130116E+00
         25   -1    0    0    0    0  0.00000000000E+00  0.00000000000E+00  0.99999998245E-14  0.12500000000E+03  0.12500000000E+03 0.  0.
        -11    1    1    0    0    0  0.20033733346E+02  0.40503269296E+02 -0.17692474102E+02  0.48527197895E+02  0.51100000000E-03 0.  1.
         11    1    1    0    0    0 -0.71019188954E+00  0.14804484732E+02 -0.13165445908E+01  0.14879866620E+02  0.51100000000E-03 0. -1.
         22    1    1    0    0    0 -0.19323541457E+02 -0.55307754028E+02  0.19009018692E+02  0.61592935485E+02  0.00000000000E+00 0.  1.
</event>
<event>
 4    1  0.1977788E-002  0.9118800E+02  0.7818608E-02  0.1130116E+00
         25   -1    0    0    0    0  0.00000000000E+00  0.00000000000E+00  0.99999998245E-14  0.12500000000E+03  0.12500000000E+03 0.  0.
        -11    1    1    0    0    0 -0.10213409789E+01 -0.20032813734E+02 -0.10554639649E+02  0.22666212341E+02  0.51100000000E-03 0.  1.
         11    1    1    0    0    0  0.16981463719E+02 -0.24979309564E+02 -0.27823148011E+02  0.41066574996E+02  0.51100000000E-03 0. -1.
         22    1    1    0    0    0 -0.15960122741E+02  0.45012123299E+02  0.38377787661E+02  0.61267212663E+02  0.00000000000E+00 0. -1.
</event>
<event>
 4    1  0.1977788E-002  0.9118800E+02  0.7818608E-02  0.1130116E+00
         25   -1    0    0    0    0  0.00000000000E+00  0.00000000000E+00  0.99999998245E-14  0.12500000000E+03  0.12500000000E+03 0.  0.
        -11    1    1    0    0    0 -0.33322495380E-01 -0.44900785446E+00  0.33851593505E+01  0.34149703559E+01  0.51100000000E-03 0.  1.
         11    1    1    0    0    0 -0.29130302642E+01 -0.36091232863E+01  0.58908014678E+02  0.59090318240E+02  0.51100000000E-03 0. -1.
         22    1    1    0    0    0  0.29463527596E+01  0.40581311408E+01 -0.62293174028E+02  0.62494711404E+02  0.00000000000E+00 0. -1.
</event>
<event>
 4    1  0.1977788E-002  0.9118800E+02  0.7818608E-02  0.1130116E+00
         25   -1    0    0    0    0  0.00000000000E+00  0.00000000000E+00  0.99999998245E-14  0.12500000000E+03  0.12500000000E+03 0.  0.
        -11    1    1    0    0    0 -0.33432158203E+02  0.14285955092E+02  0.48292892487E+02  0.60448334800E+02  0.51100000000E-03 0.  1.
         11    1    1    0    0    0 -0.11136706655E+01  0.49329927624E+00  0.16510727490E+01  0.20517426765E+01  0.51100000000E-03 0. -1.
         22    1    1    0    0    0  0.34545828869E+02 -0.14779254368E+02 -0.49943965236E+02  0.62499922524E+02  0.00000000000E+00 0.  1.
</event>
<event>
 4    1  0.1977788E-002  0.9118800E+02  0.7818608E-02  0.1130116E+00
         25   -1    0    0    0    0  0.00000000000E+00  0.00000000000E+00  0.99999998245E-14  0.12500000000E+03  0.12500000000E+03 0.  0.
        -11    1    1    0    0    0  0.29105983708E+02  0.34831424998E+02  0.36034962843E+02  0.57956060963E+02  0.51100000000E-03 0.  1.
         11    1    1    0    0    0  0.46890979089E+01 -0.49553920182E+01  0.29418501214E+01  0.74295377818E+01  0.51100000000E-03 0. -1.
         22    1    1    0    0    0 -0.33795081617E+02 -0.29876032979E+02 -0.38976812965E+02  0.59614401255E+02  0.00000000000E+00 0.  1.
</event>
<event>
 4    1  0.1977788E-002  0.9118800E+02  0.7818608E-02  0.1130116E+00
         25   -1    0    0    0    0  0.00000000000E+00  0.00000000000E+00  0.99999998245E-14  0.12500000000E+03  0.12500000000E+03 0.  0.
        -11    1    1    0    0    0  0.45372427860E+02 -0.36374452462E+02 -0.49336140137E+01  0.58361790148E+02  0.51100000000E-03 0. -1.
         11    1    1    0    0    0  0.18511022584E+01  0.11727110563E+01 -0.63054611423E+01  0.66753779871E+01  0.51100000000E-03 0.  1.
         22    1    1    0    0    0 -0.47223530118E+02  0.35201741406E+02  0.11239075156E+02  0.59962831864E+02  0.00000000000E+00 0. -1.
</event>
<event>
 4    1  0.1977788E-002  0.9118800E+02  0.7818608E-02  0.1130116E+00
         25   -1    0    0    0    0  0.00000000000E+00  0.00000000000E+00  0.99999998245E-14  0.12500000000E+03  0.12500000000E+03 0.  0.
        -11    1    1    0    0    0 -0.33011739830E+02  0.31644180023E+02  0.29899698799E+02  0.54636261626E+02  0.51100000000E-03 0.  1.
         11    1    1    0    0    0 -0.51252774638E+01  0.41750675583E+01  0.42735461571E+01  0.78716488244E+01  0.51100000000E-03 0. -1.
         22    1    1    0    0    0  0.38137017294E+02 -0.35819247581E+02 -0.34173244957E+02  0.62492089549E+02  0.00000000000E+00 0.  1.
</event>
<event>
 4    1  0.1977788E-002  0.9118800E+02  0.7818608E-02  0.1130116E+00
         25   -1    0    0    0    0  0.00000000000E+00  0.00000000000E+00  0.99999998245E-14  0.12500000000E+03  0.12500000000E+03 0.  0.
        -11    1    1    0    0    0  0.10356375607E+01  0.28291486743E+00  0.15785567250E+00  0.10851288651E+01  0.51100000000E-03 0.  1.
         11    1    1    0    0    0  0.54278798853E+02 -0.22145480094E+02  0.18676589464E+02  0.61525809933E+02  0.51100000000E-03 0. -1.
         22    1    1    0    0    0 -0.55314436414E+02  0.21862565227E+02 -0.18834445137E+02  0.62389061202E+02  0.00000000000E+00 0. -1.
</event>
<event>
 4    1  0.1977788E-002  0.9118800E+02  0.7818608E-02  0.1130116E+00
         25   -1    0    0    0    0  0.00000000000E+00  0.00000000000E+00  0.99999998245E-14  0.12500000000E+03  0.12500000000E+03 0.  0.
        -11    1    1    0    0    0  0.32977520662E+02  0.10256840458E+02 -0.12580150729E+02  0.36755677627E+02  0.51100000000E-03 0.  1.
         11    1    1    0    0    0  0.23098348768E+02  0.71835363868E+01 -0.88109717815E+01  0.25744322381E+02  0.51100000000E-03 0.  1.
         22    1    1    0    0    0 -0.56075869430E+02 -0.17440376844E+02  0.21391122510E+02  0.62499999993E+02  0.00000000000E+00 0.  1.
</event>
<event>
 4    1  0.1977788E-002  0.9118800E+02  0.7818608E-02  0.1130116E+00
         25   -1    0    0    0    0  0.00000000000E+00  0.00000000000E+00  0.99999998245E-14  0.12500000000E+03  0.12500000000E+03 0.  0.
        -11    1    1    0    0    0 -0.85661495247E+01 -0.10297251668E+02  0.15918005670E+02  0.20803730780E+02  0.51100000000E-03 0. -1.
         11    1    1    0    0    0 -0.17038367002E+02 -0.20834464436E+02  0.31846629081E+02  0.41696386444E+02  0.51100000000E-03 0.  1.
         22    1    1    0    0    0  0.25604516527E+02  0.31131716103E+02 -0.47764634751E+02  0.62499882776E+02  0.00000000000E+00 0.  1.
</event>
<event>
 4    1  0.1977788E-002  0.9118800E+02  0.7818608E-02  0.1130116E+00
         25   -1    0    0    0    0  0.00000000000E+00  0.00000000000E+00  0.99999998245E-14  0.12500000000E+03  0.12500000000E+03 0.  0.
        -11    1    1    0    0    0  0.13507508731E+02  0.39358378433E+02 -0.26878353435E+02  0.49537668785E+02  0.51100000000E-03 0. -1.
         11    1    1    0    0    0  0.83986704624E+01 -0.99405611093E+01 -0.14956598760E+02  0.19825545829E+02  0.51100000000E-03 0.  1.
         22    1    1    0    0    0 -0.21906179194E+02 -0.29417817324E+02  0.41834952195E+02  0.55636785386E+02  0.00000000000E+00 0. -1.
</event>
<event>
 4    1  0.1977788E-002  0.9118800E+02  0.7818608E-02  0.1130116E+00
         25   -1    0    0    0    0  0.00000000000E+00  0.00000000000E+00  0.99999998245E-14  0.12500000000E+03  0.12500000000E+03 0.  0.
        -11    1    1    0    0    0  0.25506477269E+02 -0.22279592911E+02  0.18776615849E+02  0.38723661319E+02  0.51100000000E-03 0.  1.
         11    1    1    0    0    0  0.15512941704E+02 -0.13843673515E+02  0.11533895857E+02  0.23776656842E+02  0.51100000000E-03 0. -1.
         22    1    1    0    0    0 -0.41019418972E+02  0.36123266426E+02 -0.30310511706E+02  0.62499681839E+02  0.00000000000E+00 0. -1.
</event>
<event>
 4    1  0.1977788E-002  0.9118800E+02  0.7818608E-02  0.1130116E+00
         25   -1    0    0    0    0  0.00000000000E+00  0.00000000000E+00  0.99999998245E-14  0.12500000000E+03  0.12500000000E+03 0.  0.
        -11    1    1    0    0    0 -0.96824438010E+01  0.79025661990E+01 -0.47916774834E+01  0.13385082886E+02  0.51100000000E-03 0. -1.
         11    1    1    0    0    0 -0.31086401937E+02  0.29633547472E+02 -0.23964241327E+02  0.49181260494E+02  0.51100000000E-03 0.  1.
         22    1    1    0    0    0  0.40768845738E+02 -0.37536113671E+02  0.28755918811E+02  0.62433656620E+02  0.00000000000E+00 0.  1.
</event>
<event>
 4    1  0.1977788E-002  0.9118800E+02  0.7818608E-02  0.1130116E+00
         25   -1    0    0    0    0  0.00000000000E+00  0.00000000000E+00  0.99999998245E-14  0.12500000000E+03  0.12500000000E+03 0.  0.
        -11    1    1    0    0    0  0.96027095316E+01  0.10270799479E+02 -0.86265117150E+01  0.16496001240E+02  0.51100000000E-03 0. -1.
         11    1    1    0    0    0  0.28097854183E+02  0.26679095393E+02 -0.24817714469E+02  0.46012851383E+02  0.51100000000E-03 0.  1.
         22    1    1    0    0    0 -0.37700563715E+02 -0.36949894872E+02  0.33444226184E+02  0.62491147377E+02  0.00000000000E+00 0.  1.
</event>
<event>
 4    1  0.1977788E-002  0.9118800E+02  0.7818608E-02  0.1130116E+00
         25   -1    0    0    0    0  0.00000000000E+00  0.00000000000E+00  0.99999998245E-14  0.12500000000E+03  0.12500000000E+03 0.  0.
        -11    1    1    0    0    0 -0.11919161076E+02 -0.39829763070E+02  0.31259343392E+02  0.52015603203E+02  0.51100000000E-03 0.  1.
         11    1    1    0    0    0 -0.36137018012E+01 -0.56757127899E+01  0.83244006742E+01  0.10703653733E+02  0.51100000000E-03 0. -1.
         22    1    1    0    0    0  0.15532862878E+02  0.45505475860E+02 -0.39583744066E+02  0.62280743065E+02  0.00000000000E+00 0.  1.
</event>
<event>
 4    1  0.1977788E-002  0.9118800E+02  0.7818608E-02  0.1130116E+00
         25   -1    0    0    0    0  0.00000000000E+00  0.00000000000E+00  0.99999998245E-14  0.12500000000E+03  0.12500000000E+03 0.  0.
        -11    1    1    0    0    0  0.30032371435E+02 -0.26030640849E+01 -0.40964452251E+02  0.50860649082E+02  0.51100000000E-03 0. -1.
         11    1    1    0    0    0  0.68756208895E+01 -0.59087769381E+00 -0.93728973352E+01  0.11639351519E+02  0.51100000000E-03 0.  1.
         22    1    1    0    0    0 -0.36907992324E+02  0.31939417787E+01  0.50337349586E+02  0.62499999399E+02  0.00000000000E+00 0. -1.
</event>
<event>
 4    1  0.1977788E-002  0.9118800E+02  0.7818608E-02  0.1130116E+00
         25   -1    0    0    0    0  0.00000000000E+00  0.00000000000E+00  0.99999998245E-14  0.12500000000E+03  0.12500000000E+03 0.  0.
        -11    1    1    0    0    0  0.96907896713E-01  0.74142847688E+01 -0.13418725620E+02  0.15331118919E+02  0.51100000000E-03 0. -1.
         11    1    1    0    0    0  0.48599002105E+00  0.23729159169E+02 -0.40764384682E+02  0.47170374601E+02  0.51100000000E-03 0.  1.
         22    1    1    0    0    0 -0.58289791776E+00 -0.31143443938E+02  0.54183110302E+02  0.62498506481E+02  0.00000000000E+00 0.  1.
</event>
<event>
 4    1  0.1977788E-002  0.9118800E+02  0.7818608E-02  0.1130116E+00
         25   -1    0    0    0    0  0.00000000000E+00  0.00000000000E+00  0.99999998245E-14  0.12500000000E+03  0.12500000000E+03 0.  0.
        -11    1    1    0    0    0  0.32747588069E+02 -0.19465648090E+02  0.95384872665E+01  0.39272111217E+02  0.51100000000E-03 0. -1.
         11    1    1    0    0    0  0.19369023159E+02 -0.11513196167E+02  0.56411056743E+01  0.23227888789E+02  0.51100000000E-03 0. -1.
         22    1    1    0    0    0 -0.52116611228E+02  0.30978844257E+02 -0.15179592941E+02  0.62499999994E+02  0.00000000000E+00 0. -1.
</event>
<event>
 4    1  0.1977788E-002  0.9118800E+02  0.7818608E-02  0.1130116E+00
         25   -1    0    0    0    0  0.00000000000E+00  0.00000000000E+00  0.99999998245E-14  0.12500000000E+03  0.12500000000E+03 0.  0.
        -11    1    1    0    0    0 -0.24664561027E+02  0.28517227486E+02  0.12067400746E+02  0.39587813721E+02  0.51100000000E-03 0.  1.
         11    1    1    0    0    0 -0.14279951094E+02  0.16501853467E+02  0.69814125995E+01  0.22912186566E+02  0.51100000000E-03 0. -1.
         22    1    1    0    0    0  0.38944512121E+02 -0.45019080953E+02 -0.19048813346E+02  0.62499999713E+02  0.00000000000E+00 0.  1.
</event>
<event>
 4    1  0.1977788E-002  0.9118800E+02  0.7818608E-02  0.1130116E+00
         25   -1    0    0    0    0  0.00000000000E+00  0.00000000000E+00  0.99999998245E-14  0.12500000000E+03  0.12500000000E+03 0.  0.
        -11    1    1    0    0    0 -0.97630948427E+01 -0.60429264789E+01  0.10665617088E+00  0.11482436899E+02  0.51100000000E-03 0. -1.
         11    1    1    0    0    0 -0.42620397691E+02 -0.28044307880E+02 -0.18440949921E+00  0.51019756085E+02  0.51100000000E-03 0.  1.
         22    1    1    0    0    0  0.52383492534E+02  0.34087234359E+02  0.77753328326E-01  0.62497807016E+02  0.00000000000E+00 0.  1.
</event>
<event>
 4    1  0.1977788E-002  0.9118800E+02  0.7818608E-02  0.1130116E+00
         25   -1    0    0    0    0  0.00000000000E+00  0.00000000000E+00  0.99999998245E-14  0.12500000000E+03  0.12500000000E+03 0.  0.
        -11    1    1    0    0    0 -0.33992095204E+02 -0.41843204680E+01  0.10728029970E+02  0.35889576501E+02  0.51100000000E-03 0. -1.
         11    1    1    0    0    0 -0.25204280590E+02 -0.30986793468E+01  0.79534313068E+01  0.26610423588E+02  0.51100000000E-03 0.  1.
         22    1    1    0    0    0  0.59196375793E+02  0.72829998148E+01 -0.18681461277E+02  0.62499999911E+02  0.00000000000E+00 0. -1.
</event>
<event>
 4    1  0.1977788E-002  0.9118800E+02  0.7818608E-02  0.1130116E+00
         25   -1    0    0    0    0  0.00000000000E+00  0.00000000000E+00  0.99999998245E-14  0.12500000000E+03  0.12500000000E+03 0.  0.
        -11    1    1    0    0    0  0.25227422499E+01 -0.15889016916E+01 -0.60323533537E+01  0.67289021608E+01  0.51100000000E-03 0. -1.
         11    1    1    0    0    0  0.20906028076E+02 -0.13256110482E+02 -0.49976287494E+02  0.55771101719E+02  0.51100000000E-03 0.  1.
         22    1    1    0    0    0 -0.23428770326E+02  0.14845012173E+02  0.56008640848E+02  0.62499996120E+02  0.00000000000E+00 0.  1.
</event>
<event>
 4    1  0.1977788E-002  0.9118800E+02  0.7818608E-02  0.1130116E+00
         25   -1    0    0    0    0  0.00000000000E+00  0.00000000000E+00  0.99999998245E-14  0.12500000000E+03  0.12500000000E+03 0.  0.
        -11    1    1    0    0    0  0.29928420684E+02 -0.39009771913E+02 -0.35402567394E+02  0.60587246576E+02  0.51100000000E-03 0.  1.
         11    1    1    0    0    0  0.10632327343E+01 -0.13185041485E+01 -0.90653665797E+00  0.19211262348E+01  0.51100000000E-03 0. -1.
         22    1    1    0    0    0 -0.30991653418E+02  0.40328276062E+02  0.36309104052E+02  0.62491627189E+02  0.00000000000E+00 0.  1.
</event>
<event>
 4    1  0.1977788E-002  0.9118800E+02  0.7818608E-02  0.1130116E+00
         25   -1    0    0    0    0  0.00000000000E+00  0.00000000000E+00  0.99999998245E-14  0.12500000000E+03  0.12500000000E+03 0.  0.
        -11    1    1    0    0    0  0.20307315924E+02 -0.98927700668E+01 -0.49473629332E+02  0.54386523874E+02  0.51100000000E-03 0.  1.
         11    1    1    0    0    0  0.65653846430E+01  0.81877002512E+00 -0.55981845250E+01  0.86668523757E+01  0.51100000000E-03 0. -1.
         22    1    1    0    0    0 -0.26872700567E+02  0.90740000417E+01  0.55071813857E+02  0.61946623750E+02  0.00000000000E+00 0.  1.
</event>
<event>
 4    1  0.1977788E-002  0.9118800E+02  0.7818608E-02  0.1130116E+00
         25   -1    0    0    0    0  0.00000000000E+00  0.00000000000E+00  0.99999998245E-14  0.12500000000E+03  0.12500000000E+03 0.  0.
        -11    1    1    0    0    0  0.68083586155E+01 -0.49341687952E+02 -0.42382564870E+01  0.49989186184E+02  0.51100000000E-03 0. -1.
         11    1    1    0    0    0  0.67629462059E+01 -0.10179084253E+02  0.66533894486E+01  0.13914696872E+02  0.51100000000E-03 0.  1.
         22    1    1    0    0    0 -0.13571304821E+02  0.59520772205E+02 -0.24151329616E+01  0.61096116944E+02  0.00000000000E+00 0. -1.
</event>
<event>
 4    1  0.1977788E-002  0.9118800E+02  0.7818608E-02  0.1130116E+00
         25   -1    0    0    0    0  0.00000000000E+00  0.00000000000E+00  0.99999998245E-14  0.12500000000E+03  0.12500000000E+03 0.  0.
        -11    1    1    0    0    0 -0.64021354199E+01  0.18081270374E+02  0.10069910725E+02  0.21663858810E+02  0.51100000000E-03 0. -1.
         11    1    1    0    0    0 -0.11221789532E+02  0.34260265299E+02  0.19184179278E+02  0.40837814259E+02  0.51100000000E-03 0.  1.
         22    1    1    0    0    0  0.17623924952E+02 -0.52341535673E+02 -0.29254090003E+02  0.62498326931E+02  0.00000000000E+00 0.  1.
</event>
<event>
 4    1  0.1977788E-002  0.9118800E+02  0.7818608E-02  0.1130116E+00
         25   -1    0    0    0    0  0.00000000000E+00  0.00000000000E+00  0.99999998245E-14  0.12500000000E+03  0.12500000000E+03 0.  0.
        -11    1    1    0    0    0  0.47100066397E+02  0.77917179093E+01 -0.77713102473E+01  0.48368588834E+02  0.51100000000E-03 0. -1.
         11    1    1    0    0    0  0.13760777051E+02  0.22766404690E+01 -0.22703974583E+01  0.14131411173E+02  0.51100000000E-03 0. -1.
         22    1    1    0    0    0 -0.60860843447E+02 -0.10068358378E+02  0.10041707706E+02  0.62499999993E+02  0.00000000000E+00 0. -1.
</event>
<event>
 4    1  0.1977788E-002  0.9118800E+02  0.7818608E-02  0.1130116E+00
         25   -1    0    0    0    0  0.00000000000E+00  0.00000000000E+00  0.99999998245E-14  0.12500000000E+03  0.12500000000E+03 0.  0.
        -11    1    1    0    0    0 -0.12279447994E+02  0.14549042938E+01  0.29013797626E+02  0.31538897293E+02  0.51100000000E-03 0.  1.
         11    1    1    0    0    0 -0.12355631314E+02 -0.16938396287E+02 -0.52201819935E+02  0.56254785563E+02  0.51100000000E-03 0. -1.
         22    1    1    0    0    0  0.24635079308E+02  0.15483491993E+02  0.23188022310E+02  0.37206317144E+02  0.00000000000E+00 0. -1.
</event>
<event>
 4    1  0.1977788E-002  0.9118800E+02  0.7818608E-02  0.1130116E+00
         25   -1    0    0    0    0  0.00000000000E+00  0.00000000000E+00  0.99999998245E-14  0.12500000000E+03  0.12500000000E+03 0.  0.
        -11    1    1    0    0    0  0.12603019940E+02 -0.44551398033E+01 -0.58414040374E+01  0.14587884825E+02  0.51100000000E-03 0. -1.
         11    1    1    0    0    0  0.30620929228E+02 -0.22504531779E+02 -0.29755656307E+02  0.48264835438E+02  0.51100000000E-03 0.  1.
         22    1    1    0    0    0 -0.43223949168E+02  0.26959671582E+02  0.35597060345E+02  0.62147279737E+02  0.00000000000E+00 0.  1.
</event>
<event>
 4    1  0.1977788E-002  0.9118800E+02  0.7818608E-02  0.1130116E+00
         25   -1    0    0    0    0  0.00000000000E+00  0.00000000000E+00  0.99999998245E-14  0.12500000000E+03  0.12500000000E+03 0.  0.
        -11    1    1    0    0    0 -0.37260600852E+01 -0.66103705453E+01 -0.39623508840E+01  0.85604174719E+01  0.51100000000E-03 0.  1.
         11    1    1    0    0    0 -0.23479634711E+02 -0.41651367354E+02 -0.24966956474E+02  0.53939582539E+02  0.51100000000E-03 0. -1.
         22    1    1    0    0    0  0.27205694796E+02  0.48261737900E+02  0.28929307358E+02  0.62499999989E+02  0.00000000000E+00 0. -1.
</event>
<event>
 4    1  0.1977788E-002  0.9118800E+02  0.7818608E-02  0.1130116E+00
         25   -1    0    0    0    0  0.00000000000E+00  0.00000000000E+00  0.99999998245E-14  0.12500000000E+03  0.12500000000E+03 0.  0.
        -11    1    1    0    0    0 -0.86821297187E+00  0.10203509752E+01  0.97829349320E+01  0.98742455926E+01  0.51100000000E-03 0.  1.
         11    1    1    0    0    0 -0.41621623999E+01  0.55969150218E+01  0.52161672641E+02  0.52625936064E+02  0.51100000000E-03 0. -1.
         22    1    1    0    0    0  0.50303753718E+01 -0.66172659970E+01 -0.61944607573E+02  0.62499818344E+02  0.00000000000E+00 0. -1.
</event>
<event>
 4    1  0.1977788E-002  0.9118800E+02  0.7818608E-02  0.1130116E+00
         25   -1    0    0    0    0  0.00000000000E+00  0.00000000000E+00  0.99999998245E-14  0.12500000000E+03  0.12500000000E+03 0.  0.
        -11    1    1    0    0    0  0.10460669536E+02  0.87651290160E+01 -0.17601179825E+02  0.22272283791E+02  0.51100000000E-03 0.  1.
         11    1    1    0    0    0  0.19280993300E+02  0.16311194102E+02 -0.31313984820E+02  0.40229061650E+02  0.51100000000E-03 0. -1.
         22    1    1    0    0    0 -0.29741662836E+02 -0.25076323118E+02  0.48915164645E+02  0.62498654558E+02  0.00000000000E+00 0. -1.
</event>
<event>
 4    1  0.1977788E-002  0.9118800E+02  0.7818608E-02  0.1130116E+00
         25   -1    0    0    0    0  0.00000000000E+00  0.00000000000E+00  0.99999998245E-14  0.12500000000E+03  0.12500000000E+03 0.  0.
        -11    1    1    0    0    0 -0.74128062333E+01  0.42872096152E+01 -0.11742328193E+01  0.86434186242E+01  0.51100000000E-03 0.  1.
         11    1    1    0    0    0 -0.46007768557E+02  0.26877636929E+02 -0.78378661309E+01  0.53856794188E+02  0.51100000000E-03 0. -1.
         22    1    1    0    0    0  0.53420574790E+02 -0.31164846545E+02  0.90120989502E+01  0.62499787188E+02  0.00000000000E+00 0. -1.
</event>
<event>
 4    1  0.1977788E-002  0.9118800E+02  0.7818608E-02  0.1130116E+00
         25   -1    0    0    0    0  0.00000000000E+00  0.00000000000E+00  0.99999998245E-14  0.12500000000E+03  0.12500000000E+03 0.  0.
        -11    1    1    0    0    0  0.61237504447E+00 -0.14268542657E+01 -0.14826056747E+01  0.21468665861E+01  0.51100000000E-03 0.  1.
         11    1    1    0    0    0  0.15587895926E+02 -0.31723564898E+02 -0.48941739156E+02  0.60371027001E+02  0.51100000000E-03 0. -1.
         22    1    1    0    0    0 -0.16200270970E+02  0.33150419163E+02  0.50424344831E+02  0.62482106413E+02  0.00000000000E+00 0. -1.
</event>
<event>
 4    1  0.1977788E-002  0.9118800E+02  0.7818608E-02  0.1130116E+00
         25   -1    0    0    0    0  0.00000000000E+00  0.00000000000E+00  0.99999998245E-14  0.12500000000E+03  0.12500000000E+03 0.  0.
        -11    1    1    0    0    0  0.85974727864E+01  0.54858704147E+02 -0.74479352085E+01  0.56025580747E+02  0.51100000000E-03 0. -1.
         11    1    1    0    0    0  0.99427345731E+00  0.63392469164E+01 -0.86224981142E+00  0.64744193696E+01  0.51100000000E-03 0.  1.
         22    1    1    0    0    0 -0.95917462437E+01 -0.61197951063E+02  0.83101850199E+01  0.62499999883E+02  0.00000000000E+00 0. -1.
</event>
<event>
 4    1  0.1977788E-002  0.9118800E+02  0.7818608E-02  0.1130116E+00
         25   -1    0    0    0    0  0.00000000000E+00  0.00000000000E+00  0.99999998245E-14  0.12500000000E+03  0.12500000000E+03 0.  0.
        -11    1    1    0    0    0  0.57115319433E+01 -0.11825151995E+01  0.46472253892E+01  0.74576566974E+01  0.51100000000E-03 0.  1.
         11    1    1    0    0    0  0.41544646865E+02 -0.87158344870E+01  0.35039849053E+02  0.55042842186E+02  0.51100000000E-03 0. -1.
         22    1    1    0    0    0 -0.47256178809E+02  0.98983496865E+01 -0.39687074442E+02  0.62499501117E+02  0.00000000000E+00 0. -1.
</event>
<event>
 4    1  0.1977788E-002  0.9118800E+02  0.7818608E-02  0.1130116E+00
         25   -1    0    0    0    0  0.00000000000E+00  0.00000000000E+00  0.99999998245E-14  0.12500000000E+03  0.12500000000E+03 0.  0.
        -11    1    1    0    0    0  0.28215275228E+02 -0.46257324077E+02  0.28193918345E+02  0.61079774221E+02  0.51100000000E-03 0.  1.
         11    1    1    0    0    0 -0.30661541850E+01 -0.10681677113E+01 -0.39101259968E+01  0.50824570158E+01  0.51100000000E-03 0. -1.
         22    1    1    0    0    0 -0.25149121043E+02  0.47325491789E+02 -0.24283792348E+02  0.58837768763E+02  0.00000000000E+00 0.  1.
</event>
<event>
 4    1  0.1977788E-002  0.9118800E+02  0.7818608E-02  0.1130116E+00
         25   -1    0    0    0    0  0.00000000000E+00  0.00000000000E+00  0.99999998245E-14  0.12500000000E+03  0.12500000000E+03 0.  0.
        -11    1    1    0    0    0 -0.66078359300E+01  0.36974334254E+01  0.78489111961E+01  0.10905957860E+02  0.51100000000E-03 0. -1.
         11    1    1    0    0    0 -0.31261106062E+02  0.17491946174E+02  0.37131122414E+02  0.51594042148E+02  0.51100000000E-03 0. -1.
         22    1    1    0    0    0  0.37868941992E+02 -0.21189379600E+02 -0.44980033611E+02  0.62499999992E+02  0.00000000000E+00 0. -1.
</event>
<event>
 4    1  0.1977788E-002  0.9118800E+02  0.7818608E-02  0.1130116E+00
         25   -1    0    0    0    0  0.00000000000E+00  0.00000000000E+00  0.99999998245E-14  0.12500000000E+03  0.12500000000E+03 0.  0.
        -11    1    1    0    0    0  0.45804241848E+01  0.31952138881E+02  0.50614488804E+02  0.60031208067E+02  0.51100000000E-03 0.  1.
         11    1    1    0    0    0 -0.59223775091E+00  0.12796942127E+01  0.20980279210E+01  0.25278615963E+01  0.51100000000E-03 0. -1.
         22    1    1    0    0    0 -0.39881864339E+01 -0.33231833094E+02 -0.52712516725E+02  0.62440930337E+02  0.00000000000E+00 0.  1.
</event>
<event>
 4    1  0.1977788E-002  0.9118800E+02  0.7818608E-02  0.1130116E+00
         25   -1    0    0    0    0  0.00000000000E+00  0.00000000000E+00  0.99999998245E-14  0.12500000000E+03  0.12500000000E+03 0.  0.
        -11    1    1    0    0    0  0.31760093260E+02 -0.18339459369E+02 -0.18278358141E+02  0.40977282370E+02  0.51100000000E-03 0. -1.
         11    1    1    0    0    0  0.15122812134E+02 -0.11212276428E+02 -0.10521734257E+02  0.21566675256E+02  0.51100000000E-03 0.  1.
         22    1    1    0    0    0 -0.46882905395E+02  0.29551735797E+02  0.28800092398E+02  0.62456042374E+02  0.00000000000E+00 0. -1.
</event>
<event>
 4    1  0.1977788E-002  0.9118800E+02  0.7818608E-02  0.1130116E+00
         25   -1    0    0    0    0  0.00000000000E+00  0.00000000000E+00  0.99999998245E-14  0.12500000000E+03  0.12500000000E+03 0.  0.
        -11    1    1    0    0    0 -0.45317941348E+01  0.60021867346E+02 -0.29616069109E+01  0.60265519442E+02  0.51100000000E-03 0. -1.
         11    1    1    0    0    0  0.46619364048E+01 -0.16514437981E+02 -0.93188352725E+01  0.19526930223E+02  0.51100000000E-03 0.  1.
         22    1    1    0    0    0 -0.13014227001E+00 -0.43507429366E+02  0.12280442183E+02  0.45207550335E+02  0.00000000000E+00 0. -1.
</event>
<event>
 4    1  0.1977788E-002  0.9118800E+02  0.7818608E-02  0.1130116E+00
         25   -1    0    0    0    0  0.00000000000E+00  0.00000000000E+00  0.99999998245E-14  0.12500000000E+03  0.12500000000E+03 0.  0.
        -11    1    1    0    0    0 -0.11707970418E+02 -0.31917831714E+02 -0.30640233498E+02  0.45767329633E+02  0.51100000000E-03 0.  1.
         11    1    1    0    0    0 -0.42981675408E+01 -0.11672802454E+02 -0.11191686900E+02  0.16732675138E+02  0.51100000000E-03 0. -1.
         22    1    1    0    0    0  0.16006137959E+02  0.43590634167E+02  0.41831920398E+02  0.62499995230E+02  0.00000000000E+00 0.  1.
</event>
<event>
 4    1  0.1977788E-002  0.9118800E+02  0.7818608E-02  0.1130116E+00
         25   -1    0    0    0    0  0.00000000000E+00  0.00000000000E+00  0.99999998245E-14  0.12500000000E+03  0.12500000000E+03 0.  0.
        -11    1    1    0    0    0 -0.24056792162E+02 -0.37177309022E+02 -0.40475620152E+02  0.59992977773E+02  0.51100000000E-03 0.  1.
         11    1    1    0    0    0 -0.10023991519E+01 -0.15478663947E+01 -0.16983842065E+01  0.25070308354E+01  0.51100000000E-03 0. -1.
         22    1    1    0    0    0  0.25059191314E+02  0.38725175416E+02  0.42174004358E+02  0.62499991391E+02  0.00000000000E+00 0.  1.
</event>
<event>
 4    1  0.1977788E-002  0.9118800E+02  0.7818608E-02  0.1130116E+00
         25   -1    0    0    0    0  0.00000000000E+00  0.00000000000E+00  0.99999998245E-14  0.12500000000E+03  0.12500000000E+03 0.  0.
        -11    1    1    0    0    0 -0.39681178089E+02  0.19762748896E+02 -0.11668878314E+02  0.45840210077E+02  0.51100000000E-03 0. -1.
         11    1    1    0    0    0 -0.14122027511E+02  0.73129998200E+01 -0.49880747670E+01  0.16667108853E+02  0.51100000000E-03 0.  1.
         22    1    1    0    0    0  0.53803205600E+02 -0.27075748716E+02  0.16656953081E+02  0.62492681070E+02  0.00000000000E+00 0. -1.
</event>
<event>
 4    1  0.1977788E-002  0.9118800E+02  0.7818608E-02  0.1130116E+00
         25   -1    0    0    0    0  0.00000000000E+00  0.00000000000E+00  0.99999998245E-14  0.12500000000E+03  0.12500000000E+03 0.  0.
        -11    1    1    0    0    0 -0.43953144678E+00 -0.60834032469E+02  0.10938860466E+01  0.60845454072E+02  0.51100000000E-03 0. -1.
         11    1    1    0    0    0 -0.11292602992E-01 -0.16542063503E+01  0.31587855050E-01  0.16545465318E+01  0.51100000000E-03 0.  1.
         22    1    1    0    0    0  0.45082404977E+00  0.62488238819E+02 -0.11254739016E+01  0.62499999396E+02  0.00000000000E+00 0. -1.
</event>
<event>
 4    1  0.1977788E-002  0.9118800E+02  0.7818608E-02  0.1130116E+00
         25   -1    0    0    0    0  0.00000000000E+00  0.00000000000E+00  0.99999998245E-14  0.12500000000E+03  0.12500000000E+03 0.  0.
        -11    1    1    0    0    0  0.38026070779E+02  0.92625594187E+01 -0.20944270405E+02  0.44389633125E+02  0.51100000000E-03 0.  1.
         11    1    1    0    0    0  0.15529541913E+02  0.37617994304E+01 -0.85245480245E+01  0.18110376204E+02  0.51100000000E-03 0. -1.
         22    1    1    0    0    0 -0.53555612692E+02 -0.13024358849E+02  0.29468818430E+02  0.62499990671E+02  0.00000000000E+00 0. -1.
</event>
<event>
 4    1  0.1977788E-002  0.9118800E+02  0.7818608E-02  0.1130116E+00
         25   -1    0    0    0    0  0.00000000000E+00  0.00000000000E+00  0.99999998245E-14  0.12500000000E+03  0.12500000000E+03 0.  0.
        -11    1    1    0    0    0  0.11022733750E+02  0.80930763058E+01 -0.63710996248E+01  0.15086068212E+02  0.51100000000E-03 0. -1.
         11    1    1    0    0    0  0.34641631110E+02  0.25440654764E+02 -0.20020275018E+02  0.47413931843E+02  0.51100000000E-03 0. -1.
         22    1    1    0    0    0 -0.45664364860E+02 -0.33533731070E+02  0.26391374642E+02  0.62499999944E+02  0.00000000000E+00 0. -1.
</event>
<event>
 4    1  0.1977788E-002  0.9118800E+02  0.7818608E-02  0.1130116E+00
         25   -1    0    0    0    0  0.00000000000E+00  0.00000000000E+00  0.99999998245E-14  0.12500000000E+03  0.12500000000E+03 0.  0.
        -11    1    1    0    0    0 -0.85362081558E+01  0.87905541842E+01  0.11794268014E+02  0.17007217609E+02  0.51100000000E-03 0.  1.
         11    1    1    0    0    0 -0.17572867937E+02 -0.33065254813E+01  0.43262754042E+02  0.46812441571E+02  0.51100000000E-03 0. -1.
         22    1    1    0    0    0  0.26109076092E+02 -0.54840287029E+01 -0.55057022056E+02  0.61180340820E+02  0.00000000000E+00 0. -1.
</event>
<event>
 4    1  0.1977788E-002  0.9118800E+02  0.7818608E-02  0.1130116E+00
         25   -1    0    0    0    0  0.00000000000E+00  0.00000000000E+00  0.99999998245E-14  0.12500000000E+03  0.12500000000E+03 0.  0.
        -11    1    1    0    0    0  0.41233068791E+01 -0.35035763305E+02 -0.11554691715E+02  0.37121655013E+02  0.51100000000E-03 0.  1.
         11    1    1    0    0    0  0.11789984374E+01 -0.23400617331E+02 -0.98542632911E+01  0.25418210678E+02  0.51100000000E-03 0. -1.
         22    1    1    0    0    0 -0.53023053165E+01  0.58436380636E+02  0.21408955006E+02  0.62460134310E+02  0.00000000000E+00 0.  1.
</event>
<event>
 4    1  0.1977788E-002  0.9118800E+02  0.7818608E-02  0.1130116E+00
         25   -1    0    0    0    0  0.00000000000E+00  0.00000000000E+00  0.99999998245E-14  0.12500000000E+03  0.12500000000E+03 0.  0.
        -11    1    1    0    0    0  0.10835809358E+02 -0.28461198423E+02 -0.40511029727E+02  0.50681338872E+02  0.51100000000E-03 0. -1.
         11    1    1    0    0    0 -0.38990355526E+01 -0.12152040652E+02 -0.42791397554E+01  0.13460520330E+02  0.51100000000E-03 0.  1.
         22    1    1    0    0    0 -0.69367738058E+01  0.40613239075E+02  0.44790169482E+02  0.60858140797E+02  0.00000000000E+00 0. -1.
</event>
<event>
 4    1  0.1977788E-002  0.9118800E+02  0.7818608E-02  0.1130116E+00
         25   -1    0    0    0    0  0.00000000000E+00  0.00000000000E+00  0.99999998245E-14  0.12500000000E+03  0.12500000000E+03 0.  0.
        -11    1    1    0    0    0 -0.32547524501E+02  0.24846106733E+02  0.28164472426E+02  0.49698167755E+02  0.51100000000E-03 0.  1.
         11    1    1    0    0    0  0.24274040476E+01 -0.61096350859E+01  0.16793785725E+02  0.18034721249E+02  0.51100000000E-03 0. -1.
         22    1    1    0    0    0  0.30120120453E+02 -0.18736471647E+02 -0.44958258151E+02  0.57267110996E+02  0.00000000000E+00 0.  1.
</event>
<event>
 4    1  0.1977788E-002  0.9118800E+02  0.7818608E-02  0.1130116E+00
         25   -1    0    0    0    0  0.00000000000E+00  0.00000000000E+00  0.99999998245E-14  0.12500000000E+03  0.12500000000E+03 0.  0.
        -11    1    1    0    0    0  0.14311704206E+02  0.32122427076E+01 -0.78259978139E+01  0.16624969851E+02  0.51100000000E-03 0.  1.
         11    1    1    0    0    0  0.36443942411E+02 -0.15714808360E+02 -0.24759286628E+02  0.46777541779E+02  0.51100000000E-03 0. -1.
         22    1    1    0    0    0 -0.50755646617E+02  0.12502565653E+02  0.32585284442E+02  0.61597488371E+02  0.00000000000E+00 0. -1.
</event>
<event>
 4    1  0.1977788E-002  0.9118800E+02  0.7818608E-02  0.1130116E+00
         25   -1    0    0    0    0  0.00000000000E+00  0.00000000000E+00  0.99999998245E-14  0.12500000000E+03  0.12500000000E+03 0.  0.
        -11    1    1    0    0    0 -0.49454343824E+01  0.32269649326E+01 -0.70909208495E+00  0.59475571248E+01  0.51100000000E-03 0. -1.
         11    1    1    0    0    0 -0.47028752223E+02  0.30680747875E+02 -0.67206394467E+01  0.56552443101E+02  0.51100000000E-03 0.  1.
         22    1    1    0    0    0  0.51974186606E+02 -0.33907712808E+02  0.74297315317E+01  0.62499999774E+02  0.00000000000E+00 0.  1.
</event>
<event>
 4    1  0.1977788E-002  0.9118800E+02  0.7818608E-02  0.1130116E+00
         25   -1    0    0    0    0  0.00000000000E+00  0.00000000000E+00  0.99999998245E-14  0.12500000000E+03  0.12500000000E+03 0.  0.
        -11    1    1    0    0    0  0.15057747868E+01 -0.47778069641E+00 -0.78643883290E+00  0.17646864881E+01  0.51100000000E-03 0. -1.
         11    1    1    0    0    0  0.50365837493E+02 -0.19993127228E+02 -0.27432560184E+02  0.60737040438E+02  0.51100000000E-03 0.  1.
         22    1    1    0    0    0 -0.51871612279E+02  0.20470907924E+02  0.28218999017E+02  0.62498273074E+02  0.00000000000E+00 0.  1.
</event>
<event>
 4    1  0.1977788E-002  0.9118800E+02  0.7818608E-02  0.1130116E+00
         25   -1    0    0    0    0  0.00000000000E+00  0.00000000000E+00  0.99999998245E-14  0.12500000000E+03  0.12500000000E+03 0.  0.
        -11    1    1    0    0    0  0.42230590879E+01 -0.29938514476E+01 -0.70809516030E+01  0.87713881692E+01  0.51100000000E-03 0.  1.
         11    1    1    0    0    0  0.25868744870E+02 -0.18340403746E+02 -0.43372818211E+02  0.53728611843E+02  0.51100000000E-03 0.  1.
         22    1    1    0    0    0 -0.30091803958E+02  0.21334255194E+02  0.50453769814E+02  0.62499999988E+02  0.00000000000E+00 0.  1.
</event>
<event>
 4    1  0.1977788E-002  0.9118800E+02  0.7818608E-02  0.1130116E+00
         25   -1    0    0    0    0  0.00000000000E+00  0.00000000000E+00  0.99999998245E-14  0.12500000000E+03  0.12500000000E+03 0.  0.
        -11    1    1    0    0    0 -0.22464016827E+02 -0.21845879584E+02  0.48639022726E+02  0.57858698904E+02  0.51100000000E-03 0.  1.
         11    1    1    0    0    0  0.15662512509E+02  0.26610578454E+01 -0.16984485730E+01  0.15977492130E+02  0.51100000000E-03 0. -1.
         22    1    1    0    0    0  0.68015043177E+01  0.19184821739E+02 -0.46940574153E+02  0.51163808966E+02  0.00000000000E+00 0.  1.
</event>
<event>
 4    1  0.1977788E-002  0.9118800E+02  0.7818608E-02  0.1130116E+00
         25   -1    0    0    0    0  0.00000000000E+00  0.00000000000E+00  0.99999998245E-14  0.12500000000E+03  0.12500000000E+03 0.  0.
        -11    1    1    0    0    0 -0.27471839840E+02  0.20887157924E+02  0.27364360808E+02  0.44042974389E+02  0.51100000000E-03 0.  1.
         11    1    1    0    0    0  0.36504045825E+02 -0.65347740053E+01  0.11274775987E+02  0.38760407721E+02  0.51100000000E-03 0. -1.
         22    1    1    0    0    0 -0.90322059852E+01 -0.14352383918E+02 -0.38639136795E+02  0.42196617890E+02  0.00000000000E+00 0. -1.
</event>
<event>
 4    1  0.1977788E-002  0.9118800E+02  0.7818608E-02  0.1130116E+00
         25   -1    0    0    0    0  0.00000000000E+00  0.00000000000E+00  0.99999998245E-14  0.12500000000E+03  0.12500000000E+03 0.  0.
        -11    1    1    0    0    0  0.88266444416E+01 -0.33617239092E+02 -0.18477432980E+02  0.39362976845E+02  0.51100000000E-03 0. -1.
         11    1    1    0    0    0  0.40823914862E+01 -0.19940452971E+02 -0.11019873645E+02  0.23145738276E+02  0.51100000000E-03 0.  1.
         22    1    1    0    0    0 -0.12909035928E+02  0.53557692063E+02  0.29497306626E+02  0.62491284879E+02  0.00000000000E+00 0. -1.
</event>
<event>
 4    1  0.1977788E-002  0.9118800E+02  0.7818608E-02  0.1130116E+00
         25   -1    0    0    0    0  0.00000000000E+00  0.00000000000E+00  0.99999998245E-14  0.12500000000E+03  0.12500000000E+03 0.  0.
        -11    1    1    0    0    0  0.45979523208E+00  0.17518015469E+01  0.15282413274E+01  0.23697557113E+01  0.51100000000E-03 0. -1.
         11    1    1    0    0    0  0.11883099019E+02  0.44477739216E+02  0.38680357206E+02  0.60130253300E+02  0.51100000000E-03 0.  1.
         22    1    1    0    0    0 -0.12342894251E+02 -0.46229540763E+02 -0.40208598533E+02  0.62499990989E+02  0.00000000000E+00 0.  1.
</event>
<event>
 4    1  0.1977788E-002  0.9118800E+02  0.7818608E-02  0.1130116E+00
         25   -1    0    0    0    0  0.00000000000E+00  0.00000000000E+00  0.99999998245E-14  0.12500000000E+03  0.12500000000E+03 0.  0.
        -11    1    1    0    0    0  0.23651222736E+02  0.51218738775E+01 -0.58929837764E+01  0.24906649453E+02  0.51100000000E-03 0. -1.
         11    1    1    0    0    0  0.34536035976E+02  0.12760380484E+02 -0.79490274081E+01  0.37666326181E+02  0.51100000000E-03 0.  1.
         22    1    1    0    0    0 -0.58187258712E+02 -0.17882254361E+02  0.13842011184E+02  0.62427024365E+02  0.00000000000E+00 0.  1.
</event>
<event>
 4    1  0.1977788E-002  0.9118800E+02  0.7818608E-02  0.1130116E+00
         25   -1    0    0    0    0  0.00000000000E+00  0.00000000000E+00  0.99999998245E-14  0.12500000000E+03  0.12500000000E+03 0.  0.
        -11    1    1    0    0    0 -0.88035546369E+01 -0.14585130137E+01 -0.31322484726E+01  0.94573154336E+01  0.51100000000E-03 0. -1.
         11    1    1    0    0    0 -0.49384418056E+02 -0.69495379830E+01 -0.18070509143E+02  0.53043945233E+02  0.51100000000E-03 0.  1.
         22    1    1    0    0    0  0.58187972693E+02  0.84080509967E+01  0.21202757616E+02  0.62498739333E+02  0.00000000000E+00 0.  1.
</event>
<event>
 4    1  0.1977788E-002  0.9118800E+02  0.7818608E-02  0.1130116E+00
         25   -1    0    0    0    0  0.00000000000E+00  0.00000000000E+00  0.99999998245E-14  0.12500000000E+03  0.12500000000E+03 0.  0.
        -11    1    1    0    0    0 -0.41918297233E+02  0.13603846509E+02  0.20528808430E+02  0.48617283537E+02  0.51100000000E-03 0. -1.
         11    1    1    0    0    0 -0.12065758797E+02  0.38405910600E+01  0.56932029332E+01  0.13883271766E+02  0.51100000000E-03 0.  1.
         22    1    1    0    0    0  0.53984056030E+02 -0.17444437569E+02 -0.26222011363E+02  0.62499444697E+02  0.00000000000E+00 0. -1.
</event>
<event>
 4    1  0.1977788E-002  0.9118800E+02  0.7818608E-02  0.1130116E+00
         25   -1    0    0    0    0  0.00000000000E+00  0.00000000000E+00  0.99999998245E-14  0.12500000000E+03  0.12500000000E+03 0.  0.
        -11    1    1    0    0    0 -0.71032252973E+01 -0.46149709071E+02  0.36457502667E+02  0.59240197147E+02  0.51100000000E-03 0.  1.
         11    1    1    0    0    0 -0.39425181406E+00 -0.25401610220E+01  0.20046118749E+01  0.32598039114E+01  0.51100000000E-03 0. -1.
         22    1    1    0    0    0  0.74974771114E+01  0.48689870093E+02 -0.38462114542E+02  0.62499998942E+02  0.00000000000E+00 0.  1.
</event>
<event>
 4    1  0.1977788E-002  0.9118800E+02  0.7818608E-02  0.1130116E+00
         25   -1    0    0    0    0  0.00000000000E+00  0.00000000000E+00  0.99999998245E-14  0.12500000000E+03  0.12500000000E+03 0.  0.
        -11    1    1    0    0    0  0.26657787767E+02  0.43209045905E+02 -0.34847564961E+02  0.61579315363E+02  0.51100000000E-03 0.  1.
         11    1    1    0    0    0 -0.50498541046E+01 -0.80808357635E+00  0.15668472581E+01  0.53487415469E+01  0.51100000000E-03 0. -1.
         22    1    1    0    0    0 -0.21607933662E+02 -0.42400962328E+02  0.33280717702E+02  0.58071943090E+02  0.00000000000E+00 0.  1.
</event>
<event>
 4    1  0.1977788E-002  0.9118800E+02  0.7818608E-02  0.1130116E+00
         25   -1    0    0    0    0  0.00000000000E+00  0.00000000000E+00  0.99999998245E-14  0.12500000000E+03  0.12500000000E+03 0.  0.
        -11    1    1    0    0    0 -0.12817924918E+02 -0.37983317801E+02  0.24426965947E+02  0.46943671522E+02  0.51100000000E-03 0.  1.
         11    1    1    0    0    0 -0.41636618631E+01 -0.12597208577E+02  0.81225976048E+01  0.15556424272E+02  0.51100000000E-03 0. -1.
         22    1    1    0    0    0  0.16981586781E+02  0.50580526378E+02 -0.32549563552E+02  0.62499904205E+02  0.00000000000E+00 0.  1.
</event>
<event>
 4    1  0.1977788E-002  0.9118800E+02  0.7818608E-02  0.1130116E+00
         25   -1    0    0    0    0  0.00000000000E+00  0.00000000000E+00  0.99999998245E-14  0.12500000000E+03  0.12500000000E+03 0.  0.
        -11    1    1    0    0    0 -0.44173163018E+01 -0.26710036172E+01 -0.81027106809E+00  0.52252734950E+01  0.51100000000E-03 0.  1.
         11    1    1    0    0    0 -0.48404369908E+02 -0.29290035172E+02 -0.89165676121E+01  0.57274727103E+02  0.51100000000E-03 0. -1.
         22    1    1    0    0    0  0.52821686210E+02  0.31961038789E+02  0.97268386802E+01  0.62499999402E+02  0.00000000000E+00 0. -1.
</event>
<event>
 4    1  0.1977788E-002  0.9118800E+02  0.7818608E-02  0.1130116E+00
         25   -1    0    0    0    0  0.00000000000E+00  0.00000000000E+00  0.99999998245E-14  0.12500000000E+03  0.12500000000E+03 0.  0.
        -11    1    1    0    0    0  0.53260120999E+01  0.13316710265E+02  0.12880172439E+02  0.19276929722E+02  0.51100000000E-03 0.  1.
         11    1    1    0    0    0  0.11942753709E+02  0.29859591570E+02  0.28879217957E+02  0.43223070286E+02  0.51100000000E-03 0.  1.
         22    1    1    0    0    0 -0.17268765809E+02 -0.43176301835E+02 -0.41759390396E+02  0.62499999992E+02  0.00000000000E+00 0.  1.
</event>
<event>
 4    1  0.1977788E-002  0.9118800E+02  0.7818608E-02  0.1130116E+00
         25   -1    0    0    0    0  0.00000000000E+00  0.00000000000E+00  0.99999998245E-14  0.12500000000E+03  0.12500000000E+03 0.  0.
        -11    1    1    0    0    0 -0.38070203449E+01 -0.16017643095E+02  0.15771892730E+02  0.22799361719E+02  0.51100000000E-03 0. -1.
         11    1    1    0    0    0 -0.66283442624E+01 -0.27893310011E+02  0.27462137392E+02  0.39700638300E+02  0.51100000000E-03 0. -1.
         22    1    1    0    0    0  0.10435364607E+02  0.43910953106E+02 -0.43234030122E+02  0.62499999982E+02  0.00000000000E+00 0. -1.
</event>
<event>
 4    1  0.1977788E-002  0.9118800E+02  0.7818608E-02  0.1130116E+00
         25   -1    0    0    0    0  0.00000000000E+00  0.00000000000E+00  0.99999998245E-14  0.12500000000E+03  0.12500000000E+03 0.  0.
        -11    1    1    0    0    0  0.25315143523E+00  0.20571880791E+00  0.84218067095E+00  0.90314695411E+00  0.51100000000E-03 0.  1.
         11    1    1    0    0    0  0.17361431360E+02  0.14116655211E+02  0.57388789836E+02  0.61596854240E+02  0.51100000000E-03 0. -1.
         22    1    1    0    0    0 -0.17614582795E+02 -0.14322374019E+02 -0.58230970507E+02  0.62499998806E+02  0.00000000000E+00 0. -1.
</event>
<event>
 4    1  0.1977788E-002  0.9118800E+02  0.7818608E-02  0.1130116E+00
         25   -1    0    0    0    0  0.00000000000E+00  0.00000000000E+00  0.99999998245E-14  0.12500000000E+03  0.12500000000E+03 0.  0.
        -11    1    1    0    0    0  0.22160486588E+02 -0.37396681304E+02 -0.35987607002E+02  0.56433206504E+02  0.51100000000E-03 0. -1.
         11    1    1    0    0    0  0.23924525830E+01 -0.39582209345E+01 -0.39265675219E+01  0.60670647841E+01  0.51100000000E-03 0.  1.
         22    1    1    0    0    0 -0.24552939171E+02  0.41354902239E+02  0.39914174524E+02  0.62499728712E+02  0.00000000000E+00 0. -1.
</event>
<event>
 4    1  0.1977788E-002  0.9118800E+02  0.7818608E-02  0.1130116E+00
         25   -1    0    0    0    0  0.00000000000E+00  0.00000000000E+00  0.99999998245E-14  0.12500000000E+03  0.12500000000E+03 0.  0.
        -11    1    1    0    0    0 -0.12053962497E+02 -0.18459699786E+02  0.19654153085E+01  0.22134167834E+02  0.51100000000E-03 0.  1.
         11    1    1    0    0    0 -0.29625617748E+02  0.20450151844E+02  0.32688412281E+02  0.48625283908E+02  0.51100000000E-03 0. -1.
         22    1    1    0    0    0  0.41679580245E+02 -0.19904520578E+01 -0.34653827590E+02  0.54240548259E+02  0.00000000000E+00 0. -1.
</event>
<event>
 4    1  0.1977788E-002  0.9118800E+02  0.7818608E-02  0.1130116E+00
         25   -1    0    0    0    0  0.00000000000E+00  0.00000000000E+00  0.99999998245E-14  0.12500000000E+03  0.12500000000E+03 0.  0.
        -11    1    1    0    0    0 -0.20557466241E+02  0.11231708196E+02  0.18700412941E+02  0.29974424626E+02  0.51100000000E-03 0.  1.
         11    1    1    0    0    0 -0.27051387795E+02 -0.16546536137E+02  0.16340405197E+02  0.35673159126E+02  0.51100000000E-03 0. -1.
         22    1    1    0    0    0  0.47608854036E+02  0.53148279413E+01 -0.35040818138E+02  0.59352416248E+02  0.00000000000E+00 0.  1.
</event>
<event>
 4    1  0.1977788E-002  0.9118800E+02  0.7818608E-02  0.1130116E+00
         25   -1    0    0    0    0  0.00000000000E+00  0.00000000000E+00  0.99999998245E-14  0.12500000000E+03  0.12500000000E+03 0.  0.
        -11    1    1    0    0    0  0.32205808658E+02 -0.22413113459E+02  0.31144507464E+02  0.50095330238E+02  0.51100000000E-03 0. -1.
         11    1    1    0    0    0  0.79842626698E+01 -0.55491294144E+01  0.77028964376E+01  0.12404672564E+02  0.51100000000E-03 0.  1.
         22    1    1    0    0    0 -0.40190071327E+02  0.27962242874E+02 -0.38847403902E+02  0.62499997198E+02  0.00000000000E+00 0. -1.
</event>
<event>
 4    1  0.1977788E-002  0.9118800E+02  0.7818608E-02  0.1130116E+00
         25   -1    0    0    0    0  0.00000000000E+00  0.00000000000E+00  0.99999998245E-14  0.12500000000E+03  0.12500000000E+03 0.  0.
        -11    1    1    0    0    0  0.37863840764E+01  0.16541077984E+02 -0.17032808358E+02  0.24042889303E+02  0.51100000000E-03 0.  1.
         11    1    1    0    0    0  0.60673118193E+01  0.26469539150E+02 -0.27230509982E+02  0.38457111821E+02  0.51100000000E-03 0. -1.
         22    1    1    0    0    0 -0.98536958957E+01 -0.43010617134E+02  0.44263318339E+02  0.62499998875E+02  0.00000000000E+00 0. -1.
</event>
<event>
 4    1  0.1977788E-002  0.9118800E+02  0.7818608E-02  0.1130116E+00
         25   -1    0    0    0    0  0.00000000000E+00  0.00000000000E+00  0.99999998245E-14  0.12500000000E+03  0.12500000000E+03 0.  0.
        -11    1    1    0    0    0 -0.14243809774E+02  0.42693057326E+02  0.31485127773E+02  0.54926282705E+02  0.51100000000E-03 0.  1.
         11    1    1    0    0    0 -0.19593776351E+01  0.58928385559E+01  0.43354962007E+01  0.75737199929E+01  0.51100000000E-03 0. -1.
         22    1    1    0    0    0  0.16203187409E+02 -0.48585895882E+02 -0.35820623973E+02  0.62499997302E+02  0.00000000000E+00 0.  1.
</event>
<event>
 4    1  0.1977788E-002  0.9118800E+02  0.7818608E-02  0.1130116E+00
         25   -1    0    0    0    0  0.00000000000E+00  0.00000000000E+00  0.99999998245E-14  0.12500000000E+03  0.12500000000E+03 0.  0.
        -11    1    1    0    0    0  0.98180101696E+01 -0.57578112807E+01  0.26612095487E+02  0.28943899891E+02  0.51100000000E-03 0. -1.
         11    1    1    0    0    0 -0.40324966804E+02  0.45711691114E+01  0.16010652883E+02  0.43627279777E+02  0.51100000000E-03 0.  1.
         22    1    1    0    0    0  0.30506956634E+02  0.11866421694E+01 -0.42622748370E+02  0.52428820331E+02  0.00000000000E+00 0.  1.
</event>
<event>
 4    1  0.1977788E-002  0.9118800E+02  0.7818608E-02  0.1130116E+00
         25   -1    0    0    0    0  0.00000000000E+00  0.00000000000E+00  0.99999998245E-14  0.12500000000E+03  0.12500000000E+03 0.  0.
        -11    1    1    0    0    0  0.12962204418E+02 -0.33074849527E+02  0.59594626975E+01  0.36020544284E+02  0.51100000000E-03 0. -1.
         11    1    1    0    0    0  0.88897530397E+01 -0.24817884540E+02  0.26877019125E+01  0.26498657399E+02  0.51100000000E-03 0.  1.
         22    1    1    0    0    0 -0.21851957458E+02  0.57892734067E+02 -0.86471646100E+01  0.62480798317E+02  0.00000000000E+00 0. -1.
</event>
<event>
 4    1  0.1977788E-002  0.9118800E+02  0.7818608E-02  0.1130116E+00
         25   -1    0    0    0    0  0.00000000000E+00  0.00000000000E+00  0.99999998245E-14  0.12500000000E+03  0.12500000000E+03 0.  0.
        -11    1    1    0    0    0 -0.19746683665E+01  0.11374186861E+01 -0.77145576798E+00  0.24058638133E+01  0.51100000000E-03 0.  1.
         11    1    1    0    0    0 -0.49318040100E+02  0.28427731808E+02 -0.19258769447E+02  0.60094136285E+02  0.51100000000E-03 0. -1.
         22    1    1    0    0    0  0.51292708466E+02 -0.29565150494E+02  0.20030225215E+02  0.62499999901E+02  0.00000000000E+00 0. -1.
</event>
<event>
 4    1  0.1977788E-002  0.9118800E+02  0.7818608E-02  0.1130116E+00
         25   -1    0    0    0    0  0.00000000000E+00  0.00000000000E+00  0.99999998245E-14  0.12500000000E+03  0.12500000000E+03 0.  0.
        -11    1    1    0    0    0 -0.15189338749E+02  0.23898471930E+02  0.10282903095E+02  0.30126252149E+02  0.51100000000E-03 0. -1.
         11    1    1    0    0    0 -0.15537418736E+02  0.29029381578E+02 -0.74339508788E+00  0.32934313600E+02  0.51100000000E-03 0.  1.
         22    1    1    0    0    0  0.30726757485E+02 -0.52927853507E+02 -0.95395080070E+01  0.61939434252E+02  0.00000000000E+00 0.  1.
</event>
<event>
 4    1  0.1977788E-002  0.9118800E+02  0.7818608E-02  0.1130116E+00
         25   -1    0    0    0    0  0.00000000000E+00  0.00000000000E+00  0.99999998245E-14  0.12500000000E+03  0.12500000000E+03 0.  0.
        -11    1    1    0    0    0  0.70715758109E+00 -0.41956106876E+00  0.40077216854E-01  0.82323130367E+00  0.51100000000E-03 0. -1.
         11    1    1    0    0    0  0.51916368512E+02 -0.33291804823E+02  0.66070809043E+00  0.61677306388E+02  0.51100000000E-03 0.  1.
         22    1    1    0    0    0 -0.52623526093E+02  0.33711365892E+02 -0.70078530728E+00  0.62499462308E+02  0.00000000000E+00 0.  1.
</event>
<event>
 4    1  0.1977788E-002  0.9118800E+02  0.7818608E-02  0.1130116E+00
         25   -1    0    0    0    0  0.00000000000E+00  0.00000000000E+00  0.99999998245E-14  0.12500000000E+03  0.12500000000E+03 0.  0.
        -11    1    1    0    0    0  0.15598021733E+02 -0.14702453724E+02 -0.89751636031E+00  0.21453809996E+02  0.51100000000E-03 0.  1.
         11    1    1    0    0    0  0.29837854957E+02 -0.28135155036E+02 -0.17044688963E+01  0.41046190467E+02  0.51100000000E-03 0. -1.
         22    1    1    0    0    0 -0.45435876690E+02  0.42837608759E+02  0.26019852566E+01  0.62499999537E+02  0.00000000000E+00 0.  1.
</event>
<event>
 4    1  0.1977788E-002  0.9118800E+02  0.7818608E-02  0.1130116E+00
         25   -1    0    0    0    0  0.00000000000E+00  0.00000000000E+00  0.99999998245E-14  0.12500000000E+03  0.12500000000E+03 0.  0.
        -11    1    1    0    0    0  0.26512662280E+01 -0.15969354686E+02  0.17537503596E+02  0.23866577768E+02  0.51100000000E-03 0. -1.
         11    1    1    0    0    0  0.46768351544E+01 -0.26006327511E+02  0.28184754133E+02  0.38633951694E+02  0.51100000000E-03 0.  1.
         22    1    1    0    0    0 -0.73281013824E+01  0.41975682197E+02 -0.45722257729E+02  0.62499470539E+02  0.00000000000E+00 0. -1.
</event>
<event>
 4    1  0.1977788E-002  0.9118800E+02  0.7818608E-02  0.1130116E+00
         25   -1    0    0    0    0  0.00000000000E+00  0.00000000000E+00  0.99999998245E-14  0.12500000000E+03  0.12500000000E+03 0.  0.
        -11    1    1    0    0    0 -0.22478256529E+02  0.12703440184E+02  0.26451641766E+02  0.36964019823E+02  0.51100000000E-03 0. -1.
         11    1    1    0    0    0 -0.15517288822E+02  0.87614600946E+01  0.18290353505E+02  0.25535983767E+02  0.51100000000E-03 0.  1.
         22    1    1    0    0    0  0.37995545351E+02 -0.21464900278E+02 -0.44741995271E+02  0.62499996410E+02  0.00000000000E+00 0. -1.
</event>
<event>
 4    1  0.1977788E-002  0.9118800E+02  0.7818608E-02  0.1130116E+00
         25   -1    0    0    0    0  0.00000000000E+00  0.00000000000E+00  0.99999998245E-14  0.12500000000E+03  0.12500000000E+03 0.  0.
        -11    1    1    0    0    0  0.22954892678E+02 -0.17979322205E+02 -0.10852364000E+02  0.31112006194E+02  0.51100000000E-03 0. -1.
         11    1    1    0    0    0  0.76207357556E+01 -0.21519373655E+02 -0.23889815267E+02  0.33043642803E+02  0.51100000000E-03 0.  1.
         22    1    1    0    0    0 -0.30575628433E+02  0.39498695860E+02  0.34742179267E+02  0.60844351002E+02  0.00000000000E+00 0.  1.
</event>
<event>
 4    1  0.1977788E-002  0.9118800E+02  0.7818608E-02  0.1130116E+00
         25   -1    0    0    0    0  0.00000000000E+00  0.00000000000E+00  0.99999998245E-14  0.12500000000E+03  0.12500000000E+03 0.  0.
        -11    1    1    0    0    0  0.25881368933E+02  0.31305877032E+01  0.13664265455E+02  0.29433959773E+02  0.51100000000E-03 0.  1.
         11    1    1    0    0    0  0.29076085550E+02  0.35226596337E+01  0.15347154298E+02  0.33066040391E+02  0.51100000000E-03 0. -1.
         22    1    1    0    0    0 -0.54957454484E+02 -0.66532473370E+01 -0.29011419753E+02  0.62499999836E+02  0.00000000000E+00 0.  1.
</event>
<event>
 4    1  0.1977788E-002  0.9118800E+02  0.7818608E-02  0.1130116E+00
         25   -1    0    0    0    0  0.00000000000E+00  0.00000000000E+00  0.99999998245E-14  0.12500000000E+03  0.12500000000E+03 0.  0.
        -11    1    1    0    0    0  0.20938666724E+01 -0.19236812460E+01  0.77588555517E+00  0.29473421644E+01  0.51100000000E-03 0.  1.
         11    1    1    0    0    0  0.42306036415E+02 -0.38868994553E+02  0.15681823990E+02  0.59552657864E+02  0.51100000000E-03 0. -1.
         22    1    1    0    0    0 -0.44399903087E+02  0.40792675799E+02 -0.16457709545E+02  0.62499999972E+02  0.00000000000E+00 0. -1.
</event>
<event>
 4    1  0.1977788E-002  0.9118800E+02  0.7818608E-02  0.1130116E+00
         25   -1    0    0    0    0  0.00000000000E+00  0.00000000000E+00  0.99999998245E-14  0.12500000000E+03  0.12500000000E+03 0.  0.
        -11    1    1    0    0    0 -0.39414091302E+01  0.12273736537E+02 -0.21099585228E+02  0.24725933988E+02  0.51100000000E-03 0. -1.
         11    1    1    0    0    0  0.29688627628E+02  0.25265807305E+02 -0.15411466405E+02  0.41920030131E+02  0.51100000000E-03 0.  1.
         22    1    1    0    0    0 -0.25747218497E+02 -0.37539543842E+02  0.36511051633E+02  0.58354035881E+02  0.00000000000E+00 0. -1.
</event>
<event>
 4    1  0.1977788E-002  0.9118800E+02  0.7818608E-02  0.1130116E+00
         25   -1    0    0    0    0  0.00000000000E+00  0.00000000000E+00  0.99999998245E-14  0.12500000000E+03  0.12500000000E+03 0.  0.
        -11    1    1    0    0    0 -0.12349978323E+01  0.26749599291E+02 -0.89686554363E+01  0.28240096715E+02  0.51100000000E-03 0.  1.
         11    1    1    0    0    0 -0.13641801634E+01  0.32482542841E+02 -0.10806013361E+02  0.34259983975E+02  0.51100000000E-03 0. -1.
         22    1    1    0    0    0  0.25991779957E+01 -0.59232142132E+02  0.19774668797E+02  0.62499919310E+02  0.00000000000E+00 0.  1.
</event>
<event>
 4    1  0.1977788E-002  0.9118800E+02  0.7818608E-02  0.1130116E+00
         25   -1    0    0    0    0  0.00000000000E+00  0.00000000000E+00  0.99999998245E-14  0.12500000000E+03  0.12500000000E+03 0.  0.
        -11    1    1    0    0    0  0.63678095336E+01  0.40808660376E+02  0.10105316023E+02  0.42520738142E+02  0.51100000000E-03 0.  1.
         11    1    1    0    0    0  0.28378612677E+01  0.19205904622E+02  0.47179870596E+01  0.19979480250E+02  0.51100000000E-03 0. -1.
         22    1    1    0    0    0 -0.92056708013E+01 -0.60014564998E+02 -0.14823303083E+02  0.62499781608E+02  0.00000000000E+00 0. -1.
</event>
<event>
 4    1  0.1977788E-002  0.9118800E+02  0.7818608E-02  0.1130116E+00
         25   -1    0    0    0    0  0.00000000000E+00  0.00000000000E+00  0.99999998245E-14  0.12500000000E+03  0.12500000000E+03 0.  0.
        -11    1    1    0    0    0 -0.14888344718E+02  0.10271279300E+02 -0.28406486111E+02  0.33676259299E+02  0.51100000000E-03 0. -1.
         11    1    1    0    0    0 -0.12742694087E+02  0.87911008245E+01 -0.24313541942E+02  0.28823740707E+02  0.51100000000E-03 0. -1.
         22    1    1    0    0    0  0.27631038805E+02 -0.19062380124E+02  0.52720028053E+02  0.62499999995E+02  0.00000000000E+00 0. -1.
</event>
<event>
 4    1  0.1977788E-002  0.9118800E+02  0.7818608E-02  0.1130116E+00
         25   -1    0    0    0    0  0.00000000000E+00  0.00000000000E+00  0.99999998245E-14  0.12500000000E+03  0.12500000000E+03 0.  0.
        -11    1    1    0    0    0  0.87803994756E+01  0.27791387329E+02  0.23883978817E+02  0.37681574662E+02  0.51100000000E-03 0.  1.
         11    1    1    0    0    0  0.57820807008E+01  0.18299571701E+02  0.15736819014E+02  0.24818425707E+02  0.51100000000E-03 0. -1.
         22    1    1    0    0    0 -0.14562480176E+02 -0.46090959029E+02 -0.39620797831E+02  0.62499999631E+02  0.00000000000E+00 0. -1.
</event>
<event>
 4    1  0.1977788E-002  0.9118800E+02  0.7818608E-02  0.1130116E+00
         25   -1    0    0    0    0  0.00000000000E+00  0.00000000000E+00  0.99999998245E-14  0.12500000000E+03  0.12500000000E+03 0.  0.
        -11    1    1    0    0    0 -0.28549534736E+01 -0.38214901957E+01 -0.82752479728E+01  0.95516635161E+01  0.51100000000E-03 0. -1.
         11    1    1    0    0    0 -0.16203881730E+02 -0.20514298909E+02 -0.46045320522E+02  0.52948784548E+02  0.51100000000E-03 0.  1.
         22    1    1    0    0    0  0.19058835204E+02  0.24335789105E+02  0.54320568495E+02  0.62499551936E+02  0.00000000000E+00 0.  1.
</event>
<event>
 4    1  0.1977788E-002  0.9118800E+02  0.7818608E-02  0.1130116E+00
         25   -1    0    0    0    0  0.00000000000E+00  0.00000000000E+00  0.99999998245E-14  0.12500000000E+03  0.12500000000E+03 0.  0.
        -11    1    1    0    0    0 -0.12239411356E+02 -0.89497661757E+01 -0.14768409334E+02  0.21166185756E+02  0.51100000000E-03 0. -1.
         11    1    1    0    0    0 -0.23373763649E+02 -0.16727825501E+02 -0.29708605205E+02  0.41337080165E+02  0.51100000000E-03 0.  1.
         22    1    1    0    0    0  0.35613175005E+02  0.25677591677E+02  0.44477014538E+02  0.62496734079E+02  0.00000000000E+00 0.  1.
</event>
<event>
 4    1  0.1977788E-002  0.9118800E+02  0.7818608E-02  0.1130116E+00
         25   -1    0    0    0    0  0.00000000000E+00  0.00000000000E+00  0.99999998245E-14  0.12500000000E+03  0.12500000000E+03 0.  0.
        -11    1    1    0    0    0 -0.24447717439E+02  0.93772165757E+00  0.17423607168E+02  0.30035850194E+02  0.51100000000E-03 0. -1.
         11    1    1    0    0    0 -0.26451633460E+02  0.10427504528E+01  0.18792167329E+02  0.32464161692E+02  0.51100000000E-03 0.  1.
         22    1    1    0    0    0  0.50899350899E+02 -0.19804721103E+01 -0.36215774497E+02  0.62499988113E+02  0.00000000000E+00 0. -1.
</event>
<event>
 4    1  0.1977788E-002  0.9118800E+02  0.7818608E-02  0.1130116E+00
         25   -1    0    0    0    0  0.00000000000E+00  0.00000000000E+00  0.99999998245E-14  0.12500000000E+03  0.12500000000E+03 0.  0.
        -11    1    1    0    0    0  0.16909838597E+02  0.41871873797E+02  0.20951736241E+01  0.45206041736E+02  0.51100000000E-03 0. -1.
         11    1    1    0    0    0  0.65340554259E+01  0.15991340098E+02  0.81610468553E+00  0.17294012420E+02  0.51100000000E-03 0.  1.
         22    1    1    0    0    0 -0.23443894023E+02 -0.57863213895E+02 -0.29112783097E+01  0.62499945845E+02  0.00000000000E+00 0. -1.
</event>
<event>
 4    1  0.1977788E-002  0.9118800E+02  0.7818608E-02  0.1130116E+00
         25   -1    0    0    0    0  0.00000000000E+00  0.00000000000E+00  0.99999998245E-14  0.12500000000E+03  0.12500000000E+03 0.  0.
        -11    1    1    0    0    0  0.13504980500E+02 -0.60699681056E+01  0.63031202219E+01  0.16092182446E+02  0.51100000000E-03 0.  1.
         11    1    1    0    0    0  0.38948329610E+02 -0.17501724363E+02  0.18176985367E+02  0.46407817578E+02  0.51100000000E-03 0. -1.
         22    1    1    0    0    0 -0.52453310109E+02  0.23571692469E+02 -0.24480105589E+02  0.62499999975E+02  0.00000000000E+00 0. -1.
</event>
<event>
 4    1  0.1977788E-002  0.9118800E+02  0.7818608E-02  0.1130116E+00
         25   -1    0    0    0    0  0.00000000000E+00  0.00000000000E+00  0.99999998245E-14  0.12500000000E+03  0.12500000000E+03 0.  0.
        -11    1    1    0    0    0 -0.91061721202E+01  0.23906502006E+01 -0.95385942127E+01  0.13402326622E+02  0.51100000000E-03 0. -1.
         11    1    1    0    0    0 -0.33366118028E+02  0.87536582865E+01 -0.34937904573E+02  0.49097673487E+02  0.51100000000E-03 0.  1.
         22    1    1    0    0    0  0.42472290149E+02 -0.11144308487E+02  0.44476498786E+02  0.62499999891E+02  0.00000000000E+00 0.  1.
</event>
<event>
 4    1  0.1977788E-002  0.9118800E+02  0.7818608E-02  0.1130116E+00
         25   -1    0    0    0    0  0.00000000000E+00  0.00000000000E+00  0.99999998245E-14  0.12500000000E+03  0.12500000000E+03 0.  0.
        -11    1    1    0    0    0 -0.10455504192E+02 -0.11021771436E+01 -0.35099535361E+01  0.11083868298E+02  0.51100000000E-03 0.  1.
         11    1    1    0    0    0 -0.48488591464E+02 -0.51697664634E+01 -0.16301808141E+02  0.51416134981E+02  0.51100000000E-03 0. -1.
         22    1    1    0    0    0  0.58944095656E+02  0.62719436070E+01  0.19811761677E+02  0.62499996721E+02  0.00000000000E+00 0. -1.
</event>
<event>
 4    1  0.1977788E-002  0.9118800E+02  0.7818608E-02  0.1130116E+00
         25   -1    0    0    0    0  0.00000000000E+00  0.00000000000E+00  0.99999998245E-14  0.12500000000E+03  0.12500000000E+03 0.  0.
        -11    1    1    0    0    0  0.84052845926E+01 -0.35229159979E+02 -0.39601790004E+02  0.53666044141E+02  0.51100000000E-03 0. -1.
         11    1    1    0    0    0  0.13804450564E+01 -0.57681416138E+01 -0.65469415417E+01  0.88339985309E+01  0.51100000000E-03 0.  1.
         22    1    1    0    0    0 -0.97857296490E+01  0.40997301593E+02  0.46148731546E+02  0.62499957328E+02  0.00000000000E+00 0. -1.
</event>
<event>
 4    1  0.1977788E-002  0.9118800E+02  0.7818608E-02  0.1130116E+00
         25   -1    0    0    0    0  0.00000000000E+00  0.00000000000E+00  0.99999998245E-14  0.12500000000E+03  0.12500000000E+03 0.  0.
        -11    1    1    0    0    0  0.12044115268E+02  0.57507320992E+01 -0.39193519709E+01  0.13910174420E+02  0.51100000000E-03 0. -1.
         11    1    1    0    0    0  0.36160436598E+02  0.28973281183E+02 -0.15061252658E+02  0.48722371959E+02  0.51100000000E-03 0.  1.
         22    1    1    0    0    0 -0.48204551866E+02 -0.34724013282E+02  0.18980604629E+02  0.62367453620E+02  0.00000000000E+00 0. -1.
</event>
<event>
 4    1  0.1977788E-002  0.9118800E+02  0.7818608E-02  0.1130116E+00
         25   -1    0    0    0    0  0.00000000000E+00  0.00000000000E+00  0.99999998245E-14  0.12500000000E+03  0.12500000000E+03 0.  0.
        -11    1    1    0    0    0  0.46281166367E+01 -0.65716791952E+00  0.10818961037E+02  0.11785637507E+02  0.51100000000E-03 0.  1.
         11    1    1    0    0    0  0.19200584120E+02 -0.27865803574E+01  0.46856974002E+02  0.50714923578E+02  0.51100000000E-03 0. -1.
         22    1    1    0    0    0 -0.23828700756E+02  0.34437482769E+01 -0.57675935039E+02  0.62499438914E+02  0.00000000000E+00 0. -1.
</event>
<event>
 4    1  0.1977788E-002  0.9118800E+02  0.7818608E-02  0.1130116E+00
         25   -1    0    0    0    0  0.00000000000E+00  0.00000000000E+00  0.99999998245E-14  0.12500000000E+03  0.12500000000E+03 0.  0.
        -11    1    1    0    0    0  0.16486268687E+01  0.74750136282E-01 -0.10878865951E+00  0.16539024665E+01  0.51100000000E-03 0. -1.
         11    1    1    0    0    0  0.60636039539E+02  0.33967502215E+01 -0.37398977364E+01  0.60846150564E+02  0.51100000000E-03 0.  1.
         22    1    1    0    0    0 -0.62284666408E+02 -0.34715003578E+01  0.38486863959E+01  0.62499946970E+02  0.00000000000E+00 0.  1.
</event>
<event>
 4    1  0.1977788E-002  0.9118800E+02  0.7818608E-02  0.1130116E+00
         25   -1    0    0    0    0  0.00000000000E+00  0.00000000000E+00  0.99999998245E-14  0.12500000000E+03  0.12500000000E+03 0.  0.
        -11    1    1    0    0    0 -0.22600486246E+02 -0.42227503452E+01 -0.24727073519E+02  0.33764504500E+02  0.51100000000E-03 0.  1.
         11    1    1    0    0    0 -0.18826405377E+02 -0.35450790897E+01 -0.21419880823E+02  0.28736952168E+02  0.51100000000E-03 0. -1.
         22    1    1    0    0    0  0.41426891623E+02  0.77678294349E+01  0.46146954341E+02  0.62498543333E+02  0.00000000000E+00 0.  1.
</event>
<event>
 4    1  0.1977788E-002  0.9118800E+02  0.7818608E-02  0.1130116E+00
         25   -1    0    0    0    0  0.00000000000E+00  0.00000000000E+00  0.99999998245E-14  0.12500000000E+03  0.12500000000E+03 0.  0.
        -11    1    1    0    0    0  0.11889881637E+02  0.79702889015E+01  0.45699854245E+02  0.47889158155E+02  0.51100000000E-03 0.  1.
         11    1    1    0    0    0  0.10363796601E+02  0.37615715542E+01  0.10694393348E+02  0.15359939775E+02  0.51100000000E-03 0. -1.
         22    1    1    0    0    0 -0.22253678238E+02 -0.11731860456E+02 -0.56394247593E+02  0.61750902070E+02  0.00000000000E+00 0.  1.
</event>
<event>
 4    1  0.1977788E-002  0.9118800E+02  0.7818608E-02  0.1130116E+00
         25   -1    0    0    0    0  0.00000000000E+00  0.00000000000E+00  0.99999998245E-14  0.12500000000E+03  0.12500000000E+03 0.  0.
        -11    1    1    0    0    0 -0.31916756206E+02 -0.29029316211E+02  0.18195900797E+02  0.46823832953E+02  0.51100000000E-03 0.  1.
         11    1    1    0    0    0 -0.10937709363E+02 -0.12195024621E+01  0.13088618757E+02  0.17100661203E+02  0.51100000000E-03 0. -1.
         22    1    1    0    0    0  0.42854465569E+02  0.30248818673E+02 -0.31284519554E+02  0.61075505843E+02  0.00000000000E+00 0.  1.
</event>
<event>
 4    1  0.1977788E-002  0.9118800E+02  0.7818608E-02  0.1130116E+00
         25   -1    0    0    0    0  0.00000000000E+00  0.00000000000E+00  0.99999998245E-14  0.12500000000E+03  0.12500000000E+03 0.  0.
        -11    1    1    0    0    0  0.66210880706E+01  0.12599718950E+01 -0.10694817551E+01  0.68242309384E+01  0.51100000000E-03 0. -1.
         11    1    1    0    0    0  0.54018014774E+02  0.10280851994E+02 -0.87263637257E+01  0.55675769074E+02  0.51100000000E-03 0. -1.
         22    1    1    0    0    0 -0.60639102844E+02 -0.11540823889E+02  0.97958454807E+01  0.62499999988E+02  0.00000000000E+00 0. -1.
</event>
<event>
 4    1  0.1977788E-002  0.9118800E+02  0.7818608E-02  0.1130116E+00
         25   -1    0    0    0    0  0.00000000000E+00  0.00000000000E+00  0.99999998245E-14  0.12500000000E+03  0.12500000000E+03 0.  0.
        -11    1    1    0    0    0  0.26605670286E+02  0.32618418901E+02  0.72627586670E+00  0.42099292392E+02  0.51100000000E-03 0.  1.
         11    1    1    0    0    0  0.12891887362E+02  0.15806865327E+02  0.36215332601E+00  0.20400708481E+02  0.51100000000E-03 0. -1.
         22    1    1    0    0    0 -0.39497557649E+02 -0.48425284228E+02 -0.10884291927E+01  0.62499999127E+02  0.00000000000E+00 0. -1.
</event>
<event>
 4    1  0.1977788E-002  0.9118800E+02  0.7818608E-02  0.1130116E+00
         25   -1    0    0    0    0  0.00000000000E+00  0.00000000000E+00  0.99999998245E-14  0.12500000000E+03  0.12500000000E+03 0.  0.
        -11    1    1    0    0    0  0.36081716564E+02  0.13869457877E+02  0.29701160013E+02  0.48748446522E+02  0.51100000000E-03 0.  1.
         11    1    1    0    0    0  0.89846146409E+01  0.50143109230E+01  0.91939386896E+01  0.13798373932E+02  0.51100000000E-03 0. -1.
         22    1    1    0    0    0 -0.45066331204E+02 -0.18883768800E+02 -0.38895098702E+02  0.62453179546E+02  0.00000000000E+00 0.  1.
</event>
<event>
 4    1  0.1977788E-002  0.9118800E+02  0.7818608E-02  0.1130116E+00
         25   -1    0    0    0    0  0.00000000000E+00  0.00000000000E+00  0.99999998245E-14  0.12500000000E+03  0.12500000000E+03 0.  0.
        -11    1    1    0    0    0  0.12698484482E+00 -0.72891528047E+00  0.82833201630E+00  0.11106650383E+01  0.51100000000E-03 0.  1.
         11    1    1    0    0    0 -0.19391212016E+02 -0.38217377155E+02  0.44026457920E+02  0.61440345192E+02  0.51100000000E-03 0. -1.
         22    1    1    0    0    0  0.19264227171E+02  0.38946292436E+02 -0.44854789936E+02  0.62448989770E+02  0.00000000000E+00 0. -1.
</event>
<event>
 4    1  0.1977788E-002  0.9118800E+02  0.7818608E-02  0.1130116E+00
         25   -1    0    0    0    0  0.00000000000E+00  0.00000000000E+00  0.99999998245E-14  0.12500000000E+03  0.12500000000E+03 0.  0.
        -11    1    1    0    0    0  0.23955959754E+02 -0.16086993280E+02  0.19964758425E+02  0.35089470497E+02  0.51100000000E-03 0. -1.
         11    1    1    0    0    0  0.23101707687E+02  0.27568267092E+00  0.16435038495E+02  0.28352696337E+02  0.51100000000E-03 0.  1.
         22    1    1    0    0    0 -0.47057667442E+02  0.15811310609E+02 -0.36399796920E+02  0.61557833166E+02  0.00000000000E+00 0. -1.
</event>
<event>
 4    1  0.1977788E-002  0.9118800E+02  0.7818608E-02  0.1130116E+00
         25   -1    0    0    0    0  0.00000000000E+00  0.00000000000E+00  0.99999998245E-14  0.12500000000E+03  0.12500000000E+03 0.  0.
        -11    1    1    0    0    0  0.12795685529E+02  0.30269810011E+02 -0.28954839967E+02  0.43799243419E+02  0.51100000000E-03 0.  1.
         11    1    1    0    0    0  0.54649871118E+01  0.12923389202E+02 -0.12362775790E+02  0.18700756618E+02  0.51100000000E-03 0. -1.
         22    1    1    0    0    0 -0.18260672640E+02 -0.43193199213E+02  0.41317615757E+02  0.62499999963E+02  0.00000000000E+00 0.  1.
</event>
<event>
 4    1  0.1977788E-002  0.9118800E+02  0.7818608E-02  0.1130116E+00
         25   -1    0    0    0    0  0.00000000000E+00  0.00000000000E+00  0.99999998245E-14  0.12500000000E+03  0.12500000000E+03 0.  0.
        -11    1    1    0    0    0  0.37959147669E+01 -0.35651120856E+02 -0.40860752942E+02  0.54360026844E+02  0.51100000000E-03 0. -1.
         11    1    1    0    0    0  0.29180217094E+01 -0.41903219039E+01 -0.65780925533E+01  0.83273615423E+01  0.51100000000E-03 0.  1.
         22    1    1    0    0    0 -0.67139364763E+01  0.39841442760E+02  0.47438845496E+02  0.62312611614E+02  0.00000000000E+00 0. -1.
</event>
<event>
 4    1  0.1977788E-002  0.9118800E+02  0.7818608E-02  0.1130116E+00
         25   -1    0    0    0    0  0.00000000000E+00  0.00000000000E+00  0.99999998245E-14  0.12500000000E+03  0.12500000000E+03 0.  0.
        -11    1    1    0    0    0 -0.12349403092E+02  0.78229717991E+01 -0.39839118445E+02  0.42436564461E+02  0.51100000000E-03 0. -1.
         11    1    1    0    0    0 -0.58544888662E+01  0.37322970962E+01 -0.18823838089E+02  0.20063448411E+02  0.51100000000E-03 0.  1.
         22    1    1    0    0    0  0.18203891958E+02 -0.11555268895E+02  0.58662956534E+02  0.62499987128E+02  0.00000000000E+00 0. -1.
</event>
<event>
 4    1  0.1977788E-002  0.9118800E+02  0.7818608E-02  0.1130116E+00
         25   -1    0    0    0    0  0.00000000000E+00  0.00000000000E+00  0.99999998245E-14  0.12500000000E+03  0.12500000000E+03 0.  0.
        -11    1    1    0    0    0 -0.65120776280E+01  0.11586996220E+02 -0.24342623812E+01  0.13512633719E+02  0.51100000000E-03 0.  1.
         11    1    1    0    0    0 -0.23616130541E+02  0.42000340118E+02 -0.88324334383E+01  0.48987366457E+02  0.51100000000E-03 0. -1.
         22    1    1    0    0    0  0.30128208169E+02 -0.53587336338E+02  0.11266695819E+02  0.62499999823E+02  0.00000000000E+00 0. -1.
</event>
<event>
 4    1  0.1977788E-002  0.9118800E+02  0.7818608E-02  0.1130116E+00
         25   -1    0    0    0    0  0.00000000000E+00  0.00000000000E+00  0.99999998245E-14  0.12500000000E+03  0.12500000000E+03 0.  0.
        -11    1    1    0    0    0  0.25340948233E+02 -0.32028240986E+02 -0.74978427482E+01  0.41523361185E+02  0.51100000000E-03 0. -1.
         11    1    1    0    0    0  0.12856262418E+02 -0.16137976977E+02 -0.37819542113E+01  0.20976676624E+02  0.51100000000E-03 0.  1.
         22    1    1    0    0    0 -0.38197210650E+02  0.48166217963E+02  0.11279796959E+02  0.62499962191E+02  0.00000000000E+00 0. -1.
</event>
<event>
 4    1  0.1977788E-002  0.9118800E+02  0.7818608E-02  0.1130116E+00
         25   -1    0    0    0    0  0.00000000000E+00  0.00000000000E+00  0.99999998245E-14  0.12500000000E+03  0.12500000000E+03 0.  0.
        -11    1    1    0    0    0  0.50810678483E+02 -0.28830455462E+02 -0.69474699365E+01  0.58831858281E+02  0.51100000000E-03 0.  1.
         11    1    1    0    0    0  0.31674305430E+01 -0.18026128295E+01 -0.41638806424E+00  0.36681614658E+01  0.51100000000E-03 0. -1.
         22    1    1    0    0    0 -0.53978109026E+02  0.30633068291E+02  0.73638580007E+01  0.62499980253E+02  0.00000000000E+00 0.  1.
</event>
<event>
 4    1  0.1977788E-002  0.9118800E+02  0.7818608E-02  0.1130116E+00
         25   -1    0    0    0    0  0.00000000000E+00  0.00000000000E+00  0.99999998245E-14  0.12500000000E+03  0.12500000000E+03 0.  0.
        -11    1    1    0    0    0  0.65150540631E+01 -0.24889393179E+01  0.28599505080E+01  0.75379085656E+01  0.51100000000E-03 0. -1.
         11    1    1    0    0    0  0.47484175352E+02 -0.18186085073E+02  0.20865066900E+02  0.54962092538E+02  0.51100000000E-03 0.  1.
         22    1    1    0    0    0 -0.53999229416E+02  0.20675024391E+02 -0.23725017408E+02  0.62499998896E+02  0.00000000000E+00 0.  1.
</event>
<event>
 4    1  0.1977788E-002  0.9118800E+02  0.7818608E-02  0.1130116E+00
         25   -1    0    0    0    0  0.00000000000E+00  0.00000000000E+00  0.99999998245E-14  0.12500000000E+03  0.12500000000E+03 0.  0.
        -11    1    1    0    0    0 -0.20119515126E+02 -0.35864428997E+02  0.13851184247E+02  0.43392481624E+02  0.51100000000E-03 0. -1.
         11    1    1    0    0    0 -0.84434758322E+01 -0.16034763658E+02  0.60640077651E+01  0.19109634223E+02  0.51100000000E-03 0.  1.
         22    1    1    0    0    0  0.28562990959E+02  0.51899192655E+02 -0.19915192012E+02  0.62497884153E+02  0.00000000000E+00 0. -1.
</event>
<event>
 4    1  0.1977788E-002  0.9118800E+02  0.7818608E-02  0.1130116E+00
         25   -1    0    0    0    0  0.00000000000E+00  0.00000000000E+00  0.99999998245E-14  0.12500000000E+03  0.12500000000E+03 0.  0.
        -11    1    1    0    0    0  0.16408422241E+01  0.99377519848E+00  0.19997436919E+00  0.19287152094E+01  0.51100000000E-03 0. -1.
         11    1    1    0    0    0  0.54567197346E+02  0.25117164735E+02  0.78218434768E+01  0.60577489434E+02  0.51100000000E-03 0.  1.
         22    1    1    0    0    0 -0.56208039570E+02 -0.26110939934E+02 -0.80218178460E+01  0.62493795356E+02  0.00000000000E+00 0.  1.
</event>
<event>
 4    1  0.1977788E-002  0.9118800E+02  0.7818608E-02  0.1130116E+00
         25   -1    0    0    0    0  0.00000000000E+00  0.00000000000E+00  0.99999998245E-14  0.12500000000E+03  0.12500000000E+03 0.  0.
        -11    1    1    0    0    0 -0.22837366703E+01 -0.33196579859E+02  0.15254450536E+02  0.36605008249E+02  0.51100000000E-03 0. -1.
         11    1    1    0    0    0 -0.16141189713E+01 -0.23482368579E+02  0.10794609215E+02  0.25894991842E+02  0.51100000000E-03 0.  1.
         22    1    1    0    0    0  0.38978556416E+01  0.56678948438E+02 -0.26049059751E+02  0.62499999909E+02  0.00000000000E+00 0.  1.
</event>
<event>
 4    1  0.1977788E-002  0.9118800E+02  0.7818608E-02  0.1130116E+00
         25   -1    0    0    0    0  0.00000000000E+00  0.00000000000E+00  0.99999998245E-14  0.12500000000E+03  0.12500000000E+03 0.  0.
        -11    1    1    0    0    0  0.33665272353E+02  0.36027528995E+02 -0.17019899338E+02  0.52163304936E+02  0.51100000000E-03 0.  1.
         11    1    1    0    0    0  0.67219817950E+01  0.71003011795E+01 -0.33540728606E+01  0.10336784853E+02  0.51100000000E-03 0. -1.
         22    1    1    0    0    0 -0.40387254148E+02 -0.43127830174E+02  0.20373972198E+02  0.62499910211E+02  0.00000000000E+00 0.  1.
</event>
<event>
 4    1  0.1977788E-002  0.9118800E+02  0.7818608E-02  0.1130116E+00
         25   -1    0    0    0    0  0.00000000000E+00  0.00000000000E+00  0.99999998245E-14  0.12500000000E+03  0.12500000000E+03 0.  0.
        -11    1    1    0    0    0  0.53182420328E+01 -0.97357604371E+00  0.31342304916E+01  0.62493959443E+01  0.51100000000E-03 0. -1.
         11    1    1    0    0    0  0.49242051034E+02 -0.76482147528E+01  0.26100474358E+02  0.56253973557E+02  0.51100000000E-03 0.  1.
         22    1    1    0    0    0 -0.54560293067E+02  0.86217907965E+01 -0.29234704850E+02  0.62496630499E+02  0.00000000000E+00 0.  1.
</event>
<event>
 4    1  0.1977788E-002  0.9118800E+02  0.7818608E-02  0.1130116E+00
         25   -1    0    0    0    0  0.00000000000E+00  0.00000000000E+00  0.99999998245E-14  0.12500000000E+03  0.12500000000E+03 0.  0.
        -11    1    1    0    0    0 -0.25371996302E+01  0.71752445912E+01 -0.42501415286E+00  0.76224769071E+01  0.51100000000E-03 0.  1.
         11    1    1    0    0    0 -0.18267528891E+02  0.51657132751E+02 -0.30627710284E+01  0.54877523108E+02  0.51100000000E-03 0.  1.
         22    1    1    0    0    0  0.20804728521E+02 -0.58832377342E+02  0.34877851812E+01  0.62499999985E+02  0.00000000000E+00 0.  1.
</event>
<event>
 4    1  0.1977788E-002  0.9118800E+02  0.7818608E-02  0.1130116E+00
         25   -1    0    0    0    0  0.00000000000E+00  0.00000000000E+00  0.99999998245E-14  0.12500000000E+03  0.12500000000E+03 0.  0.
        -11    1    1    0    0    0  0.13470539972E+02  0.80458313043E+00  0.10688070384E+01  0.13536807227E+02  0.51100000000E-03 0. -1.
         11    1    1    0    0    0  0.48719504359E+02  0.29480194796E+01  0.38876124401E+01  0.48963194898E+02  0.51100000000E-03 0.  1.
         22    1    1    0    0    0 -0.62190044332E+02 -0.37526026100E+01 -0.49564194785E+01  0.62499997875E+02  0.00000000000E+00 0.  1.
</event>
<event>
 4    1  0.1977788E-002  0.9118800E+02  0.7818608E-02  0.1130116E+00
         25   -1    0    0    0    0  0.00000000000E+00  0.00000000000E+00  0.99999998245E-14  0.12500000000E+03  0.12500000000E+03 0.  0.
        -11    1    1    0    0    0  0.13345467668E+01  0.11501688006E+02  0.48966615912E+00  0.11589202530E+02  0.51100000000E-03 0. -1.
         11    1    1    0    0    0  0.63266996508E+01  0.50496925654E+02  0.14186128446E+01  0.50911482905E+02  0.51100000000E-03 0.  1.
         22    1    1    0    0    0 -0.76612464176E+01 -0.61998613660E+02 -0.19082790037E+01  0.62499314565E+02  0.00000000000E+00 0.  1.
</event>
<event>
 4    1  0.1977788E-002  0.9118800E+02  0.7818608E-02  0.1130116E+00
         25   -1    0    0    0    0  0.00000000000E+00  0.00000000000E+00  0.99999998245E-14  0.12500000000E+03  0.12500000000E+03 0.  0.
        -11    1    1    0    0    0  0.17147814377E+01  0.14432170164E+01 -0.17739594676E+01  0.28583707228E+01  0.51100000000E-03 0. -1.
         11    1    1    0    0    0  0.35990114454E+02  0.30212676762E+02 -0.36729182797E+02  0.59641655282E+02  0.51100000000E-03 0.  1.
         22    1    1    0    0    0 -0.37704895892E+02 -0.31655893779E+02  0.38503142265E+02  0.62499973995E+02  0.00000000000E+00 0.  1.
</event>
<event>
 4    1  0.1977788E-002  0.9118800E+02  0.7818608E-02  0.1130116E+00
         25   -1    0    0    0    0  0.00000000000E+00  0.00000000000E+00  0.99999998245E-14  0.12500000000E+03  0.12500000000E+03 0.  0.
        -11    1    1    0    0    0 -0.73852356259E+01  0.53090325595E+01  0.18453553382E+01  0.92807795229E+01  0.51100000000E-03 0. -1.
         11    1    1    0    0    0 -0.42347309965E+02  0.30446944957E+02  0.10581791503E+02  0.53219220495E+02  0.51100000000E-03 0. -1.
         22    1    1    0    0    0  0.49732545591E+02 -0.35755977516E+02 -0.12427146842E+02  0.62499999982E+02  0.00000000000E+00 0. -1.
</event>
<event>
 4    1  0.1977788E-002  0.9118800E+02  0.7818608E-02  0.1130116E+00
         25   -1    0    0    0    0  0.00000000000E+00  0.00000000000E+00  0.99999998245E-14  0.12500000000E+03  0.12500000000E+03 0.  0.
        -11    1    1    0    0    0  0.11167979818E+02 -0.10653721317E+02 -0.17152762780E+02  0.23074722585E+02  0.51100000000E-03 0. -1.
         11    1    1    0    0    0  0.19114493710E+02 -0.18217332296E+02 -0.29276575015E+02  0.39425282632E+02  0.51100000000E-03 0.  1.
         22    1    1    0    0    0 -0.30282473528E+02  0.28871053613E+02  0.46429337795E+02  0.62499994783E+02  0.00000000000E+00 0.  1.
</event>
<event>
 4    1  0.1977788E-002  0.9118800E+02  0.7818608E-02  0.1130116E+00
         25   -1    0    0    0    0  0.00000000000E+00  0.00000000000E+00  0.99999998245E-14  0.12500000000E+03  0.12500000000E+03 0.  0.
        -11    1    1    0    0    0 -0.19679374754E+01  0.11660152588E+01  0.57830331673E+01  0.62189904620E+01  0.51100000000E-03 0.  1.
         11    1    1    0    0    0 -0.19674309146E+02  0.11868581378E+02  0.51380103249E+02  0.56283715890E+02  0.51100000000E-03 0. -1.
         22    1    1    0    0    0  0.21642246621E+02 -0.13034596637E+02 -0.57163136417E+02  0.62497293648E+02  0.00000000000E+00 0. -1.
</event>
<event>
 4    1  0.1977788E-002  0.9118800E+02  0.7818608E-02  0.1130116E+00
         25   -1    0    0    0    0  0.00000000000E+00  0.00000000000E+00  0.99999998245E-14  0.12500000000E+03  0.12500000000E+03 0.  0.
        -11    1    1    0    0    0  0.59737190761E+01 -0.14619762140E+02 -0.20709491468E+00  0.15794481733E+02  0.51100000000E-03 0. -1.
         11    1    1    0    0    0 -0.74986389472E+00  0.60691408792E+02 -0.10552749154E+02  0.61606573610E+02  0.51100000000E-03 0.  1.
         22    1    1    0    0    0 -0.52238551814E+01 -0.46071646651E+02  0.10759844069E+02  0.47598944658E+02  0.00000000000E+00 0.  1.
</event>
<event>
 4    1  0.1977788E-002  0.9118800E+02  0.7818608E-02  0.1130116E+00
         25   -1    0    0    0    0  0.00000000000E+00  0.00000000000E+00  0.99999998245E-14  0.12500000000E+03  0.12500000000E+03 0.  0.
        -11    1    1    0    0    0  0.79817706592E+01  0.13019002855E+02  0.14258480566E+02  0.20892758710E+02  0.51100000000E-03 0. -1.
         11    1    1    0    0    0  0.15330256295E+02  0.20513730509E+02  0.32919807752E+02  0.41707836676E+02  0.51100000000E-03 0.  1.
         22    1    1    0    0    0 -0.23312026954E+02 -0.33532733364E+02 -0.47178288318E+02  0.62399404614E+02  0.00000000000E+00 0.  1.
</event>
<event>
 4    1  0.1977788E-002  0.9118800E+02  0.7818608E-02  0.1130116E+00
         25   -1    0    0    0    0  0.00000000000E+00  0.00000000000E+00  0.99999998245E-14  0.12500000000E+03  0.12500000000E+03 0.  0.
        -11    1    1    0    0    0 -0.32161261766E+00  0.41102205824E-02  0.11376063720E+01  0.11822013740E+01  0.51100000000E-03 0.  1.
         11    1    1    0    0    0 -0.16645678571E+02  0.17028552940E+00  0.59014954487E+02  0.61317798930E+02  0.51100000000E-03 0. -1.
         22    1    1    0    0    0  0.16967291188E+02 -0.17439574999E+00 -0.60152560859E+02  0.62499999696E+02  0.00000000000E+00 0. -1.
</event>
<event>
 4    1  0.1977788E-002  0.9118800E+02  0.7818608E-02  0.1130116E+00
         25   -1    0    0    0    0  0.00000000000E+00  0.00000000000E+00  0.99999998245E-14  0.12500000000E+03  0.12500000000E+03 0.  0.
        -11    1    1    0    0    0 -0.22206592528E+02  0.49205257136E+02  0.24918121718E+02  0.59457572030E+02  0.51100000000E-03 0.  1.
         11    1    1    0    0    0 -0.11203636567E+01  0.25202174016E+01  0.12844543627E+01  0.30424552166E+01  0.51100000000E-03 0. -1.
         22    1    1    0    0    0  0.23326956184E+02 -0.51725474537E+02 -0.26202576080E+02  0.62499972753E+02  0.00000000000E+00 0.  1.
</event>
<event>
 4    1  0.1977788E-002  0.9118800E+02  0.7818608E-02  0.1130116E+00
         25   -1    0    0    0    0  0.00000000000E+00  0.00000000000E+00  0.99999998245E-14  0.12500000000E+03  0.12500000000E+03 0.  0.
        -11    1    1    0    0    0  0.76107246779E+01 -0.67671226539E+01 -0.33982278447E+02  0.35475517302E+02  0.51100000000E-03 0. -1.
         11    1    1    0    0    0  0.63592127889E+01 -0.54526662782E+01 -0.25695846046E+02  0.27026795243E+02  0.51100000000E-03 0.  1.
         22    1    1    0    0    0 -0.13969937467E+02  0.12219788932E+02  0.59678124492E+02  0.62497687455E+02  0.00000000000E+00 0. -1.
</event>
<event>
 4    1  0.1977788E-002  0.9118800E+02  0.7818608E-02  0.1130116E+00
         25   -1    0    0    0    0  0.00000000000E+00  0.00000000000E+00  0.99999998245E-14  0.12500000000E+03  0.12500000000E+03 0.  0.
        -11    1    1    0    0    0  0.10430839287E+02 -0.32543195479E+01 -0.29873246663E+01  0.11327714371E+02  0.51100000000E-03 0. -1.
         11    1    1    0    0    0  0.47226162168E+02 -0.14494026515E+02 -0.13349997140E+02  0.51172352121E+02  0.51100000000E-03 0.  1.
         22    1    1    0    0    0 -0.57657001455E+02  0.17748346063E+02  0.16337321806E+02  0.62499933508E+02  0.00000000000E+00 0.  1.
</event>
<event>
 4    1  0.1977788E-002  0.9118800E+02  0.7818608E-02  0.1130116E+00
         25   -1    0    0    0    0  0.00000000000E+00  0.00000000000E+00  0.99999998245E-14  0.12500000000E+03  0.12500000000E+03 0.  0.
        -11    1    1    0    0    0 -0.27289587834E+01  0.47248511965E+02 -0.92814559439E+01  0.48228772778E+02  0.51100000000E-03 0.  1.
         11    1    1    0    0    0 -0.78621639111E+00  0.14001375848E+02 -0.26486389401E+01  0.14271368202E+02  0.51100000000E-03 0. -1.
         22    1    1    0    0    0  0.35151751746E+01 -0.61249887813E+02  0.11930094884E+02  0.62499859020E+02  0.00000000000E+00 0.  1.
</event>
<event>
 4    1  0.1977788E-002  0.9118800E+02  0.7818608E-02  0.1130116E+00
         25   -1    0    0    0    0  0.00000000000E+00  0.00000000000E+00  0.99999998245E-14  0.12500000000E+03  0.12500000000E+03 0.  0.
        -11    1    1    0    0    0  0.11348840261E+02 -0.40270323211E+02 -0.61691015285E+01  0.42291286581E+02  0.51100000000E-03 0. -1.
         11    1    1    0    0    0  0.51785693938E+01 -0.19267986241E+02 -0.32194087926E+01  0.20209835922E+02  0.51100000000E-03 0.  1.
         22    1    1    0    0    0 -0.16527409655E+02  0.59538309452E+02  0.93885103211E+01  0.62498877497E+02  0.00000000000E+00 0. -1.
</event>
<event>
 4    1  0.1977788E-002  0.9118800E+02  0.7818608E-02  0.1130116E+00
         25   -1    0    0    0    0  0.00000000000E+00  0.00000000000E+00  0.99999998245E-14  0.12500000000E+03  0.12500000000E+03 0.  0.
        -11    1    1    0    0    0  0.45118922245E+01  0.25702657449E+02 -0.46154515527E+02  0.53020968259E+02  0.51100000000E-03 0. -1.
         11    1    1    0    0    0  0.93831291123E+00  0.43950433600E+01 -0.83476621282E+01  0.94805221651E+01  0.51100000000E-03 0.  1.
         22    1    1    0    0    0 -0.54502051357E+01 -0.30097700809E+02  0.54502177655E+02  0.62498509575E+02  0.00000000000E+00 0. -1.
</event>
<event>
 4    1  0.1977788E-002  0.9118800E+02  0.7818608E-02  0.1130116E+00
         25   -1    0    0    0    0  0.00000000000E+00  0.00000000000E+00  0.99999998245E-14  0.12500000000E+03  0.12500000000E+03 0.  0.
        -11    1    1    0    0    0  0.15878963586E+02 -0.10386223066E+02 -0.10333964587E+02  0.21605692271E+02  0.51100000000E-03 0. -1.
         11    1    1    0    0    0  0.30105520534E+02 -0.19719135977E+02 -0.19420662434E+02  0.40894361713E+02  0.51100000000E-03 0.  1.
         22    1    1    0    0    0 -0.45984484120E+02  0.30105359044E+02  0.29754627020E+02  0.62499946016E+02  0.00000000000E+00 0.  1.
</event>
<event>
 4    1  0.1977788E-002  0.9118800E+02  0.7818608E-02  0.1130116E+00
         25   -1    0    0    0    0  0.00000000000E+00  0.00000000000E+00  0.99999998245E-14  0.12500000000E+03  0.12500000000E+03 0.  0.
        -11    1    1    0    0    0 -0.13539666664E+02 -0.52734600259E+02  0.24298568125E+01  0.54499218730E+02  0.51100000000E-03 0. -1.
         11    1    1    0    0    0  0.53133049856E+00 -0.80115448595E+01 -0.23903838899E+01  0.83774159820E+01  0.51100000000E-03 0.  1.
         22    1    1    0    0    0  0.13008336166E+02  0.60746145118E+02 -0.39472922623E-01  0.62123365288E+02  0.00000000000E+00 0. -1.
</event>
<event>
 4    1  0.1977788E-002  0.9118800E+02  0.7818608E-02  0.1130116E+00
         25   -1    0    0    0    0  0.00000000000E+00  0.00000000000E+00  0.99999998245E-14  0.12500000000E+03  0.12500000000E+03 0.  0.
        -11    1    1    0    0    0  0.46288793132E+00 -0.25133515781E+00  0.29826116203E+00  0.60530536129E+00  0.51100000000E-03 0.  1.
         11    1    1    0    0    0  0.47658834901E+02 -0.25269017367E+02  0.30349085311E+02  0.61894707062E+02  0.51100000000E-03 0. -1.
         22    1    1    0    0    0 -0.48121722832E+02  0.25520352525E+02 -0.30647346473E+02  0.62499987577E+02  0.00000000000E+00 0. -1.
</event>
<event>
 4    1  0.1977788E-002  0.9118800E+02  0.7818608E-02  0.1130116E+00
         25   -1    0    0    0    0  0.00000000000E+00  0.00000000000E+00  0.99999998245E-14  0.12500000000E+03  0.12500000000E+03 0.  0.
        -11    1    1    0    0    0  0.10198876771E+02  0.40628913368E+01 -0.11493128343E+01  0.11038346509E+02  0.51100000000E-03 0. -1.
         11    1    1    0    0    0  0.47645352982E+02  0.18790601944E+02 -0.50148436837E+01  0.51461782320E+02  0.51100000000E-03 0.  1.
         22    1    1    0    0    0 -0.57844229752E+02 -0.22853493281E+02  0.61641565180E+01  0.62499871171E+02  0.00000000000E+00 0.  1.
</event>
<event>
 4    1  0.1977788E-002  0.9118800E+02  0.7818608E-02  0.1130116E+00
         25   -1    0    0    0    0  0.00000000000E+00  0.00000000000E+00  0.99999998245E-14  0.12500000000E+03  0.12500000000E+03 0.  0.
        -11    1    1    0    0    0  0.14246129118E+01 -0.26523420770E+01 -0.21891284494E+01  0.37224620980E+01  0.51100000000E-03 0.  1.
         11    1    1    0    0    0  0.22537035868E+02 -0.41868852330E+02 -0.34552572202E+02  0.58777538458E+02  0.51100000000E-03 0.  1.
         22    1    1    0    0    0 -0.23961648780E+02  0.44521194407E+02  0.36741700652E+02  0.62499999444E+02  0.00000000000E+00 0.  1.
</event>
<event>
 4    1  0.1977788E-002  0.9118800E+02  0.7818608E-02  0.1130116E+00
         25   -1    0    0    0    0  0.00000000000E+00  0.00000000000E+00  0.99999998245E-14  0.12500000000E+03  0.12500000000E+03 0.  0.
        -11    1    1    0    0    0 -0.15968310677E+02  0.26655643177E+02 -0.96889430179E+01  0.32548208493E+02  0.51100000000E-03 0.  1.
         11    1    1    0    0    0 -0.10714305411E+02  0.24184093659E+02  0.21193198802E+02  0.33894223730E+02  0.51100000000E-03 0. -1.
         22    1    1    0    0    0  0.26682616088E+02 -0.50839736836E+02 -0.11504255784E+02  0.58557567777E+02  0.00000000000E+00 0.  1.
</event>
<event>
 4    1  0.1977788E-002  0.9118800E+02  0.7818608E-02  0.1130116E+00
         25   -1    0    0    0    0  0.00000000000E+00  0.00000000000E+00  0.99999998245E-14  0.12500000000E+03  0.12500000000E+03 0.  0.
        -11    1    1    0    0    0 -0.75594355186E+01 -0.41735871394E+00 -0.41121104145E+00  0.75821071239E+01  0.51100000000E-03 0.  1.
         11    1    1    0    0    0 -0.54754858139E+02 -0.29657242564E+01 -0.30141706693E+01  0.54917895401E+02  0.51100000000E-03 0. -1.
         22    1    1    0    0    0  0.62314293658E+02  0.33830829704E+01  0.34253817108E+01  0.62499997475E+02  0.00000000000E+00 0. -1.
</event>
<event>
 4    1  0.1977788E-002  0.9118800E+02  0.7818608E-02  0.1130116E+00
         25   -1    0    0    0    0  0.00000000000E+00  0.00000000000E+00  0.99999998245E-14  0.12500000000E+03  0.12500000000E+03 0.  0.
        -11    1    1    0    0    0 -0.93602670880E+01 -0.49756142486E+01  0.24281593106E+02  0.26494661747E+02  0.51100000000E-03 0.  1.
         11    1    1    0    0    0 -0.12651049103E+02 -0.67722951626E+01  0.33022303434E+02  0.36005354456E+02  0.51100000000E-03 0. -1.
         22    1    1    0    0    0  0.22011316191E+02  0.11747909411E+02 -0.57303896539E+02  0.62499983797E+02  0.00000000000E+00 0. -1.
</event>
<event>
 4    1  0.1977788E-002  0.9118800E+02  0.7818608E-02  0.1130116E+00
         25   -1    0    0    0    0  0.00000000000E+00  0.00000000000E+00  0.99999998245E-14  0.12500000000E+03  0.12500000000E+03 0.  0.
        -11    1    1    0    0    0 -0.14555304398E+00  0.27366122613E+01 -0.40420700727E+02  0.40513495034E+02  0.51100000000E-03 0. -1.
         11    1    1    0    0    0 -0.10893258125E+00  0.18999558412E+01 -0.21905274945E+02  0.21987786818E+02  0.51100000000E-03 0.  1.
         22    1    1    0    0    0  0.25448562523E+00 -0.46365681025E+01  0.62325975671E+02  0.62498718148E+02  0.00000000000E+00 0. -1.
</event>
<event>
 4    1  0.1977788E-002  0.9118800E+02  0.7818608E-02  0.1130116E+00
         25   -1    0    0    0    0  0.00000000000E+00  0.00000000000E+00  0.99999998245E-14  0.12500000000E+03  0.12500000000E+03 0.  0.
        -11    1    1    0    0    0 -0.16187870619E+01 -0.16417632691E+01  0.91575858908E+00  0.24808208799E+01  0.51100000000E-03 0. -1.
         11    1    1    0    0    0 -0.37621047195E+02 -0.41054782663E+02  0.22395250637E+02  0.60019876899E+02  0.51100000000E-03 0.  1.
         22    1    1    0    0    0  0.39239834257E+02  0.42696545932E+02 -0.23311009226E+02  0.62499302222E+02  0.00000000000E+00 0.  1.
</event>
<event>
 4    1  0.1977788E-002  0.9118800E+02  0.7818608E-02  0.1130116E+00
         25   -1    0    0    0    0  0.00000000000E+00  0.00000000000E+00  0.99999998245E-14  0.12500000000E+03  0.12500000000E+03 0.  0.
        -11    1    1    0    0    0 -0.15515141704E+02 -0.10720150310E+02  0.10366505767E+02  0.21519890493E+02  0.51100000000E-03 0.  1.
         11    1    1    0    0    0 -0.29517686815E+02 -0.20413349646E+02  0.19783102283E+02  0.40980114872E+02  0.51100000000E-03 0. -1.
         22    1    1    0    0    0  0.45032828519E+02  0.31133499956E+02 -0.30149608050E+02  0.62499994636E+02  0.00000000000E+00 0. -1.
</event>
<event>
 4    1  0.1977788E-002  0.9118800E+02  0.7818608E-02  0.1130116E+00
         25   -1    0    0    0    0  0.00000000000E+00  0.00000000000E+00  0.99999998245E-14  0.12500000000E+03  0.12500000000E+03 0.  0.
        -11    1    1    0    0    0  0.29243942296E+02 -0.92577153897E+01  0.26703887936E+02  0.40669535114E+02  0.51100000000E-03 0.  1.
         11    1    1    0    0    0  0.15710926323E+02 -0.50274093667E+01  0.14299045454E+02  0.21830500499E+02  0.51100000000E-03 0. -1.
         22    1    1    0    0    0 -0.44954868618E+02  0.14285124756E+02 -0.41002933390E+02  0.62499964387E+02  0.00000000000E+00 0.  1.
</event>
<event>
 4    1  0.1977788E-002  0.9118800E+02  0.7818608E-02  0.1130116E+00
         25   -1    0    0    0    0  0.00000000000E+00  0.00000000000E+00  0.99999998245E-14  0.12500000000E+03  0.12500000000E+03 0.  0.
        -11    1    1    0    0    0 -0.11377998121E+02  0.11372822004E+02 -0.25530293384E+02  0.30176079966E+02  0.51100000000E-03 0.  1.
         11    1    1    0    0    0 -0.12188162500E+02  0.12184122663E+02 -0.27346510879E+02  0.32323920054E+02  0.51100000000E-03 0. -1.
         22    1    1    0    0    0  0.23566160620E+02 -0.23556944667E+02  0.52876804263E+02  0.62499999980E+02  0.00000000000E+00 0. -1.
</event>
<event>
 4    1  0.1977788E-002  0.9118800E+02  0.7818608E-02  0.1130116E+00
         25   -1    0    0    0    0  0.00000000000E+00  0.00000000000E+00  0.99999998245E-14  0.12500000000E+03  0.12500000000E+03 0.  0.
        -11    1    1    0    0    0  0.43165824810E+02 -0.26217169372E+02  0.19084378973E+02  0.53989275995E+02  0.51100000000E-03 0. -1.
         11    1    1    0    0    0  0.71450247939E+01 -0.46926025658E+01  0.10779131198E+01  0.86159036149E+01  0.51100000000E-03 0.  1.
         22    1    1    0    0    0 -0.50310849604E+02  0.30909771938E+02 -0.20162292093E+02  0.62394820390E+02  0.00000000000E+00 0. -1.
</event>
<event>
 4    1  0.1977788E-002  0.9118800E+02  0.7818608E-02  0.1130116E+00
         25   -1    0    0    0    0  0.00000000000E+00  0.00000000000E+00  0.99999998245E-14  0.12500000000E+03  0.12500000000E+03 0.  0.
        -11    1    1    0    0    0 -0.94837110563E+01 -0.10905024676E+02 -0.48613440607E+02  0.50716140887E+02  0.51100000000E-03 0. -1.
         11    1    1    0    0    0  0.47011543932E+01 -0.14236223019E+02 -0.42229638177E+01  0.15575760725E+02  0.51100000000E-03 0.  1.
         22    1    1    0    0    0  0.47825566631E+01  0.25141247695E+02  0.52836404424E+02  0.58708098389E+02  0.00000000000E+00 0. -1.
</event>
<event>
 4    1  0.1977788E-002  0.9118800E+02  0.7818608E-02  0.1130116E+00
         25   -1    0    0    0    0  0.00000000000E+00  0.00000000000E+00  0.99999998245E-14  0.12500000000E+03  0.12500000000E+03 0.  0.
        -11    1    1    0    0    0 -0.48101967150E+01  0.72496442588E+01  0.43910403694E+01  0.97455923423E+01  0.51100000000E-03 0. -1.
         11    1    1    0    0    0 -0.26045041417E+02  0.39238029722E+02  0.23770998612E+02  0.52754407722E+02  0.51100000000E-03 0.  1.
         22    1    1    0    0    0  0.30855238132E+02 -0.46487673980E+02 -0.28162038982E+02  0.62499999935E+02  0.00000000000E+00 0.  1.
</event>
<event>
 4    1  0.1977788E-002  0.9118800E+02  0.7818608E-02  0.1130116E+00
         25   -1    0    0    0    0  0.00000000000E+00  0.00000000000E+00  0.99999998245E-14  0.12500000000E+03  0.12500000000E+03 0.  0.
        -11    1    1    0    0    0  0.17353191339E+02  0.44729561375E+01  0.32935215059E+02  0.37494919356E+02  0.51100000000E-03 0. -1.
         11    1    1    0    0    0  0.11557567285E+02  0.29636011145E+01  0.21974848806E+02  0.25005084951E+02  0.51100000000E-03 0.  1.
         22    1    1    0    0    0 -0.28910758624E+02 -0.74365572520E+01 -0.54910063865E+02  0.62499995693E+02  0.00000000000E+00 0. -1.
</event>
<event>
 4    1  0.1977788E-002  0.9118800E+02  0.7818608E-02  0.1130116E+00
         25   -1    0    0    0    0  0.00000000000E+00  0.00000000000E+00  0.99999998245E-14  0.12500000000E+03  0.12500000000E+03 0.  0.
        -11    1    1    0    0    0  0.38206615476E+00  0.16050405908E+02  0.27545627384E+01  0.16289540218E+02  0.51100000000E-03 0. -1.
         11    1    1    0    0    0  0.10006181040E+01  0.45545789483E+02  0.77451898066E+01  0.46210476535E+02  0.51100000000E-03 0.  1.
         22    1    1    0    0    0 -0.13826842587E+01 -0.61596195391E+02 -0.10499752545E+02  0.62499983247E+02  0.00000000000E+00 0.  1.
</event>
<event>
 4    1  0.1977788E-002  0.9118800E+02  0.7818608E-02  0.1130116E+00
         25   -1    0    0    0    0  0.00000000000E+00  0.00000000000E+00  0.99999998245E-14  0.12500000000E+03  0.12500000000E+03 0.  0.
        -11    1    1    0    0    0 -0.18448428495E+02 -0.13296768883E+02 -0.17046964802E+02  0.28420900511E+02  0.51100000000E-03 0. -1.
         11    1    1    0    0    0 -0.22198072032E+02 -0.15789919110E+02 -0.20477209622E+02  0.34079202772E+02  0.51100000000E-03 0.  1.
         22    1    1    0    0    0  0.40646500527E+02  0.29086687992E+02  0.37524174424E+02  0.62499896717E+02  0.00000000000E+00 0. -1.
</event>
<event>
 4    1  0.1977788E-002  0.9118800E+02  0.7818608E-02  0.1130116E+00
         25   -1    0    0    0    0  0.00000000000E+00  0.00000000000E+00  0.99999998245E-14  0.12500000000E+03  0.12500000000E+03 0.  0.
        -11    1    1    0    0    0 -0.19526276176E+02 -0.58569622473E+02 -0.52192776537E+01  0.61958994484E+02  0.51100000000E-03 0.  1.
         11    1    1    0    0    0 -0.88564869258E+00  0.90257238299E+01 -0.87680707668E+00  0.91113585798E+01  0.51100000000E-03 0. -1.
         22    1    1    0    0    0  0.20411924868E+02  0.49543898644E+02  0.60960847304E+01  0.53929646936E+02  0.00000000000E+00 0.  1.
</event>
<event>
 4    1  0.1977788E-002  0.9118800E+02  0.7818608E-02  0.1130116E+00
         25   -1    0    0    0    0  0.00000000000E+00  0.00000000000E+00  0.99999998245E-14  0.12500000000E+03  0.12500000000E+03 0.  0.
        -11    1    1    0    0    0 -0.20188819618E+02  0.50738448659E+01  0.37603977145E+01  0.21153555978E+02  0.51100000000E-03 0. -1.
         11    1    1    0    0    0 -0.39462526416E+02  0.99102784035E+01  0.73500906808E+01  0.41346444133E+02  0.51100000000E-03 0.  1.
         22    1    1    0    0    0  0.59651346034E+02 -0.14984123269E+02 -0.11110488395E+02  0.62499999889E+02  0.00000000000E+00 0. -1.
</event>
<event>
 4    1  0.1977788E-002  0.9118800E+02  0.7818608E-02  0.1130116E+00
         25   -1    0    0    0    0  0.00000000000E+00  0.00000000000E+00  0.99999998245E-14  0.12500000000E+03  0.12500000000E+03 0.  0.
        -11    1    1    0    0    0  0.23232119283E+02 -0.43170710349E+01 -0.47725498062E+02  0.53254968165E+02  0.51100000000E-03 0. -1.
         11    1    1    0    0    0  0.40416393246E+01 -0.74680649625E+00 -0.82811886762E+01  0.92450340467E+01  0.51100000000E-03 0.  1.
         22    1    1    0    0    0 -0.27273758608E+02  0.50638775312E+01  0.56006686738E+02  0.62499997789E+02  0.00000000000E+00 0. -1.
</event>
<event>
 4    1  0.1977788E-002  0.9118800E+02  0.7818608E-02  0.1130116E+00
         25   -1    0    0    0    0  0.00000000000E+00  0.00000000000E+00  0.99999998245E-14  0.12500000000E+03  0.12500000000E+03 0.  0.
        -11    1    1    0    0    0 -0.41064138792E+02  0.19875609500E+02 -0.20490031192E+02  0.50011445952E+02  0.51100000000E-03 0. -1.
         11    1    1    0    0    0 -0.10253261082E+02  0.49406844613E+01 -0.51404948635E+01  0.12488571314E+02  0.51100000000E-03 0.  1.
         22    1    1    0    0    0  0.51317399874E+02 -0.24816293961E+02  0.25630526055E+02  0.62499982734E+02  0.00000000000E+00 0. -1.
</event>
<event>
 4    1  0.1977788E-002  0.9118800E+02  0.7818608E-02  0.1130116E+00
         25   -1    0    0    0    0  0.00000000000E+00  0.00000000000E+00  0.99999998245E-14  0.12500000000E+03  0.12500000000E+03 0.  0.
        -11    1    1    0    0    0 -0.11859976761E+00 -0.14400978926E+02  0.56417274687E+01  0.15467105386E+02  0.51100000000E-03 0.  1.
         11    1    1    0    0    0 -0.31550080633E+00 -0.43730511328E+02  0.17310103246E+02  0.47032933529E+02  0.51100000000E-03 0. -1.
         22    1    1    0    0    0  0.43410057394E+00  0.58131490253E+02 -0.22951830715E+02  0.62499961085E+02  0.00000000000E+00 0. -1.
</event>
<event>
 4    1  0.1977788E-002  0.9118800E+02  0.7818608E-02  0.1130116E+00
         25   -1    0    0    0    0  0.00000000000E+00  0.00000000000E+00  0.99999998245E-14  0.12500000000E+03  0.12500000000E+03 0.  0.
        -11    1    1    0    0    0 -0.33297553291E+01  0.92781264238E+01 -0.18729439511E+02  0.21165131825E+02  0.51100000000E-03 0.  1.
         11    1    1    0    0    0 -0.65029645203E+01  0.18118312408E+02 -0.36578812661E+02  0.41334868187E+02  0.51100000000E-03 0. -1.
         22    1    1    0    0    0  0.98327198494E+01 -0.27396438832E+02  0.55308252172E+02  0.62499999989E+02  0.00000000000E+00 0. -1.
</event>
<event>
 4    1  0.1977788E-002  0.9118800E+02  0.7818608E-02  0.1130116E+00
         25   -1    0    0    0    0  0.00000000000E+00  0.00000000000E+00  0.99999998245E-14  0.12500000000E+03  0.12500000000E+03 0.  0.
        -11    1    1    0    0    0  0.15106204608E+01 -0.38704612882E+01 -0.33031620889E+00  0.41679196032E+01  0.51100000000E-03 0. -1.
         11    1    1    0    0    0  0.21081438186E+02 -0.54196796836E+02 -0.45729654050E+01  0.58332082392E+02  0.51100000000E-03 0.  1.
         22    1    1    0    0    0 -0.22592058647E+02  0.58067258125E+02  0.49032816139E+01  0.62499998005E+02  0.00000000000E+00 0.  1.
</event>
<event>
 4    1  0.1977788E-002  0.9118800E+02  0.7818608E-02  0.1130116E+00
         25   -1    0    0    0    0  0.00000000000E+00  0.00000000000E+00  0.99999998245E-14  0.12500000000E+03  0.12500000000E+03 0.  0.
        -11    1    1    0    0    0 -0.44855440710E+02 -0.12391622837E+01  0.83630423504E+01  0.45645224964E+02  0.51100000000E-03 0.  1.
         11    1    1    0    0    0 -0.16563254598E+02 -0.45637095314E+00  0.30876794986E+01  0.16854775059E+02  0.51100000000E-03 0. -1.
         22    1    1    0    0    0  0.61418695308E+02  0.16955332368E+01 -0.11450721849E+02  0.62499999977E+02  0.00000000000E+00 0.  1.
</event>
<event>
 4    1  0.1977788E-002  0.9118800E+02  0.7818608E-02  0.1130116E+00
         25   -1    0    0    0    0  0.00000000000E+00  0.00000000000E+00  0.99999998245E-14  0.12500000000E+03  0.12500000000E+03 0.  0.
        -11    1    1    0    0    0  0.21060920831E+02  0.10009946159E+02 -0.13024903318E+02  0.26709726974E+02  0.51100000000E-03 0. -1.
         11    1    1    0    0    0  0.28118434259E+02  0.13475105084E+02 -0.17570568203E+02  0.35790357213E+02  0.51100000000E-03 0.  1.
         22    1    1    0    0    0 -0.49179355090E+02 -0.23485051242E+02  0.30595471521E+02  0.62499915812E+02  0.00000000000E+00 0. -1.
</event>
<event>
 4    1  0.1977788E-002  0.9118800E+02  0.7818608E-02  0.1130116E+00
         25   -1    0    0    0    0  0.00000000000E+00  0.00000000000E+00  0.99999998245E-14  0.12500000000E+03  0.12500000000E+03 0.  0.
        -11    1    1    0    0    0  0.96120735383E+01  0.43254217851E+02 -0.41722359759E+02  0.60861109288E+02  0.51100000000E-03 0.  1.
         11    1    1    0    0    0  0.25889177034E+00  0.11657361151E+01 -0.11224963101E+01  0.16388910477E+01  0.51100000000E-03 0. -1.
         22    1    1    0    0    0 -0.98709653086E+01 -0.44419953966E+02  0.42844856069E+02  0.62499999665E+02  0.00000000000E+00 0.  1.
</event>
<event>
 4    1  0.1977788E-002  0.9118800E+02  0.7818608E-02  0.1130116E+00
         25   -1    0    0    0    0  0.00000000000E+00  0.00000000000E+00  0.99999998245E-14  0.12500000000E+03  0.12500000000E+03 0.  0.
        -11    1    1    0    0    0 -0.40657014461E+00 -0.33231210276E+02  0.41656088511E+02  0.53288913912E+02  0.51100000000E-03 0.  1.
         11    1    1    0    0    0 -0.62787642551E-01 -0.57470140100E+01  0.71980569795E+01  0.92110877132E+01  0.51100000000E-03 0. -1.
         22    1    1    0    0    0  0.46935778716E+00  0.38978224286E+02 -0.48854145490E+02  0.62499998374E+02  0.00000000000E+00 0.  1.
</event>
<event>
 4    1  0.1977788E-002  0.9118800E+02  0.7818608E-02  0.1130116E+00
         25   -1    0    0    0    0  0.00000000000E+00  0.00000000000E+00  0.99999998245E-14  0.12500000000E+03  0.12500000000E+03 0.  0.
        -11    1    1    0    0    0  0.21845419282E+02 -0.46295996904E+02 -0.12000902728E+02  0.52579115051E+02  0.51100000000E-03 0.  1.
         11    1    1    0    0    0  0.41311516053E+01 -0.87774849685E+01 -0.20804602752E+01  0.99216415565E+01  0.51100000000E-03 0. -1.
         22    1    1    0    0    0 -0.25976570887E+02  0.55073481873E+02  0.14081363003E+02  0.62499243393E+02  0.00000000000E+00 0.  1.
</event>
<event>
 4    1  0.1977788E-002  0.9118800E+02  0.7818608E-02  0.1130116E+00
         25   -1    0    0    0    0  0.00000000000E+00  0.00000000000E+00  0.99999998245E-14  0.12500000000E+03  0.12500000000E+03 0.  0.
        -11    1    1    0    0    0 -0.45307214459E+01 -0.69783087622E+01  0.26771771007E+02  0.28034834637E+02  0.51100000000E-03 0.  1.
         11    1    1    0    0    0 -0.84802726008E+01 -0.92178258730E+01  0.32141708841E+02  0.34495982152E+02  0.51100000000E-03 0. -1.
         22    1    1    0    0    0  0.13010994047E+02  0.16196134635E+02 -0.58913479848E+02  0.62469183210E+02  0.00000000000E+00 0.  1.
</event>
<event>
 4    1  0.1977788E-002  0.9118800E+02  0.7818608E-02  0.1130116E+00
         25   -1    0    0    0    0  0.00000000000E+00  0.00000000000E+00  0.99999998245E-14  0.12500000000E+03  0.12500000000E+03 0.  0.
        -11    1    1    0    0    0  0.20876525792E+02 -0.24019871668E+02  0.27312471641E+02  0.41937509124E+02  0.51100000000E-03 0. -1.
         11    1    1    0    0    0  0.10334901172E+02 -0.11725039327E+02  0.13361654010E+02  0.20562600215E+02  0.51100000000E-03 0.  1.
         22    1    1    0    0    0 -0.31211426964E+02  0.35744910995E+02 -0.40674125651E+02  0.62499890661E+02  0.00000000000E+00 0. -1.
</event>
<event>
 4    1  0.1977788E-002  0.9118800E+02  0.7818608E-02  0.1130116E+00
         25   -1    0    0    0    0  0.00000000000E+00  0.00000000000E+00  0.99999998245E-14  0.12500000000E+03  0.12500000000E+03 0.  0.
        -11    1    1    0    0    0  0.13617464324E+01  0.17079052316E+02  0.11297850874E+02  0.20522909541E+02  0.51100000000E-03 0. -1.
         11    1    1    0    0    0  0.26886331640E+01  0.35119421776E+02  0.22836220849E+02  0.41977321461E+02  0.51100000000E-03 0.  1.
         22    1    1    0    0    0 -0.40503795964E+01 -0.52198474092E+02 -0.34134071723E+02  0.62499768998E+02  0.00000000000E+00 0.  1.
</event>
<event>
 4    1  0.1977788E-002  0.9118800E+02  0.7818608E-02  0.1130116E+00
         25   -1    0    0    0    0  0.00000000000E+00  0.00000000000E+00  0.99999998245E-14  0.12500000000E+03  0.12500000000E+03 0.  0.
        -11    1    1    0    0    0 -0.14795200431E+02  0.15173402858E+02 -0.87476387000E+01  0.22927086452E+02  0.51100000000E-03 0.  1.
         11    1    1    0    0    0 -0.25565050706E+02  0.26166033147E+02 -0.15092469431E+02  0.39572916774E+02  0.51100000000E-03 0. -1.
         22    1    1    0    0    0  0.40360251137E+02 -0.41339436005E+02  0.23840108131E+02  0.62499996774E+02  0.00000000000E+00 0. -1.
</event>
<event>
 4    1  0.1977788E-002  0.9118800E+02  0.7818608E-02  0.1130116E+00
         25   -1    0    0    0    0  0.00000000000E+00  0.00000000000E+00  0.99999998245E-14  0.12500000000E+03  0.12500000000E+03 0.  0.
        -11    1    1    0    0    0  0.90294362125E+01  0.15450658664E+02 -0.63046566422E+01  0.18973725704E+02  0.51100000000E-03 0.  1.
         11    1    1    0    0    0  0.21247994677E+02  0.35341968983E+02 -0.13931700141E+02  0.43527282461E+02  0.51100000000E-03 0. -1.
         22    1    1    0    0    0 -0.30277430890E+02 -0.50792627647E+02  0.20236356783E+02  0.62498991835E+02  0.00000000000E+00 0. -1.
</event>
<event>
 4    1  0.1977788E-002  0.9118800E+02  0.7818608E-02  0.1130116E+00
         25   -1    0    0    0    0  0.00000000000E+00  0.00000000000E+00  0.99999998245E-14  0.12500000000E+03  0.12500000000E+03 0.  0.
        -11    1    1    0    0    0 -0.43700610613E+01 -0.32208871489E+01 -0.27593451777E+02  0.28122413284E+02  0.51100000000E-03 0.  1.
         11    1    1    0    0    0 -0.53543933528E+01 -0.39681202288E+01 -0.33725409070E+02  0.34377590426E+02  0.51100000000E-03 0. -1.
         22    1    1    0    0    0  0.97244544140E+01  0.71890073777E+01  0.61318860846E+02  0.62499996290E+02  0.00000000000E+00 0.  1.
</event>
<event>
 4    1  0.1977788E-002  0.9118800E+02  0.7818608E-02  0.1130116E+00
         25   -1    0    0    0    0  0.00000000000E+00  0.00000000000E+00  0.99999998245E-14  0.12500000000E+03  0.12500000000E+03 0.  0.
        -11    1    1    0    0    0  0.12988436483E+02  0.86787700512E+01  0.26363688878E+02  0.30644161326E+02  0.51100000000E-03 0.  1.
         11    1    1    0    0    0  0.14592935820E+02  0.57967227476E+01  0.27768945571E+02  0.31900942131E+02  0.51100000000E-03 0. -1.
         22    1    1    0    0    0 -0.27581372303E+02 -0.14475492799E+02 -0.54132634448E+02  0.62454896543E+02  0.00000000000E+00 0.  1.
</event>
<event>
 4    1  0.1977788E-002  0.9118800E+02  0.7818608E-02  0.1130116E+00
         25   -1    0    0    0    0  0.00000000000E+00  0.00000000000E+00  0.99999998245E-14  0.12500000000E+03  0.12500000000E+03 0.  0.
        -11    1    1    0    0    0 -0.83897523342E+01  0.20875845003E+02 -0.91610664286E+01  0.24292261879E+02  0.51100000000E-03 0.  1.
         11    1    1    0    0    0 -0.13196212714E+02  0.32833953669E+02 -0.14409118952E+02  0.38207738127E+02  0.51100000000E-03 0.  1.
         22    1    1    0    0    0  0.21585965048E+02 -0.53709798672E+02  0.23570185381E+02  0.62499999994E+02  0.00000000000E+00 0.  1.
</event>
<event>
 4    1  0.1977788E-002  0.9118800E+02  0.7818608E-02  0.1130116E+00
         25   -1    0    0    0    0  0.00000000000E+00  0.00000000000E+00  0.99999998245E-14  0.12500000000E+03  0.12500000000E+03 0.  0.
        -11    1    1    0    0    0 -0.64622962343E+01 -0.40033608864E+00  0.23868478025E+01  0.69006220225E+01  0.51100000000E-03 0.  1.
         11    1    1    0    0    0 -0.51166752409E+02 -0.31567927906E+01  0.21531982124E+02  0.55602411344E+02  0.51100000000E-03 0. -1.
         22    1    1    0    0    0  0.57629048643E+02  0.35571288793E+01 -0.23918829927E+02  0.62496966634E+02  0.00000000000E+00 0. -1.
</event>
<event>
 4    1  0.1977788E-002  0.9118800E+02  0.7818608E-02  0.1130116E+00
         25   -1    0    0    0    0  0.00000000000E+00  0.00000000000E+00  0.99999998245E-14  0.12500000000E+03  0.12500000000E+03 0.  0.
        -11    1    1    0    0    0  0.21823206362E+02 -0.16450241785E+02 -0.42772074656E+02  0.50757395139E+02  0.51100000000E-03 0.  1.
         11    1    1    0    0    0 -0.14081068265E+01 -0.16542513034E+02  0.14544928916E+00  0.16602971363E+02  0.51100000000E-03 0. -1.
         22    1    1    0    0    0 -0.20415099535E+02  0.32992754819E+02  0.42626625367E+02  0.57639633498E+02  0.00000000000E+00 0.  1.
</event>
<event>
 4    1  0.1977788E-002  0.9118800E+02  0.7818608E-02  0.1130116E+00
         25   -1    0    0    0    0  0.00000000000E+00  0.00000000000E+00  0.99999998245E-14  0.12500000000E+03  0.12500000000E+03 0.  0.
        -11    1    1    0    0    0 -0.98197299353E+01  0.27715449008E+02 -0.30127861346E+02  0.42098233209E+02  0.51100000000E-03 0.  1.
         11    1    1    0    0    0 -0.48093090413E+01  0.13973883736E+02 -0.14072213294E+02  0.20406520217E+02  0.51100000000E-03 0. -1.
         22    1    1    0    0    0  0.14629038977E+02 -0.41689332745E+02  0.44200074640E+02  0.62495246574E+02  0.00000000000E+00 0. -1.
</event>
<event>
 4    1  0.1977788E-002  0.9118800E+02  0.7818608E-02  0.1130116E+00
         25   -1    0    0    0    0  0.00000000000E+00  0.00000000000E+00  0.99999998245E-14  0.12500000000E+03  0.12500000000E+03 0.  0.
        -11    1    1    0    0    0  0.12990071020E+02 -0.61689599548E+01  0.16787873627E+02  0.22104992948E+02  0.51100000000E-03 0.  1.
         11    1    1    0    0    0  0.24703629554E+02 -0.11092316723E+02  0.29978409703E+02  0.40398191197E+02  0.51100000000E-03 0. -1.
         22    1    1    0    0    0 -0.37693700574E+02  0.17261276678E+02 -0.46766283330E+02  0.62496815855E+02  0.00000000000E+00 0. -1.
</event>
<event>
 4    1  0.1977788E-002  0.9118800E+02  0.7818608E-02  0.1130116E+00
         25   -1    0    0    0    0  0.00000000000E+00  0.00000000000E+00  0.99999998245E-14  0.12500000000E+03  0.12500000000E+03 0.  0.
        -11    1    1    0    0    0 -0.17529797361E+02  0.24046891609E+02  0.44110876212E+01  0.30083292470E+02  0.51100000000E-03 0. -1.
         11    1    1    0    0    0 -0.23547792245E+02  0.22434178086E+02  0.18125901045E+01  0.32574166899E+02  0.51100000000E-03 0.  1.
         22    1    1    0    0    0  0.41077589606E+02 -0.46481069695E+02 -0.62236777256E+01  0.62342540631E+02  0.00000000000E+00 0. -1.
</event>
<event>
 4    1  0.1977788E-002  0.9118800E+02  0.7818608E-02  0.1130116E+00
         25   -1    0    0    0    0  0.00000000000E+00  0.00000000000E+00  0.99999998245E-14  0.12500000000E+03  0.12500000000E+03 0.  0.
        -11    1    1    0    0    0 -0.87448934789E+01  0.79727615648E+01  0.19037652289E+02  0.22415849167E+02  0.51100000000E-03 0.  1.
         11    1    1    0    0    0 -0.12550032049E+02  0.12095641131E+02  0.36142359976E+02  0.40125777547E+02  0.51100000000E-03 0. -1.
         22    1    1    0    0    0  0.21294925528E+02 -0.20068402696E+02 -0.55180012265E+02  0.62458373287E+02  0.00000000000E+00 0.  1.
</event>
<event>
 4    1  0.1977788E-002  0.9118800E+02  0.7818608E-02  0.1130116E+00
         25   -1    0    0    0    0  0.00000000000E+00  0.00000000000E+00  0.99999998245E-14  0.12500000000E+03  0.12500000000E+03 0.  0.
        -11    1    1    0    0    0  0.12661706066E+02  0.32212957408E+02  0.41407537172E+02  0.53968301440E+02  0.51100000000E-03 0.  1.
         11    1    1    0    0    0  0.19982737124E+01  0.50917082810E+01  0.65476175405E+01  0.85316989379E+01  0.51100000000E-03 0. -1.
         22    1    1    0    0    0 -0.14659979778E+02 -0.37304665689E+02 -0.47955154712E+02  0.62499999622E+02  0.00000000000E+00 0.  1.
</event>
<event>
 4    1  0.1977788E-002  0.9118800E+02  0.7818608E-02  0.1130116E+00
         25   -1    0    0    0    0  0.00000000000E+00  0.00000000000E+00  0.99999998245E-14  0.12500000000E+03  0.12500000000E+03 0.  0.
        -11    1    1    0    0    0  0.11759307007E+00 -0.28413916803E+00  0.65127013871E-01  0.31433260409E+00  0.51100000000E-03 0.  1.
         11    1    1    0    0    0  0.14949107694E+02 -0.57768208852E+02  0.17511403782E+02  0.62187547286E+02  0.51100000000E-03 0. -1.
         22    1    1    0    0    0 -0.15066700764E+02  0.58052348020E+02 -0.17576530795E+02  0.62498120110E+02  0.00000000000E+00 0. -1.
</event>
<event>
 4    1  0.1977788E-002  0.9118800E+02  0.7818608E-02  0.1130116E+00
         25   -1    0    0    0    0  0.00000000000E+00  0.00000000000E+00  0.99999998245E-14  0.12500000000E+03  0.12500000000E+03 0.  0.
        -11    1    1    0    0    0 -0.13710602592E+02  0.29573862919E+02 -0.48945595094E+02  0.58807017190E+02  0.51100000000E-03 0.  1.
         11    1    1    0    0    0 -0.85984885573E+00  0.18555471488E+01 -0.30750169672E+01  0.36929831960E+01  0.51100000000E-03 0. -1.
         22    1    1    0    0    0  0.14570451448E+02 -0.31429410068E+02  0.52020612061E+02  0.62499999614E+02  0.00000000000E+00 0.  1.
</event>
<event>
 4    1  0.1977788E-002  0.9118800E+02  0.7818608E-02  0.1130116E+00
         25   -1    0    0    0    0  0.00000000000E+00  0.00000000000E+00  0.99999998245E-14  0.12500000000E+03  0.12500000000E+03 0.  0.
        -11    1    1    0    0    0  0.53842382731E+02 -0.19053822865E+02 -0.16073039699E+02  0.59332899384E+02  0.51100000000E-03 0.  1.
         11    1    1    0    0    0  0.32264581402E+01  0.26900513877E+00 -0.64985833305E+00  0.33022283400E+01  0.51100000000E-03 0. -1.
         22    1    1    0    0    0 -0.57068840871E+02  0.18784817727E+02  0.16722898032E+02  0.62364872276E+02  0.00000000000E+00 0.  1.
</event>
<event>
 4    1  0.1977788E-002  0.9118800E+02  0.7818608E-02  0.1130116E+00
         25   -1    0    0    0    0  0.00000000000E+00  0.00000000000E+00  0.99999998245E-14  0.12500000000E+03  0.12500000000E+03 0.  0.
        -11    1    1    0    0    0  0.20565277903E+01  0.56462656323E-01  0.13281341313E+01  0.24487619557E+01  0.51100000000E-03 0. -1.
         11    1    1    0    0    0  0.51375207659E+02  0.63429008840E+01  0.30448219592E+02  0.60056127333E+02  0.51100000000E-03 0.  1.
         22    1    1    0    0    0 -0.53431735450E+02 -0.63993635403E+01 -0.31776353723E+02  0.62495110711E+02  0.00000000000E+00 0.  1.
</event>
<event>
 4    1  0.1977788E-002  0.9118800E+02  0.7818608E-02  0.1130116E+00
         25   -1    0    0    0    0  0.00000000000E+00  0.00000000000E+00  0.99999998245E-14  0.12500000000E+03  0.12500000000E+03 0.  0.
        -11    1    1    0    0    0 -0.80461901008E+01  0.10195515340E+02 -0.36797890750E+01  0.13499279836E+02  0.51100000000E-03 0. -1.
         11    1    1    0    0    0 -0.28518815213E+02  0.37728078482E+02 -0.12824877146E+02  0.49002124456E+02  0.51100000000E-03 0.  1.
         22    1    1    0    0    0  0.36565005314E+02 -0.47923593822E+02  0.16504666221E+02  0.62498595708E+02  0.00000000000E+00 0.  1.
</event>
<event>
 4    1  0.1977788E-002  0.9118800E+02  0.7818608E-02  0.1130116E+00
         25   -1    0    0    0    0  0.00000000000E+00  0.00000000000E+00  0.99999998245E-14  0.12500000000E+03  0.12500000000E+03 0.  0.
        -11    1    1    0    0    0  0.11072912241E+02  0.11497203601E+02  0.48386118750E+02  0.50951070294E+02  0.51100000000E-03 0.  1.
         11    1    1    0    0    0  0.25629069654E+01  0.25920456823E+01  0.10958642397E+02  0.11548984214E+02  0.51100000000E-03 0. -1.
         22    1    1    0    0    0 -0.13635819207E+02 -0.14089249283E+02 -0.59344761147E+02  0.62499945492E+02  0.00000000000E+00 0.  1.
</event>
<event>
 4    1  0.1977788E-002  0.9118800E+02  0.7818608E-02  0.1130116E+00
         25   -1    0    0    0    0  0.00000000000E+00  0.00000000000E+00  0.99999998245E-14  0.12500000000E+03  0.12500000000E+03 0.  0.
        -11    1    1    0    0    0  0.21193632573E+02 -0.48024946519E+01 -0.75402319889E+01  0.23001937206E+02  0.51100000000E-03 0. -1.
         11    1    1    0    0    0  0.36393429861E+02 -0.82356088126E+01 -0.12953378065E+02  0.39498063157E+02  0.51100000000E-03 0.  1.
         22    1    1    0    0    0 -0.57587062434E+02  0.13038103465E+02  0.20493610054E+02  0.62499999638E+02  0.00000000000E+00 0.  1.
</event>
<event>
 4    1  0.1977788E-002  0.9118800E+02  0.7818608E-02  0.1130116E+00
         25   -1    0    0    0    0  0.00000000000E+00  0.00000000000E+00  0.99999998245E-14  0.12500000000E+03  0.12500000000E+03 0.  0.
        -11    1    1    0    0    0  0.37829815912E+02  0.28042524116E+00 -0.18704334511E+02  0.42202200654E+02  0.51100000000E-03 0. -1.
         11    1    1    0    0    0  0.18195151397E+02  0.13152143802E+00 -0.89955450060E+01  0.20297799448E+02  0.51100000000E-03 0.  1.
         22    1    1    0    0    0 -0.56024967308E+02 -0.41194667919E+00  0.27699879517E+02  0.62499999898E+02  0.00000000000E+00 0. -1.
</event>
<event>
 4    1  0.1977788E-002  0.9118800E+02  0.7818608E-02  0.1130116E+00
         25   -1    0    0    0    0  0.00000000000E+00  0.00000000000E+00  0.99999998245E-14  0.12500000000E+03  0.12500000000E+03 0.  0.
        -11    1    1    0    0    0 -0.68090359735E+00 -0.19920215200E+02 -0.10741944628E+02  0.22642172554E+02  0.51100000000E-03 0. -1.
         11    1    1    0    0    0 -0.13047939472E+01 -0.35111251583E+02 -0.18818815842E+02  0.39857876322E+02  0.51100000000E-03 0.  1.
         22    1    1    0    0    0  0.19856975445E+01  0.55031466782E+02  0.29560760470E+02  0.62499951124E+02  0.00000000000E+00 0.  1.
</event>
<event>
 4    1  0.1977788E-002  0.9118800E+02  0.7818608E-02  0.1130116E+00
         25   -1    0    0    0    0  0.00000000000E+00  0.00000000000E+00  0.99999998245E-14  0.12500000000E+03  0.12500000000E+03 0.  0.
        -11    1    1    0    0    0 -0.21326664145E+02 -0.99937231969E+01  0.92438871281E+01  0.25301196738E+02  0.51100000000E-03 0. -1.
         11    1    1    0    0    0 -0.31286716574E+02 -0.14564613347E+02  0.13884745697E+02  0.37199096216E+02  0.51100000000E-03 0.  1.
         22    1    1    0    0    0  0.52613380719E+02  0.24558336544E+02 -0.23128632825E+02  0.62499707046E+02  0.00000000000E+00 0. -1.
</event>
<event>
 4    1  0.1977788E-002  0.9118800E+02  0.7818608E-02  0.1130116E+00
         25   -1    0    0    0    0  0.00000000000E+00  0.00000000000E+00  0.99999998245E-14  0.12500000000E+03  0.12500000000E+03 0.  0.
        -11    1    1    0    0    0  0.16663722642E+02 -0.47236278638E+02  0.29486539971E+02  0.58124020091E+02  0.51100000000E-03 0.  1.
         11    1    1    0    0    0  0.12690847917E+01 -0.35400459858E+01  0.22376470716E+01  0.43760217628E+01  0.51100000000E-03 0. -1.
         22    1    1    0    0    0 -0.17932807434E+02  0.50776324623E+02 -0.31724187043E+02  0.62499958146E+02  0.00000000000E+00 0.  1.
</event>
<event>
 4    1  0.1977788E-002  0.9118800E+02  0.7818608E-02  0.1130116E+00
         25   -1    0    0    0    0  0.00000000000E+00  0.00000000000E+00  0.99999998245E-14  0.12500000000E+03  0.12500000000E+03 0.  0.
        -11    1    1    0    0    0  0.14594473003E+01  0.46472425715E+02 -0.28814529054E+02  0.54700031290E+02  0.51100000000E-03 0. -1.
         11    1    1    0    0    0  0.37211045052E+00  0.66653853643E+01 -0.40358932131E+01  0.78009142112E+01  0.51100000000E-03 0.  1.
         22    1    1    0    0    0 -0.18315577508E+01 -0.53137811080E+02  0.32850422267E+02  0.62499054499E+02  0.00000000000E+00 0. -1.
</event>
<event>
 4    1  0.1977788E-002  0.9118800E+02  0.7818608E-02  0.1130116E+00
         25   -1    0    0    0    0  0.00000000000E+00  0.00000000000E+00  0.99999998245E-14  0.12500000000E+03  0.12500000000E+03 0.  0.
        -11    1    1    0    0    0  0.32980875375E+02  0.34942971346E+02 -0.84683358666E+01  0.48789979500E+02  0.51100000000E-03 0.  1.
         11    1    1    0    0    0  0.92615193982E+01  0.98198520753E+01 -0.23999169990E+01  0.13710026922E+02  0.51100000000E-03 0. -1.
         22    1    1    0    0    0 -0.42242394773E+02 -0.44762823422E+02  0.10868252866E+02  0.62499993578E+02  0.00000000000E+00 0.  1.
</event>
<event>
 4    1  0.1977788E-002  0.9118800E+02  0.7818608E-02  0.1130116E+00
         25   -1    0    0    0    0  0.00000000000E+00  0.00000000000E+00  0.99999998245E-14  0.12500000000E+03  0.12500000000E+03 0.  0.
        -11    1    1    0    0    0  0.11612523597E+02 -0.88236768614E+01  0.42985526224E+01  0.15204786501E+02  0.51100000000E-03 0. -1.
         11    1    1    0    0    0  0.33618990955E+02 -0.29387153351E+02  0.15647571636E+02  0.47314773943E+02  0.51100000000E-03 0.  1.
         22    1    1    0    0    0 -0.45231514552E+02  0.38210830213E+02 -0.19946124258E+02  0.62480439556E+02  0.00000000000E+00 0.  1.
</event>
<event>
 4    1  0.1977788E-002  0.9118800E+02  0.7818608E-02  0.1130116E+00
         25   -1    0    0    0    0  0.00000000000E+00  0.00000000000E+00  0.99999998245E-14  0.12500000000E+03  0.12500000000E+03 0.  0.
        -11    1    1    0    0    0 -0.92937613839E+01  0.29016433602E+00  0.90989303298E-01  0.92987351461E+01  0.51100000000E-03 0. -1.
         11    1    1    0    0    0 -0.53106917004E+02  0.28894356652E+01  0.13587162625E+01  0.53202815548E+02  0.51100000000E-03 0.  1.
         22    1    1    0    0    0  0.62400678388E+02 -0.31796000012E+01 -0.14497055658E+01  0.62498449306E+02  0.00000000000E+00 0.  1.
</event>
<event>
 4    1  0.1977788E-002  0.9118800E+02  0.7818608E-02  0.1130116E+00
         25   -1    0    0    0    0  0.00000000000E+00  0.00000000000E+00  0.99999998245E-14  0.12500000000E+03  0.12500000000E+03 0.  0.
        -11    1    1    0    0    0  0.52077897728E+01 -0.21581933601E+02  0.22158499906E+02  0.31367181107E+02  0.51100000000E-03 0.  1.
         11    1    1    0    0    0 -0.43364370271E+02 -0.59153050983E+01 -0.77816835773E+01  0.44452379497E+02  0.51100000000E-03 0. -1.
         22    1    1    0    0    0  0.38156580498E+02  0.27497238699E+02 -0.14376816329E+02  0.49180439396E+02  0.00000000000E+00 0. -1.
</event>
<event>
 4    1  0.1977788E-002  0.9118800E+02  0.7818608E-02  0.1130116E+00
         25   -1    0    0    0    0  0.00000000000E+00  0.00000000000E+00  0.99999998245E-14  0.12500000000E+03  0.12500000000E+03 0.  0.
        -11    1    1    0    0    0  0.24843445072E+02  0.23747491874E+02 -0.30419159195E+02  0.45896245814E+02  0.51100000000E-03 0. -1.
         11    1    1    0    0    0  0.89842308937E+01  0.85921069770E+01 -0.11006541313E+02  0.16603754364E+02  0.51100000000E-03 0.  1.
         22    1    1    0    0    0 -0.33827675966E+02 -0.32339598851E+02  0.41425700508E+02  0.62499999822E+02  0.00000000000E+00 0. -1.
</event>
<event>
 4    1  0.1977788E-002  0.9118800E+02  0.7818608E-02  0.1130116E+00
         25   -1    0    0    0    0  0.00000000000E+00  0.00000000000E+00  0.99999998245E-14  0.12500000000E+03  0.12500000000E+03 0.  0.
        -11    1    1    0    0    0 -0.37274037980E+00 -0.67284713338E+00 -0.95863582089E+00  0.12290815896E+01  0.51100000000E-03 0.  1.
         11    1    1    0    0    0 -0.18477794735E+02 -0.33534839125E+02 -0.47834205775E+02  0.61270919496E+02  0.51100000000E-03 0. -1.
         22    1    1    0    0    0  0.18850535115E+02  0.34207686259E+02  0.48792841596E+02  0.62499998915E+02  0.00000000000E+00 0. -1.
</event>
<event>
 4    1  0.1977788E-002  0.9118800E+02  0.7818608E-02  0.1130116E+00
         25   -1    0    0    0    0  0.00000000000E+00  0.00000000000E+00  0.99999998245E-14  0.12500000000E+03  0.12500000000E+03 0.  0.
        -11    1    1    0    0    0  0.37873331324E+02  0.17656585626E+02 -0.34967537560E+01  0.41932940854E+02  0.51100000000E-03 0. -1.
         11    1    1    0    0    0  0.18585015054E+02  0.86445688420E+01 -0.16949370520E+01  0.20567065102E+02  0.51100000000E-03 0.  1.
         22    1    1    0    0    0 -0.56458346378E+02 -0.26301154468E+02  0.51916908080E+01  0.62499994045E+02  0.00000000000E+00 0. -1.
</event>
<event>
 4    1  0.1977788E-002  0.9118800E+02  0.7818608E-02  0.1130116E+00
         25   -1    0    0    0    0  0.00000000000E+00  0.00000000000E+00  0.99999998245E-14  0.12500000000E+03  0.12500000000E+03 0.  0.
        -11    1    1    0    0    0 -0.99797749476E+01 -0.22620759856E+02  0.85948777817E+00  0.24739308882E+02  0.51100000000E-03 0. -1.
         11    1    1    0    0    0 -0.15234117243E+02 -0.34526406699E+02  0.13109945762E+01  0.37760691132E+02  0.51100000000E-03 0. -1.
         22    1    1    0    0    0  0.25213892191E+02  0.57147166555E+02 -0.21704823544E+01  0.62499999986E+02  0.00000000000E+00 0. -1.
</event>
<event>
 4    1  0.1977788E-002  0.9118800E+02  0.7818608E-02  0.1130116E+00
         25   -1    0    0    0    0  0.00000000000E+00  0.00000000000E+00  0.99999998245E-14  0.12500000000E+03  0.12500000000E+03 0.  0.
        -11    1    1    0    0    0 -0.46192197993E+02  0.29982157262E+02 -0.48755657274E+01  0.55284898941E+02  0.51100000000E-03 0.  1.
         11    1    1    0    0    0 -0.60051949758E+01  0.39498199784E+01 -0.62857514819E+00  0.72151612274E+01  0.51100000000E-03 0. -1.
         22    1    1    0    0    0  0.52197392969E+02 -0.33931977240E+02  0.55041408755E+01  0.62499939832E+02  0.00000000000E+00 0.  1.
</event>
<event>
 4    1  0.1977788E-002  0.9118800E+02  0.7818608E-02  0.1130116E+00
         25   -1    0    0    0    0  0.00000000000E+00  0.00000000000E+00  0.99999998245E-14  0.12500000000E+03  0.12500000000E+03 0.  0.
        -11    1    1    0    0    0  0.46981939240E+02  0.10204549848E+01  0.14187525946E+02  0.49087980564E+02  0.51100000000E-03 0. -1.
         11    1    1    0    0    0  0.12836552190E+02  0.27951660494E+00  0.38764756919E+01  0.13412019449E+02  0.51100000000E-03 0.  1.
         22    1    1    0    0    0 -0.59818491430E+02 -0.12999715898E+01 -0.18064001638E+02  0.62499999986E+02  0.00000000000E+00 0. -1.
</event>
<event>
 4    1  0.1977788E-002  0.9118800E+02  0.7818608E-02  0.1130116E+00
         25   -1    0    0    0    0  0.00000000000E+00  0.00000000000E+00  0.99999998245E-14  0.12500000000E+03  0.12500000000E+03 0.  0.
        -11    1    1    0    0    0 -0.88805545115E+01  0.18279380271E+02  0.14336003768E+02  0.24870082344E+02  0.51100000000E-03 0. -1.
         11    1    1    0    0    0 -0.13619374067E+02  0.27614207042E+02  0.21632998089E+02  0.37630019759E+02  0.51100000000E-03 0.  1.
         22    1    1    0    0    0  0.22499928579E+02 -0.45893587313E+02 -0.35969001857E+02  0.62499897896E+02  0.00000000000E+00 0. -1.
</event>
<event>
 4    1  0.1977788E-002  0.9118800E+02  0.7818608E-02  0.1130116E+00
         25   -1    0    0    0    0  0.00000000000E+00  0.00000000000E+00  0.99999998245E-14  0.12500000000E+03  0.12500000000E+03 0.  0.
        -11    1    1    0    0    0 -0.26769214187E+02  0.48085052678E+02  0.25009251622E+01  0.55090995146E+02  0.51100000000E-03 0.  1.
         11    1    1    0    0    0 -0.35136775125E+01  0.64110926834E+01  0.13942071267E+01  0.74425703107E+01  0.51100000000E-03 0. -1.
         22    1    1    0    0    0  0.30282891699E+02 -0.54496145362E+02 -0.38951322889E+01  0.62466434543E+02  0.00000000000E+00 0.  1.
</event>
<event>
 4    1  0.1977788E-002  0.9118800E+02  0.7818608E-02  0.1130116E+00
         25   -1    0    0    0    0  0.00000000000E+00  0.00000000000E+00  0.99999998245E-14  0.12500000000E+03  0.12500000000E+03 0.  0.
        -11    1    1    0    0    0  0.32807427003E+02 -0.14841734601E+02 -0.15310081817E+02  0.39128032892E+02  0.51100000000E-03 0. -1.
         11    1    1    0    0    0  0.19606084804E+02 -0.88469264174E+01 -0.91423363613E+01  0.23371970024E+02  0.51100000000E-03 0.  1.
         22    1    1    0    0    0 -0.52413511807E+02  0.23688661018E+02  0.24452418179E+02  0.62499997084E+02  0.00000000000E+00 0. -1.
</event>
<event>
 4    1  0.1977788E-002  0.9118800E+02  0.7818608E-02  0.1130116E+00
         25   -1    0    0    0    0  0.00000000000E+00  0.00000000000E+00  0.99999998245E-14  0.12500000000E+03  0.12500000000E+03 0.  0.
        -11    1    1    0    0    0  0.85667456864E+00 -0.29034929752E+01  0.89551468680E+00  0.31569145679E+01  0.51100000000E-03 0. -1.
         11    1    1    0    0    0  0.28598968453E+02  0.38542068669E+02 -0.39068929308E+02  0.61885162126E+02  0.51100000000E-03 0.  1.
         22    1    1    0    0    0 -0.29455643021E+02 -0.35638575694E+02  0.38173414621E+02  0.59957923306E+02  0.00000000000E+00 0.  1.
</event>
<event>
 4    1  0.1977788E-002  0.9118800E+02  0.7818608E-02  0.1130116E+00
         25   -1    0    0    0    0  0.00000000000E+00  0.00000000000E+00  0.99999998245E-14  0.12500000000E+03  0.12500000000E+03 0.  0.
        -11    1    1    0    0    0 -0.31958325751E+02  0.24667144517E+02 -0.20983270711E+02  0.45498354403E+02  0.51100000000E-03 0. -1.
         11    1    1    0    0    0 -0.11941346252E+02  0.92187695267E+01 -0.78405670598E+01  0.17001645626E+02  0.51100000000E-03 0. -1.
         22    1    1    0    0    0  0.43899672003E+02 -0.33885914044E+02  0.28823837771E+02  0.62499999971E+02  0.00000000000E+00 0. -1.
</event>
<event>
 4    1  0.1977788E-002  0.9118800E+02  0.7818608E-02  0.1130116E+00
         25   -1    0    0    0    0  0.00000000000E+00  0.00000000000E+00  0.99999998245E-14  0.12500000000E+03  0.12500000000E+03 0.  0.
        -11    1    1    0    0    0 -0.18960190720E+02 -0.12641015065E+02  0.30857629510E+02  0.38359840891E+02  0.51100000000E-03 0. -1.
         11    1    1    0    0    0 -0.14408155316E+02 -0.89514684428E+01  0.17280544512E+02  0.24214478020E+02  0.51100000000E-03 0.  1.
         22    1    1    0    0    0  0.33368346036E+02  0.21592483507E+02 -0.48138174022E+02  0.62425681088E+02  0.00000000000E+00 0. -1.
</event>
<event>
 4    1  0.1977788E-002  0.9118800E+02  0.7818608E-02  0.1130116E+00
         25   -1    0    0    0    0  0.00000000000E+00  0.00000000000E+00  0.99999998245E-14  0.12500000000E+03  0.12500000000E+03 0.  0.
        -11    1    1    0    0    0 -0.24042742705E+00  0.39999302647E+02 -0.33545544194E+02  0.52204459131E+02  0.51100000000E-03 0. -1.
         11    1    1    0    0    0 -0.45930679026E-01  0.78900935933E+01 -0.66138096927E+01  0.10295541047E+02  0.51100000000E-03 0.  1.
         22    1    1    0    0    0  0.28635810607E+00 -0.47889396240E+02  0.40159353886E+02  0.62499999822E+02  0.00000000000E+00 0. -1.
</event>
<event>
 4    1  0.1977788E-002  0.9118800E+02  0.7818608E-02  0.1130116E+00
         25   -1    0    0    0    0  0.00000000000E+00  0.00000000000E+00  0.99999998245E-14  0.12500000000E+03  0.12500000000E+03 0.  0.
        -11    1    1    0    0    0 -0.13313110052E+02  0.13937423149E+02  0.83157518149E+01  0.20991483792E+02  0.51100000000E-03 0.  1.
         11    1    1    0    0    0 -0.26305258378E+02  0.27575641048E+02  0.16449146945E+02  0.41508517596E+02  0.51100000000E-03 0. -1.
         22    1    1    0    0    0  0.39618368429E+02 -0.41513064197E+02 -0.24764898760E+02  0.62499998613E+02  0.00000000000E+00 0. -1.
</event>
<event>
 4    1  0.1977788E-002  0.9118800E+02  0.7818608E-02  0.1130116E+00
         25   -1    0    0    0    0  0.00000000000E+00  0.00000000000E+00  0.99999998245E-14  0.12500000000E+03  0.12500000000E+03 0.  0.
        -11    1    1    0    0    0 -0.11747925343E+01  0.30050150216E+01 -0.94555063170E+01  0.99908384408E+01  0.51100000000E-03 0.  1.
         11    1    1    0    0    0 -0.20185189924E+00  0.18507226415E+02 -0.49174345542E+02  0.52542120565E+02  0.51100000000E-03 0. -1.
         22    1    1    0    0    0  0.13766444336E+01 -0.21512241437E+02  0.58629851859E+02  0.62467040994E+02  0.00000000000E+00 0. -1.
</event>
<event>
 4    1  0.1977788E-002  0.9118800E+02  0.7818608E-02  0.1130116E+00
         25   -1    0    0    0    0  0.00000000000E+00  0.00000000000E+00  0.99999998245E-14  0.12500000000E+03  0.12500000000E+03 0.  0.
        -11    1    1    0    0    0  0.34849630886E+02 -0.14239159220E+02  0.36508387676E+02  0.52441517895E+02  0.51100000000E-03 0. -1.
         11    1    1    0    0    0  0.93961439156E+01 -0.62989456109E+00  0.44896224438E+01  0.10432688896E+02  0.51100000000E-03 0.  1.
         22    1    1    0    0    0 -0.44245774802E+02  0.14869053781E+02 -0.40998010120E+02  0.62125793210E+02  0.00000000000E+00 0. -1.
</event>
<event>
 4    1  0.1977788E-002  0.9118800E+02  0.7818608E-02  0.1130116E+00
         25   -1    0    0    0    0  0.00000000000E+00  0.00000000000E+00  0.99999998245E-14  0.12500000000E+03  0.12500000000E+03 0.  0.
        -11    1    1    0    0    0  0.10850455309E+01 -0.25068286471E+02  0.54070205153E+02  0.59608584918E+02  0.51100000000E-03 0.  1.
         11    1    1    0    0    0  0.34140857234E-01 -0.12052403388E+01  0.26280682324E+01  0.28914551298E+01  0.51100000000E-03 0. -1.
         22    1    1    0    0    0 -0.11191863881E+01  0.26273526810E+02 -0.56698273385E+02  0.62499959952E+02  0.00000000000E+00 0.  1.
</event>
<event>
 4    1  0.1977788E-002  0.9118800E+02  0.7818608E-02  0.1130116E+00
         25   -1    0    0    0    0  0.00000000000E+00  0.00000000000E+00  0.99999998245E-14  0.12500000000E+03  0.12500000000E+03 0.  0.
        -11    1    1    0    0    0 -0.31373039880E+02  0.35327362900E+01  0.48124478735E+02  0.57556175262E+02  0.51100000000E-03 0.  1.
         11    1    1    0    0    0 -0.26973452111E+01  0.30236111875E+00  0.41321077111E+01  0.49438252226E+01  0.51100000000E-03 0. -1.
         22    1    1    0    0    0  0.34070385091E+02 -0.38350974087E+01 -0.52256586447E+02  0.62499999515E+02  0.00000000000E+00 0.  1.
</event>
<event>
 4    1  0.1977788E-002  0.9118800E+02  0.7818608E-02  0.1130116E+00
         25   -1    0    0    0    0  0.00000000000E+00  0.00000000000E+00  0.99999998245E-14  0.12500000000E+03  0.12500000000E+03 0.  0.
        -11    1    1    0    0    0 -0.97208277202E+00 -0.11246844062E+02 -0.17699641007E+02  0.20993183139E+02  0.51100000000E-03 0.  1.
         11    1    1    0    0    0 -0.66676790965E+01 -0.17317642124E+02 -0.37244632310E+02  0.41611552595E+02  0.51100000000E-03 0. -1.
         22    1    1    0    0    0  0.76397618686E+01  0.28564486185E+02  0.54944273317E+02  0.62395264266E+02  0.00000000000E+00 0. -1.
</event>
<event>
 4    1  0.1977788E-002  0.9118800E+02  0.7818608E-02  0.1130116E+00
         25   -1    0    0    0    0  0.00000000000E+00  0.00000000000E+00  0.99999998245E-14  0.12500000000E+03  0.12500000000E+03 0.  0.
        -11    1    1    0    0    0 -0.22868998759E+02  0.45343993947E+01  0.17423570007E+02  0.29105543701E+02  0.51100000000E-03 0.  1.
         11    1    1    0    0    0 -0.26262247274E+02  0.51836156373E+01  0.19965334286E+02  0.33394461762E+02  0.51100000000E-03 0. -1.
         22    1    1    0    0    0  0.49131246033E+02 -0.97180150320E+01 -0.37388904293E+02  0.62499994537E+02  0.00000000000E+00 0. -1.
</event>
<event>
 4    1  0.1977788E-002  0.9118800E+02  0.7818608E-02  0.1130116E+00
         25   -1    0    0    0    0  0.00000000000E+00  0.00000000000E+00  0.99999998245E-14  0.12500000000E+03  0.12500000000E+03 0.  0.
        -11    1    1    0    0    0  0.22490969245E+02  0.20060247460E+02  0.24629462657E+02  0.38921300810E+02  0.51100000000E-03 0. -1.
         11    1    1    0    0    0  0.12525160390E+02  0.14137276562E+02  0.14177065245E+02  0.23616337790E+02  0.51100000000E-03 0.  1.
         22    1    1    0    0    0 -0.35016129635E+02 -0.34197524022E+02 -0.38806527902E+02  0.62462361400E+02  0.00000000000E+00 0.  1.
</event>
<event>
 4    1  0.1977788E-002  0.9118800E+02  0.7818608E-02  0.1130116E+00
         25   -1    0    0    0    0  0.00000000000E+00  0.00000000000E+00  0.99999998245E-14  0.12500000000E+03  0.12500000000E+03 0.  0.
        -11    1    1    0    0    0 -0.10944060139E+02  0.99541315422E+01 -0.22869391470E+02  0.27237221840E+02  0.51100000000E-03 0. -1.
         11    1    1    0    0    0 -0.14168185062E+02  0.12886830508E+02 -0.29608371371E+02  0.35262778166E+02  0.51100000000E-03 0. -1.
         22    1    1    0    0    0  0.25112245202E+02 -0.22840962050E+02  0.52477762841E+02  0.62499999994E+02  0.00000000000E+00 0. -1.
</event>
<event>
 4    1  0.1977788E-002  0.9118800E+02  0.7818608E-02  0.1130116E+00
         25   -1    0    0    0    0  0.00000000000E+00  0.00000000000E+00  0.99999998245E-14  0.12500000000E+03  0.12500000000E+03 0.  0.
        -11    1    1    0    0    0 -0.24203092332E+02  0.11733587281E+02  0.16273335693E+02  0.31437051448E+02  0.51100000000E-03 0.  1.
         11    1    1    0    0    0 -0.30172964691E+02 -0.75824220450E+01  0.10468139498E+02  0.32825034152E+02  0.51100000000E-03 0. -1.
         22    1    1    0    0    0  0.54376057023E+02 -0.41511652355E+01 -0.26741475191E+02  0.60737914399E+02  0.00000000000E+00 0. -1.
</event>
<event>
 4    1  0.1977788E-002  0.9118800E+02  0.7818608E-02  0.1130116E+00
         25   -1    0    0    0    0  0.00000000000E+00  0.00000000000E+00  0.99999998245E-14  0.12500000000E+03  0.12500000000E+03 0.  0.
        -11    1    1    0    0    0  0.45773946076E-01 -0.60203754747E+00 -0.94058046017E+01  0.94251633901E+01  0.51100000000E-03 0. -1.
         11    1    1    0    0    0  0.16910040307E+02 -0.19679925691E+01 -0.50484445794E+02  0.53277591212E+02  0.51100000000E-03 0.  1.
         22    1    1    0    0    0 -0.16955814253E+02  0.25700301166E+01  0.59890250396E+02  0.62297245398E+02  0.00000000000E+00 0.  1.
</event>
<event>
 4    1  0.1977788E-002  0.9118800E+02  0.7818608E-02  0.1130116E+00
         25   -1    0    0    0    0  0.00000000000E+00  0.00000000000E+00  0.99999998245E-14  0.12500000000E+03  0.12500000000E+03 0.  0.
        -11    1    1    0    0    0  0.21367190187E+02 -0.10463438229E+02 -0.85830384550E+01  0.25292467366E+02  0.51100000000E-03 0. -1.
         11    1    1    0    0    0  0.19347442640E+01  0.47986056422E+02  0.22995128867E+02  0.53246415824E+02  0.51100000000E-03 0.  1.
         22    1    1    0    0    0 -0.23301934451E+02 -0.37522618193E+02 -0.14412090412E+02  0.46461116810E+02  0.00000000000E+00 0.  1.
</event>
<event>
 4    1  0.1977788E-002  0.9118800E+02  0.7818608E-02  0.1130116E+00
         25   -1    0    0    0    0  0.00000000000E+00  0.00000000000E+00  0.99999998245E-14  0.12500000000E+03  0.12500000000E+03 0.  0.
        -11    1    1    0    0    0 -0.14022786713E+02 -0.26362119347E+02  0.23940423175E+01  0.29955489022E+02  0.51100000000E-03 0.  1.
         11    1    1    0    0    0 -0.15247463106E+02 -0.28633609838E+02  0.26031716657E+01  0.32544511772E+02  0.51100000000E-03 0. -1.
         22    1    1    0    0    0  0.29270249819E+02  0.54995729185E+02 -0.49972139832E+01  0.62499999205E+02  0.00000000000E+00 0.  1.
</event>
<event>
 4    1  0.1977788E-002  0.9118800E+02  0.7818608E-02  0.1130116E+00
         25   -1    0    0    0    0  0.00000000000E+00  0.00000000000E+00  0.99999998245E-14  0.12500000000E+03  0.12500000000E+03 0.  0.
        -11    1    1    0    0    0 -0.31657162153E+01  0.65195615761E+01 -0.90730279017E+01  0.11612333007E+02  0.51100000000E-03 0. -1.
         11    1    1    0    0    0 -0.13878286284E+02  0.28533231678E+02 -0.39784452958E+02  0.50887668817E+02  0.51100000000E-03 0.  1.
         22    1    1    0    0    0  0.17044002499E+02 -0.35052793254E+02  0.48857480860E+02  0.62499998176E+02  0.00000000000E+00 0.  1.
</event>
<event>
 4    1  0.1977788E-002  0.9118800E+02  0.7818608E-02  0.1130116E+00
         25   -1    0    0    0    0  0.00000000000E+00  0.00000000000E+00  0.99999998245E-14  0.12500000000E+03  0.12500000000E+03 0.  0.
        -11    1    1    0    0    0  0.11082337370E+01 -0.67884677121E+00  0.46702810841E+00  0.13809889463E+01  0.51100000000E-03 0.  1.
         11    1    1    0    0    0  0.48953721481E+02 -0.30164062885E+02  0.20717052465E+02  0.61119013405E+02  0.51100000000E-03 0. -1.
         22    1    1    0    0    0 -0.50061955218E+02  0.30842909656E+02 -0.21184080574E+02  0.62499997648E+02  0.00000000000E+00 0. -1.
</event>
<event>
 4    1  0.1977788E-002  0.9118800E+02  0.7818608E-02  0.1130116E+00
         25   -1    0    0    0    0  0.00000000000E+00  0.00000000000E+00  0.99999998245E-14  0.12500000000E+03  0.12500000000E+03 0.  0.
        -11    1    1    0    0    0 -0.61497746545E+00 -0.12832738842E+02 -0.68065812166E+01  0.14539151681E+02  0.51100000000E-03 0.  1.
         11    1    1    0    0    0 -0.21785720100E+01 -0.42729871070E+02 -0.21673639025E+02  0.47961804455E+02  0.51100000000E-03 0. -1.
         22    1    1    0    0    0  0.27935494755E+01  0.55562609913E+02  0.28480220242E+02  0.62499043865E+02  0.00000000000E+00 0. -1.
</event>
<event>
 4    1  0.1977788E-002  0.9118800E+02  0.7818608E-02  0.1130116E+00
         25   -1    0    0    0    0  0.00000000000E+00  0.00000000000E+00  0.99999998245E-14  0.12500000000E+03  0.12500000000E+03 0.  0.
        -11    1    1    0    0    0  0.27473267334E+02  0.23891374977E+02  0.13922349209E+02  0.38979610363E+02  0.51100000000E-03 0.  1.
         11    1    1    0    0    0  0.15508282637E+02  0.16734918379E+02  0.60354500544E+01  0.23600656370E+02  0.51100000000E-03 0. -1.
         22    1    1    0    0    0 -0.42981549971E+02 -0.40626293355E+02 -0.19957799264E+02  0.62419733267E+02  0.00000000000E+00 0.  1.
</event>
<event>
 4    1  0.1977788E-002  0.9118800E+02  0.7818608E-02  0.1130116E+00
         25   -1    0    0    0    0  0.00000000000E+00  0.00000000000E+00  0.99999998245E-14  0.12500000000E+03  0.12500000000E+03 0.  0.
        -11    1    1    0    0    0  0.20712884710E+02  0.67464101609E+01  0.58943172111E+01  0.22567246591E+02  0.51100000000E-03 0.  1.
         11    1    1    0    0    0  0.36651593214E+02  0.11940327185E+02  0.10426605379E+02  0.39932753454E+02  0.51100000000E-03 0.  1.
         22    1    1    0    0    0 -0.57364477924E+02 -0.18686737346E+02 -0.16320922590E+02  0.62499999955E+02  0.00000000000E+00 0.  1.
</event>
<event>
 4    1  0.1977788E-002  0.9118800E+02  0.7818608E-02  0.1130116E+00
         25   -1    0    0    0    0  0.00000000000E+00  0.00000000000E+00  0.99999998245E-14  0.12500000000E+03  0.12500000000E+03 0.  0.
        -11    1    1    0    0    0 -0.47840702738E+01 -0.13650172615E+02  0.49395809939E+02  0.51469996897E+02  0.51100000000E-03 0. -1.
         11    1    1    0    0    0 -0.12623830751E+01 -0.29920571108E+01  0.10542329820E+02  0.11031171066E+02  0.51100000000E-03 0.  1.
         22    1    1    0    0    0  0.60464533489E+01  0.16642229726E+02 -0.59938139759E+02  0.62498832038E+02  0.00000000000E+00 0. -1.
</event>
<event>
 4    1  0.1977788E-002  0.9118800E+02  0.7818608E-02  0.1130116E+00
         25   -1    0    0    0    0  0.00000000000E+00  0.00000000000E+00  0.99999998245E-14  0.12500000000E+03  0.12500000000E+03 0.  0.
        -11    1    1    0    0    0  0.11426842049E+02  0.37361251700E+02  0.44699120147E+02  0.59367054753E+02  0.51100000000E-03 0.  1.
         11    1    1    0    0    0  0.60608850793E+00  0.19057620551E+01  0.24123635827E+01  0.31334917594E+01  0.51100000000E-03 0. -1.
         22    1    1    0    0    0 -0.12032930557E+02 -0.39267013755E+02 -0.47111483730E+02  0.62499453488E+02  0.00000000000E+00 0.  1.
</event>
<event>
 4    1  0.1977788E-002  0.9118800E+02  0.7818608E-02  0.1130116E+00
         25   -1    0    0    0    0  0.00000000000E+00  0.00000000000E+00  0.99999998245E-14  0.12500000000E+03  0.12500000000E+03 0.  0.
        -11    1    1    0    0    0  0.78381378938E+01 -0.32892914743E+01 -0.69647698581E+01  0.10989261280E+02  0.51100000000E-03 0.  1.
         11    1    1    0    0    0  0.45342200945E+02  0.22706803336E+02 -0.15614787390E+02  0.53059736993E+02  0.51100000000E-03 0. -1.
         22    1    1    0    0    0 -0.53180338839E+02 -0.19417511862E+02  0.22579557248E+02  0.60951001727E+02  0.00000000000E+00 0. -1.
</event>
<event>
 4    1  0.1977788E-002  0.9118800E+02  0.7818608E-02  0.1130116E+00
         25   -1    0    0    0    0  0.00000000000E+00  0.00000000000E+00  0.99999998245E-14  0.12500000000E+03  0.12500000000E+03 0.  0.
        -11    1    1    0    0    0  0.42960661074E+02 -0.12899173557E+02 -0.50443619246E+01  0.45138150891E+02  0.51100000000E-03 0.  1.
         11    1    1    0    0    0  0.16524593490E+02 -0.49631420967E+01 -0.19336110864E+01  0.17361849602E+02  0.51100000000E-03 0. -1.
         22    1    1    0    0    0 -0.59485254564E+02  0.17862315654E+02  0.69779730110E+01  0.62499999507E+02  0.00000000000E+00 0.  1.
</event>
<event>
 4    1  0.1977788E-002  0.9118800E+02  0.7818608E-02  0.1130116E+00
         25   -1    0    0    0    0  0.00000000000E+00  0.00000000000E+00  0.99999998245E-14  0.12500000000E+03  0.12500000000E+03 0.  0.
        -11    1    1    0    0    0  0.81543724492E+01 -0.75180160719E+01  0.21527310310E+01  0.11298168296E+02  0.51100000000E-03 0. -1.
         11    1    1    0    0    0  0.36973527051E+02 -0.34072217327E+02  0.96783495728E+01  0.51201837338E+02  0.51100000000E-03 0.  1.
         22    1    1    0    0    0 -0.45127899500E+02  0.41590233399E+02 -0.11831080604E+02  0.62499994365E+02  0.00000000000E+00 0.  1.
</event>
<event>
 4    1  0.1977788E-002  0.9118800E+02  0.7818608E-02  0.1130116E+00
         25   -1    0    0    0    0  0.00000000000E+00  0.00000000000E+00  0.99999998245E-14  0.12500000000E+03  0.12500000000E+03 0.  0.
        -11    1    1    0    0    0 -0.27467553081E+02  0.26485395279E+02 -0.15457834068E+02  0.41169008607E+02  0.51100000000E-03 0.  1.
         11    1    1    0    0    0 -0.14248982181E+02  0.13735860197E+02 -0.79564385304E+01  0.21331016452E+02  0.51100000000E-03 0. -1.
         22    1    1    0    0    0  0.41716535262E+02 -0.40221255476E+02  0.23414272598E+02  0.62499974941E+02  0.00000000000E+00 0.  1.
</event>
<event>
 4    1  0.1977788E-002  0.9118800E+02  0.7818608E-02  0.1130116E+00
         25   -1    0    0    0    0  0.00000000000E+00  0.00000000000E+00  0.99999998245E-14  0.12500000000E+03  0.12500000000E+03 0.  0.
        -11    1    1    0    0    0 -0.11026530654E+02 -0.54908508383E+02  0.56087347220E+01  0.56284869872E+02  0.51100000000E-03 0.  1.
         11    1    1    0    0    0 -0.12435894535E+01 -0.60543703967E+01  0.65328803163E+00  0.62151992038E+01  0.51100000000E-03 0. -1.
         22    1    1    0    0    0  0.12270120108E+02  0.60962878779E+02 -0.62620227537E+01  0.62499930924E+02  0.00000000000E+00 0.  1.
</event>
<event>
 4    1  0.1977788E-002  0.9118800E+02  0.7818608E-02  0.1130116E+00
         25   -1    0    0    0    0  0.00000000000E+00  0.00000000000E+00  0.99999998245E-14  0.12500000000E+03  0.12500000000E+03 0.  0.
        -11    1    1    0    0    0  0.37560818767E+02  0.27346454069E+00  0.16773427679E+02  0.41136817641E+02  0.51100000000E-03 0. -1.
         11    1    1    0    0    0  0.19503450520E+02  0.18705107423E+00  0.87158859833E+01  0.21363198240E+02  0.51100000000E-03 0.  1.
         22    1    1    0    0    0 -0.57064269287E+02 -0.46051561492E+00 -0.25489313662E+02  0.62499984119E+02  0.00000000000E+00 0. -1.
</event>
<event>
 4    1  0.1977788E-002  0.9118800E+02  0.7818608E-02  0.1130116E+00
         25   -1    0    0    0    0  0.00000000000E+00  0.00000000000E+00  0.99999998245E-14  0.12500000000E+03  0.12500000000E+03 0.  0.
        -11    1    1    0    0    0 -0.43580844675E+02  0.15436548708E+02 -0.18601741366E+02  0.49835748622E+02  0.51100000000E-03 0.  1.
         11    1    1    0    0    0 -0.94229666265E+01  0.54609279872E+01 -0.67400464900E+01  0.12807898402E+02  0.51100000000E-03 0. -1.
         22    1    1    0    0    0  0.53003811302E+02 -0.20897476695E+02  0.25341787856E+02  0.62356352976E+02  0.00000000000E+00 0.  1.
</event>
<event>
 4    1  0.1977788E-002  0.9118800E+02  0.7818608E-02  0.1130116E+00
         25   -1    0    0    0    0  0.00000000000E+00  0.00000000000E+00  0.99999998245E-14  0.12500000000E+03  0.12500000000E+03 0.  0.
        -11    1    1    0    0    0  0.60575795342E+00 -0.20201706835E+01  0.37019878513E+01  0.42606040183E+01  0.51100000000E-03 0.  1.
         11    1    1    0    0    0  0.82778873530E+01 -0.27620197835E+02  0.50600676875E+02  0.58239396012E+02  0.51100000000E-03 0.  1.
         22    1    1    0    0    0 -0.88836453064E+01  0.29640368518E+02 -0.54302664726E+02  0.62499999969E+02  0.00000000000E+00 0.  1.
</event>
<event>
 4    1  0.1977788E-002  0.9118800E+02  0.7818608E-02  0.1130116E+00
         25   -1    0    0    0    0  0.00000000000E+00  0.00000000000E+00  0.99999998245E-14  0.12500000000E+03  0.12500000000E+03 0.  0.
        -11    1    1    0    0    0  0.26789008616E+02 -0.29009789707E+02 -0.24176653546E+02  0.46300426115E+02  0.51100000000E-03 0. -1.
         11    1    1    0    0    0  0.93598858716E+01 -0.10162803799E+02 -0.84579119236E+01  0.16199577740E+02  0.51100000000E-03 0.  1.
         22    1    1    0    0    0 -0.36148894488E+02  0.39172593507E+02  0.32634565469E+02  0.62499996145E+02  0.00000000000E+00 0. -1.
</event>
<event>
 4    1  0.1977788E-002  0.9118800E+02  0.7818608E-02  0.1130116E+00
         25   -1    0    0    0    0  0.00000000000E+00  0.00000000000E+00  0.99999998245E-14  0.12500000000E+03  0.12500000000E+03 0.  0.
        -11    1    1    0    0    0  0.21787201667E+01 -0.49178928769E+01 -0.49999364932E+01  0.73438312283E+01  0.51100000000E-03 0.  1.
         11    1    1    0    0    0  0.16415860228E+02 -0.36698027307E+02 -0.37762194841E+02  0.55156223899E+02  0.51100000000E-03 0. -1.
         22    1    1    0    0    0 -0.18594580395E+02  0.41615920184E+02  0.42762131334E+02  0.62499944873E+02  0.00000000000E+00 0. -1.
</event>
<event>
 4    1  0.1977788E-002  0.9118800E+02  0.7818608E-02  0.1130116E+00
         25   -1    0    0    0    0  0.00000000000E+00  0.00000000000E+00  0.99999998245E-14  0.12500000000E+03  0.12500000000E+03 0.  0.
        -11    1    1    0    0    0 -0.32117907723E+02 -0.91516918319E+01 -0.83297977616E+01  0.34419456575E+02  0.51100000000E-03 0. -1.
         11    1    1    0    0    0 -0.22330794757E+02 -0.13357931298E+02 -0.11452728070E+02  0.28429978959E+02  0.51100000000E-03 0.  1.
         22    1    1    0    0    0  0.54448702480E+02  0.22509623130E+02  0.19782525832E+02  0.62150564467E+02  0.00000000000E+00 0. -1.
</event>
<event>
 4    1  0.1977788E-002  0.9118800E+02  0.7818608E-02  0.1130116E+00
         25   -1    0    0    0    0  0.00000000000E+00  0.00000000000E+00  0.99999998245E-14  0.12500000000E+03  0.12500000000E+03 0.  0.
        -11    1    1    0    0    0  0.82913292204E+01 -0.34254820112E+02 -0.46272124189E+02  0.58165697094E+02  0.51100000000E-03 0. -1.
         11    1    1    0    0    0 -0.57992574479E+00 -0.27270070300E+01 -0.34203332356E+01  0.44126591659E+01  0.51100000000E-03 0.  1.
         22    1    1    0    0    0 -0.77114034756E+01  0.36981827142E+02  0.49692457425E+02  0.62421643740E+02  0.00000000000E+00 0. -1.
</event>
<event>
 4    1  0.1977788E-002  0.9118800E+02  0.7818608E-02  0.1130116E+00
         25   -1    0    0    0    0  0.00000000000E+00  0.00000000000E+00  0.99999998245E-14  0.12500000000E+03  0.12500000000E+03 0.  0.
        -11    1    1    0    0    0  0.44979931824E+01 -0.71038640400E+00 -0.10410434124E+01  0.46712271578E+01  0.51100000000E-03 0.  1.
         11    1    1    0    0    0  0.55768235235E+02 -0.87680117916E+01 -0.12537852562E+02  0.57828814955E+02  0.51100000000E-03 0. -1.
         22    1    1    0    0    0 -0.60266228417E+02  0.94783981956E+01  0.13578895975E+02  0.62499957887E+02  0.00000000000E+00 0. -1.
</event>
<event>
 4    1  0.1977788E-002  0.9118800E+02  0.7818608E-02  0.1130116E+00
         25   -1    0    0    0    0  0.00000000000E+00  0.00000000000E+00  0.99999998245E-14  0.12500000000E+03  0.12500000000E+03 0.  0.
        -11    1    1    0    0    0  0.21087861341E+02 -0.26716250592E+01  0.48158224678E+02  0.52640764439E+02  0.51100000000E-03 0.  1.
         11    1    1    0    0    0  0.55478511849E+01 -0.72915669796E+00  0.82022081199E+01  0.99290755140E+01  0.51100000000E-03 0. -1.
         22    1    1    0    0    0 -0.26635712526E+02  0.34007817572E+01 -0.56360432797E+02  0.62430160047E+02  0.00000000000E+00 0.  1.
</event>
<event>
 4    1  0.1977788E-002  0.9118800E+02  0.7818608E-02  0.1130116E+00
         25   -1    0    0    0    0  0.00000000000E+00  0.00000000000E+00  0.99999998245E-14  0.12500000000E+03  0.12500000000E+03 0.  0.
        -11    1    1    0    0    0  0.33899966114E+02 -0.16170229674E+02  0.46164303072E+02  0.59513249858E+02  0.51100000000E-03 0. -1.
         11    1    1    0    0    0  0.17401037821E+01 -0.82341596097E+00  0.22838568664E+01  0.29869679383E+01  0.51100000000E-03 0.  1.
         22    1    1    0    0    0 -0.35640069896E+02  0.16993645635E+02 -0.48448159939E+02  0.62499782204E+02  0.00000000000E+00 0. -1.
</event>
<event>
 4    1  0.1977788E-002  0.9118800E+02  0.7818608E-02  0.1130116E+00
         25   -1    0    0    0    0  0.00000000000E+00  0.00000000000E+00  0.99999998245E-14  0.12500000000E+03  0.12500000000E+03 0.  0.
        -11    1    1    0    0    0  0.35302490165E+02  0.15114531201E+02  0.87972523976E+01  0.39396783057E+02  0.51100000000E-03 0. -1.
         11    1    1    0    0    0  0.20702133798E+02  0.88632874430E+01  0.51596923528E+01  0.23103216952E+02  0.51100000000E-03 0.  1.
         22    1    1    0    0    0 -0.56004623963E+02 -0.23977818644E+02 -0.13956944750E+02  0.62499999991E+02  0.00000000000E+00 0. -1.
</event>
<event>
 4    1  0.1977788E-002  0.9118800E+02  0.7818608E-02  0.1130116E+00
         25   -1    0    0    0    0  0.00000000000E+00  0.00000000000E+00  0.99999998245E-14  0.12500000000E+03  0.12500000000E+03 0.  0.
        -11    1    1    0    0    0 -0.25254565778E+00 -0.10487330580E+01  0.15806117482E+01  0.19136232900E+01  0.51100000000E-03 0.  1.
         11    1    1    0    0    0 -0.79946025277E+01 -0.33200627124E+02  0.50045117005E+02  0.60586376747E+02  0.51100000000E-03 0.  1.
         22    1    1    0    0    0  0.82471481854E+01  0.34249360182E+02 -0.51625728754E+02  0.62499999963E+02  0.00000000000E+00 0.  1.
</event>
<event>
 4    1  0.1977788E-002  0.9118800E+02  0.7818608E-02  0.1130116E+00
         25   -1    0    0    0    0  0.00000000000E+00  0.00000000000E+00  0.99999998245E-14  0.12500000000E+03  0.12500000000E+03 0.  0.
        -11    1    1    0    0    0 -0.30663273657E+02 -0.21131118091E+01  0.48590067402E+02  0.57495184522E+02  0.51100000000E-03 0.  1.
         11    1    1    0    0    0 -0.26810976446E+01 -0.12405938151E+00  0.42244798130E+01  0.50049880382E+01  0.51100000000E-03 0. -1.
         22    1    1    0    0    0  0.33344371302E+02  0.22371711906E+01 -0.52814547215E+02  0.62499827439E+02  0.00000000000E+00 0.  1.
</event>
<event>
 4    1  0.1977788E-002  0.9118800E+02  0.7818608E-02  0.1130116E+00
         25   -1    0    0    0    0  0.00000000000E+00  0.00000000000E+00  0.99999998245E-14  0.12500000000E+03  0.12500000000E+03 0.  0.
        -11    1    1    0    0    0 -0.18733716781E+02 -0.51295034093E+02 -0.27722386633E+02  0.61242659870E+02  0.51100000000E-03 0.  1.
         11    1    1    0    0    0 -0.38370194944E+00 -0.10514132342E+01 -0.57290121215E+00  0.12573436424E+01  0.51100000000E-03 0. -1.
         22    1    1    0    0    0  0.19117418730E+02  0.52346447328E+02  0.28295287845E+02  0.62499996488E+02  0.00000000000E+00 0.  1.
</event>
<event>
 4    1  0.1977788E-002  0.9118800E+02  0.7818608E-02  0.1130116E+00
         25   -1    0    0    0    0  0.00000000000E+00  0.00000000000E+00  0.99999998245E-14  0.12500000000E+03  0.12500000000E+03 0.  0.
        -11    1    1    0    0    0 -0.36508463171E+02  0.32134913824E+02 -0.18402411462E+02  0.52001628027E+02  0.51100000000E-03 0. -1.
         11    1    1    0    0    0 -0.73725206486E+01  0.64819269301E+01 -0.37210759069E+01  0.10498373379E+02  0.51100000000E-03 0.  1.
         22    1    1    0    0    0  0.43880983820E+02 -0.38616840754E+02  0.22123487369E+02  0.62499998594E+02  0.00000000000E+00 0. -1.
</event>
<event>
 4    1  0.1977788E-002  0.9118800E+02  0.7818608E-02  0.1130116E+00
         25   -1    0    0    0    0  0.00000000000E+00  0.00000000000E+00  0.99999998245E-14  0.12500000000E+03  0.12500000000E+03 0.  0.
        -11    1    1    0    0    0  0.24034487594E+02 -0.22840291073E+02 -0.49088288354E+01  0.33517638506E+02  0.51100000000E-03 0. -1.
         11    1    1    0    0    0  0.20515647653E+02 -0.19757831915E+02 -0.53931823331E+01  0.28988793292E+02  0.51100000000E-03 0.  1.
         22    1    1    0    0    0 -0.44550135247E+02  0.42598122988E+02  0.10302011169E+02  0.62493568202E+02  0.00000000000E+00 0.  1.
</event>
<event>
 4    1  0.1977788E-002  0.9118800E+02  0.7818608E-02  0.1130116E+00
         25   -1    0    0    0    0  0.00000000000E+00  0.00000000000E+00  0.99999998245E-14  0.12500000000E+03  0.12500000000E+03 0.  0.
        -11    1    1    0    0    0 -0.19380707189E+02 -0.15897922433E+01 -0.31134997215E+02  0.36708681567E+02  0.51100000000E-03 0. -1.
         11    1    1    0    0    0 -0.13638500878E+02 -0.99877384854E+00 -0.21867558402E+02  0.25791401011E+02  0.51100000000E-03 0.  1.
         22    1    1    0    0    0  0.33019208067E+02  0.25885660918E+01  0.53002555617E+02  0.62499917422E+02  0.00000000000E+00 0. -1.
</event>
<event>
 4    1  0.1977788E-002  0.9118800E+02  0.7818608E-02  0.1130116E+00
         25   -1    0    0    0    0  0.00000000000E+00  0.00000000000E+00  0.99999998245E-14  0.12500000000E+03  0.12500000000E+03 0.  0.
        -11    1    1    0    0    0 -0.10161395426E+02 -0.17734971279E+02 -0.33239828976E+01  0.20708259846E+02  0.51100000000E-03 0.  1.
         11    1    1    0    0    0 -0.20621415102E+02 -0.35675457077E+02 -0.69702451981E+01  0.41791928848E+02  0.51100000000E-03 0. -1.
         22    1    1    0    0    0  0.30782810528E+02  0.53410428356E+02  0.10294228096E+02  0.62499811306E+02  0.00000000000E+00 0. -1.
</event>
<event>
 4    1  0.1977788E-002  0.9118800E+02  0.7818608E-02  0.1130116E+00
         25   -1    0    0    0    0  0.00000000000E+00  0.00000000000E+00  0.99999998245E-14  0.12500000000E+03  0.12500000000E+03 0.  0.
        -11    1    1    0    0    0 -0.16328798936E+00 -0.37641037528E+02  0.34621443314E+02  0.51142142178E+02  0.51100000000E-03 0.  1.
         11    1    1    0    0    0 -0.32902136207E+00 -0.83202154450E+01  0.77267703353E+01  0.11359455101E+02  0.51100000000E-03 0. -1.
         22    1    1    0    0    0  0.49230935143E+00  0.45961252973E+02 -0.42348213650E+02  0.62498402721E+02  0.00000000000E+00 0.  1.
</event>
<event>
 4    1  0.1977788E-002  0.9118800E+02  0.7818608E-02  0.1130116E+00
         25   -1    0    0    0    0  0.00000000000E+00  0.00000000000E+00  0.99999998245E-14  0.12500000000E+03  0.12500000000E+03 0.  0.
        -11    1    1    0    0    0 -0.21022439851E+02 -0.93151604619E+01 -0.90984186128E+00  0.23011801411E+02  0.51100000000E-03 0.  1.
         11    1    1    0    0    0 -0.38078197622E+02  0.15888413119E+02  0.82345340237E+01  0.42073725250E+02  0.51100000000E-03 0. -1.
         22    1    1    0    0    0  0.59100637473E+02 -0.65732526566E+01 -0.73246921624E+01  0.59914473339E+02  0.00000000000E+00 0.  1.
</event>
<event>
 4    1  0.1977788E-002  0.9118800E+02  0.7818608E-02  0.1130116E+00
         25   -1    0    0    0    0  0.00000000000E+00  0.00000000000E+00  0.99999998245E-14  0.12500000000E+03  0.12500000000E+03 0.  0.
        -11    1    1    0    0    0 -0.26502779138E+02  0.18260978957E+02  0.13682610822E+02  0.34972481949E+02  0.51100000000E-03 0. -1.
         11    1    1    0    0    0 -0.21087296298E+02  0.14109723341E+02  0.10679045957E+02  0.27528174308E+02  0.51100000000E-03 0.  1.
         22    1    1    0    0    0  0.47590075436E+02 -0.32370702299E+02 -0.24361656779E+02  0.62499343743E+02  0.00000000000E+00 0. -1.
</event>
<event>
 4    1  0.1977788E-002  0.9118800E+02  0.7818608E-02  0.1130116E+00
         25   -1    0    0    0    0  0.00000000000E+00  0.00000000000E+00  0.99999998245E-14  0.12500000000E+03  0.12500000000E+03 0.  0.
        -11    1    1    0    0    0 -0.51256277460E+02 -0.68133236543E+01 -0.33864905234E+02  0.61809863008E+02  0.51100000000E-03 0. -1.
         11    1    1    0    0    0 -0.58068649993E+00 -0.87210394896E-01 -0.36290092443E+00  0.69028965387E+00  0.51100000000E-03 0.  1.
         22    1    1    0    0    0  0.51836963960E+02  0.69005340492E+01  0.34227806159E+02  0.62499847338E+02  0.00000000000E+00 0. -1.
</event>
<event>
 4    1  0.1977788E-002  0.9118800E+02  0.7818608E-02  0.1130116E+00
         25   -1    0    0    0    0  0.00000000000E+00  0.00000000000E+00  0.99999998245E-14  0.12500000000E+03  0.12500000000E+03 0.  0.
        -11    1    1    0    0    0 -0.15782269629E+02  0.13523024472E+02 -0.31046876488E+02  0.37361220074E+02  0.51100000000E-03 0.  1.
         11    1    1    0    0    0 -0.10619624425E+02  0.90998701350E+01 -0.20889571490E+02  0.25138779937E+02  0.51100000000E-03 0.  1.
         22    1    1    0    0    0  0.26401894054E+02 -0.22622894607E+02  0.51936447978E+02  0.62499999989E+02  0.00000000000E+00 0.  1.
</event>
<event>
 4    1  0.1977788E-002  0.9118800E+02  0.7818608E-02  0.1130116E+00
         25   -1    0    0    0    0  0.00000000000E+00  0.00000000000E+00  0.99999998245E-14  0.12500000000E+03  0.12500000000E+03 0.  0.
        -11    1    1    0    0    0  0.27733848622E+02 -0.18885455135E+01 -0.50896937977E+02  0.57993372546E+02  0.51100000000E-03 0.  1.
         11    1    1    0    0    0  0.22298036418E+01 -0.22626045929E+00 -0.39106150530E+01  0.45073416146E+01  0.51100000000E-03 0. -1.
         22    1    1    0    0    0 -0.29963652264E+02  0.21148059727E+01  0.54807553030E+02  0.62499285839E+02  0.00000000000E+00 0.  1.
</event>
<event>
 4    1  0.1977788E-002  0.9118800E+02  0.7818608E-02  0.1130116E+00
         25   -1    0    0    0    0  0.00000000000E+00  0.00000000000E+00  0.99999998245E-14  0.12500000000E+03  0.12500000000E+03 0.  0.
        -11    1    1    0    0    0 -0.24768125755E+01 -0.49906371927E+01  0.58471399671E+00  0.56020488076E+01  0.51100000000E-03 0. -1.
         11    1    1    0    0    0 -0.21020738748E+02 -0.51522139813E+02  0.11975207357E+02  0.56919310782E+02  0.51100000000E-03 0.  1.
         22    1    1    0    0    0  0.23497551324E+02  0.56512777006E+02 -0.12559921354E+02  0.62478640410E+02  0.00000000000E+00 0.  1.
</event>
<event>
 4    1  0.1977788E-002  0.9118800E+02  0.7818608E-02  0.1130116E+00
         25   -1    0    0    0    0  0.00000000000E+00  0.00000000000E+00  0.99999998245E-14  0.12500000000E+03  0.12500000000E+03 0.  0.
        -11    1    1    0    0    0 -0.12031072932E+02  0.30650501344E+02 -0.92369818081E+01  0.34198271619E+02  0.51100000000E-03 0.  1.
         11    1    1    0    0    0 -0.99691843030E+01  0.25357594689E+02 -0.76547812554E+01  0.28301729989E+02  0.51100000000E-03 0. -1.
         22    1    1    0    0    0  0.22000257235E+02 -0.56008096032E+02  0.16891763064E+02  0.62499998392E+02  0.00000000000E+00 0.  1.
</event>
<event>
 4    1  0.1977788E-002  0.9118800E+02  0.7818608E-02  0.1130116E+00
         25   -1    0    0    0    0  0.00000000000E+00  0.00000000000E+00  0.99999998245E-14  0.12500000000E+03  0.12500000000E+03 0.  0.
        -11    1    1    0    0    0 -0.16735992208E+02 -0.31993111993E+02  0.49465641739E+01  0.36443396488E+02  0.51100000000E-03 0.  1.
         11    1    1    0    0    0 -0.14058330196E+02 -0.21912614028E+02 -0.48084887339E+01  0.26474910115E+02  0.51100000000E-03 0. -1.
         22    1    1    0    0    0  0.30794322403E+02  0.53905726021E+02 -0.13807543998E+00  0.62081693397E+02  0.00000000000E+00 0. -1.
</event>
<event>
 4    1  0.1977788E-002  0.9118800E+02  0.7818608E-02  0.1130116E+00
         25   -1    0    0    0    0  0.00000000000E+00  0.00000000000E+00  0.99999998245E-14  0.12500000000E+03  0.12500000000E+03 0.  0.
        -11    1    1    0    0    0  0.23898505558E+02 -0.31028957706E+02 -0.40337568100E+01  0.39372655213E+02  0.51100000000E-03 0. -1.
         11    1    1    0    0    0  0.98469491966E+01  0.10609177031E+02  0.33434034350E+02  0.36432838195E+02  0.51100000000E-03 0.  1.
         22    1    1    0    0    0 -0.33745454755E+02  0.20419780675E+02 -0.29400277540E+02  0.49194506592E+02  0.00000000000E+00 0.  1.
</event>
<event>
 4    1  0.1977788E-002  0.9118800E+02  0.7818608E-02  0.1130116E+00
         25   -1    0    0    0    0  0.00000000000E+00  0.00000000000E+00  0.99999998245E-14  0.12500000000E+03  0.12500000000E+03 0.  0.
        -11    1    1    0    0    0  0.90018797153E+01  0.15389156598E+02 -0.19595486629E+02  0.26492321070E+02  0.51100000000E-03 0.  1.
         11    1    1    0    0    0  0.12247373472E+02  0.20915440961E+02 -0.26628915698E+02  0.36007679446E+02  0.51100000000E-03 0. -1.
         22    1    1    0    0    0 -0.21249253188E+02 -0.36304597559E+02  0.46224402327E+02  0.62499999484E+02  0.00000000000E+00 0. -1.
</event>
<event>
 4    1  0.1977788E-002  0.9118800E+02  0.7818608E-02  0.1130116E+00
         25   -1    0    0    0    0  0.00000000000E+00  0.00000000000E+00  0.99999998245E-14  0.12500000000E+03  0.12500000000E+03 0.  0.
        -11    1    1    0    0    0 -0.43687610257E+02 -0.16287460222E+01 -0.15989640590E+01  0.43747191794E+02  0.51100000000E-03 0.  1.
         11    1    1    0    0    0 -0.18718042083E+02 -0.84204418437E+00 -0.77710541542E+00  0.18753080571E+02  0.51100000000E-03 0. -1.
         22    1    1    0    0    0  0.62405652340E+02  0.24707902066E+01  0.23760694745E+01  0.62499727634E+02  0.00000000000E+00 0.  1.
</event>
<event>
 4    1  0.1977788E-002  0.9118800E+02  0.7818608E-02  0.1130116E+00
         25   -1    0    0    0    0  0.00000000000E+00  0.00000000000E+00  0.99999998245E-14  0.12500000000E+03  0.12500000000E+03 0.  0.
        -11    1    1    0    0    0 -0.38698323669E+01 -0.13886360088E+01 -0.14608524941E+02  0.15176063842E+02  0.51100000000E-03 0. -1.
         11    1    1    0    0    0 -0.12055829229E+02 -0.43319656272E+01 -0.45557063194E+02  0.47323936351E+02  0.51100000000E-03 0.  1.
         22    1    1    0    0    0  0.15925661596E+02  0.57206016360E+01  0.60165588135E+02  0.62499999808E+02  0.00000000000E+00 0. -1.
</event>
<event>
 4    1  0.1977788E-002  0.9118800E+02  0.7818608E-02  0.1130116E+00
         25   -1    0    0    0    0  0.00000000000E+00  0.00000000000E+00  0.99999998245E-14  0.12500000000E+03  0.12500000000E+03 0.  0.
        -11    1    1    0    0    0  0.50794555798E+01  0.27949198349E+02  0.24459563595E+02  0.37486381645E+02  0.51100000000E-03 0. -1.
         11    1    1    0    0    0  0.33157777076E+01  0.18632632749E+02  0.16355848822E+02  0.25013659786E+02  0.51100000000E-03 0.  1.
         22    1    1    0    0    0 -0.83952332874E+01 -0.46581831098E+02 -0.40815412416E+02  0.62499958569E+02  0.00000000000E+00 0.  1.
</event>
<event>
 4    1  0.1977788E-002  0.9118800E+02  0.7818608E-02  0.1130116E+00
         25   -1    0    0    0    0  0.00000000000E+00  0.00000000000E+00  0.99999998245E-14  0.12500000000E+03  0.12500000000E+03 0.  0.
        -11    1    1    0    0    0  0.23033555625E+01 -0.94804928969E+00 -0.15051409105E+01  0.29102738229E+01  0.51100000000E-03 0.  1.
         11    1    1    0    0    0 -0.97142086407E+01  0.45781239642E+02  0.40743944795E+02  0.62051243262E+02  0.51100000000E-03 0. -1.
         22    1    1    0    0    0  0.74108530782E+01 -0.44833190352E+02 -0.39238803884E+02  0.60038482915E+02  0.00000000000E+00 0. -1.
</event>
<event>
 4    1  0.1977788E-002  0.9118800E+02  0.7818608E-02  0.1130116E+00
         25   -1    0    0    0    0  0.00000000000E+00  0.00000000000E+00  0.99999998245E-14  0.12500000000E+03  0.12500000000E+03 0.  0.
        -11    1    1    0    0    0  0.39332604696E+02 -0.35506259397E+01 -0.14220392030E+02  0.41974757730E+02  0.51100000000E-03 0. -1.
         11    1    1    0    0    0  0.19280496685E+02 -0.17217910056E+01 -0.68256700209E+01  0.20525396176E+02  0.51100000000E-03 0.  1.
         22    1    1    0    0    0 -0.58613101381E+02  0.52724169453E+01  0.21046062051E+02  0.62499846094E+02  0.00000000000E+00 0.  1.
</event>
<event>
 4    1  0.1977788E-002  0.9118800E+02  0.7818608E-02  0.1130116E+00
         25   -1    0    0    0    0  0.00000000000E+00  0.00000000000E+00  0.99999998245E-14  0.12500000000E+03  0.12500000000E+03 0.  0.
        -11    1    1    0    0    0  0.77243467203E+00 -0.46589924636E+01 -0.88924690949E+00  0.48055828393E+01  0.51100000000E-03 0.  1.
         11    1    1    0    0    0  0.92061927057E+01 -0.55956067226E+02 -0.10621235221E+02  0.57694419846E+02  0.51100000000E-03 0. -1.
         22    1    1    0    0    0 -0.99786273777E+01  0.60615059689E+02  0.11510482130E+02  0.62499997315E+02  0.00000000000E+00 0.  1.
</event>
<event>
 4    1  0.1977788E-002  0.9118800E+02  0.7818608E-02  0.1130116E+00
         25   -1    0    0    0    0  0.00000000000E+00  0.00000000000E+00  0.99999998245E-14  0.12500000000E+03  0.12500000000E+03 0.  0.
        -11    1    1    0    0    0 -0.65774111100E+01  0.29689666111E+02  0.63886914714E+01  0.31073364634E+02  0.51100000000E-03 0.  1.
         11    1    1    0    0    0 -0.12168560344E+02  0.27123804729E+02  0.10881946225E+02  0.31657406680E+02  0.51100000000E-03 0. -1.
         22    1    1    0    0    0  0.18745971454E+02 -0.56813470840E+02 -0.17270637697E+02  0.62269228686E+02  0.00000000000E+00 0. -1.
</event>
<event>
 4    1  0.1977788E-002  0.9118800E+02  0.7818608E-02  0.1130116E+00
         25   -1    0    0    0    0  0.00000000000E+00  0.00000000000E+00  0.99999998245E-14  0.12500000000E+03  0.12500000000E+03 0.  0.
        -11    1    1    0    0    0 -0.10305765265E+02 -0.10691797787E+02 -0.55558525375E+01  0.15855309372E+02  0.51100000000E-03 0.  1.
         11    1    1    0    0    0 -0.30768395467E+02 -0.31090410385E+02 -0.16200755352E+02  0.46645173938E+02  0.51100000000E-03 0. -1.
         22    1    1    0    0    0  0.41074160732E+02  0.41782208172E+02  0.21756607890E+02  0.62499516689E+02  0.00000000000E+00 0. -1.
</event>
<event>
 4    1  0.1977788E-002  0.9118800E+02  0.7818608E-02  0.1130116E+00
         25   -1    0    0    0    0  0.00000000000E+00  0.00000000000E+00  0.99999998245E-14  0.12500000000E+03  0.12500000000E+03 0.  0.
        -11    1    1    0    0    0  0.18753118123E+02 -0.99794781196E+00 -0.40909191320E+02  0.45013745389E+02  0.51100000000E-03 0. -1.
         11    1    1    0    0    0  0.72821664263E+01 -0.38307204373E+00 -0.15893156365E+02  0.17486254932E+02  0.51100000000E-03 0.  1.
         22    1    1    0    0    0 -0.26035284550E+02  0.13810198557E+01  0.56802347685E+02  0.62499999679E+02  0.00000000000E+00 0. -1.
</event>
<event>
 4    1  0.1977788E-002  0.9118800E+02  0.7818608E-02  0.1130116E+00
         25   -1    0    0    0    0  0.00000000000E+00  0.00000000000E+00  0.99999998245E-14  0.12500000000E+03  0.12500000000E+03 0.  0.
        -11    1    1    0    0    0  0.61863536983E+01 -0.49476711585E+01  0.42030481867E+01  0.89674988873E+01  0.51100000000E-03 0. -1.
         11    1    1    0    0    0  0.36339001808E+02 -0.29815855643E+02  0.25617787123E+02  0.53532974113E+02  0.51100000000E-03 0.  1.
         22    1    1    0    0    0 -0.42525355506E+02  0.34763526802E+02 -0.29820835309E+02  0.62499526999E+02  0.00000000000E+00 0.  1.
</event>
<event>
 4    1  0.1977788E-002  0.9118800E+02  0.7818608E-02  0.1130116E+00
         25   -1    0    0    0    0  0.00000000000E+00  0.00000000000E+00  0.99999998245E-14  0.12500000000E+03  0.12500000000E+03 0.  0.
        -11    1    1    0    0    0  0.16935505310E+02 -0.11607597886E+02 -0.46804001462E+01  0.21058343111E+02  0.51100000000E-03 0.  1.
         11    1    1    0    0    0  0.33325076761E+02 -0.22828874226E+02 -0.92570558451E+01  0.41441661679E+02  0.51100000000E-03 0. -1.
         22    1    1    0    0    0 -0.50260582071E+02  0.34436472113E+02  0.13937455991E+02  0.62499995210E+02  0.00000000000E+00 0. -1.
</event>
<event>
 4    1  0.1977788E-002  0.9118800E+02  0.7818608E-02  0.1130116E+00
         25   -1    0    0    0    0  0.00000000000E+00  0.00000000000E+00  0.99999998245E-14  0.12500000000E+03  0.12500000000E+03 0.  0.
        -11    1    1    0    0    0  0.48080085540E+01  0.56449640658E+02  0.20654094502E+02  0.60301496637E+02  0.51100000000E-03 0.  1.
         11    1    1    0    0    0  0.13711823059E+00  0.20820632113E+01  0.69445218301E+00  0.21991027081E+01  0.51100000000E-03 0. -1.
         22    1    1    0    0    0 -0.49451267846E+01 -0.58531703869E+02 -0.21348546685E+02  0.62499400655E+02  0.00000000000E+00 0.  1.
</event>
<event>
 4    1  0.1977788E-002  0.9118800E+02  0.7818608E-02  0.1130116E+00
         25   -1    0    0    0    0  0.00000000000E+00  0.00000000000E+00  0.99999998245E-14  0.12500000000E+03  0.12500000000E+03 0.  0.
        -11    1    1    0    0    0  0.96246875659E+01 -0.14100465187E+02 -0.13103194720E+02  0.21520953543E+02  0.51100000000E-03 0. -1.
         11    1    1    0    0    0  0.18314028028E+02 -0.26871606251E+02 -0.24935828712E+02  0.40979048292E+02  0.51100000000E-03 0.  1.
         22    1    1    0    0    0 -0.27938715594E+02  0.40972071438E+02  0.38039023432E+02  0.62499998165E+02  0.00000000000E+00 0.  1.
</event>
<event>
 4    1  0.1977788E-002  0.9118800E+02  0.7818608E-02  0.1130116E+00
         25   -1    0    0    0    0  0.00000000000E+00  0.00000000000E+00  0.99999998245E-14  0.12500000000E+03  0.12500000000E+03 0.  0.
        -11    1    1    0    0    0 -0.31875312272E+00 -0.15255636102E+02 -0.82935485173E+01  0.17367181225E+02  0.51100000000E-03 0.  1.
         11    1    1    0    0    0  0.17745666405E+02 -0.39872496570E+02 -0.13747254271E+02  0.45757094085E+02  0.51100000000E-03 0. -1.
         22    1    1    0    0    0 -0.17426913282E+02  0.55128132672E+02  0.22040802788E+02  0.61875724690E+02  0.00000000000E+00 0. -1.
</event>
<event>
 4    1  0.1977788E-002  0.9118800E+02  0.7818608E-02  0.1130116E+00
         25   -1    0    0    0    0  0.00000000000E+00  0.00000000000E+00  0.99999998245E-14  0.12500000000E+03  0.12500000000E+03 0.  0.
        -11    1    1    0    0    0 -0.42868771677E+01  0.28636814449E+02  0.29237044378E+02  0.41149109612E+02  0.51100000000E-03 0.  1.
         11    1    1    0    0    0 -0.22307739835E+01  0.14844767569E+02  0.15182792031E+02  0.21350893444E+02  0.51100000000E-03 0. -1.
         22    1    1    0    0    0  0.65176511512E+01 -0.43481582018E+02 -0.44419836409E+02  0.62499996944E+02  0.00000000000E+00 0.  1.
</event>
<event>
 4    1  0.1977788E-002  0.9118800E+02  0.7818608E-02  0.1130116E+00
         25   -1    0    0    0    0  0.00000000000E+00  0.00000000000E+00  0.99999998245E-14  0.12500000000E+03  0.12500000000E+03 0.  0.
        -11    1    1    0    0    0  0.75895929117E-01 -0.45245666229E+02  0.14862606008E+02  0.47624291389E+02  0.51100000000E-03 0.  1.
         11    1    1    0    0    0  0.78855152742E-02 -0.14133333029E+02  0.46406506635E+01  0.14875711867E+02  0.51100000000E-03 0. -1.
         22    1    1    0    0    0 -0.83781444392E-01  0.59378999258E+02 -0.19503256671E+02  0.62499996744E+02  0.00000000000E+00 0.  1.
</event>
<event>
 4    1  0.1977788E-002  0.9118800E+02  0.7818608E-02  0.1130116E+00
         25   -1    0    0    0    0  0.00000000000E+00  0.00000000000E+00  0.99999998245E-14  0.12500000000E+03  0.12500000000E+03 0.  0.
        -11    1    1    0    0    0  0.14212111667E+01 -0.23885774098E+01  0.23252990871E+01  0.36238321331E+01  0.51100000000E-03 0.  1.
         11    1    1    0    0    0  0.47952846558E+02  0.41923511889E+01 -0.37255213480E+02  0.60868729518E+02  0.51100000000E-03 0. -1.
         22    1    1    0    0    0 -0.49374057725E+02 -0.18037737791E+01  0.34929914393E+02  0.60507438349E+02  0.00000000000E+00 0. -1.
</event>
<event>
 4    1  0.1977788E-002  0.9118800E+02  0.7818608E-02  0.1130116E+00
         25   -1    0    0    0    0  0.00000000000E+00  0.00000000000E+00  0.99999998245E-14  0.12500000000E+03  0.12500000000E+03 0.  0.
        -11    1    1    0    0    0 -0.33971044156E+01  0.46583983967E+01  0.87554204994E+01  0.10483242934E+02  0.51100000000E-03 0.  1.
         11    1    1    0    0    0 -0.13649244677E+02  0.20618754743E+02  0.45783758406E+02  0.52034483388E+02  0.51100000000E-03 0. -1.
         22    1    1    0    0    0  0.17046349093E+02 -0.25277153140E+02 -0.54539178906E+02  0.62482273678E+02  0.00000000000E+00 0.  1.
</event>
<event>
 4    1  0.1977788E-002  0.9118800E+02  0.7818608E-02  0.1130116E+00
         25   -1    0    0    0    0  0.00000000000E+00  0.00000000000E+00  0.99999998245E-14  0.12500000000E+03  0.12500000000E+03 0.  0.
        -11    1    1    0    0    0 -0.78637095085E+01  0.45826164648E+02  0.34611040228E+01  0.46624612973E+02  0.51100000000E-03 0.  1.
         11    1    1    0    0    0 -0.26781661137E+01  0.15603505345E+02  0.11772684758E+01  0.15875387054E+02  0.51100000000E-03 0.  1.
         22    1    1    0    0    0  0.10541875622E+02 -0.61429669993E+02 -0.46383724986E+01  0.62499999973E+02  0.00000000000E+00 0.  1.
</event>
<event>
 4    1  0.1977788E-002  0.9118800E+02  0.7818608E-02  0.1130116E+00
         25   -1    0    0    0    0  0.00000000000E+00  0.00000000000E+00  0.99999998245E-14  0.12500000000E+03  0.12500000000E+03 0.  0.
        -11    1    1    0    0    0  0.21380867050E+01 -0.23349416030E+02 -0.24196825309E+02  0.33693515682E+02  0.51100000000E-03 0.  1.
         11    1    1    0    0    0  0.18293126793E+01 -0.19962795011E+02 -0.20687048357E+02  0.28806484331E+02  0.51100000000E-03 0.  1.
         22    1    1    0    0    0 -0.39673993844E+01  0.43312211041E+02  0.44883873666E+02  0.62499999987E+02  0.00000000000E+00 0.  1.
</event>
<event>
 4    1  0.1977788E-002  0.9118800E+02  0.7818608E-02  0.1130116E+00
         25   -1    0    0    0    0  0.00000000000E+00  0.00000000000E+00  0.99999998245E-14  0.12500000000E+03  0.12500000000E+03 0.  0.
        -11    1    1    0    0    0  0.26608901493E+01 -0.59801388960E+02  0.16241825245E+02  0.62024860705E+02  0.51100000000E-03 0.  1.
         11    1    1    0    0    0 -0.30072932420E-01 -0.43369151167E+00  0.20358050935E+00  0.48003957490E+00  0.51100000000E-03 0. -1.
         22    1    1    0    0    0 -0.26308172169E+01  0.60235080471E+02 -0.16445405754E+02  0.62495099720E+02  0.00000000000E+00 0.  1.
</event>
<event>
 4    1  0.1977788E-002  0.9118800E+02  0.7818608E-02  0.1130116E+00
         25   -1    0    0    0    0  0.00000000000E+00  0.00000000000E+00  0.99999998245E-14  0.12500000000E+03  0.12500000000E+03 0.  0.
        -11    1    1    0    0    0 -0.25077063212E+02  0.26439464809E+02 -0.14664533277E+02  0.39280439600E+02  0.51100000000E-03 0.  1.
         11    1    1    0    0    0 -0.15069868553E+02  0.14906224226E+02 -0.95001096117E+01  0.23228184212E+02  0.51100000000E-03 0. -1.
         22    1    1    0    0    0  0.40146931764E+02 -0.41345689036E+02  0.24164642889E+02  0.62491376188E+02  0.00000000000E+00 0.  1.
</event>
<event>
 4    1  0.1977788E-002  0.9118800E+02  0.7818608E-02  0.1130116E+00
         25   -1    0    0    0    0  0.00000000000E+00  0.00000000000E+00  0.99999998245E-14  0.12500000000E+03  0.12500000000E+03 0.  0.
        -11    1    1    0    0    0  0.51045916077E+02 -0.13212948404E+02  0.29929272586E+02  0.60630263990E+02  0.51100000000E-03 0.  1.
         11    1    1    0    0    0  0.15739362085E+01 -0.40801528311E+00  0.92312574756E+00  0.18697360955E+01  0.51100000000E-03 0.  1.
         22    1    1    0    0    0 -0.52619852286E+02  0.13620963688E+02 -0.30852398334E+02  0.62499999914E+02  0.00000000000E+00 0.  1.
</event>
<event>
 4    1  0.1977788E-002  0.9118800E+02  0.7818608E-02  0.1130116E+00
         25   -1    0    0    0    0  0.00000000000E+00  0.00000000000E+00  0.99999998245E-14  0.12500000000E+03  0.12500000000E+03 0.  0.
        -11    1    1    0    0    0 -0.71832303716E+01 -0.32268452503E+02 -0.75684374392E+00  0.33066972015E+02  0.51100000000E-03 0.  1.
         11    1    1    0    0    0 -0.96387631134E+00 -0.29481538302E+02 -0.21879842330E+01  0.29578327091E+02  0.51100000000E-03 0. -1.
         22    1    1    0    0    0  0.81471066830E+01  0.61749990806E+02  0.29448279769E+01  0.62354700894E+02  0.00000000000E+00 0.  1.
</event>
<event>
 4    1  0.1977788E-002  0.9118800E+02  0.7818608E-02  0.1130116E+00
         25   -1    0    0    0    0  0.00000000000E+00  0.00000000000E+00  0.99999998245E-14  0.12500000000E+03  0.12500000000E+03 0.  0.
        -11    1    1    0    0    0 -0.14480608030E+02 -0.58451786628E+02 -0.47563262869E+01  0.60406307691E+02  0.51100000000E-03 0.  1.
         11    1    1    0    0    0  0.19396932683E+01 -0.19350920495E+01  0.33029616915E+00  0.27597258987E+01  0.51100000000E-03 0. -1.
         22    1    1    0    0    0  0.12540914761E+02  0.60386878677E+02  0.44260301178E+01  0.61833966410E+02  0.00000000000E+00 0.  1.
</event>
<event>
 4    1  0.1977788E-002  0.9118800E+02  0.7818608E-02  0.1130116E+00
         25   -1    0    0    0    0  0.00000000000E+00  0.00000000000E+00  0.99999998245E-14  0.12500000000E+03  0.12500000000E+03 0.  0.
        -11    1    1    0    0    0  0.65983976551E+00 -0.21824972988E+02 -0.51656139908E+02  0.56081383943E+02  0.51100000000E-03 0.  1.
         11    1    1    0    0    0  0.61668619920E-01 -0.24875578329E+01 -0.59166737573E+01  0.64186272365E+01  0.51100000000E-03 0. -1.
         22    1    1    0    0    0 -0.72150838543E+00  0.24312530821E+02  0.57572813665E+02  0.62499988821E+02  0.00000000000E+00 0.  1.
</event>
<event>
 4    1  0.1977788E-002  0.9118800E+02  0.7818608E-02  0.1130116E+00
         25   -1    0    0    0    0  0.00000000000E+00  0.00000000000E+00  0.99999998245E-14  0.12500000000E+03  0.12500000000E+03 0.  0.
        -11    1    1    0    0    0 -0.23734209993E+01  0.55084259993E+02 -0.16032032650E+02  0.57418941973E+02  0.51100000000E-03 0. -1.
         11    1    1    0    0    0 -0.29235790602E+01 -0.12197989618E+01 -0.78176428203E+01  0.84350912002E+01  0.51100000000E-03 0.  1.
         22    1    1    0    0    0  0.52970000595E+01 -0.53864461031E+02  0.23849675470E+02  0.59145966826E+02  0.00000000000E+00 0. -1.
</event>
<event>
 4    1  0.1977788E-002  0.9118800E+02  0.7818608E-02  0.1130116E+00
         25   -1    0    0    0    0  0.00000000000E+00  0.00000000000E+00  0.99999998245E-14  0.12500000000E+03  0.12500000000E+03 0.  0.
        -11    1    1    0    0    0  0.68350230977E+01 -0.36595344450E+02 -0.35551817182E+02  0.51476873267E+02  0.51100000000E-03 0.  1.
         11    1    1    0    0    0  0.33273228941E+01 -0.12193747665E+02  0.60316502449E+00  0.12653946739E+02  0.51100000000E-03 0. -1.
         22    1    1    0    0    0 -0.10162345992E+02  0.48789092115E+02  0.34948652158E+02  0.60869179994E+02  0.00000000000E+00 0.  1.
</event>
<event>
 4    1  0.1977788E-002  0.9118800E+02  0.7818608E-02  0.1130116E+00
         25   -1    0    0    0    0  0.00000000000E+00  0.00000000000E+00  0.99999998245E-14  0.12500000000E+03  0.12500000000E+03 0.  0.
        -11    1    1    0    0    0  0.29263988309E+01 -0.45636118157E+02 -0.46690317106E+01  0.45967585840E+02  0.51100000000E-03 0. -1.
         11    1    1    0    0    0 -0.14126520436E+01 -0.16115210474E+02 -0.39814367860E+01  0.16659754907E+02  0.51100000000E-03 0.  1.
         22    1    1    0    0    0 -0.15137467873E+01  0.61751328631E+02  0.86504684966E+01  0.62372659253E+02  0.00000000000E+00 0. -1.
</event>
<event>
 4    1  0.1977788E-002  0.9118800E+02  0.7818608E-02  0.1130116E+00
         25   -1    0    0    0    0  0.00000000000E+00  0.00000000000E+00  0.99999998245E-14  0.12500000000E+03  0.12500000000E+03 0.  0.
        -11    1    1    0    0    0 -0.50029459408E+01 -0.13407440712E+02  0.31127810059E+01  0.14645079050E+02  0.51100000000E-03 0.  1.
         11    1    1    0    0    0 -0.23284301401E+02 -0.41899535220E+02  0.23638158551E+01  0.47992888734E+02  0.51100000000E-03 0. -1.
         22    1    1    0    0    0  0.28287247342E+02  0.55306975932E+02 -0.54765968610E+01  0.62362032216E+02  0.00000000000E+00 0. -1.
</event>
<event>
 4    1  0.1977788E-002  0.9118800E+02  0.7818608E-02  0.1130116E+00
         25   -1    0    0    0    0  0.00000000000E+00  0.00000000000E+00  0.99999998245E-14  0.12500000000E+03  0.12500000000E+03 0.  0.
        -11    1    1    0    0    0 -0.72423443622E+01  0.37032581163E+02  0.19743222437E+02  0.42587069070E+02  0.51100000000E-03 0.  1.
         11    1    1    0    0    0 -0.33870432138E+01  0.17315682891E+02  0.92314615630E+01  0.19912930939E+02  0.51100000000E-03 0.  1.
         22    1    1    0    0    0  0.10629387576E+02 -0.54348264055E+02 -0.28974684000E+02  0.62499999991E+02  0.00000000000E+00 0.  1.
</event>
<event>
 4    1  0.1977788E-002  0.9118800E+02  0.7818608E-02  0.1130116E+00
         25   -1    0    0    0    0  0.00000000000E+00  0.00000000000E+00  0.99999998245E-14  0.12500000000E+03  0.12500000000E+03 0.  0.
        -11    1    1    0    0    0 -0.76311230159E+01  0.13466244711E+02 -0.10347925577E+02  0.18618629088E+02  0.51100000000E-03 0. -1.
         11    1    1    0    0    0 -0.17832578605E+02  0.31868328514E+02 -0.24330844599E+02  0.43881445066E+02  0.51100000000E-03 0.  1.
         22    1    1    0    0    0  0.25463701621E+02 -0.45334573225E+02  0.34678770176E+02  0.62499925845E+02  0.00000000000E+00 0.  1.
</event>
<event>
 4    1  0.1977788E-002  0.9118800E+02  0.7818608E-02  0.1130116E+00
         25   -1    0    0    0    0  0.00000000000E+00  0.00000000000E+00  0.99999998245E-14  0.12500000000E+03  0.12500000000E+03 0.  0.
        -11    1    1    0    0    0 -0.14396944832E+02 -0.45288005511E+02  0.35803398815E+01  0.47655999597E+02  0.51100000000E-03 0. -1.
         11    1    1    0    0    0 -0.13848176661E+02 -0.86051634226E+01  0.93260509137E+00  0.16330664006E+02  0.51100000000E-03 0.  1.
         22    1    1    0    0    0  0.28245121493E+02  0.53893168934E+02 -0.45129449728E+01  0.61013336396E+02  0.00000000000E+00 0. -1.
</event>
<event>
 4    1  0.1977788E-002  0.9118800E+02  0.7818608E-02  0.1130116E+00
         25   -1    0    0    0    0  0.00000000000E+00  0.00000000000E+00  0.99999998245E-14  0.12500000000E+03  0.12500000000E+03 0.  0.
        -11    1    1    0    0    0 -0.17125455020E+02  0.21688680752E+02  0.74949741475E+01  0.28633105317E+02  0.51100000000E-03 0. -1.
         11    1    1    0    0    0 -0.20245203137E+02  0.25667825835E+02  0.88465346514E+01  0.33866896946E+02  0.51100000000E-03 0.  1.
         22    1    1    0    0    0  0.37370658157E+02 -0.47356506587E+02 -0.16341508799E+02  0.62499997736E+02  0.00000000000E+00 0.  1.
</event>
<event>
 4    1  0.1977788E-002  0.9118800E+02  0.7818608E-02  0.1130116E+00
         25   -1    0    0    0    0  0.00000000000E+00  0.00000000000E+00  0.99999998245E-14  0.12500000000E+03  0.12500000000E+03 0.  0.
        -11    1    1    0    0    0  0.70644551030E+00  0.66400812407E-01 -0.13924943228E+01  0.15628547684E+01  0.51100000000E-03 0. -1.
         11    1    1    0    0    0  0.28102570761E+02  0.21557849024E+01 -0.54027223789E+02  0.60937203764E+02  0.51100000000E-03 0.  1.
         22    1    1    0    0    0 -0.28809016272E+02 -0.22221857148E+01  0.55419718112E+02  0.62499941468E+02  0.00000000000E+00 0.  1.
</event>
<event>
 4    1  0.1977788E-002  0.9118800E+02  0.7818608E-02  0.1130116E+00
         25   -1    0    0    0    0  0.00000000000E+00  0.00000000000E+00  0.99999998245E-14  0.12500000000E+03  0.12500000000E+03 0.  0.
        -11    1    1    0    0    0 -0.31846470753E+02  0.45949188348E+02  0.24005867619E+01  0.55957916565E+02  0.51100000000E-03 0. -1.
         11    1    1    0    0    0 -0.37339832813E+01  0.53681741114E+01  0.20400852547E+00  0.65422889094E+01  0.51100000000E-03 0.  1.
         22    1    1    0    0    0  0.35580454034E+02 -0.51317362459E+02 -0.26045952874E+01  0.62499794525E+02  0.00000000000E+00 0. -1.
</event>
<event>
 4    1  0.1977788E-002  0.9118800E+02  0.7818608E-02  0.1130116E+00
         25   -1    0    0    0    0  0.00000000000E+00  0.00000000000E+00  0.99999998245E-14  0.12500000000E+03  0.12500000000E+03 0.  0.
        -11    1    1    0    0    0  0.22056636836E+02 -0.30348313805E+00 -0.80973785520E+01  0.23497975875E+02  0.51100000000E-03 0. -1.
         11    1    1    0    0    0  0.14456628889E+02 -0.31595315373E+02  0.32186703015E+02  0.47362874950E+02  0.51100000000E-03 0.  1.
         22    1    1    0    0    0 -0.36513265725E+02  0.31898798511E+02 -0.24089324463E+02  0.54139149175E+02  0.00000000000E+00 0.  1.
</event>
<event>
 4    1  0.1977788E-002  0.9118800E+02  0.7818608E-02  0.1130116E+00
         25   -1    0    0    0    0  0.00000000000E+00  0.00000000000E+00  0.99999998245E-14  0.12500000000E+03  0.12500000000E+03 0.  0.
        -11    1    1    0    0    0 -0.15843489282E+02  0.11095029131E+02 -0.40261510397E+02  0.44666598748E+02  0.51100000000E-03 0.  1.
         11    1    1    0    0    0 -0.64347800877E+01  0.44658543749E+01 -0.16021413398E+02  0.17833562112E+02  0.51100000000E-03 0. -1.
         22    1    1    0    0    0  0.22278269370E+02 -0.15560883506E+02  0.56282923795E+02  0.62499839140E+02  0.00000000000E+00 0.  1.
</event>
<event>
 4    1  0.1977788E-002  0.9118800E+02  0.7818608E-02  0.1130116E+00
         25   -1    0    0    0    0  0.00000000000E+00  0.00000000000E+00  0.99999998245E-14  0.12500000000E+03  0.12500000000E+03 0.  0.
        -11    1    1    0    0    0 -0.39656249838E+02 -0.34455979979E+02 -0.13354038845E+02  0.54204825074E+02  0.51100000000E-03 0. -1.
         11    1    1    0    0    0 -0.60685718529E+01 -0.52730319194E+01 -0.20438926201E+01  0.82951749385E+01  0.51100000000E-03 0. -1.
         22    1    1    0    0    0  0.45724821691E+02  0.39729011898E+02  0.15397931465E+02  0.62499999988E+02  0.00000000000E+00 0. -1.
</event>
<event>
 4    1  0.1977788E-002  0.9118800E+02  0.7818608E-02  0.1130116E+00
         25   -1    0    0    0    0  0.00000000000E+00  0.00000000000E+00  0.99999998245E-14  0.12500000000E+03  0.12500000000E+03 0.  0.
        -11    1    1    0    0    0 -0.30451835262E+02  0.25354807390E+02 -0.19056489634E+02  0.43969652331E+02  0.51100000000E-03 0. -1.
         11    1    1    0    0    0 -0.10104380764E+02  0.16246454729E+02 -0.19931365658E+01  0.19235862224E+02  0.51100000000E-03 0.  1.
         22    1    1    0    0    0  0.40556216026E+02 -0.41601262119E+02  0.21049626200E+02  0.61794485445E+02  0.00000000000E+00 0. -1.
</event>
<event>
 4    1  0.1977788E-002  0.9118800E+02  0.7818608E-02  0.1130116E+00
         25   -1    0    0    0    0  0.00000000000E+00  0.00000000000E+00  0.99999998245E-14  0.12500000000E+03  0.12500000000E+03 0.  0.
        -11    1    1    0    0    0  0.26553896111E+01  0.61774464835E+01  0.70104246230E-01  0.67243478427E+01  0.51100000000E-03 0. -1.
         11    1    1    0    0    0  0.23840300845E+02  0.50365491121E+02  0.25097923077E+01  0.55779402094E+02  0.51100000000E-03 0.  1.
         22    1    1    0    0    0 -0.26495690456E+02 -0.56542937605E+02 -0.25798965539E+01  0.62496250063E+02  0.00000000000E+00 0.  1.
</event>
<event>
 4    1  0.1977788E-002  0.9118800E+02  0.7818608E-02  0.1130116E+00
         25   -1    0    0    0    0  0.00000000000E+00  0.00000000000E+00  0.99999998245E-14  0.12500000000E+03  0.12500000000E+03 0.  0.
        -11    1    1    0    0    0 -0.95106176577E+00  0.35292279627E+01  0.26676817961E+01  0.45250961229E+01  0.51100000000E-03 0. -1.
         11    1    1    0    0    0 -0.13463743179E+02  0.43944350649E+02  0.35339464216E+02  0.57976340568E+02  0.51100000000E-03 0.  1.
         22    1    1    0    0    0  0.14414804945E+02 -0.47473578611E+02 -0.38007146012E+02  0.62498563309E+02  0.00000000000E+00 0.  1.
</event>
<event>
 4    1  0.1977788E-002  0.9118800E+02  0.7818608E-02  0.1130116E+00
         25   -1    0    0    0    0  0.00000000000E+00  0.00000000000E+00  0.99999998245E-14  0.12500000000E+03  0.12500000000E+03 0.  0.
        -11    1    1    0    0    0 -0.17536938446E+02  0.19186999896E+01  0.52794556114E+00  0.17649485729E+02  0.51100000000E-03 0. -1.
         11    1    1    0    0    0 -0.44125073442E+02  0.79046720411E+01  0.18498635764E+01  0.44865665512E+02  0.51100000000E-03 0.  1.
         22    1    1    0    0    0  0.61662011888E+02 -0.98233720307E+01 -0.23778091376E+01  0.62484848759E+02  0.00000000000E+00 0.  1.
</event>
<event>
 4    1  0.1977788E-002  0.9118800E+02  0.7818608E-02  0.1130116E+00
         25   -1    0    0    0    0  0.00000000000E+00  0.00000000000E+00  0.99999998245E-14  0.12500000000E+03  0.12500000000E+03 0.  0.
        -11    1    1    0    0    0  0.15081557831E+01  0.55846746024E+01  0.85165184157E+00  0.58470877710E+01  0.51100000000E-03 0.  1.
         11    1    1    0    0    0  0.14606349158E+02  0.54112768621E+02  0.82471391867E+01  0.56652912269E+02  0.51100000000E-03 0. -1.
         22    1    1    0    0    0 -0.16114504941E+02 -0.59697443223E+02 -0.90987910283E+01  0.62499999960E+02  0.00000000000E+00 0. -1.
</event>
<event>
 4    1  0.1977788E-002  0.9118800E+02  0.7818608E-02  0.1130116E+00
         25   -1    0    0    0    0  0.00000000000E+00  0.00000000000E+00  0.99999998245E-14  0.12500000000E+03  0.12500000000E+03 0.  0.
        -11    1    1    0    0    0  0.14244337101E+01 -0.14943146530E+01  0.16108829058E+01  0.26185743591E+01  0.51100000000E-03 0.  1.
         11    1    1    0    0    0  0.33414909033E+02 -0.32115605711E+02  0.37920242828E+02  0.59882494039E+02  0.51100000000E-03 0. -1.
         22    1    1    0    0    0 -0.34839342743E+02  0.33609920364E+02 -0.39531125734E+02  0.62498931602E+02  0.00000000000E+00 0. -1.
</event>
<event>
 4    1  0.1977788E-002  0.9118800E+02  0.7818608E-02  0.1130116E+00
         25   -1    0    0    0    0  0.00000000000E+00  0.00000000000E+00  0.99999998245E-14  0.12500000000E+03  0.12500000000E+03 0.  0.
        -11    1    1    0    0    0  0.13161280512E+01  0.48651558122E+02 -0.16076457465E+02  0.51255817090E+02  0.51100000000E-03 0.  1.
         11    1    1    0    0    0  0.20862929663E+00  0.10684579670E+02 -0.34972737009E+01  0.11244318232E+02  0.51100000000E-03 0. -1.
         22    1    1    0    0    0 -0.15247573478E+01 -0.59336137791E+02  0.19573731166E+02  0.62499864678E+02  0.00000000000E+00 0.  1.
</event>
<event>
 4    1  0.1977788E-002  0.9118800E+02  0.7818608E-02  0.1130116E+00
         25   -1    0    0    0    0  0.00000000000E+00  0.00000000000E+00  0.99999998245E-14  0.12500000000E+03  0.12500000000E+03 0.  0.
        -11    1    1    0    0    0 -0.17210481547E+01  0.27371997911E+01  0.37502996948E+01  0.49516681542E+01  0.51100000000E-03 0.  1.
         11    1    1    0    0    0 -0.17406531054E+02  0.35435239965E+02  0.41881607537E+02  0.57556169130E+02  0.51100000000E-03 0. -1.
         22    1    1    0    0    0  0.19127579209E+02 -0.38172439756E+02 -0.45631907232E+02  0.62492162716E+02  0.00000000000E+00 0. -1.
</event>
<event>
 4    1  0.1977788E-002  0.9118800E+02  0.7818608E-02  0.1130116E+00
         25   -1    0    0    0    0  0.00000000000E+00  0.00000000000E+00  0.99999998245E-14  0.12500000000E+03  0.12500000000E+03 0.  0.
        -11    1    1    0    0    0  0.24440067803E+02 -0.21368671810E+02  0.31366008457E+02  0.45141594300E+02  0.51100000000E-03 0. -1.
         11    1    1    0    0    0  0.88201854863E+01 -0.86527751129E+01  0.12200172782E+02  0.17364054980E+02  0.51100000000E-03 0.  1.
         22    1    1    0    0    0 -0.33260253289E+02  0.30021446923E+02 -0.43566181240E+02  0.62494350720E+02  0.00000000000E+00 0. -1.
</event>
<event>
 4    1  0.1977788E-002  0.9118800E+02  0.7818608E-02  0.1130116E+00
         25   -1    0    0    0    0  0.00000000000E+00  0.00000000000E+00  0.99999998245E-14  0.12500000000E+03  0.12500000000E+03 0.  0.
        -11    1    1    0    0    0  0.61760013287E+01  0.30325048185E+01  0.56054616207E+01  0.88746987627E+01  0.51100000000E-03 0. -1.
         11    1    1    0    0    0  0.39896754907E+02  0.17777723290E+02  0.31127193225E+02  0.53634882827E+02  0.51100000000E-03 0.  1.
         22    1    1    0    0    0 -0.46072756236E+02 -0.20810228108E+02 -0.36732654846E+02  0.62490418411E+02  0.00000000000E+00 0.  1.
</event>
<event>
 4    1  0.1977788E-002  0.9118800E+02  0.7818608E-02  0.1130116E+00
         25   -1    0    0    0    0  0.00000000000E+00  0.00000000000E+00  0.99999998245E-14  0.12500000000E+03  0.12500000000E+03 0.  0.
        -11    1    1    0    0    0  0.76638307531E+01 -0.16370009781E+02 -0.17143256172E+01  0.18156278105E+02  0.51100000000E-03 0.  1.
         11    1    1    0    0    0  0.38943447676E+02 -0.22480981727E+02 -0.71225249866E+01  0.45527102025E+02  0.51100000000E-03 0. -1.
         22    1    1    0    0    0 -0.46607278429E+02  0.38850991508E+02  0.88368506038E+01  0.61316619870E+02  0.00000000000E+00 0. -1.
</event>
<event>
 4    1  0.1977788E-002  0.9118800E+02  0.7818608E-02  0.1130116E+00
         25   -1    0    0    0    0  0.00000000000E+00  0.00000000000E+00  0.99999998245E-14  0.12500000000E+03  0.12500000000E+03 0.  0.
        -11    1    1    0    0    0  0.14314418392E+01 -0.32743344256E+01  0.76129215929E+00  0.36537457058E+01  0.51100000000E-03 0. -1.
         11    1    1    0    0    0  0.23434126029E+02 -0.52621834099E+02  0.12027973293E+02  0.58846306838E+02  0.51100000000E-03 0.  1.
         22    1    1    0    0    0 -0.24865567868E+02  0.55896168525E+02 -0.12789265452E+02  0.62499947456E+02  0.00000000000E+00 0.  1.
</event>
<event>
 4    1  0.1977788E-002  0.9118800E+02  0.7818608E-02  0.1130116E+00
         25   -1    0    0    0    0  0.00000000000E+00  0.00000000000E+00  0.99999998245E-14  0.12500000000E+03  0.12500000000E+03 0.  0.
        -11    1    1    0    0    0  0.33337471002E+01 -0.16313608853E+01 -0.61383153923E+00  0.37619140721E+01  0.51100000000E-03 0. -1.
         11    1    1    0    0    0  0.52063447926E+02 -0.25452229634E+02 -0.95783168301E+01  0.58738086084E+02  0.51100000000E-03 0.  1.
         22    1    1    0    0    0 -0.55397195026E+02  0.27083590519E+02  0.10192148369E+02  0.62499999844E+02  0.00000000000E+00 0.  1.
</event>
<event>
 4    1  0.1977788E-002  0.9118800E+02  0.7818608E-02  0.1130116E+00
         25   -1    0    0    0    0  0.00000000000E+00  0.00000000000E+00  0.99999998245E-14  0.12500000000E+03  0.12500000000E+03 0.  0.
        -11    1    1    0    0    0 -0.37142316963E+02  0.17133246688E+02  0.82334777898E+01  0.41723974023E+02  0.51100000000E-03 0.  1.
         11    1    1    0    0    0  0.56620374583E+02 -0.62520363183E+01  0.52515993919E+01  0.57206066745E+02  0.51100000000E-03 0. -1.
         22    1    1    0    0    0 -0.19478057620E+02 -0.10881210370E+02 -0.13485077182E+02  0.26069959232E+02  0.00000000000E+00 0. -1.
</event>
<event>
 4    1  0.1977788E-002  0.9118800E+02  0.7818608E-02  0.1130116E+00
         25   -1    0    0    0    0  0.00000000000E+00  0.00000000000E+00  0.99999998245E-14  0.12500000000E+03  0.12500000000E+03 0.  0.
        -11    1    1    0    0    0 -0.11408653407E+02  0.41590505506E+02  0.39774822268E+01  0.43309905171E+02  0.51100000000E-03 0.  1.
         11    1    1    0    0    0 -0.49749918700E+01  0.18458390254E+02  0.16739968540E+01  0.19190231385E+02  0.51100000000E-03 0. -1.
         22    1    1    0    0    0  0.16383645277E+02 -0.60048895761E+02 -0.56514790808E+01  0.62499863443E+02  0.00000000000E+00 0.  1.
</event>
<event>
 4    1  0.1977788E-002  0.9118800E+02  0.7818608E-02  0.1130116E+00
         25   -1    0    0    0    0  0.00000000000E+00  0.00000000000E+00  0.99999998245E-14  0.12500000000E+03  0.12500000000E+03 0.  0.
        -11    1    1    0    0    0 -0.34561424262E+01 -0.27983540441E+01 -0.66031458111E+01  0.79609823948E+01  0.51100000000E-03 0.  1.
         11    1    1    0    0    0 -0.23725889519E+02 -0.19140297268E+02 -0.45224283844E+02  0.54539019632E+02  0.51100000000E-03 0. -1.
         22    1    1    0    0    0  0.27182031945E+02  0.21938651312E+02  0.51827429655E+02  0.62499997973E+02  0.00000000000E+00 0. -1.
</event>
<event>
 4    1  0.1977788E-002  0.9118800E+02  0.7818608E-02  0.1130116E+00
         25   -1    0    0    0    0  0.00000000000E+00  0.00000000000E+00  0.99999998245E-14  0.12500000000E+03  0.12500000000E+03 0.  0.
        -11    1    1    0    0    0  0.20475758332E+02 -0.14640300493E+01 -0.46037173031E+02  0.50406560726E+02  0.51100000000E-03 0. -1.
         11    1    1    0    0    0  0.49134357233E+01 -0.35073978727E+00 -0.11044745578E+02  0.12093439302E+02  0.51100000000E-03 0.  1.
         22    1    1    0    0    0 -0.25389194056E+02  0.18147698366E+01  0.57081918609E+02  0.62499999972E+02  0.00000000000E+00 0. -1.
</event>
<event>
 4    1  0.1977788E-002  0.9118800E+02  0.7818608E-02  0.1130116E+00
         25   -1    0    0    0    0  0.00000000000E+00  0.00000000000E+00  0.99999998245E-14  0.12500000000E+03  0.12500000000E+03 0.  0.
        -11    1    1    0    0    0  0.30147624752E+01  0.18500176015E+00 -0.28745001668E+01  0.41696246717E+01  0.51100000000E-03 0.  1.
         11    1    1    0    0    0  0.42178735026E+02  0.26816248565E+01 -0.40201942536E+02  0.58330377885E+02  0.51100000000E-03 0. -1.
         22    1    1    0    0    0 -0.45193497501E+02 -0.28666266166E+01  0.43076442703E+02  0.62499997444E+02  0.00000000000E+00 0. -1.
</event>
<event>
 4    1  0.1977788E-002  0.9118800E+02  0.7818608E-02  0.1130116E+00
         25   -1    0    0    0    0  0.00000000000E+00  0.00000000000E+00  0.99999998245E-14  0.12500000000E+03  0.12500000000E+03 0.  0.
        -11    1    1    0    0    0  0.16713131711E+02  0.50506255480E+02 -0.27015891486E+02  0.59666313840E+02  0.51100000000E-03 0. -1.
         11    1    1    0    0    0  0.75465525766E+00  0.24847057789E+01 -0.11403905491E+01  0.28361520113E+01  0.51100000000E-03 0.  1.
         22    1    1    0    0    0 -0.17467786969E+02 -0.52990961259E+02  0.28156282035E+02  0.62497534149E+02  0.00000000000E+00 0. -1.
</event>
<event>
 4    1  0.1977788E-002  0.9118800E+02  0.7818608E-02  0.1130116E+00
         25   -1    0    0    0    0  0.00000000000E+00  0.00000000000E+00  0.99999998245E-14  0.12500000000E+03  0.12500000000E+03 0.  0.
        -11    1    1    0    0    0 -0.55842788312E+02  0.18081430412E+02  0.15365135738E+02  0.60674892079E+02  0.51100000000E-03 0. -1.
         11    1    1    0    0    0 -0.16776260903E+01  0.55173729259E+00  0.46066112355E+00  0.18251170568E+01  0.51100000000E-03 0.  1.
         22    1    1    0    0    0  0.57520414403E+02 -0.18633167705E+02 -0.15825796862E+02  0.62499990865E+02  0.00000000000E+00 0. -1.
</event>
<event>
 4    1  0.1977788E-002  0.9118800E+02  0.7818608E-02  0.1130116E+00
         25   -1    0    0    0    0  0.00000000000E+00  0.00000000000E+00  0.99999998245E-14  0.12500000000E+03  0.12500000000E+03 0.  0.
        -11    1    1    0    0    0 -0.45151238770E+02  0.34498811660E+01  0.27011204070E+02  0.52727044182E+02  0.51100000000E-03 0.  1.
         11    1    1    0    0    0 -0.86801280413E+01 -0.61306308223E+00  0.45372523274E+01  0.98136195208E+01  0.51100000000E-03 0. -1.
         22    1    1    0    0    0  0.53831366812E+02 -0.28368180838E+01 -0.31548456397E+02  0.62459336297E+02  0.00000000000E+00 0. -1.
</event>
<event>
 4    1  0.1977788E-002  0.9118800E+02  0.7818608E-02  0.1130116E+00
         25   -1    0    0    0    0  0.00000000000E+00  0.00000000000E+00  0.99999998245E-14  0.12500000000E+03  0.12500000000E+03 0.  0.
        -11    1    1    0    0    0  0.53867461224E+02 -0.46926692791E+01  0.30062423826E+02  0.61866581045E+02  0.51100000000E-03 0.  1.
         11    1    1    0    0    0  0.55011544193E+00 -0.44137879211E-01  0.31089805021E+00  0.63342956245E+00  0.51100000000E-03 0. -1.
         22    1    1    0    0    0 -0.54417576666E+02  0.47368071583E+01 -0.30373321876E+02  0.62499989392E+02  0.00000000000E+00 0.  1.
</event>
<event>
 4    1  0.1977788E-002  0.9118800E+02  0.7818608E-02  0.1130116E+00
         25   -1    0    0    0    0  0.00000000000E+00  0.00000000000E+00  0.99999998245E-14  0.12500000000E+03  0.12500000000E+03 0.  0.
        -11    1    1    0    0    0 -0.15893624958E+01  0.17427481475E+02 -0.42255202489E+01  0.18002727719E+02  0.51100000000E-03 0. -1.
         11    1    1    0    0    0 -0.38825559950E+01  0.43120013694E+02 -0.10276286706E+02  0.44497324535E+02  0.51100000000E-03 0.  1.
         22    1    1    0    0    0  0.54719184909E+01 -0.60547495169E+02  0.14501806955E+02  0.62499947746E+02  0.00000000000E+00 0.  1.
</event>
<event>
 4    1  0.1977788E-002  0.9118800E+02  0.7818608E-02  0.1130116E+00
         25   -1    0    0    0    0  0.00000000000E+00  0.00000000000E+00  0.99999998245E-14  0.12500000000E+03  0.12500000000E+03 0.  0.
        -11    1    1    0    0    0  0.19943717677E+02  0.38544077032E+02 -0.10052157328E+02  0.44547094364E+02  0.51100000000E-03 0. -1.
         11    1    1    0    0    0  0.12581333832E+02  0.13300121389E+02 -0.66231579855E+00  0.18319985055E+02  0.51100000000E-03 0.  1.
         22    1    1    0    0    0 -0.32525051509E+02 -0.51844198421E+02  0.10714473127E+02  0.62132920581E+02  0.00000000000E+00 0. -1.
</event>
<event>
 4    1  0.1977788E-002  0.9118800E+02  0.7818608E-02  0.1130116E+00
         25   -1    0    0    0    0  0.00000000000E+00  0.00000000000E+00  0.99999998245E-14  0.12500000000E+03  0.12500000000E+03 0.  0.
        -11    1    1    0    0    0 -0.21337324447E+01 -0.98219810597E-01  0.24757461798E+01  0.32698288464E+01  0.51100000000E-03 0. -1.
         11    1    1    0    0    0  0.48082417830E+02 -0.27556049992E+02  0.25770320626E+02  0.61117626107E+02  0.51100000000E-03 0.  1.
         22    1    1    0    0    0 -0.45948685386E+02  0.27654269803E+02 -0.28246066805E+02  0.60612545046E+02  0.00000000000E+00 0.  1.
</event>
<event>
 4    1  0.1977788E-002  0.9118800E+02  0.7818608E-02  0.1130116E+00
         25   -1    0    0    0    0  0.00000000000E+00  0.00000000000E+00  0.99999998245E-14  0.12500000000E+03  0.12500000000E+03 0.  0.
        -11    1    1    0    0    0  0.84661157856E+00 -0.31408738547E+02  0.36440750605E+02  0.48116046318E+02  0.51100000000E-03 0.  1.
         11    1    1    0    0    0  0.10507809694E+02  0.74458857022E-01  0.13336939219E+02  0.16979209543E+02  0.51100000000E-03 0. -1.
         22    1    1    0    0    0 -0.11354421272E+02  0.31334279690E+02 -0.49777689825E+02  0.59904744140E+02  0.00000000000E+00 0.  1.
</event>
<event>
 4    1  0.1977788E-002  0.9118800E+02  0.7818608E-02  0.1130116E+00
         25   -1    0    0    0    0  0.00000000000E+00  0.00000000000E+00  0.99999998245E-14  0.12500000000E+03  0.12500000000E+03 0.  0.
        -11    1    1    0    0    0 -0.12475079444E+02 -0.13165550317E+02  0.14200571951E+02  0.23035094232E+02  0.51100000000E-03 0. -1.
         11    1    1    0    0    0 -0.20843871031E+02 -0.22954502211E+02  0.24416898649E+02  0.39465948249E+02  0.51100000000E-03 0.  1.
         22    1    1    0    0    0  0.33318950476E+02  0.36120052527E+02 -0.38617470600E+02  0.62498957519E+02  0.00000000000E+00 0.  1.
</event>
<event>
 4    1  0.1977788E-002  0.9118800E+02  0.7818608E-02  0.1130116E+00
         25   -1    0    0    0    0  0.00000000000E+00  0.00000000000E+00  0.99999998245E-14  0.12500000000E+03  0.12500000000E+03 0.  0.
        -11    1    1    0    0    0 -0.62792927680E+00 -0.14001887223E+02  0.23998069949E+02  0.27791266659E+02  0.51100000000E-03 0. -1.
         11    1    1    0    0    0 -0.75978749632E+00 -0.17708987226E+02  0.29841673665E+02  0.34708946873E+02  0.51100000000E-03 0.  1.
         22    1    1    0    0    0  0.13877167731E+01  0.31710874448E+02 -0.53839743614E+02  0.62499786468E+02  0.00000000000E+00 0.  1.
</event>
<event>
 4    1  0.1977788E-002  0.9118800E+02  0.7818608E-02  0.1130116E+00
         25   -1    0    0    0    0  0.00000000000E+00  0.00000000000E+00  0.99999998245E-14  0.12500000000E+03  0.12500000000E+03 0.  0.
        -11    1    1    0    0    0 -0.21863528447E+02  0.54873753894E+02  0.15846707568E+02  0.61157672320E+02  0.51100000000E-03 0.  1.
         11    1    1    0    0    0 -0.47024311800E+00  0.12121011780E+01  0.33420150887E+00  0.13423892004E+01  0.51100000000E-03 0. -1.
         22    1    1    0    0    0  0.22333771565E+02 -0.56085855072E+02 -0.16180909076E+02  0.62499938480E+02  0.00000000000E+00 0.  1.
</event>
<event>
 4    1  0.1977788E-002  0.9118800E+02  0.7818608E-02  0.1130116E+00
         25   -1    0    0    0    0  0.00000000000E+00  0.00000000000E+00  0.99999998245E-14  0.12500000000E+03  0.12500000000E+03 0.  0.
        -11    1    1    0    0    0  0.46836936302E+02 -0.11853424876E+02 -0.25598261505E+02  0.54676075900E+02  0.51100000000E-03 0.  1.
         11    1    1    0    0    0  0.67059498276E+01 -0.16934291691E+01 -0.36573687555E+01  0.78239256077E+01  0.51100000000E-03 0. -1.
         22    1    1    0    0    0 -0.53542886130E+02  0.13546854045E+02  0.29255630260E+02  0.62499998492E+02  0.00000000000E+00 0.  1.
</event>
<event>
 4    1  0.1977788E-002  0.9118800E+02  0.7818608E-02  0.1130116E+00
         25   -1    0    0    0    0  0.00000000000E+00  0.00000000000E+00  0.99999998245E-14  0.12500000000E+03  0.12500000000E+03 0.  0.
        -11    1    1    0    0    0 -0.38026284687E+01  0.99692896317E+01  0.79940349425E+00  0.10699802112E+02  0.51100000000E-03 0. -1.
         11    1    1    0    0    0 -0.48872992708E+02 -0.27623435247E+02  0.11724963841E+02  0.57350661447E+02  0.51100000000E-03 0.  1.
         22    1    1    0    0    0  0.52675621176E+02  0.17654145615E+02 -0.12524367335E+02  0.56949536441E+02  0.00000000000E+00 0.  1.
</event>
<event>
 4    1  0.1977788E-002  0.9118800E+02  0.7818608E-02  0.1130116E+00
         25   -1    0    0    0    0  0.00000000000E+00  0.00000000000E+00  0.99999998245E-14  0.12500000000E+03  0.12500000000E+03 0.  0.
        -11    1    1    0    0    0 -0.86861136080E+01 -0.10595364134E+02  0.12991360025E+01  0.13762196967E+02  0.51100000000E-03 0.  1.
         11    1    1    0    0    0 -0.29172847256E+02 -0.38737277716E+02  0.49186454194E+01  0.48742433002E+02  0.51100000000E-03 0. -1.
         22    1    1    0    0    0  0.37858960864E+02  0.49332641850E+02 -0.62177814219E+01  0.62495370032E+02  0.00000000000E+00 0. -1.
</event>
<event>
 4    1  0.1977788E-002  0.9118800E+02  0.7818608E-02  0.1130116E+00
         25   -1    0    0    0    0  0.00000000000E+00  0.00000000000E+00  0.99999998245E-14  0.12500000000E+03  0.12500000000E+03 0.  0.
        -11    1    1    0    0    0 -0.93580588536E+01 -0.94780904818E+01 -0.10747713024E+02  0.17114929161E+02  0.51100000000E-03 0. -1.
         11    1    1    0    0    0 -0.36431208367E+02  0.38487463902E+02  0.24842828382E+01  0.53053647209E+02  0.51100000000E-03 0.  1.
         22    1    1    0    0    0  0.45789267221E+02 -0.29009373420E+02  0.82634301858E+01  0.54831423630E+02  0.00000000000E+00 0.  1.
</event>
<event>
 4    1  0.1977788E-002  0.9118800E+02  0.7818608E-02  0.1130116E+00
         25   -1    0    0    0    0  0.00000000000E+00  0.00000000000E+00  0.99999998245E-14  0.12500000000E+03  0.12500000000E+03 0.  0.
        -11    1    1    0    0    0  0.88481701006E+01 -0.15009072939E+02  0.11763903328E+02  0.21022649842E+02  0.51100000000E-03 0. -1.
         11    1    1    0    0    0  0.15068654585E+02 -0.30576459162E+02  0.23654504079E+02  0.41491201107E+02  0.51100000000E-03 0.  1.
         22    1    1    0    0    0 -0.23916824686E+02  0.45585532100E+02 -0.35418407407E+02  0.62486149050E+02  0.00000000000E+00 0.  1.
</event>
<event>
 4    1  0.1977788E-002  0.9118800E+02  0.7818608E-02  0.1130116E+00
         25   -1    0    0    0    0  0.00000000000E+00  0.00000000000E+00  0.99999998245E-14  0.12500000000E+03  0.12500000000E+03 0.  0.
        -11    1    1    0    0    0  0.36511432491E+00 -0.52627740590E+01 -0.11230427738E+01  0.53936374182E+01  0.51100000000E-03 0. -1.
         11    1    1    0    0    0  0.38692323754E+01 -0.55720567479E+02 -0.11890502500E+02  0.57106362600E+02  0.51100000000E-03 0. -1.
         22    1    1    0    0    0 -0.42343467003E+01  0.60983341538E+02  0.13013545273E+02  0.62499999982E+02  0.00000000000E+00 0. -1.
</event>
<event>
 4    1  0.1977788E-002  0.9118800E+02  0.7818608E-02  0.1130116E+00
         25   -1    0    0    0    0  0.00000000000E+00  0.00000000000E+00  0.99999998245E-14  0.12500000000E+03  0.12500000000E+03 0.  0.
        -11    1    1    0    0    0 -0.70689748772E+01 -0.25514441533E+02 -0.55784630094E+02  0.61748539153E+02  0.51100000000E-03 0. -1.
         11    1    1    0    0    0 -0.86713701277E-01 -0.31554401544E+00 -0.67647736523E+00  0.75147134240E+00  0.51100000000E-03 0.  1.
         22    1    1    0    0    0  0.71556885785E+01  0.25829985548E+02  0.56461107460E+02  0.62499989504E+02  0.00000000000E+00 0. -1.
</event>
<event>
 4    1  0.1977788E-002  0.9118800E+02  0.7818608E-02  0.1130116E+00
         25   -1    0    0    0    0  0.00000000000E+00  0.00000000000E+00  0.99999998245E-14  0.12500000000E+03  0.12500000000E+03 0.  0.
        -11    1    1    0    0    0  0.87699293279E+01  0.20894508489E+02 -0.14526503301E+02  0.26916750246E+02  0.51100000000E-03 0. -1.
         11    1    1    0    0    0  0.89666752462E+01  0.22273801921E+02 -0.26631342775E+02  0.35857383274E+02  0.51100000000E-03 0.  1.
         22    1    1    0    0    0 -0.17736604574E+02 -0.43168310410E+02  0.41157846076E+02  0.62225866479E+02  0.00000000000E+00 0.  1.
</event>
<event>
 4    1  0.1977788E-002  0.9118800E+02  0.7818608E-02  0.1130116E+00
         25   -1    0    0    0    0  0.00000000000E+00  0.00000000000E+00  0.99999998245E-14  0.12500000000E+03  0.12500000000E+03 0.  0.
        -11    1    1    0    0    0 -0.75784847913E+00 -0.83602193575E+01  0.31287014173E+01  0.89585922356E+01  0.51100000000E-03 0. -1.
         11    1    1    0    0    0 -0.32948856918E+02 -0.42972182984E+02  0.35683227132E+01  0.54267564990E+02  0.51100000000E-03 0.  1.
         22    1    1    0    0    0  0.33706705398E+02  0.51332402342E+02 -0.66970241305E+01  0.61773842775E+02  0.00000000000E+00 0.  1.
</event>
<event>
 4    1  0.1977788E-002  0.9118800E+02  0.7818608E-02  0.1130116E+00
         25   -1    0    0    0    0  0.00000000000E+00  0.00000000000E+00  0.99999998245E-14  0.12500000000E+03  0.12500000000E+03 0.  0.
        -11    1    1    0    0    0 -0.30887117759E+01 -0.20953460050E+02  0.33753006868E+02  0.39847874491E+02  0.51100000000E-03 0.  1.
         11    1    1    0    0    0 -0.17294434395E+01 -0.11871410013E+02  0.19214536261E+02  0.22652146793E+02  0.51100000000E-03 0. -1.
         22    1    1    0    0    0  0.48181552153E+01  0.32824870064E+02 -0.52967543130E+02  0.62499978717E+02  0.00000000000E+00 0. -1.
</event>
<event>
 4    1  0.1977788E-002  0.9118800E+02  0.7818608E-02  0.1130116E+00
         25   -1    0    0    0    0  0.00000000000E+00  0.00000000000E+00  0.99999998245E-14  0.12500000000E+03  0.12500000000E+03 0.  0.
        -11    1    1    0    0    0  0.31205432581E+02  0.40376728367E+01  0.31915797425E+02  0.44818522399E+02  0.51100000000E-03 0. -1.
         11    1    1    0    0    0  0.12198551163E+02  0.19447552657E+01  0.12652992216E+02  0.17682899530E+02  0.51100000000E-03 0.  1.
         22    1    1    0    0    0 -0.43403983744E+02 -0.59824281024E+01 -0.44568789641E+02  0.62498578071E+02  0.00000000000E+00 0. -1.
</event>
<event>
 4    1  0.1977788E-002  0.9118800E+02  0.7818608E-02  0.1130116E+00
         25   -1    0    0    0    0  0.00000000000E+00  0.00000000000E+00  0.99999998245E-14  0.12500000000E+03  0.12500000000E+03 0.  0.
        -11    1    1    0    0    0  0.46548903328E+01  0.29606050373E+02 -0.35918207870E+02  0.46779310379E+02  0.51100000000E-03 0.  1.
         11    1    1    0    0    0  0.15680032589E+01  0.99471811228E+01 -0.12072077005E+02  0.15720689870E+02  0.51100000000E-03 0. -1.
         22    1    1    0    0    0 -0.62228935918E+01 -0.39553231496E+02  0.47990284875E+02  0.62499999751E+02  0.00000000000E+00 0.  1.
</event>
<event>
 4    1  0.1977788E-002  0.9118800E+02  0.7818608E-02  0.1130116E+00
         25   -1    0    0    0    0  0.00000000000E+00  0.00000000000E+00  0.99999998245E-14  0.12500000000E+03  0.12500000000E+03 0.  0.
        -11    1    1    0    0    0 -0.86481137305E+00 -0.36399747148E+02 -0.34168979475E+02  0.49932040312E+02  0.51100000000E-03 0. -1.
         11    1    1    0    0    0 -0.15000149598E+00 -0.91296178105E+01 -0.86361997502E+01  0.12568069390E+02  0.51100000000E-03 0.  1.
         22    1    1    0    0    0  0.10148128690E+01  0.45529364958E+02  0.42805179225E+02  0.62499890297E+02  0.00000000000E+00 0. -1.
</event>
<event>
 4    1  0.1977788E-002  0.9118800E+02  0.7818608E-02  0.1130116E+00
         25   -1    0    0    0    0  0.00000000000E+00  0.00000000000E+00  0.99999998245E-14  0.12500000000E+03  0.12500000000E+03 0.  0.
        -11    1    1    0    0    0  0.75158896411E+01  0.69294705285E+01 -0.43598530839E+01  0.11113706766E+02  0.51100000000E-03 0. -1.
         11    1    1    0    0    0 -0.24289157444E+02  0.47905919320E+02  0.14543251028E+02  0.55645722441E+02  0.51100000000E-03 0.  1.
         22    1    1    0    0    0  0.16773267803E+02 -0.54835389849E+02 -0.10183397944E+02  0.58240570793E+02  0.00000000000E+00 0.  1.
</event>
<event>
 4    1  0.1977788E-002  0.9118800E+02  0.7818608E-02  0.1130116E+00
         25   -1    0    0    0    0  0.00000000000E+00  0.00000000000E+00  0.99999998245E-14  0.12500000000E+03  0.12500000000E+03 0.  0.
        -11    1    1    0    0    0  0.18980569904E+02  0.24794962059E+02 -0.12890976023E+02  0.33782087568E+02  0.51100000000E-03 0.  1.
         11    1    1    0    0    0  0.16145357365E+02  0.20972095062E+02 -0.11145837822E+02  0.28718130802E+02  0.51100000000E-03 0. -1.
         22    1    1    0    0    0 -0.35125927269E+02 -0.45767057121E+02  0.24036813844E+02  0.62499781630E+02  0.00000000000E+00 0.  1.
</event>
<event>
 4    1  0.1977788E-002  0.9118800E+02  0.7818608E-02  0.1130116E+00
         25   -1    0    0    0    0  0.00000000000E+00  0.00000000000E+00  0.99999998245E-14  0.12500000000E+03  0.12500000000E+03 0.  0.
        -11    1    1    0    0    0  0.32804428012E+02  0.24106614572E+02 -0.76627926919E+01  0.41424361859E+02  0.51100000000E-03 0.  1.
         11    1    1    0    0    0  0.16689792442E+02  0.12265242070E+02 -0.38983571299E+01  0.21075638148E+02  0.51100000000E-03 0. -1.
         22    1    1    0    0    0 -0.49494220453E+02 -0.36371856642E+02  0.11561149822E+02  0.62499999993E+02  0.00000000000E+00 0. -1.
</event>
<event>
 4    1  0.1977788E-002  0.9118800E+02  0.7818608E-02  0.1130116E+00
         25   -1    0    0    0    0  0.00000000000E+00  0.00000000000E+00  0.99999998245E-14  0.12500000000E+03  0.12500000000E+03 0.  0.
        -11    1    1    0    0    0  0.38423153534E+01  0.61565664823E+01 -0.32026318035E+01  0.79324365018E+01  0.51100000000E-03 0. -1.
         11    1    1    0    0    0  0.26427123418E+02  0.42353038300E+02 -0.22032845552E+02  0.54567563522E+02  0.51100000000E-03 0. -1.
         22    1    1    0    0    0 -0.30269438772E+02 -0.48509604782E+02  0.25235477355E+02  0.62499999976E+02  0.00000000000E+00 0. -1.
</event>
<event>
 4    1  0.1977788E-002  0.9118800E+02  0.7818608E-02  0.1130116E+00
         25   -1    0    0    0    0  0.00000000000E+00  0.00000000000E+00  0.99999998245E-14  0.12500000000E+03  0.12500000000E+03 0.  0.
        -11    1    1    0    0    0  0.10510688298E+02 -0.26673746051E+01 -0.76738567659E+01  0.13284484699E+02  0.51100000000E-03 0. -1.
         11    1    1    0    0    0  0.38937357107E+02 -0.98779402458E+01 -0.28433703040E+02  0.49215515347E+02  0.51100000000E-03 0. -1.
         22    1    1    0    0    0 -0.49448045406E+02  0.12545314851E+02  0.36107559806E+02  0.62499999954E+02  0.00000000000E+00 0. -1.
</event>
<event>
 4    1  0.1977788E-002  0.9118800E+02  0.7818608E-02  0.1130116E+00
         25   -1    0    0    0    0  0.00000000000E+00  0.00000000000E+00  0.99999998245E-14  0.12500000000E+03  0.12500000000E+03 0.  0.
        -11    1    1    0    0    0  0.73294586627E+01 -0.14041949779E+02  0.11188275682E+02  0.19392648888E+02  0.51100000000E-03 0. -1.
         11    1    1    0    0    0  0.16292050555E+02 -0.31213471081E+02  0.24870304218E+02  0.43107351117E+02  0.51100000000E-03 0. -1.
         22    1    1    0    0    0 -0.23621509218E+02  0.45255420860E+02 -0.36058579899E+02  0.62499999995E+02  0.00000000000E+00 0. -1.
</event>
<event>
 4    1  0.1977788E-002  0.9118800E+02  0.7818608E-02  0.1130116E+00
         25   -1    0    0    0    0  0.00000000000E+00  0.00000000000E+00  0.99999998245E-14  0.12500000000E+03  0.12500000000E+03 0.  0.
        -11    1    1    0    0    0  0.35567795045E+02  0.19301150269E+01  0.29265368255E+01  0.35740145585E+02  0.51100000000E-03 0. -1.
         11    1    1    0    0    0  0.26631385234E+02  0.14620243556E+01  0.21729680614E+01  0.26759857719E+02  0.51100000000E-03 0.  1.
         22    1    1    0    0    0 -0.62199180279E+02 -0.33921393825E+01 -0.50995048869E+01  0.62499996696E+02  0.00000000000E+00 0.  1.
</event>
<event>
 4    1  0.1977788E-002  0.9118800E+02  0.7818608E-02  0.1130116E+00
         25   -1    0    0    0    0  0.00000000000E+00  0.00000000000E+00  0.99999998245E-14  0.12500000000E+03  0.12500000000E+03 0.  0.
        -11    1    1    0    0    0 -0.14313416183E+01 -0.44600987990E+01 -0.34759674324E+00  0.46970250034E+01  0.51100000000E-03 0. -1.
         11    1    1    0    0    0 -0.15643512657E+02 -0.55508941973E+02 -0.39226303604E+01  0.57804404300E+02  0.51100000000E-03 0.  1.
         22    1    1    0    0    0  0.17074854275E+02  0.59969040772E+02  0.42702271036E+01  0.62498570697E+02  0.00000000000E+00 0.  1.
</event>
<event>
 4    1  0.1977788E-002  0.9118800E+02  0.7818608E-02  0.1130116E+00
         25   -1    0    0    0    0  0.00000000000E+00  0.00000000000E+00  0.99999998245E-14  0.12500000000E+03  0.12500000000E+03 0.  0.
        -11    1    1    0    0    0 -0.69866146666E+01 -0.29657344089E+02  0.22365748084E+02  0.37796792596E+02  0.51100000000E-03 0. -1.
         11    1    1    0    0    0 -0.45777707051E+01 -0.19383738663E+02  0.14613801401E+02  0.24703208310E+02  0.51100000000E-03 0.  1.
         22    1    1    0    0    0  0.11564385372E+02  0.49041082752E+02 -0.36979549485E+02  0.62499999093E+02  0.00000000000E+00 0.  1.
</event>
<event>
 4    1  0.1977788E-002  0.9118800E+02  0.7818608E-02  0.1130116E+00
         25   -1    0    0    0    0  0.00000000000E+00  0.00000000000E+00  0.99999998245E-14  0.12500000000E+03  0.12500000000E+03 0.  0.
        -11    1    1    0    0    0  0.23950316876E+01  0.35160189689E+01 -0.33260315602E+01  0.54000974412E+01  0.51100000000E-03 0. -1.
         11    1    1    0    0    0 -0.81608706521E+01  0.14991554700E+02  0.58594740759E+02  0.61030239775E+02  0.51100000000E-03 0.  1.
         22    1    1    0    0    0  0.57658389645E+01 -0.18507573669E+02 -0.55268709199E+02  0.58569662784E+02  0.00000000000E+00 0.  1.
</event>
<event>
 4    1  0.1977788E-002  0.9118800E+02  0.7818608E-02  0.1130116E+00
         25   -1    0    0    0    0  0.00000000000E+00  0.00000000000E+00  0.99999998245E-14  0.12500000000E+03  0.12500000000E+03 0.  0.
        -11    1    1    0    0    0 -0.12477810133E+02 -0.16665150198E+01 -0.91193109132E+01  0.15544608384E+02  0.51100000000E-03 0. -1.
         11    1    1    0    0    0 -0.36974415439E+02  0.10490973353E+02 -0.27527578047E+02  0.47275104150E+02  0.51100000000E-03 0.  1.
         22    1    1    0    0    0  0.49452225572E+02 -0.88244583337E+01  0.36646888960E+02  0.62180287466E+02  0.00000000000E+00 0.  1.
</event>
<event>
 4    1  0.1977788E-002  0.9118800E+02  0.7818608E-02  0.1130116E+00
         25   -1    0    0    0    0  0.00000000000E+00  0.00000000000E+00  0.99999998245E-14  0.12500000000E+03  0.12500000000E+03 0.  0.
        -11    1    1    0    0    0 -0.50027371236E+00  0.13111701223E+00  0.10322423780E+01  0.11545518812E+01  0.51100000000E-03 0. -1.
         11    1    1    0    0    0 -0.38209939856E+02  0.22975464343E+02 -0.43225081924E+02  0.62098946635E+02  0.51100000000E-03 0.  1.
         22    1    1    0    0    0  0.38710213569E+02 -0.23106581355E+02  0.42192839546E+02  0.61746501483E+02  0.00000000000E+00 0.  1.
</event>
<event>
 4    1  0.1977788E-002  0.9118800E+02  0.7818608E-02  0.1130116E+00
         25   -1    0    0    0    0  0.00000000000E+00  0.00000000000E+00  0.99999998245E-14  0.12500000000E+03  0.12500000000E+03 0.  0.
        -11    1    1    0    0    0  0.16589958048E+02  0.19268854201E+02  0.43483431198E+02  0.50371859597E+02  0.51100000000E-03 0. -1.
         11    1    1    0    0    0  0.38166415662E+01  0.45801714700E+01  0.10562418526E+02  0.12128866762E+02  0.51100000000E-03 0.  1.
         22    1    1    0    0    0 -0.20406599614E+02 -0.23849025671E+02 -0.54045849724E+02  0.62499273641E+02  0.00000000000E+00 0. -1.
</event>
<event>
 4    1  0.1977788E-002  0.9118800E+02  0.7818608E-02  0.1130116E+00
         25   -1    0    0    0    0  0.00000000000E+00  0.00000000000E+00  0.99999998245E-14  0.12500000000E+03  0.12500000000E+03 0.  0.
        -11    1    1    0    0    0 -0.81794560517E+01  0.50443782124E+02 -0.17421614575E+02  0.53990659479E+02  0.51100000000E-03 0.  1.
         11    1    1    0    0    0 -0.13246470103E+01  0.79550288482E+01 -0.27152639810E+01  0.85093967133E+01  0.51100000000E-03 0. -1.
         22    1    1    0    0    0  0.95041030620E+01 -0.58398810972E+02  0.20136878557E+02  0.62499943808E+02  0.00000000000E+00 0.  1.
</event>
<event>
 4    1  0.1977788E-002  0.9118800E+02  0.7818608E-02  0.1130116E+00
         25   -1    0    0    0    0  0.00000000000E+00  0.00000000000E+00  0.99999998245E-14  0.12500000000E+03  0.12500000000E+03 0.  0.
        -11    1    1    0    0    0 -0.14889135415E+02 -0.18460035232E+02 -0.74787216084E+01  0.24867459286E+02  0.51100000000E-03 0. -1.
         11    1    1    0    0    0 -0.22522818524E+02 -0.27956813962E+02 -0.11284841064E+02  0.37632544948E+02  0.51100000000E-03 0.  1.
         22    1    1    0    0    0  0.37411953939E+02  0.46416849194E+02  0.18763562672E+02  0.62499995766E+02  0.00000000000E+00 0. -1.
</event>
<event>
 4    1  0.1977788E-002  0.9118800E+02  0.7818608E-02  0.1130116E+00
         25   -1    0    0    0    0  0.00000000000E+00  0.00000000000E+00  0.99999998245E-14  0.12500000000E+03  0.12500000000E+03 0.  0.
        -11    1    1    0    0    0  0.10349852439E+01 -0.31366295570E+01 -0.50633554738E+00  0.33415588249E+01  0.51100000000E-03 0.  1.
         11    1    1    0    0    0  0.19657176045E+02 -0.54997129444E+02 -0.94176971287E+01  0.59158953985E+02  0.51100000000E-03 0. -1.
         22    1    1    0    0    0 -0.20692161289E+02  0.58133759001E+02  0.99240326760E+01  0.62499487190E+02  0.00000000000E+00 0. -1.
</event>
<event>
 4    1  0.1977788E-002  0.9118800E+02  0.7818608E-02  0.1130116E+00
         25   -1    0    0    0    0  0.00000000000E+00  0.00000000000E+00  0.99999998245E-14  0.12500000000E+03  0.12500000000E+03 0.  0.
        -11    1    1    0    0    0  0.38832767727E+02 -0.37099207503E+02  0.57518395595E+01  0.54013134562E+02  0.51100000000E-03 0.  1.
         11    1    1    0    0    0  0.61645833924E+01 -0.57998873133E+01  0.64572537131E+00  0.84886832174E+01  0.51100000000E-03 0. -1.
         22    1    1    0    0    0 -0.44997351119E+02  0.42899094816E+02 -0.63975649309E+01  0.62498182220E+02  0.00000000000E+00 0.  1.
</event>
<event>
 4    1  0.1977788E-002  0.9118800E+02  0.7818608E-02  0.1130116E+00
         25   -1    0    0    0    0  0.00000000000E+00  0.00000000000E+00  0.99999998245E-14  0.12500000000E+03  0.12500000000E+03 0.  0.
        -11    1    1    0    0    0  0.30333428471E+01  0.26134844183E+01  0.39386957664E+02  0.39589947005E+02  0.51100000000E-03 0.  1.
         11    1    1    0    0    0  0.18747278791E+01  0.13054133777E+01  0.22796269532E+02  0.22910447694E+02  0.51100000000E-03 0. -1.
         22    1    1    0    0    0 -0.49080707262E+01 -0.39188977960E+01 -0.62183227196E+02  0.62499605300E+02  0.00000000000E+00 0.  1.
</event>
<event>
 4    1  0.1977788E-002  0.9118800E+02  0.7818608E-02  0.1130116E+00
         25   -1    0    0    0    0  0.00000000000E+00  0.00000000000E+00  0.99999998245E-14  0.12500000000E+03  0.12500000000E+03 0.  0.
        -11    1    1    0    0    0  0.33967613505E+00  0.24939704031E+00  0.34095016982E+00  0.54205722932E+00  0.51100000000E-03 0. -1.
         11    1    1    0    0    0  0.39415768143E+02  0.43264592100E+02  0.20391232579E+02  0.61977657863E+02  0.51100000000E-03 0.  1.
         22    1    1    0    0    0 -0.39755444278E+02 -0.43513989140E+02 -0.20732182749E+02  0.62480284908E+02  0.00000000000E+00 0.  1.
</event>
<event>
 4    1  0.1977788E-002  0.9118800E+02  0.7818608E-02  0.1130116E+00
         25   -1    0    0    0    0  0.00000000000E+00  0.00000000000E+00  0.99999998245E-14  0.12500000000E+03  0.12500000000E+03 0.  0.
        -11    1    1    0    0    0 -0.33439536426E+02  0.21011803079E+00  0.27814176949E+02  0.43495691575E+02  0.51100000000E-03 0. -1.
         11    1    1    0    0    0 -0.14645635609E+02  0.85382720678E-01  0.12110444658E+02  0.19004336418E+02  0.51100000000E-03 0.  1.
         22    1    1    0    0    0  0.48085172035E+02 -0.29550075147E+00 -0.39924621608E+02  0.62499972007E+02  0.00000000000E+00 0. -1.
</event>
<event>
 4    1  0.1977788E-002  0.9118800E+02  0.7818608E-02  0.1130116E+00
         25   -1    0    0    0    0  0.00000000000E+00  0.00000000000E+00  0.99999998245E-14  0.12500000000E+03  0.12500000000E+03 0.  0.
        -11    1    1    0    0    0 -0.39961954525E+02  0.10629750066E+02  0.37861817919E+02  0.56066626903E+02  0.51100000000E-03 0.  1.
         11    1    1    0    0    0 -0.23458125285E+00  0.11626585137E+02 -0.85352876255E+01  0.14425104694E+02  0.51100000000E-03 0. -1.
         22    1    1    0    0    0  0.40196535778E+02 -0.22256335203E+02 -0.29326530294E+02  0.54508268403E+02  0.00000000000E+00 0.  1.
</event>
<event>
 4    1  0.1977788E-002  0.9118800E+02  0.7818608E-02  0.1130116E+00
         25   -1    0    0    0    0  0.00000000000E+00  0.00000000000E+00  0.99999998245E-14  0.12500000000E+03  0.12500000000E+03 0.  0.
        -11    1    1    0    0    0 -0.40301377382E+01 -0.84368314796E+01 -0.16793019382E+01  0.94995889840E+01  0.51100000000E-03 0.  1.
         11    1    1    0    0    0 -0.17541173017E+01 -0.33409956904E+02  0.44284789137E+02  0.55501753999E+02  0.51100000000E-03 0. -1.
         22    1    1    0    0    0  0.57842550399E+01  0.41846788384E+02 -0.42605487198E+02  0.59998657017E+02  0.00000000000E+00 0. -1.
</event>
<event>
 4    1  0.1977788E-002  0.9118800E+02  0.7818608E-02  0.1130116E+00
         25   -1    0    0    0    0  0.00000000000E+00  0.00000000000E+00  0.99999998245E-14  0.12500000000E+03  0.12500000000E+03 0.  0.
        -11    1    1    0    0    0 -0.45488564036E+02  0.18560050339E+02 -0.32551354122E+02  0.58934502476E+02  0.51100000000E-03 0. -1.
         11    1    1    0    0    0 -0.28291020552E+01  0.10394669041E+01 -0.19069294290E+01  0.35666076308E+01  0.51100000000E-03 0.  1.
         22    1    1    0    0    0  0.48317666091E+02 -0.19599517243E+02  0.34458283551E+02  0.62498889894E+02  0.00000000000E+00 0. -1.
</event>
<event>
 4    1  0.1977788E-002  0.9118800E+02  0.7818608E-02  0.1130116E+00
         25   -1    0    0    0    0  0.00000000000E+00  0.00000000000E+00  0.99999998245E-14  0.12500000000E+03  0.12500000000E+03 0.  0.
        -11    1    1    0    0    0 -0.43092100873E+01  0.75956410846E+01 -0.44941253740E+01  0.98214163032E+01  0.51100000000E-03 0. -1.
         11    1    1    0    0    0 -0.24070529736E+02  0.39761972720E+02 -0.24795423100E+02  0.52680336781E+02  0.51100000000E-03 0.  1.
         22    1    1    0    0    0  0.28379739823E+02 -0.47357613805E+02  0.29289548474E+02  0.62498246916E+02  0.00000000000E+00 0. -1.
</event>
<event>
 4    1  0.1977788E-002  0.9118800E+02  0.7818608E-02  0.1130116E+00
         25   -1    0    0    0    0  0.00000000000E+00  0.00000000000E+00  0.99999998245E-14  0.12500000000E+03  0.12500000000E+03 0.  0.
        -11    1    1    0    0    0  0.32174963502E+01 -0.22353108234E+02 -0.10529340802E+02  0.24917478775E+02  0.51100000000E-03 0. -1.
         11    1    1    0    0    0 -0.39866302461E+02 -0.19023677545E+02  0.66818077855E+01  0.44675148962E+02  0.51100000000E-03 0.  1.
         22    1    1    0    0    0  0.36648806110E+02  0.41376785780E+02  0.38475330166E+01  0.55407372263E+02  0.00000000000E+00 0.  1.
</event>
<event>
 4    1  0.1977788E-002  0.9118800E+02  0.7818608E-02  0.1130116E+00
         25   -1    0    0    0    0  0.00000000000E+00  0.00000000000E+00  0.99999998245E-14  0.12500000000E+03  0.12500000000E+03 0.  0.
        -11    1    1    0    0    0  0.22842093445E+02  0.21176416268E+02  0.33360085564E+01  0.31326199774E+02  0.51100000000E-03 0.  1.
         11    1    1    0    0    0  0.22761984490E+02  0.21041482051E+02  0.33097488127E+01  0.31173808595E+02  0.51100000000E-03 0. -1.
         22    1    1    0    0    0 -0.45604077935E+02 -0.42217898320E+02 -0.66457573692E+01  0.62499991631E+02  0.00000000000E+00 0. -1.
</event>
<event>
 4    1  0.1977788E-002  0.9118800E+02  0.7818608E-02  0.1130116E+00
         25   -1    0    0    0    0  0.00000000000E+00  0.00000000000E+00  0.99999998245E-14  0.12500000000E+03  0.12500000000E+03 0.  0.
        -11    1    1    0    0    0  0.45725316167E+02  0.28373052119E+02 -0.12995269033E+01  0.53828648465E+02  0.51100000000E-03 0. -1.
         11    1    1    0    0    0  0.74590655768E+01  0.44113978492E+01 -0.34115245506E+00  0.86726279478E+01  0.51100000000E-03 0.  1.
         22    1    1    0    0    0 -0.53184381744E+02 -0.32784449968E+02  0.16406793583E+01  0.62498723587E+02  0.00000000000E+00 0. -1.
</event>
<event>
 4    1  0.1977788E-002  0.9118800E+02  0.7818608E-02  0.1130116E+00
         25   -1    0    0    0    0  0.00000000000E+00  0.00000000000E+00  0.99999998245E-14  0.12500000000E+03  0.12500000000E+03 0.  0.
        -11    1    1    0    0    0  0.16860066860E+02 -0.43016386922E+02  0.18379710083E+02  0.49724090151E+02  0.51100000000E-03 0.  1.
         11    1    1    0    0    0  0.43401769256E+01 -0.11047849613E+02  0.47256528720E+01  0.12775911401E+02  0.51100000000E-03 0. -1.
         22    1    1    0    0    0 -0.21200243786E+02  0.54064236535E+02 -0.23105362955E+02  0.62499998447E+02  0.00000000000E+00 0.  1.
</event>
<event>
 4    1  0.1977788E-002  0.9118800E+02  0.7818608E-02  0.1130116E+00
         25   -1    0    0    0    0  0.00000000000E+00  0.00000000000E+00  0.99999998245E-14  0.12500000000E+03  0.12500000000E+03 0.  0.
        -11    1    1    0    0    0 -0.20330770754E+02 -0.56890770431E+01  0.99298116234E+01  0.23330387828E+02  0.51100000000E-03 0.  1.
         11    1    1    0    0    0 -0.34135585296E+02 -0.95411435325E+01  0.16672940218E+02  0.39169612446E+02  0.51100000000E-03 0. -1.
         22    1    1    0    0    0  0.54466356051E+02  0.15230220576E+02 -0.26602751841E+02  0.62499999726E+02  0.00000000000E+00 0. -1.
</event>
<event>
 4    1  0.1977788E-002  0.9118800E+02  0.7818608E-02  0.1130116E+00
         25   -1    0    0    0    0  0.00000000000E+00  0.00000000000E+00  0.99999998245E-14  0.12500000000E+03  0.12500000000E+03 0.  0.
        -11    1    1    0    0    0 -0.10427205071E+02 -0.16494089713E+01 -0.24892019667E+02  0.27038117518E+02  0.51100000000E-03 0.  1.
         11    1    1    0    0    0 -0.13680160844E+02 -0.21641332668E+01 -0.32645288185E+02  0.35461882557E+02  0.51100000000E-03 0.  1.
         22    1    1    0    0    0  0.24107365915E+02  0.38135422382E+01  0.57537307852E+02  0.62499999925E+02  0.00000000000E+00 0.  1.
</event>
<event>
 4    1  0.1977788E-002  0.9118800E+02  0.7818608E-02  0.1130116E+00
         25   -1    0    0    0    0  0.00000000000E+00  0.00000000000E+00  0.99999998245E-14  0.12500000000E+03  0.12500000000E+03 0.  0.
        -11    1    1    0    0    0 -0.36758197271E+02 -0.99920853024E+01 -0.67189156959E+01  0.38680106821E+02  0.51100000000E-03 0. -1.
         11    1    1    0    0    0 -0.22630683483E+02 -0.61631763415E+01 -0.41538964237E+01  0.23819895744E+02  0.51100000000E-03 0.  1.
         22    1    1    0    0    0  0.59388880754E+02  0.16155261644E+02  0.10872812120E+02  0.62499997435E+02  0.00000000000E+00 0.  1.
</event>
<event>
 4    1  0.1977788E-002  0.9118800E+02  0.7818608E-02  0.1130116E+00
         25   -1    0    0    0    0  0.00000000000E+00  0.00000000000E+00  0.99999998245E-14  0.12500000000E+03  0.12500000000E+03 0.  0.
        -11    1    1    0    0    0  0.37201989700E+02  0.14288355280E+02 -0.70468929517E+01  0.40469789162E+02  0.51100000000E-03 0. -1.
         11    1    1    0    0    0  0.20251143452E+02  0.77693952333E+01 -0.38546091495E+01  0.22030213920E+02  0.51100000000E-03 0.  1.
         22    1    1    0    0    0 -0.57453133152E+02 -0.22057750513E+02  0.10901502101E+02  0.62499996918E+02  0.00000000000E+00 0.  1.
</event>
<event>
 4    1  0.1977788E-002  0.9118800E+02  0.7818608E-02  0.1130116E+00
         25   -1    0    0    0    0  0.00000000000E+00  0.00000000000E+00  0.99999998245E-14  0.12500000000E+03  0.12500000000E+03 0.  0.
        -11    1    1    0    0    0  0.58367432200E+02  0.93093942023E+01  0.18943231666E+02  0.62066641510E+02  0.51100000000E-03 0.  1.
         11    1    1    0    0    0  0.42872686990E+00  0.29316220261E-01  0.74980553116E-01  0.43622071731E+00  0.51100000000E-03 0. -1.
         22    1    1    0    0    0 -0.58796159070E+02 -0.93387104226E+01 -0.19018212219E+02  0.62497137773E+02  0.00000000000E+00 0.  1.
</event>
<event>
 4    1  0.1977788E-002  0.9118800E+02  0.7818608E-02  0.1130116E+00
         25   -1    0    0    0    0  0.00000000000E+00  0.00000000000E+00  0.99999998245E-14  0.12500000000E+03  0.12500000000E+03 0.  0.
        -11    1    1    0    0    0 -0.25046781421E+02 -0.18488607436E+02 -0.11009778990E+02  0.33020979666E+02  0.51100000000E-03 0.  1.
         11    1    1    0    0    0 -0.22360321818E+02 -0.16505935038E+02 -0.98276526690E+01  0.29479020345E+02  0.51100000000E-03 0. -1.
         22    1    1    0    0    0  0.47407103239E+02  0.34994542473E+02  0.20837431659E+02  0.62499999988E+02  0.00000000000E+00 0.  1.
</event>
<event>
 4    1  0.1977788E-002  0.9118800E+02  0.7818608E-02  0.1130116E+00
         25   -1    0    0    0    0  0.00000000000E+00  0.00000000000E+00  0.99999998245E-14  0.12500000000E+03  0.12500000000E+03 0.  0.
        -11    1    1    0    0    0 -0.33782200094E+01 -0.42478816394E+01  0.72428007804E+01  0.90506923636E+01  0.51100000000E-03 0. -1.
         11    1    1    0    0    0 -0.19972231923E+02 -0.25046023476E+02  0.42785924219E+02  0.53449309177E+02  0.51100000000E-03 0.  1.
         22    1    1    0    0    0  0.23350451933E+02  0.29293905116E+02 -0.50028724999E+02  0.62499998459E+02  0.00000000000E+00 0.  1.
</event>
<event>
 4    1  0.1977788E-002  0.9118800E+02  0.7818608E-02  0.1130116E+00
         25   -1    0    0    0    0  0.00000000000E+00  0.00000000000E+00  0.99999998245E-14  0.12500000000E+03  0.12500000000E+03 0.  0.
        -11    1    1    0    0    0 -0.33069470399E+02  0.38969107249E+02 -0.79912823314E+01  0.51730472507E+02  0.51100000000E-03 0.  1.
         11    1    1    0    0    0 -0.68805094711E+01  0.81179099092E+01 -0.16555649438E+01  0.10769529582E+02  0.51100000000E-03 0. -1.
         22    1    1    0    0    0  0.39949979870E+02 -0.47087017158E+02  0.96468472752E+01  0.62499997911E+02  0.00000000000E+00 0.  1.
</event>
<event>
 4    1  0.1977788E-002  0.9118800E+02  0.7818608E-02  0.1130116E+00
         25   -1    0    0    0    0  0.00000000000E+00  0.00000000000E+00  0.99999998245E-14  0.12500000000E+03  0.12500000000E+03 0.  0.
        -11    1    1    0    0    0  0.19882477117E+02 -0.58202715470E+01 -0.49525499111E+02  0.53683922357E+02  0.51100000000E-03 0. -1.
         11    1    1    0    0    0  0.34890788389E+01 -0.10222023545E+01 -0.80332048306E+01  0.88176498518E+01  0.51100000000E-03 0.  1.
         22    1    1    0    0    0 -0.23371555956E+02  0.68424739015E+01  0.57558703942E+02  0.62498427791E+02  0.00000000000E+00 0. -1.
</event>
<event>
 4    1  0.1977788E-002  0.9118800E+02  0.7818608E-02  0.1130116E+00
         25   -1    0    0    0    0  0.00000000000E+00  0.00000000000E+00  0.99999998245E-14  0.12500000000E+03  0.12500000000E+03 0.  0.
        -11    1    1    0    0    0 -0.16306568922E+01  0.37614172696E+01 -0.11684713012E+01  0.42629364550E+01  0.51100000000E-03 0. -1.
         11    1    1    0    0    0 -0.22236449550E+02  0.51396976734E+02 -0.15982701257E+02  0.58237064192E+02  0.51100000000E-03 0.  1.
         22    1    1    0    0    0  0.23867106442E+02 -0.55158394004E+02  0.17151172558E+02  0.62499999353E+02  0.00000000000E+00 0.  1.
</event>
<event>
 4    1  0.1977788E-002  0.9118800E+02  0.7818608E-02  0.1130116E+00
         25   -1    0    0    0    0  0.00000000000E+00  0.00000000000E+00  0.99999998245E-14  0.12500000000E+03  0.12500000000E+03 0.  0.
        -11    1    1    0    0    0 -0.12852401743E+02  0.65129500956E+01 -0.56082429309E+02  0.57903727229E+02  0.51100000000E-03 0.  1.
         11    1    1    0    0    0 -0.11703721387E+01  0.48642538106E+00 -0.44193560513E+01  0.45975089737E+01  0.51100000000E-03 0. -1.
         22    1    1    0    0    0  0.14022773882E+02 -0.69993754767E+01  0.60501785360E+02  0.62498763797E+02  0.00000000000E+00 0.  1.
</event>
<event>
 4    1  0.1977788E-002  0.9118800E+02  0.7818608E-02  0.1130116E+00
         25   -1    0    0    0    0  0.00000000000E+00  0.00000000000E+00  0.99999998245E-14  0.12500000000E+03  0.12500000000E+03 0.  0.
        -11    1    1    0    0    0  0.76855053709E-01 -0.54131301650E+00  0.52255835282E+00  0.75630283243E+00  0.51100000000E-03 0. -1.
         11    1    1    0    0    0  0.61559442794E+01 -0.44220719930E+02  0.42648757544E+02  0.61743697989E+02  0.51100000000E-03 0.  1.
         22    1    1    0    0    0 -0.62327993331E+01  0.44762032947E+02 -0.43171315896E+02  0.62499999178E+02  0.00000000000E+00 0.  1.
</event>
<event>
 4    1  0.1977788E-002  0.9118800E+02  0.7818608E-02  0.1130116E+00
         25   -1    0    0    0    0  0.00000000000E+00  0.00000000000E+00  0.99999998245E-14  0.12500000000E+03  0.12500000000E+03 0.  0.
        -11    1    1    0    0    0  0.11247766402E+02 -0.19378261606E+01 -0.29279739379E+02  0.31425635358E+02  0.51100000000E-03 0. -1.
         11    1    1    0    0    0  0.11123027343E+02 -0.18421969025E+01 -0.28956900593E+02  0.31074386863E+02  0.51100000000E-03 0.  1.
         22    1    1    0    0    0 -0.22370793745E+02  0.37800230632E+01  0.58236639972E+02  0.62499977779E+02  0.00000000000E+00 0.  1.
</event>
<event>
 4    1  0.1977788E-002  0.9118800E+02  0.7818608E-02  0.1130116E+00
         25   -1    0    0    0    0  0.00000000000E+00  0.00000000000E+00  0.99999998245E-14  0.12500000000E+03  0.12500000000E+03 0.  0.
        -11    1    1    0    0    0  0.11267847741E+02  0.66386311683E+01 -0.76164575615E+01  0.15134273770E+02  0.51100000000E-03 0.  1.
         11    1    1    0    0    0  0.35265374531E+02  0.20776511504E+02 -0.23836987027E+02  0.47365726236E+02  0.51100000000E-03 0.  1.
         22    1    1    0    0    0 -0.46533222272E+02 -0.27415142672E+02  0.31453444589E+02  0.62499999994E+02  0.00000000000E+00 0.  1.
</event>
<event>
 4    1  0.1977788E-002  0.9118800E+02  0.7818608E-02  0.1130116E+00
         25   -1    0    0    0    0  0.00000000000E+00  0.00000000000E+00  0.99999998245E-14  0.12500000000E+03  0.12500000000E+03 0.  0.
        -11    1    1    0    0    0  0.29393036032E+01 -0.27154655578E+01 -0.11124770143E+02  0.11822595733E+02  0.51100000000E-03 0.  1.
         11    1    1    0    0    0  0.12072161330E+02 -0.11637771004E+02 -0.47823138389E+02  0.50677681071E+02  0.51100000000E-03 0. -1.
         22    1    1    0    0    0 -0.15011464933E+02  0.14353236562E+02  0.58947908532E+02  0.62499723196E+02  0.00000000000E+00 0. -1.
</event>
<event>
 4    1  0.1977788E-002  0.9118800E+02  0.7818608E-02  0.1130116E+00
         25   -1    0    0    0    0  0.00000000000E+00  0.00000000000E+00  0.99999998245E-14  0.12500000000E+03  0.12500000000E+03 0.  0.
        -11    1    1    0    0    0 -0.81002490112E+01  0.28783012173E+02  0.35956511085E+01  0.30116515916E+02  0.51100000000E-03 0.  1.
         11    1    1    0    0    0 -0.87257915991E+01  0.30936548140E+02  0.39346943508E+01  0.32383503049E+02  0.51100000000E-03 0. -1.
         22    1    1    0    0    0  0.16826040610E+02 -0.59719560313E+02 -0.75303454592E+01  0.62499981034E+02  0.00000000000E+00 0.  1.
</event>
<event>
 4    1  0.1977788E-002  0.9118800E+02  0.7818608E-02  0.1130116E+00
         25   -1    0    0    0    0  0.00000000000E+00  0.00000000000E+00  0.99999998245E-14  0.12500000000E+03  0.12500000000E+03 0.  0.
        -11    1    1    0    0    0 -0.12252325053E+02  0.15749472271E+02  0.38106640588E+01  0.20314686974E+02  0.51100000000E-03 0. -1.
         11    1    1    0    0    0 -0.25469816008E+02  0.32672303006E+02  0.79630660315E+01  0.42185321287E+02  0.51100000000E-03 0.  1.
         22    1    1    0    0    0  0.37722141061E+02 -0.48421775277E+02 -0.11773730090E+02  0.62499991739E+02  0.00000000000E+00 0. -1.
</event>
<event>
 4    1  0.1977788E-002  0.9118800E+02  0.7818608E-02  0.1130116E+00
         25   -1    0    0    0    0  0.00000000000E+00  0.00000000000E+00  0.99999998245E-14  0.12500000000E+03  0.12500000000E+03 0.  0.
        -11    1    1    0    0    0  0.41609692161E+01  0.12513838126E+02  0.24936237712E+00  0.13189844249E+02  0.51100000000E-03 0. -1.
         11    1    1    0    0    0  0.15167505189E+02  0.46912375430E+02  0.82830718718E+00  0.49310346534E+02  0.51100000000E-03 0.  1.
         22    1    1    0    0    0 -0.19328474406E+02 -0.59426213556E+02 -0.10776695643E+01  0.62499809217E+02  0.00000000000E+00 0. -1.
</event>
<event>
 4    1  0.1977788E-002  0.9118800E+02  0.7818608E-02  0.1130116E+00
         25   -1    0    0    0    0  0.00000000000E+00  0.00000000000E+00  0.99999998245E-14  0.12500000000E+03  0.12500000000E+03 0.  0.
        -11    1    1    0    0    0  0.26908159805E+02 -0.26032569434E+02  0.48942087197E+02  0.61620383274E+02  0.51100000000E-03 0.  1.
         11    1    1    0    0    0 -0.17300362779E+01  0.36329253015E+01 -0.81782921100E-01  0.40246565663E+01  0.51100000000E-03 0. -1.
         22    1    1    0    0    0 -0.25178123527E+02  0.22399644133E+02 -0.48860304276E+02  0.59354960159E+02  0.00000000000E+00 0.  1.
</event>
<event>
 4    1  0.1977788E-002  0.9118800E+02  0.7818608E-02  0.1130116E+00
         25   -1    0    0    0    0  0.00000000000E+00  0.00000000000E+00  0.99999998245E-14  0.12500000000E+03  0.12500000000E+03 0.  0.
        -11    1    1    0    0    0 -0.44037664918E+01 -0.51106973765E+02 -0.27524028306E+02  0.58214156880E+02  0.51100000000E-03 0. -1.
         11    1    1    0    0    0 -0.32465764655E+00 -0.37627516955E+01 -0.20260178639E+01  0.42858431557E+01  0.51100000000E-03 0. -1.
         22    1    1    0    0    0  0.47284241384E+01  0.54869725461E+02  0.29550046170E+02  0.62499999965E+02  0.00000000000E+00 0. -1.
</event>
<event>
 4    1  0.1977788E-002  0.9118800E+02  0.7818608E-02  0.1130116E+00
         25   -1    0    0    0    0  0.00000000000E+00  0.00000000000E+00  0.99999998245E-14  0.12500000000E+03  0.12500000000E+03 0.  0.
        -11    1    1    0    0    0 -0.14183968125E+02  0.83818151679E+01 -0.12575423313E+02  0.20726337087E+02  0.51100000000E-03 0. -1.
         11    1    1    0    0    0 -0.28266883462E+02  0.16891573176E+02 -0.25704774165E+02  0.41774123092E+02  0.51100000000E-03 0.  1.
         22    1    1    0    0    0  0.42450851587E+02 -0.25273388344E+02  0.38280197478E+02  0.62499539821E+02  0.00000000000E+00 0.  1.
</event>
<event>
 4    1  0.1977788E-002  0.9118800E+02  0.7818608E-02  0.1130116E+00
         25   -1    0    0    0    0  0.00000000000E+00  0.00000000000E+00  0.99999998245E-14  0.12500000000E+03  0.12500000000E+03 0.  0.
        -11    1    1    0    0    0 -0.42854529888E+02  0.22347207534E+02 -0.21633666430E+02  0.52952090988E+02  0.51100000000E-03 0. -1.
         11    1    1    0    0    0 -0.77263535397E+01  0.40292582506E+01 -0.39027051079E+01  0.95479091162E+01  0.51100000000E-03 0.  1.
         22    1    1    0    0    0  0.50580883428E+02 -0.26376465785E+02  0.25536371538E+02  0.62499999896E+02  0.00000000000E+00 0. -1.
</event>
<event>
 4    1  0.1977788E-002  0.9118800E+02  0.7818608E-02  0.1130116E+00
         25   -1    0    0    0    0  0.00000000000E+00  0.00000000000E+00  0.99999998245E-14  0.12500000000E+03  0.12500000000E+03 0.  0.
        -11    1    1    0    0    0  0.10755797518E+01  0.19160920756E+02 -0.17653658872E+02  0.26075839926E+02  0.51100000000E-03 0.  1.
         11    1    1    0    0    0  0.15206123708E+01  0.26770392772E+02 -0.24652653630E+02  0.36424161246E+02  0.51100000000E-03 0. -1.
         22    1    1    0    0    0 -0.25961921226E+01 -0.45931313528E+02  0.42306312503E+02  0.62499998828E+02  0.00000000000E+00 0. -1.
</event>
<event>
 4    1  0.1977788E-002  0.9118800E+02  0.7818608E-02  0.1130116E+00
         25   -1    0    0    0    0  0.00000000000E+00  0.00000000000E+00  0.99999998245E-14  0.12500000000E+03  0.12500000000E+03 0.  0.
        -11    1    1    0    0    0 -0.19927335250E+02  0.25064663277E+02 -0.24032412462E+02  0.40036144724E+02  0.51100000000E-03 0. -1.
         11    1    1    0    0    0 -0.11291981388E+02  0.14089335958E+02 -0.13364703640E+02  0.22464049836E+02  0.51100000000E-03 0.  1.
         22    1    1    0    0    0  0.31219316638E+02 -0.39153999235E+02  0.37397116101E+02  0.62499805440E+02  0.00000000000E+00 0. -1.
</event>
<event>
 4    1  0.1977788E-002  0.9118800E+02  0.7818608E-02  0.1130116E+00
         25   -1    0    0    0    0  0.00000000000E+00  0.00000000000E+00  0.99999998245E-14  0.12500000000E+03  0.12500000000E+03 0.  0.
        -11    1    1    0    0    0 -0.26652990973E+01  0.44023307957E+01  0.37014380640E+01  0.63391623828E+01  0.51100000000E-03 0. -1.
         11    1    1    0    0    0 -0.21655058129E+02  0.39258573275E+02  0.33824759330E+02  0.56163079172E+02  0.51100000000E-03 0.  1.
         22    1    1    0    0    0  0.24320357226E+02 -0.43660904070E+02 -0.37526197394E+02  0.62497758445E+02  0.00000000000E+00 0.  1.
</event>
<event>
 4    1  0.1977788E-002  0.9118800E+02  0.7818608E-02  0.1130116E+00
         25   -1    0    0    0    0  0.00000000000E+00  0.00000000000E+00  0.99999998245E-14  0.12500000000E+03  0.12500000000E+03 0.  0.
        -11    1    1    0    0    0  0.24525090392E+01 -0.16873702442E+01 -0.59421764184E+01  0.66461627859E+01  0.51100000000E-03 0. -1.
         11    1    1    0    0    0  0.23601808536E+02  0.44832752264E+01 -0.50611798858E+02  0.56024095770E+02  0.51100000000E-03 0.  1.
         22    1    1    0    0    0 -0.26054317575E+02 -0.27959049822E+01  0.56553975276E+02  0.62329741444E+02  0.00000000000E+00 0.  1.
</event>
<event>
 4    1  0.1977788E-002  0.9118800E+02  0.7818608E-02  0.1130116E+00
         25   -1    0    0    0    0  0.00000000000E+00  0.00000000000E+00  0.99999998245E-14  0.12500000000E+03  0.12500000000E+03 0.  0.
        -11    1    1    0    0    0  0.27135321716E+02  0.53443380086E+01 -0.43972846263E+02  0.51947077320E+02  0.51100000000E-03 0.  1.
         11    1    1    0    0    0  0.68925190885E+01  0.73155794685E+00 -0.80315196247E+01  0.10608831423E+02  0.51100000000E-03 0. -1.
         22    1    1    0    0    0 -0.34027840804E+02 -0.60758959555E+01  0.52004365888E+02  0.62444091257E+02  0.00000000000E+00 0.  1.
</event>
<event>
 4    1  0.1977788E-002  0.9118800E+02  0.7818608E-02  0.1130116E+00
         25   -1    0    0    0    0  0.00000000000E+00  0.00000000000E+00  0.99999998245E-14  0.12500000000E+03  0.12500000000E+03 0.  0.
        -11    1    1    0    0    0 -0.27559229135E+02 -0.27537439844E+02  0.62017481202E+01  0.39449757714E+02  0.51100000000E-03 0. -1.
         11    1    1    0    0    0 -0.16102518446E+02 -0.16090374804E+02  0.36224864726E+01  0.23050242301E+02  0.51100000000E-03 0. -1.
         22    1    1    0    0    0  0.43661747581E+02  0.43627814648E+02 -0.98242345928E+01  0.62499999985E+02  0.00000000000E+00 0. -1.
</event>
<event>
 4    1  0.1977788E-002  0.9118800E+02  0.7818608E-02  0.1130116E+00
         25   -1    0    0    0    0  0.00000000000E+00  0.00000000000E+00  0.99999998245E-14  0.12500000000E+03  0.12500000000E+03 0.  0.
        -11    1    1    0    0    0 -0.94628413629E+00 -0.17227886315E+02 -0.43508611306E+02  0.46804858494E+02  0.51100000000E-03 0.  1.
         11    1    1    0    0    0  0.69359148886E+00 -0.52360292179E+01 -0.14796921175E+02  0.15711331822E+02  0.51100000000E-03 0. -1.
         22    1    1    0    0    0  0.25269264744E+00  0.22463915533E+02  0.58305532481E+02  0.62483809684E+02  0.00000000000E+00 0.  1.
</event>
<event>
 4    1  0.1977788E-002  0.9118800E+02  0.7818608E-02  0.1130116E+00
         25   -1    0    0    0    0  0.00000000000E+00  0.00000000000E+00  0.99999998245E-14  0.12500000000E+03  0.12500000000E+03 0.  0.
        -11    1    1    0    0    0  0.35740717389E+02 -0.36108083913E+02  0.24981201538E+01  0.50866818338E+02  0.51100000000E-03 0. -1.
         11    1    1    0    0    0  0.83502435368E+01 -0.80840560997E+01  0.52737730869E+00  0.11634287999E+02  0.51100000000E-03 0.  1.
         22    1    1    0    0    0 -0.44090960926E+02  0.44192140012E+02 -0.30254974625E+01  0.62498893663E+02  0.00000000000E+00 0. -1.
</event>
<event>
 4    1  0.1977788E-002  0.9118800E+02  0.7818608E-02  0.1130116E+00
         25   -1    0    0    0    0  0.00000000000E+00  0.00000000000E+00  0.99999998245E-14  0.12500000000E+03  0.12500000000E+03 0.  0.
        -11    1    1    0    0    0 -0.12084719567E+02  0.55291333170E+01 -0.10027074232E+02  0.16647942220E+02  0.51100000000E-03 0. -1.
         11    1    1    0    0    0 -0.28891559845E+02  0.19850603533E+02 -0.29658324467E+02  0.45917152583E+02  0.51100000000E-03 0.  1.
         22    1    1    0    0    0  0.40976279411E+02 -0.25379736850E+02  0.39685398699E+02  0.62434905197E+02  0.00000000000E+00 0.  1.
</event>
<event>
 4    1  0.1977788E-002  0.9118800E+02  0.7818608E-02  0.1130116E+00
         25   -1    0    0    0    0  0.00000000000E+00  0.00000000000E+00  0.99999998245E-14  0.12500000000E+03  0.12500000000E+03 0.  0.
        -11    1    1    0    0    0  0.24690097923E+01  0.67303441539E+01 -0.19135238561E+02  0.20434062172E+02  0.51100000000E-03 0.  1.
         11    1    1    0    0    0  0.50795418442E+01  0.13864004487E+02 -0.39389475437E+02  0.42065938017E+02  0.51100000000E-03 0. -1.
         22    1    1    0    0    0 -0.75485516364E+01 -0.20594348641E+02  0.58524713999E+02  0.62499999811E+02  0.00000000000E+00 0. -1.
</event>
<event>
 4    1  0.1977788E-002  0.9118800E+02  0.7818608E-02  0.1130116E+00
         25   -1    0    0    0    0  0.00000000000E+00  0.00000000000E+00  0.99999998245E-14  0.12500000000E+03  0.12500000000E+03 0.  0.
        -11    1    1    0    0    0 -0.33623702065E+01  0.35933576167E+01 -0.21734854274E+02  0.22285009377E+02  0.51100000000E-03 0. -1.
         11    1    1    0    0    0 -0.33675577874E+02  0.31910929042E+02 -0.14432533436E+01  0.46415890791E+02  0.51100000000E-03 0.  1.
         22    1    1    0    0    0  0.37037948080E+02 -0.35504286658E+02  0.23178107618E+02  0.56299099832E+02  0.00000000000E+00 0.  1.
</event>
<event>
 4    1  0.1977788E-002  0.9118800E+02  0.7818608E-02  0.1130116E+00
         25   -1    0    0    0    0  0.00000000000E+00  0.00000000000E+00  0.99999998245E-14  0.12500000000E+03  0.12500000000E+03 0.  0.
        -11    1    1    0    0    0 -0.21998464163E+02  0.18042422835E+01 -0.53093022458E+02  0.57498319539E+02  0.51100000000E-03 0. -1.
         11    1    1    0    0    0 -0.18981893253E+01  0.14567881077E+00 -0.46252190232E+01  0.50016993416E+01  0.51100000000E-03 0.  1.
         22    1    1    0    0    0  0.23896653489E+02 -0.19499210943E+01  0.57718241481E+02  0.62499981120E+02  0.00000000000E+00 0. -1.
</event>
<event>
 4    1  0.1977788E-002  0.9118800E+02  0.7818608E-02  0.1130116E+00
         25   -1    0    0    0    0  0.00000000000E+00  0.00000000000E+00  0.99999998245E-14  0.12500000000E+03  0.12500000000E+03 0.  0.
        -11    1    1    0    0    0  0.16312779165E+01 -0.46935282069E+01  0.20869292205E+02  0.21452683563E+02  0.51100000000E-03 0. -1.
         11    1    1    0    0    0  0.31494827605E+01 -0.89231341751E+01  0.39941724341E+02  0.41047325233E+02  0.51100000000E-03 0.  1.
         22    1    1    0    0    0 -0.47807606770E+01  0.13616662382E+02 -0.60811016546E+02  0.62499991204E+02  0.00000000000E+00 0.  1.
</event>
<event>
 4    1  0.1977788E-002  0.9118800E+02  0.7818608E-02  0.1130116E+00
         25   -1    0    0    0    0  0.00000000000E+00  0.00000000000E+00  0.99999998245E-14  0.12500000000E+03  0.12500000000E+03 0.  0.
        -11    1    1    0    0    0  0.16702355615E+02  0.16561196943E+02  0.19466771910E+02  0.30531903579E+02  0.51100000000E-03 0. -1.
         11    1    1    0    0    0  0.17489766695E+02  0.17344341473E+02  0.20377464995E+02  0.31968096598E+02  0.51100000000E-03 0.  1.
         22    1    1    0    0    0 -0.34192122310E+02 -0.33905538416E+02 -0.39844236905E+02  0.62499999824E+02  0.00000000000E+00 0. -1.
</event>
<event>
 4    1  0.1977788E-002  0.9118800E+02  0.7818608E-02  0.1130116E+00
         25   -1    0    0    0    0  0.00000000000E+00  0.00000000000E+00  0.99999998245E-14  0.12500000000E+03  0.12500000000E+03 0.  0.
        -11    1    1    0    0    0 -0.22013138598E+02 -0.27047003608E+02 -0.32677066844E+02  0.47790264415E+02  0.51100000000E-03 0. -1.
         11    1    1    0    0    0 -0.61965945655E+01 -0.91079342060E+01 -0.97682540522E+01  0.14723146308E+02  0.51100000000E-03 0.  1.
         22    1    1    0    0    0  0.28209733164E+02  0.36154937814E+02  0.42445320896E+02  0.62486589277E+02  0.00000000000E+00 0. -1.
</event>
<event>
 4    1  0.1977788E-002  0.9118800E+02  0.7818608E-02  0.1130116E+00
         25   -1    0    0    0    0  0.00000000000E+00  0.00000000000E+00  0.99999998245E-14  0.12500000000E+03  0.12500000000E+03 0.  0.
        -11    1    1    0    0    0  0.31477713144E+02  0.24030834421E+02  0.28982076979E+01  0.39708022311E+02  0.51100000000E-03 0. -1.
         11    1    1    0    0    0  0.18029323947E+02  0.13840879342E+02  0.16879455000E+01  0.22792007880E+02  0.51100000000E-03 0.  1.
         22    1    1    0    0    0 -0.49507037091E+02 -0.37871713763E+02 -0.45861531979E+01  0.62499969808E+02  0.00000000000E+00 0. -1.
</event>
<event>
 4    1  0.1977788E-002  0.9118800E+02  0.7818608E-02  0.1130116E+00
         25   -1    0    0    0    0  0.00000000000E+00  0.00000000000E+00  0.99999998245E-14  0.12500000000E+03  0.12500000000E+03 0.  0.
        -11    1    1    0    0    0 -0.12317704189E+02  0.26863177159E+01 -0.11820210967E+02  0.17281768628E+02  0.51100000000E-03 0.  1.
         11    1    1    0    0    0 -0.32157579233E+02  0.70806858607E+01 -0.30991032160E+02  0.45218249512E+02  0.51100000000E-03 0. -1.
         22    1    1    0    0    0  0.44475283422E+02 -0.97670035766E+01  0.42811243127E+02  0.62499981859E+02  0.00000000000E+00 0.  1.
</event>
<event>
 4    1  0.1977788E-002  0.9118800E+02  0.7818608E-02  0.1130116E+00
         25   -1    0    0    0    0  0.00000000000E+00  0.00000000000E+00  0.99999998245E-14  0.12500000000E+03  0.12500000000E+03 0.  0.
        -11    1    1    0    0    0 -0.89708461699E+01 -0.27901689537E+02  0.38199278368E-01  0.29308391622E+02  0.51100000000E-03 0.  1.
         11    1    1    0    0    0 -0.10160365091E+02 -0.31598219368E+02  0.48870181123E-01  0.33191608497E+02  0.51100000000E-03 0. -1.
         22    1    1    0    0    0  0.19131211261E+02  0.59499908905E+02 -0.87069459490E-01  0.62499999881E+02  0.00000000000E+00 0. -1.
</event>
<event>
 4    1  0.1977788E-002  0.9118800E+02  0.7818608E-02  0.1130116E+00
         25   -1    0    0    0    0  0.00000000000E+00  0.00000000000E+00  0.99999998245E-14  0.12500000000E+03  0.12500000000E+03 0.  0.
        -11    1    1    0    0    0  0.22075445474E+01  0.12063778748E+02  0.15032458319E+01  0.12355879528E+02  0.51100000000E-03 0. -1.
         11    1    1    0    0    0  0.97161843043E+01  0.48646263271E+02  0.73339161524E+01  0.50146280960E+02  0.51100000000E-03 0.  1.
         22    1    1    0    0    0 -0.11923728852E+02 -0.60710042020E+02 -0.88371619843E+01  0.62497839512E+02  0.00000000000E+00 0.  1.
</event>
<event>
 4    1  0.1977788E-002  0.9118800E+02  0.7818608E-02  0.1130116E+00
         25   -1    0    0    0    0  0.00000000000E+00  0.00000000000E+00  0.99999998245E-14  0.12500000000E+03  0.12500000000E+03 0.  0.
        -11    1    1    0    0    0  0.21913036541E+02  0.32680432452E+02  0.35316160158E+02  0.52871759988E+02  0.51100000000E-03 0.  1.
         11    1    1    0    0    0  0.39281491882E+01  0.58146584709E+01  0.65941763629E+01  0.96293183219E+01  0.51100000000E-03 0. -1.
         22    1    1    0    0    0 -0.25841185730E+02 -0.38495090922E+02 -0.41910336521E+02  0.62498921690E+02  0.00000000000E+00 0.  1.
</event>
<event>
 4    1  0.1977788E-002  0.9118800E+02  0.7818608E-02  0.1130116E+00
         25   -1    0    0    0    0  0.00000000000E+00  0.00000000000E+00  0.99999998245E-14  0.12500000000E+03  0.12500000000E+03 0.  0.
        -11    1    1    0    0    0 -0.55349235495E+02  0.65168942293E+01  0.94321820851E+01  0.56524099634E+02  0.51100000000E-03 0.  1.
         11    1    1    0    0    0 -0.58543815674E+01  0.68018363528E+00  0.98743766895E+00  0.59759071885E+01  0.51100000000E-03 0. -1.
         22    1    1    0    0    0  0.61203617063E+02 -0.71970778646E+01 -0.10419619754E+02  0.62499993177E+02  0.00000000000E+00 0.  1.
</event>
<event>
 4    1  0.1977788E-002  0.9118800E+02  0.7818608E-02  0.1130116E+00
         25   -1    0    0    0    0  0.00000000000E+00  0.00000000000E+00  0.99999998245E-14  0.12500000000E+03  0.12500000000E+03 0.  0.
        -11    1    1    0    0    0 -0.25377403866E+02 -0.35880257954E+01  0.42205702612E+00  0.25633273074E+02  0.51100000000E-03 0.  1.
         11    1    1    0    0    0 -0.36496604275E+02 -0.51755427722E+01  0.60599971671E+00  0.36866727581E+02  0.51100000000E-03 0. -1.
         22    1    1    0    0    0  0.61874008141E+02  0.87635685677E+01 -0.10280567428E+01  0.62499999345E+02  0.00000000000E+00 0. -1.
</event>
<event>
 4    1  0.1977788E-002  0.9118800E+02  0.7818608E-02  0.1130116E+00
         25   -1    0    0    0    0  0.00000000000E+00  0.00000000000E+00  0.99999998245E-14  0.12500000000E+03  0.12500000000E+03 0.  0.
        -11    1    1    0    0    0  0.15310086033E+02  0.13818553294E+02  0.61270452267E+01  0.21514921170E+02  0.51100000000E-03 0. -1.
         11    1    1    0    0    0  0.29291368332E+02  0.26168592169E+02  0.11704883193E+02  0.40985165191E+02  0.51100000000E-03 0.  1.
         22    1    1    0    0    0 -0.44601454365E+02 -0.39987145463E+02 -0.17831928419E+02  0.62499913639E+02  0.00000000000E+00 0. -1.
</event>
<event>
 4    1  0.1977788E-002  0.9118800E+02  0.7818608E-02  0.1130116E+00
         25   -1    0    0    0    0  0.00000000000E+00  0.00000000000E+00  0.99999998245E-14  0.12500000000E+03  0.12500000000E+03 0.  0.
        -11    1    1    0    0    0 -0.48279989301E+02  0.37173475195E+02  0.25181520069E+01  0.60984963021E+02  0.51100000000E-03 0.  1.
         11    1    1    0    0    0 -0.11833598199E+01  0.93642862881E+00  0.14782908258E+00  0.15162759442E+01  0.51100000000E-03 0. -1.
         22    1    1    0    0    0  0.49463349121E+02 -0.38109903823E+02 -0.26659810895E+01  0.62498761034E+02  0.00000000000E+00 0.  1.
</event>
<event>
 4    1  0.1977788E-002  0.9118800E+02  0.7818608E-02  0.1130116E+00
         25   -1    0    0    0    0  0.00000000000E+00  0.00000000000E+00  0.99999998245E-14  0.12500000000E+03  0.12500000000E+03 0.  0.
        -11    1    1    0    0    0 -0.64550572213E+01 -0.79875236975E+01 -0.56314544572E+02  0.57243307287E+02  0.51100000000E-03 0.  1.
         11    1    1    0    0    0 -0.19072237476E+01 -0.10486628518E+01 -0.48760666835E+01  0.53397774076E+01  0.51100000000E-03 0. -1.
         22    1    1    0    0    0  0.83622809689E+01  0.90361865494E+01  0.61190611256E+02  0.62416915305E+02  0.00000000000E+00 0.  1.
</event>
<event>
 4    1  0.1977788E-002  0.9118800E+02  0.7818608E-02  0.1130116E+00
         25   -1    0    0    0    0  0.00000000000E+00  0.00000000000E+00  0.99999998245E-14  0.12500000000E+03  0.12500000000E+03 0.  0.
        -11    1    1    0    0    0 -0.24344365415E+02  0.10724562924E+01  0.30817586999E+02  0.39287682022E+02  0.51100000000E-03 0.  1.
         11    1    1    0    0    0 -0.14335403159E+02  0.15530863697E+01  0.18197866024E+02  0.23218057392E+02  0.51100000000E-03 0. -1.
         22    1    1    0    0    0  0.38679768574E+02 -0.26255426621E+01 -0.49015453022E+02  0.62494260586E+02  0.00000000000E+00 0.  1.
</event>
<event>
 4    1  0.1977788E-002  0.9118800E+02  0.7818608E-02  0.1130116E+00
         25   -1    0    0    0    0  0.00000000000E+00  0.00000000000E+00  0.99999998245E-14  0.12500000000E+03  0.12500000000E+03 0.  0.
        -11    1    1    0    0    0 -0.31101223962E+01  0.22733020715E+02  0.58078918025E+02  0.62446967991E+02  0.51100000000E-03 0.  1.
         11    1    1    0    0    0  0.35363656993E-02  0.17390481923E-01  0.50185842858E-01  0.53233586092E-01  0.51100000000E-03 0. -1.
         22    1    1    0    0    0  0.31065860305E+01 -0.22750411197E+02 -0.58129103868E+02  0.62499798422E+02  0.00000000000E+00 0.  1.
</event>
<event>
 4    1  0.1977788E-002  0.9118800E+02  0.7818608E-02  0.1130116E+00
         25   -1    0    0    0    0  0.00000000000E+00  0.00000000000E+00  0.99999998245E-14  0.12500000000E+03  0.12500000000E+03 0.  0.
        -11    1    1    0    0    0  0.74212997686E+00  0.20640867808E+01  0.40604791670E+01  0.46150517297E+01  0.51100000000E-03 0.  1.
         11    1    1    0    0    0  0.93885952337E+01  0.25778495800E+02  0.50970495629E+02  0.57884954790E+02  0.51100000000E-03 0. -1.
         22    1    1    0    0    0 -0.10130725211E+02 -0.27842582581E+02 -0.55030974795E+02  0.62499993480E+02  0.00000000000E+00 0. -1.
</event>
<event>
 4    1  0.1977788E-002  0.9118800E+02  0.7818608E-02  0.1130116E+00
         25   -1    0    0    0    0  0.00000000000E+00  0.00000000000E+00  0.99999998245E-14  0.12500000000E+03  0.12500000000E+03 0.  0.
        -11    1    1    0    0    0 -0.33009240827E+02  0.49919968603E+02  0.14768261281E+02  0.61641826602E+02  0.51100000000E-03 0. -1.
         11    1    1    0    0    0 -0.51384240650E+00  0.66302533871E+00  0.18696011372E+00  0.85941315078E+00  0.51100000000E-03 0.  1.
         22    1    1    0    0    0  0.33523083233E+02 -0.50582993941E+02 -0.14955221395E+02  0.62498760248E+02  0.00000000000E+00 0. -1.
</event>
<event>
 4    1  0.1977788E-002  0.9118800E+02  0.7818608E-02  0.1130116E+00
         25   -1    0    0    0    0  0.00000000000E+00  0.00000000000E+00  0.99999998245E-14  0.12500000000E+03  0.12500000000E+03 0.  0.
        -11    1    1    0    0    0 -0.22723576575E+02  0.29220205403E+02 -0.48006446256E+02  0.60620130473E+02  0.51100000000E-03 0. -1.
         11    1    1    0    0    0 -0.65513020585E+00  0.92819579735E+00 -0.14982110743E+01  0.18802605429E+01  0.51100000000E-03 0.  1.
         22    1    1    0    0    0  0.23378706781E+02 -0.30148401201E+02  0.49504657331E+02  0.62499608984E+02  0.00000000000E+00 0. -1.
</event>
<event>
 4    1  0.1977788E-002  0.9118800E+02  0.7818608E-02  0.1130116E+00
         25   -1    0    0    0    0  0.00000000000E+00  0.00000000000E+00  0.99999998245E-14  0.12500000000E+03  0.12500000000E+03 0.  0.
        -11    1    1    0    0    0  0.23669064067E+02 -0.29940293670E+01 -0.19844293304E+02  0.31031996112E+02  0.51100000000E-03 0.  1.
         11    1    1    0    0    0  0.24002761041E+02 -0.30355237904E+01 -0.20121837074E+02  0.31468003905E+02  0.51100000000E-03 0. -1.
         22    1    1    0    0    0 -0.47671825109E+02  0.60295531574E+01  0.39966130378E+02  0.62499999983E+02  0.00000000000E+00 0.  1.
</event>
<event>
 4    1  0.1977788E-002  0.9118800E+02  0.7818608E-02  0.1130116E+00
         25   -1    0    0    0    0  0.00000000000E+00  0.00000000000E+00  0.99999998245E-14  0.12500000000E+03  0.12500000000E+03 0.  0.
        -11    1    1    0    0    0  0.20009949141E+00 -0.88124363314E+01  0.12799644523E+01  0.89071534825E+01  0.51100000000E-03 0. -1.
         11    1    1    0    0    0  0.51545470216E+02  0.11714726141E+02 -0.25728425769E+02  0.58788793160E+02  0.51100000000E-03 0.  1.
         22    1    1    0    0    0 -0.51745569707E+02 -0.29022898096E+01  0.24448461317E+02  0.57304053358E+02  0.00000000000E+00 0.  1.
</event>
<event>
 4    1  0.1977788E-002  0.9118800E+02  0.7818608E-02  0.1130116E+00
         25   -1    0    0    0    0  0.00000000000E+00  0.00000000000E+00  0.99999998245E-14  0.12500000000E+03  0.12500000000E+03 0.  0.
        -11    1    1    0    0    0 -0.55642499283E-01 -0.99184551764E+00 -0.21576775441E+00  0.10165675598E+01  0.51100000000E-03 0.  1.
         11    1    1    0    0    0 -0.40881894177E+01 -0.59734510175E+02 -0.13974949205E+02  0.61483527909E+02  0.51100000000E-03 0. -1.
         22    1    1    0    0    0  0.41438319170E+01  0.60726355692E+02  0.14190716960E+02  0.62499904532E+02  0.00000000000E+00 0. -1.
</event>
<event>
 4    1  0.1977788E-002  0.9118800E+02  0.7818608E-02  0.1130116E+00
         25   -1    0    0    0    0  0.00000000000E+00  0.00000000000E+00  0.99999998245E-14  0.12500000000E+03  0.12500000000E+03 0.  0.
        -11    1    1    0    0    0 -0.15257947012E+02  0.54035947495E+02  0.23801063860E+02  0.60985073664E+02  0.51100000000E-03 0.  1.
         11    1    1    0    0    0  0.21225150467E+01  0.11331358868E+01 -0.24044656129E+01  0.34015470313E+01  0.51100000000E-03 0. -1.
         22    1    1    0    0    0  0.13135431965E+02 -0.55169083382E+02 -0.21396598247E+02  0.60613379304E+02  0.00000000000E+00 0.  1.
</event>
<event>
 4    1  0.1977788E-002  0.9118800E+02  0.7818608E-02  0.1130116E+00
         25   -1    0    0    0    0  0.00000000000E+00  0.00000000000E+00  0.99999998245E-14  0.12500000000E+03  0.12500000000E+03 0.  0.
        -11    1    1    0    0    0  0.51457526960E+01 -0.12956209589E+02  0.20542192761E+01  0.14091201326E+02  0.51100000000E-03 0.  1.
         11    1    1    0    0    0  0.17658872822E+02 -0.44522306157E+02  0.70242745861E+01  0.48408800528E+02  0.51100000000E-03 0. -1.
         22    1    1    0    0    0 -0.22804625518E+02  0.57478515746E+02 -0.90784938622E+01  0.62499998145E+02  0.00000000000E+00 0. -1.
</event>
<event>
 4    1  0.1977788E-002  0.9118800E+02  0.7818608E-02  0.1130116E+00
         25   -1    0    0    0    0  0.00000000000E+00  0.00000000000E+00  0.99999998245E-14  0.12500000000E+03  0.12500000000E+03 0.  0.
        -11    1    1    0    0    0 -0.48847149440E+01  0.56002234454E+01 -0.12907525115E+02  0.14893862749E+02  0.51100000000E-03 0. -1.
         11    1    1    0    0    0 -0.14712093341E+02  0.97967939313E+01 -0.44305276527E+02  0.47700947477E+02  0.51100000000E-03 0.  1.
         22    1    1    0    0    0  0.19596808285E+02 -0.15397017377E+02  0.57212801642E+02  0.62405189774E+02  0.00000000000E+00 0.  1.
</event>
<event>
 4    1  0.1977788E-002  0.9118800E+02  0.7818608E-02  0.1130116E+00
         25   -1    0    0    0    0  0.00000000000E+00  0.00000000000E+00  0.99999998245E-14  0.12500000000E+03  0.12500000000E+03 0.  0.
        -11    1    1    0    0    0  0.44752471239E+02  0.73645072894E+01 -0.13288118111E+02  0.47260911257E+02  0.51100000000E-03 0.  1.
         11    1    1    0    0    0  0.14419097473E+02  0.23463783996E+01 -0.43376689912E+01  0.15239135017E+02  0.51100000000E-03 0. -1.
         22    1    1    0    0    0 -0.59171568712E+02 -0.97108856890E+01  0.17625787102E+02  0.62499953726E+02  0.00000000000E+00 0.  1.
</event>
<event>
 4    1  0.1977788E-002  0.9118800E+02  0.7818608E-02  0.1130116E+00
         25   -1    0    0    0    0  0.00000000000E+00  0.00000000000E+00  0.99999998245E-14  0.12500000000E+03  0.12500000000E+03 0.  0.
        -11    1    1    0    0    0  0.21119181697E+01 -0.11399633722E+01 -0.14115096622E+01  0.27842547716E+01  0.51100000000E-03 0. -1.
         11    1    1    0    0    0  0.45243265554E+02 -0.24548508695E+02 -0.30271903692E+02  0.59715747593E+02  0.51100000000E-03 0.  1.
         22    1    1    0    0    0 -0.47355183724E+02  0.25688472067E+02  0.31683413355E+02  0.62499997636E+02  0.00000000000E+00 0.  1.
</event>
<event>
 4    1  0.1977788E-002  0.9118800E+02  0.7818608E-02  0.1130116E+00
         25   -1    0    0    0    0  0.00000000000E+00  0.00000000000E+00  0.99999998245E-14  0.12500000000E+03  0.12500000000E+03 0.  0.
        -11    1    1    0    0    0 -0.20600691416E+02 -0.10113867248E+02  0.74151278165E+01  0.24117688909E+02  0.51100000000E-03 0. -1.
         11    1    1    0    0    0 -0.32771485570E+02 -0.16141284718E+02  0.11776714892E+02  0.38382318231E+02  0.51100000000E-03 0.  1.
         22    1    1    0    0    0  0.53372176986E+02  0.26255151966E+02 -0.19191842709E+02  0.62499992860E+02  0.00000000000E+00 0.  1.
</event>
<event>
 4    1  0.1977788E-002  0.9118800E+02  0.7818608E-02  0.1130116E+00
         25   -1    0    0    0    0  0.00000000000E+00  0.00000000000E+00  0.99999998245E-14  0.12500000000E+03  0.12500000000E+03 0.  0.
        -11    1    1    0    0    0 -0.34023396588E+02  0.13472966164E+02 -0.24017879170E+02  0.43771804312E+02  0.51100000000E-03 0.  1.
         11    1    1    0    0    0 -0.14560683796E+02  0.57664686674E+01 -0.10270329013E+02  0.18728196170E+02  0.51100000000E-03 0. -1.
         22    1    1    0    0    0  0.48584080383E+02 -0.19239434831E+02  0.34288208183E+02  0.62499999518E+02  0.00000000000E+00 0. -1.
</event>
<event>
 4    1  0.1977788E-002  0.9118800E+02  0.7818608E-02  0.1130116E+00
         25   -1    0    0    0    0  0.00000000000E+00  0.00000000000E+00  0.99999998245E-14  0.12500000000E+03  0.12500000000E+03 0.  0.
        -11    1    1    0    0    0  0.17284852050E+02 -0.10435068543E+01 -0.46466147030E+02  0.49587879940E+02  0.51100000000E-03 0. -1.
         11    1    1    0    0    0  0.45015790883E+01 -0.26604790762E+00 -0.12099085154E+02  0.12912120570E+02  0.51100000000E-03 0.  1.
         22    1    1    0    0    0 -0.21786431138E+02  0.13095547619E+01  0.58565232184E+02  0.62499999490E+02  0.00000000000E+00 0.  1.
</event>
<event>
 4    1  0.1977788E-002  0.9118800E+02  0.7818608E-02  0.1130116E+00
         25   -1    0    0    0    0  0.00000000000E+00  0.00000000000E+00  0.99999998245E-14  0.12500000000E+03  0.12500000000E+03 0.  0.
        -11    1    1    0    0    0  0.22034240869E+02  0.25013764624E+02 -0.41244938318E+02  0.53031510713E+02  0.51100000000E-03 0.  1.
         11    1    1    0    0    0  0.38747432463E+01  0.44943699119E+01 -0.73784290281E+01  0.94685907776E+01  0.51100000000E-03 0. -1.
         22    1    1    0    0    0 -0.25908984115E+02 -0.29508134536E+02  0.48623367346E+02  0.62499898510E+02  0.00000000000E+00 0.  1.
</event>
<event>
 4    1  0.1977788E-002  0.9118800E+02  0.7818608E-02  0.1130116E+00
         25   -1    0    0    0    0  0.00000000000E+00  0.00000000000E+00  0.99999998245E-14  0.12500000000E+03  0.12500000000E+03 0.  0.
        -11    1    1    0    0    0 -0.25361186838E+01  0.97549789008E+01  0.14867162648E+01  0.10188318647E+02  0.51100000000E-03 0. -1.
         11    1    1    0    0    0 -0.12991472575E+02  0.50104829362E+02  0.75657251389E+01  0.52311685905E+02  0.51100000000E-03 0.  1.
         22    1    1    0    0    0  0.15527591259E+02 -0.59859808263E+02 -0.90524414036E+01  0.62499995448E+02  0.00000000000E+00 0.  1.
</event>
<event>
 4    1  0.1977788E-002  0.9118800E+02  0.7818608E-02  0.1130116E+00
         25   -1    0    0    0    0  0.00000000000E+00  0.00000000000E+00  0.99999998245E-14  0.12500000000E+03  0.12500000000E+03 0.  0.
        -11    1    1    0    0    0 -0.23436674117E+02 -0.39933593757E+01 -0.85568941357E+01  0.25267470200E+02  0.51100000000E-03 0. -1.
         11    1    1    0    0    0 -0.34251172884E+02 -0.63929399940E+01 -0.13129051282E+02  0.37234184743E+02  0.51100000000E-03 0.  1.
         22    1    1    0    0    0  0.57687847001E+02  0.10386299370E+02  0.21685945418E+02  0.62498345057E+02  0.00000000000E+00 0.  1.
</event>
<event>
 4    1  0.1977788E-002  0.9118800E+02  0.7818608E-02  0.1130116E+00
         25   -1    0    0    0    0  0.00000000000E+00  0.00000000000E+00  0.99999998245E-14  0.12500000000E+03  0.12500000000E+03 0.  0.
        -11    1    1    0    0    0  0.13594385756E+01  0.20152325770E+01 -0.28000416299E+01  0.37080276388E+01  0.51100000000E-03 0.  1.
         11    1    1    0    0    0  0.21910244070E+02  0.31828563500E+02 -0.44310091332E+02  0.58792010033E+02  0.51100000000E-03 0. -1.
         22    1    1    0    0    0 -0.23269682645E+02 -0.33843796077E+02  0.47110132962E+02  0.62499962328E+02  0.00000000000E+00 0. -1.
</event>
<event>
 4    1  0.1977788E-002  0.9118800E+02  0.7818608E-02  0.1130116E+00
         25   -1    0    0    0    0  0.00000000000E+00  0.00000000000E+00  0.99999998245E-14  0.12500000000E+03  0.12500000000E+03 0.  0.
        -11    1    1    0    0    0  0.46651595570E+01  0.47722652506E+02  0.37213147816E+02  0.60696240794E+02  0.51100000000E-03 0. -1.
         11    1    1    0    0    0  0.37496434842E+00  0.13587096424E+01  0.11385281820E+01  0.18118876448E+01  0.51100000000E-03 0.  1.
         22    1    1    0    0    0 -0.50401239054E+01 -0.49081362148E+02 -0.38351675998E+02  0.62491871561E+02  0.00000000000E+00 0. -1.
</event>
<event>
 4    1  0.1977788E-002  0.9118800E+02  0.7818608E-02  0.1130116E+00
         25   -1    0    0    0    0  0.00000000000E+00  0.00000000000E+00  0.99999998245E-14  0.12500000000E+03  0.12500000000E+03 0.  0.
        -11    1    1    0    0    0  0.12171507646E+02 -0.20015522412E+01 -0.54693419831E+01  0.13493165371E+02  0.51100000000E-03 0.  1.
         11    1    1    0    0    0  0.44019999751E+02 -0.70897373366E+01 -0.20339042377E+02  0.49007156606E+02  0.51100000000E-03 0. -1.
         22    1    1    0    0    0 -0.56191507397E+02  0.90912895778E+01  0.25808384360E+02  0.62499678023E+02  0.00000000000E+00 0. -1.
</event>
<event>
 4    1  0.1977788E-002  0.9118800E+02  0.7818608E-02  0.1130116E+00
         25   -1    0    0    0    0  0.00000000000E+00  0.00000000000E+00  0.99999998245E-14  0.12500000000E+03  0.12500000000E+03 0.  0.
        -11    1    1    0    0    0  0.17713958075E+02 -0.53252080226E+01 -0.15830782862E+02  0.24346577530E+02  0.51100000000E-03 0.  1.
         11    1    1    0    0    0  0.27346656110E+02 -0.75313739294E+01 -0.25522223346E+02  0.38156848382E+02  0.51100000000E-03 0. -1.
         22    1    1    0    0    0 -0.45060614185E+02  0.12856581952E+02  0.41353006208E+02  0.62496574087E+02  0.00000000000E+00 0.  1.
</event>
<event>
 4    1  0.1977788E-002  0.9118800E+02  0.7818608E-02  0.1130116E+00
         25   -1    0    0    0    0  0.00000000000E+00  0.00000000000E+00  0.99999998245E-14  0.12500000000E+03  0.12500000000E+03 0.  0.
        -11    1    1    0    0    0 -0.11979521257E+02  0.78396253500E+00 -0.21339323129E+00  0.12007042255E+02  0.51100000000E-03 0. -1.
         11    1    1    0    0    0 -0.50366173210E+02  0.33483984989E+01 -0.12603690483E+01  0.50493085732E+02  0.51100000000E-03 0.  1.
         22    1    1    0    0    0  0.62345694467E+02 -0.41323610340E+01  0.14737622796E+01  0.62499872012E+02  0.00000000000E+00 0.  1.
</event>
<event>
 4    1  0.1977788E-002  0.9118800E+02  0.7818608E-02  0.1130116E+00
         25   -1    0    0    0    0  0.00000000000E+00  0.00000000000E+00  0.99999998245E-14  0.12500000000E+03  0.12500000000E+03 0.  0.
        -11    1    1    0    0    0  0.57515165353E+01  0.18746525655E+02  0.11963407476E+02  0.22970313130E+02  0.51100000000E-03 0. -1.
         11    1    1    0    0    0  0.98907698401E+01  0.32256137062E+02  0.20598797860E+02  0.39529687322E+02  0.51100000000E-03 0.  1.
         22    1    1    0    0    0 -0.15642286375E+02 -0.51002662717E+02 -0.32562205336E+02  0.62499999549E+02  0.00000000000E+00 0.  1.
</event>
<event>
 4    1  0.1977788E-002  0.9118800E+02  0.7818608E-02  0.1130116E+00
         25   -1    0    0    0    0  0.00000000000E+00  0.00000000000E+00  0.99999998245E-14  0.12500000000E+03  0.12500000000E+03 0.  0.
        -11    1    1    0    0    0  0.13513985284E+02 -0.34428770688E+02 -0.29671077323E+02  0.47416673008E+02  0.51100000000E-03 0.  1.
         11    1    1    0    0    0  0.42977374077E+01 -0.10954186836E+02 -0.94362069387E+01  0.15083327143E+02  0.51100000000E-03 0. -1.
         22    1    1    0    0    0 -0.17811722692E+02  0.45382957524E+02  0.39107284262E+02  0.62499999849E+02  0.00000000000E+00 0.  1.
</event>
<event>
 4    1  0.1977788E-002  0.9118800E+02  0.7818608E-02  0.1130116E+00
         25   -1    0    0    0    0  0.00000000000E+00  0.00000000000E+00  0.99999998245E-14  0.12500000000E+03  0.12500000000E+03 0.  0.
        -11    1    1    0    0    0  0.28572782527E+01  0.14617225362E+01  0.59434628511E+01  0.67546593333E+01  0.51100000000E-03 0.  1.
         11    1    1    0    0    0  0.22745178253E+02  0.11372053122E+02  0.49608029858E+02  0.55746061319E+02  0.51100000000E-03 0. -1.
         22    1    1    0    0    0 -0.25602456505E+02 -0.12833775659E+02 -0.55551492709E+02  0.62499279347E+02  0.00000000000E+00 0. -1.
</event>
<event>
 4    1  0.1977788E-002  0.9118800E+02  0.7818608E-02  0.1130116E+00
         25   -1    0    0    0    0  0.00000000000E+00  0.00000000000E+00  0.99999998245E-14  0.12500000000E+03  0.12500000000E+03 0.  0.
        -11    1    1    0    0    0 -0.14934205210E+02  0.17215859515E+01  0.28737505575E+02  0.32432060840E+02  0.51100000000E-03 0. -1.
         11    1    1    0    0    0 -0.13789707798E+02  0.16457751005E+01  0.26668670270E+02  0.30067966194E+02  0.51100000000E-03 0.  1.
         22    1    1    0    0    0  0.28723913007E+02 -0.33673610520E+01 -0.55406175845E+02  0.62499972965E+02  0.00000000000E+00 0. -1.
</event>
<event>
 4    1  0.1977788E-002  0.9118800E+02  0.7818608E-02  0.1130116E+00
         25   -1    0    0    0    0  0.00000000000E+00  0.00000000000E+00  0.99999998245E-14  0.12500000000E+03  0.12500000000E+03 0.  0.
        -11    1    1    0    0    0  0.58495736194E+02  0.21482370740E+01  0.11762322869E+02  0.59705262037E+02  0.51100000000E-03 0.  1.
         11    1    1    0    0    0  0.28351573365E+01  0.16163288864E-01 -0.16921779219E+00  0.28402488090E+01  0.51100000000E-03 0. -1.
         22    1    1    0    0    0 -0.61330893530E+02 -0.21644003629E+01 -0.11593105077E+02  0.62454489154E+02  0.00000000000E+00 0.  1.
</event>
<event>
 4    1  0.1977788E-002  0.9118800E+02  0.7818608E-02  0.1130116E+00
         25   -1    0    0    0    0  0.00000000000E+00  0.00000000000E+00  0.99999998245E-14  0.12500000000E+03  0.12500000000E+03 0.  0.
        -11    1    1    0    0    0 -0.21223750537E+01 -0.51925023499E+02 -0.77983386352E+01  0.52550229562E+02  0.51100000000E-03 0. -1.
         11    1    1    0    0    0 -0.40158207319E+00 -0.98313929768E+01 -0.14766095215E+01  0.99497704479E+01  0.51100000000E-03 0. -1.
         22    1    1    0    0    0  0.25239571269E+01  0.61756416476E+02  0.92749481567E+01  0.62499999991E+02  0.00000000000E+00 0. -1.
</event>
<event>
 4    1  0.1977788E-002  0.9118800E+02  0.7818608E-02  0.1130116E+00
         25   -1    0    0    0    0  0.00000000000E+00  0.00000000000E+00  0.99999998245E-14  0.12500000000E+03  0.12500000000E+03 0.  0.
        -11    1    1    0    0    0 -0.27260177286E+01  0.13956700419E+02 -0.92298321257E+01  0.16953184379E+02  0.51100000000E-03 0.  1.
         11    1    1    0    0    0 -0.73171377205E+01  0.37228386203E+02 -0.25200217447E+02  0.45547164603E+02  0.51100000000E-03 0. -1.
         22    1    1    0    0    0  0.10043155449E+02 -0.51185086622E+02  0.34430049573E+02  0.62499651019E+02  0.00000000000E+00 0. -1.
</event>
<event>
 4    1  0.1977788E-002  0.9118800E+02  0.7818608E-02  0.1130116E+00
         25   -1    0    0    0    0  0.00000000000E+00  0.00000000000E+00  0.99999998245E-14  0.12500000000E+03  0.12500000000E+03 0.  0.
        -11    1    1    0    0    0 -0.38049230245E+01  0.17163062756E+02  0.59521270387E+01  0.18560064087E+02  0.51100000000E-03 0.  1.
         11    1    1    0    0    0 -0.89989477618E+01  0.40636046722E+02  0.14087179650E+02  0.43939936104E+02  0.51100000000E-03 0. -1.
         22    1    1    0    0    0  0.12803870786E+02 -0.57799109478E+02 -0.20039306689E+02  0.62499999809E+02  0.00000000000E+00 0. -1.
</event>
<event>
 4    1  0.1977788E-002  0.9118800E+02  0.7818608E-02  0.1130116E+00
         25   -1    0    0    0    0  0.00000000000E+00  0.00000000000E+00  0.99999998245E-14  0.12500000000E+03  0.12500000000E+03 0.  0.
        -11    1    1    0    0    0  0.10002098691E+01 -0.84990758031E+00 -0.90631955176E+00  0.15950479831E+01  0.51100000000E-03 0.  1.
         11    1    1    0    0    0  0.38188869500E+02 -0.32466252562E+02 -0.34597194677E+02  0.60904952089E+02  0.51100000000E-03 0.  1.
         22    1    1    0    0    0 -0.39189079369E+02  0.33316160143E+02  0.35503514229E+02  0.62499999928E+02  0.00000000000E+00 0.  1.
</event>
<event>
 4    1  0.1977788E-002  0.9118800E+02  0.7818608E-02  0.1130116E+00
         25   -1    0    0    0    0  0.00000000000E+00  0.00000000000E+00  0.99999998245E-14  0.12500000000E+03  0.12500000000E+03 0.  0.
        -11    1    1    0    0    0  0.31662527408E+01 -0.62081069167E+02  0.62147983622E+01  0.62471657768E+02  0.51100000000E-03 0. -1.
         11    1    1    0    0    0 -0.87259615005E-01  0.11799737756E+00 -0.12109237756E+00  0.19026625172E+00  0.51100000000E-03 0.  1.
         22    1    1    0    0    0 -0.30789931257E+01  0.61963071790E+02 -0.60937059846E+01  0.62338075980E+02  0.00000000000E+00 0. -1.
</event>
<event>
 4    1  0.1977788E-002  0.9118800E+02  0.7818608E-02  0.1130116E+00
         25   -1    0    0    0    0  0.00000000000E+00  0.00000000000E+00  0.99999998245E-14  0.12500000000E+03  0.12500000000E+03 0.  0.
        -11    1    1    0    0    0  0.27318572638E+02 -0.48297294615E+02 -0.83403486911E+01  0.56111447092E+02  0.51100000000E-03 0. -1.
         11    1    1    0    0    0  0.30980538087E+01 -0.55066640026E+01 -0.94468417576E+00  0.63885612067E+01  0.51100000000E-03 0.  1.
         22    1    1    0    0    0 -0.30416626447E+02  0.53803958618E+02  0.92850328668E+01  0.62499991702E+02  0.00000000000E+00 0. -1.
</event>
<event>
 4    1  0.1977788E-002  0.9118800E+02  0.7818608E-02  0.1130116E+00
         25   -1    0    0    0    0  0.00000000000E+00  0.00000000000E+00  0.99999998245E-14  0.12500000000E+03  0.12500000000E+03 0.  0.
        -11    1    1    0    0    0 -0.23019181198E+01  0.50146325169E+01 -0.86110491469E+01  0.10227195802E+02  0.51100000000E-03 0. -1.
         11    1    1    0    0    0 -0.11755042262E+02  0.25615031796E+02 -0.44024257255E+02  0.52272804589E+02  0.51100000000E-03 0.  1.
         22    1    1    0    0    0  0.14056960382E+02 -0.30629664313E+02  0.52635306402E+02  0.62499999609E+02  0.00000000000E+00 0.  1.
</event>
<event>
 4    1  0.1977788E-002  0.9118800E+02  0.7818608E-02  0.1130116E+00
         25   -1    0    0    0    0  0.00000000000E+00  0.00000000000E+00  0.99999998245E-14  0.12500000000E+03  0.12500000000E+03 0.  0.
        -11    1    1    0    0    0  0.14741388361E+02  0.73378478880E+01 -0.19559189194E+02  0.25567839655E+02  0.51100000000E-03 0. -1.
         11    1    1    0    0    0  0.21369687853E+02  0.10601996360E+02 -0.28194333950E+02  0.36932185867E+02  0.51100000000E-03 0.  1.
         22    1    1    0    0    0 -0.36111076215E+02 -0.17939844248E+02  0.47753523144E+02  0.62499974478E+02  0.00000000000E+00 0. -1.
</event>
<event>
 4    1  0.1977788E-002  0.9118800E+02  0.7818608E-02  0.1130116E+00
         25   -1    0    0    0    0  0.00000000000E+00  0.00000000000E+00  0.99999998245E-14  0.12500000000E+03  0.12500000000E+03 0.  0.
        -11    1    1    0    0    0  0.55447424105E+01  0.17700625422E+02  0.16215685461E+02  0.24637466672E+02  0.51100000000E-03 0. -1.
         11    1    1    0    0    0  0.86626772352E+01  0.27104411785E+02  0.24977726128E+02  0.37862619004E+02  0.51100000000E-03 0.  1.
         22    1    1    0    0    0 -0.14207419646E+02 -0.44805037207E+02 -0.41193411590E+02  0.62499914324E+02  0.00000000000E+00 0.  1.
</event>
<event>
 4    1  0.1977788E-002  0.9118800E+02  0.7818608E-02  0.1130116E+00
         25   -1    0    0    0    0  0.00000000000E+00  0.00000000000E+00  0.99999998245E-14  0.12500000000E+03  0.12500000000E+03 0.  0.
        -11    1    1    0    0    0  0.26055195967E+02 -0.13654981046E+02 -0.36251024461E+02  0.46684778236E+02  0.51100000000E-03 0. -1.
         11    1    1    0    0    0  0.88067551425E+01 -0.46827691599E+01 -0.12273359501E+02  0.15815265311E+02  0.51100000000E-03 0.  1.
         22    1    1    0    0    0 -0.34861951109E+02  0.18337750206E+02  0.48524383962E+02  0.62499956453E+02  0.00000000000E+00 0. -1.
</event>
<event>
 4    1  0.1977788E-002  0.9118800E+02  0.7818608E-02  0.1130116E+00
         25   -1    0    0    0    0  0.00000000000E+00  0.00000000000E+00  0.99999998245E-14  0.12500000000E+03  0.12500000000E+03 0.  0.
        -11    1    1    0    0    0 -0.17689176275E+02 -0.19787004682E+02 -0.75385720497E+01  0.27590987303E+02  0.51100000000E-03 0.  1.
         11    1    1    0    0    0 -0.21726803746E+02 -0.23337775936E+02 -0.14419768120E+02  0.34994792463E+02  0.51100000000E-03 0. -1.
         22    1    1    0    0    0  0.39415980021E+02  0.43124780618E+02  0.21958340169E+02  0.62414220233E+02  0.00000000000E+00 0.  1.
</event>
<event>
 4    1  0.1977788E-002  0.9118800E+02  0.7818608E-02  0.1130116E+00
         25   -1    0    0    0    0  0.00000000000E+00  0.00000000000E+00  0.99999998245E-14  0.12500000000E+03  0.12500000000E+03 0.  0.
        -11    1    1    0    0    0  0.69423736640E+01 -0.50386990205E+01 -0.48094709677E+01  0.98344319185E+01  0.51100000000E-03 0. -1.
         11    1    1    0    0    0  0.40878020156E+02 -0.24894372004E+02 -0.22032507600E+02  0.52689407672E+02  0.51100000000E-03 0.  1.
         22    1    1    0    0    0 -0.47820393820E+02  0.29933071025E+02  0.26841978568E+02  0.62476160410E+02  0.00000000000E+00 0.  1.
</event>
<event>
 4    1  0.1977788E-002  0.9118800E+02  0.7818608E-02  0.1130116E+00
         25   -1    0    0    0    0  0.00000000000E+00  0.00000000000E+00  0.99999998245E-14  0.12500000000E+03  0.12500000000E+03 0.  0.
        -11    1    1    0    0    0 -0.16916512481E+01 -0.53465637361E+01 -0.80463738427E+01  0.98077296052E+01  0.51100000000E-03 0. -1.
         11    1    1    0    0    0 -0.11643659090E+02 -0.28059348715E+02 -0.43059526334E+02  0.52697482441E+02  0.51100000000E-03 0.  1.
         22    1    1    0    0    0  0.13335310338E+02  0.33405912451E+02  0.51105900176E+02  0.62494787953E+02  0.00000000000E+00 0.  1.
</event>
<event>
 4    1  0.1977788E-002  0.9118800E+02  0.7818608E-02  0.1130116E+00
         25   -1    0    0    0    0  0.00000000000E+00  0.00000000000E+00  0.99999998245E-14  0.12500000000E+03  0.12500000000E+03 0.  0.
        -11    1    1    0    0    0  0.11699902513E+02  0.33957902816E+01 -0.15367244194E+02  0.19610489663E+02  0.51100000000E-03 0.  1.
         11    1    1    0    0    0  0.25633542041E+02  0.75573654795E+01 -0.33545811498E+02  0.42889552572E+02  0.51100000000E-03 0. -1.
         22    1    1    0    0    0 -0.37333444555E+02 -0.10953155761E+02  0.48913055692E+02  0.62499957764E+02  0.00000000000E+00 0. -1.
</event>
<event>
 4    1  0.1977788E-002  0.9118800E+02  0.7818608E-02  0.1130116E+00
         25   -1    0    0    0    0  0.00000000000E+00  0.00000000000E+00  0.99999998245E-14  0.12500000000E+03  0.12500000000E+03 0.  0.
        -11    1    1    0    0    0 -0.70487392001E+01  0.47871466008E+01  0.60470146435E+01  0.10448343565E+02  0.51100000000E-03 0. -1.
         11    1    1    0    0    0 -0.35114387968E+02  0.23848797689E+02  0.30126226860E+02  0.52051656445E+02  0.51100000000E-03 0. -1.
         22    1    1    0    0    0  0.42163127168E+02 -0.28635944290E+02 -0.36173241503E+02  0.62499999990E+02  0.00000000000E+00 0. -1.
</event>
<event>
 4    1  0.1977788E-002  0.9118800E+02  0.7818608E-02  0.1130116E+00
         25   -1    0    0    0    0  0.00000000000E+00  0.00000000000E+00  0.99999998245E-14  0.12500000000E+03  0.12500000000E+03 0.  0.
        -11    1    1    0    0    0 -0.26419542485E+02  0.13265306129E+02  0.43918300352E+01  0.29887267241E+02  0.51100000000E-03 0.  1.
         11    1    1    0    0    0 -0.28885692589E+02  0.14288839939E+02  0.50056059105E+01  0.32613038404E+02  0.51100000000E-03 0. -1.
         22    1    1    0    0    0  0.55305235074E+02 -0.27554146067E+02 -0.93974359457E+01  0.62499694355E+02  0.00000000000E+00 0.  1.
</event>
<event>
 4    1  0.1977788E-002  0.9118800E+02  0.7818608E-02  0.1130116E+00
         25   -1    0    0    0    0  0.00000000000E+00  0.00000000000E+00  0.99999998245E-14  0.12500000000E+03  0.12500000000E+03 0.  0.
        -11    1    1    0    0    0  0.35931567394E+02  0.73834396416E+01  0.32485311099E+02  0.48998858699E+02  0.51100000000E-03 0. -1.
         11    1    1    0    0    0  0.98847716710E+01  0.20279243510E+01  0.89699433343E+01  0.13501150760E+02  0.51100000000E-03 0.  1.
         22    1    1    0    0    0 -0.45816339065E+02 -0.94113639926E+01 -0.41455254433E+02  0.62499990541E+02  0.00000000000E+00 0. -1.
</event>
<event>
 4    1  0.1977788E-002  0.9118800E+02  0.7818608E-02  0.1130116E+00
         25   -1    0    0    0    0  0.00000000000E+00  0.00000000000E+00  0.99999998245E-14  0.12500000000E+03  0.12500000000E+03 0.  0.
        -11    1    1    0    0    0  0.14106473342E+01  0.53714379030E+01  0.95466098658E+00  0.56350376137E+01  0.51100000000E-03 0. -1.
         11    1    1    0    0    0  0.14283860858E+02  0.54200120368E+02  0.95886609429E+01  0.56864964150E+02  0.51100000000E-03 0.  1.
         22    1    1    0    0    0 -0.15694508192E+02 -0.59571558271E+02 -0.10543321929E+02  0.62499998236E+02  0.00000000000E+00 0.  1.
</event>
<event>
 4    1  0.1977788E-002  0.9118800E+02  0.7818608E-02  0.1130116E+00
         25   -1    0    0    0    0  0.00000000000E+00  0.00000000000E+00  0.99999998245E-14  0.12500000000E+03  0.12500000000E+03 0.  0.
        -11    1    1    0    0    0 -0.10517132680E+02  0.35902831505E+02 -0.35520996655E+02  0.51588415304E+02  0.51100000000E-03 0.  1.
         11    1    1    0    0    0 -0.22239932897E+01  0.75940183591E+01 -0.75131497795E+01  0.10911584709E+02  0.51100000000E-03 0.  1.
         22    1    1    0    0    0  0.12741125970E+02 -0.43496849864E+02  0.43034146435E+02  0.62499999988E+02  0.00000000000E+00 0.  1.
</event>
<event>
 4    1  0.1977788E-002  0.9118800E+02  0.7818608E-02  0.1130116E+00
         25   -1    0    0    0    0  0.00000000000E+00  0.00000000000E+00  0.99999998245E-14  0.12500000000E+03  0.12500000000E+03 0.  0.
        -11    1    1    0    0    0 -0.18631181031E+02  0.22579602136E+02  0.17145680170E+01  0.29324035926E+02  0.51100000000E-03 0.  1.
         11    1    1    0    0    0 -0.21127927610E+02  0.25500908285E+02  0.19901204047E+01  0.33175988726E+02  0.51100000000E-03 0. -1.
         22    1    1    0    0    0  0.39759108641E+02 -0.48080510421E+02 -0.37046884217E+01  0.62499975348E+02  0.00000000000E+00 0. -1.
</event>
<event>
 4    1  0.1977788E-002  0.9118800E+02  0.7818608E-02  0.1130116E+00
         25   -1    0    0    0    0  0.00000000000E+00  0.00000000000E+00  0.99999998245E-14  0.12500000000E+03  0.12500000000E+03 0.  0.
        -11    1    1    0    0    0  0.93055936356E+00  0.13696446366E+02 -0.58047850588E+02  0.59649069917E+02  0.51100000000E-03 0.  1.
         11    1    1    0    0    0 -0.66790799420E+01 -0.94926889661E+01  0.64792890489E+01  0.13292946984E+02  0.51100000000E-03 0. -1.
         22    1    1    0    0    0  0.57485205784E+01 -0.42037574002E+01  0.51568561539E+02  0.52057983099E+02  0.00000000000E+00 0.  1.
</event>
<event>
 4    1  0.1977788E-002  0.9118800E+02  0.7818608E-02  0.1130116E+00
         25   -1    0    0    0    0  0.00000000000E+00  0.00000000000E+00  0.99999998245E-14  0.12500000000E+03  0.12500000000E+03 0.  0.
        -11    1    1    0    0    0  0.14561184871E+01  0.27286095636E+01  0.43205969685E+01  0.53134875200E+01  0.51100000000E-03 0.  1.
         11    1    1    0    0    0  0.15666943142E+02  0.29374224820E+02  0.46497301249E+02  0.57186512526E+02  0.51100000000E-03 0.  1.
         22    1    1    0    0    0 -0.17123061629E+02 -0.32102834384E+02 -0.50817898217E+02  0.62499999954E+02  0.00000000000E+00 0.  1.
</event>
<event>
 4    1  0.1977788E-002  0.9118800E+02  0.7818608E-02  0.1130116E+00
         25   -1    0    0    0    0  0.00000000000E+00  0.00000000000E+00  0.99999998245E-14  0.12500000000E+03  0.12500000000E+03 0.  0.
        -11    1    1    0    0    0  0.40478498028E+01  0.45791829201E+01 -0.92469310964E+01  0.11084211258E+02  0.51100000000E-03 0. -1.
         11    1    1    0    0    0  0.18261848052E+02  0.22769324816E+02 -0.42330895207E+02  0.51418303513E+02  0.51100000000E-03 0.  1.
         22    1    1    0    0    0 -0.22309697855E+02 -0.27348507736E+02  0.51577826303E+02  0.62497485229E+02  0.00000000000E+00 0.  1.
</event>
<event>
 4    1  0.1977788E-002  0.9118800E+02  0.7818608E-02  0.1130116E+00
         25   -1    0    0    0    0  0.00000000000E+00  0.00000000000E+00  0.99999998245E-14  0.12500000000E+03  0.12500000000E+03 0.  0.
        -11    1    1    0    0    0 -0.43924632770E+02 -0.11515659025E+02  0.26017443862E+02  0.52334416516E+02  0.51100000000E-03 0.  1.
         11    1    1    0    0    0 -0.85316326205E+01 -0.22383248719E+01  0.50537347641E+01  0.10165583541E+02  0.51100000000E-03 0. -1.
         22    1    1    0    0    0  0.52456265390E+02  0.13753983897E+02 -0.31071178626E+02  0.62499999943E+02  0.00000000000E+00 0.  1.
</event>
<event>
 4    1  0.1977788E-002  0.9118800E+02  0.7818608E-02  0.1130116E+00
         25   -1    0    0    0    0  0.00000000000E+00  0.00000000000E+00  0.99999998245E-14  0.12500000000E+03  0.12500000000E+03 0.  0.
        -11    1    1    0    0    0 -0.12343809753E+01  0.53442852288E+01 -0.44706821956E+02  0.45042036040E+02  0.51100000000E-03 0.  1.
         11    1    1    0    0    0 -0.48025308173E+00  0.20720898574E+01 -0.17327905457E+02  0.17457964004E+02  0.51100000000E-03 0. -1.
         22    1    1    0    0    0  0.17146340571E+01 -0.74163750862E+01  0.62034727412E+02  0.62499999956E+02  0.00000000000E+00 0. -1.
</event>
<event>
 4    1  0.1977788E-002  0.9118800E+02  0.7818608E-02  0.1130116E+00
         25   -1    0    0    0    0  0.00000000000E+00  0.00000000000E+00  0.99999998245E-14  0.12500000000E+03  0.12500000000E+03 0.  0.
        -11    1    1    0    0    0 -0.88337751597E+00  0.58081521641E+02 -0.12180562942E+02  0.59351576439E+02  0.51100000000E-03 0. -1.
         11    1    1    0    0    0 -0.44403583617E-01  0.30804144886E+01 -0.64934862329E+00  0.31484248435E+01  0.51100000000E-03 0.  1.
         22    1    1    0    0    0  0.92778109959E+00 -0.61161936130E+02  0.12829911565E+02  0.62499998717E+02  0.00000000000E+00 0. -1.
</event>
<event>
 4    1  0.1977788E-002  0.9118800E+02  0.7818608E-02  0.1130116E+00
         25   -1    0    0    0    0  0.00000000000E+00  0.00000000000E+00  0.99999998245E-14  0.12500000000E+03  0.12500000000E+03 0.  0.
        -11    1    1    0    0    0  0.53530946923E+02  0.31183293612E+02 -0.28512198366E+01  0.62016848789E+02  0.51100000000E-03 0.  1.
         11    1    1    0    0    0  0.41772393761E+00  0.24164691154E+00 -0.23457894717E-01  0.48315323848E+00  0.51100000000E-03 0. -1.
         22    1    1    0    0    0 -0.53948670860E+02 -0.31424940523E+02  0.28746777313E+01  0.62499997972E+02  0.00000000000E+00 0.  1.
</event>
<event>
 4    1  0.1977788E-002  0.9118800E+02  0.7818608E-02  0.1130116E+00
         25   -1    0    0    0    0  0.00000000000E+00  0.00000000000E+00  0.99999998245E-14  0.12500000000E+03  0.12500000000E+03 0.  0.
        -11    1    1    0    0    0 -0.19789004849E+01  0.37819115268E+02  0.31727434360E+02  0.49404773232E+02  0.51100000000E-03 0. -1.
         11    1    1    0    0    0 -0.54279987188E+00  0.10068795148E+02  0.83553441858E+01  0.13095306188E+02  0.51100000000E-03 0.  1.
         22    1    1    0    0    0  0.25217003568E+01 -0.47887910415E+02 -0.40082778546E+02  0.62499920581E+02  0.00000000000E+00 0. -1.
</event>
<event>
 4    1  0.1977788E-002  0.9118800E+02  0.7818608E-02  0.1130116E+00
         25   -1    0    0    0    0  0.00000000000E+00  0.00000000000E+00  0.99999998245E-14  0.12500000000E+03  0.12500000000E+03 0.  0.
        -11    1    1    0    0    0  0.62941486347E+01 -0.13684996211E+01 -0.45712765594E+00  0.64574038285E+01  0.51100000000E-03 0.  1.
         11    1    1    0    0    0  0.54620132555E+02 -0.11895148107E+02 -0.39898875705E+01  0.56042596585E+02  0.51100000000E-03 0. -1.
         22    1    1    0    0    0 -0.60914281190E+02  0.13263647728E+02  0.44470152264E+01  0.62499999587E+02  0.00000000000E+00 0. -1.
</event>
<event>
 4    1  0.1977788E-002  0.9118800E+02  0.7818608E-02  0.1130116E+00
         25   -1    0    0    0    0  0.00000000000E+00  0.00000000000E+00  0.99999998245E-14  0.12500000000E+03  0.12500000000E+03 0.  0.
        -11    1    1    0    0    0 -0.24157248528E+02  0.80518365436E+01  0.35743488998E+02  0.43886236273E+02  0.51100000000E-03 0. -1.
         11    1    1    0    0    0 -0.10246201619E+02  0.34149796710E+01  0.15159995589E+02  0.18613763733E+02  0.51100000000E-03 0. -1.
         22    1    1    0    0    0  0.34403450148E+02 -0.11466816215E+02 -0.50903484587E+02  0.62499999994E+02  0.00000000000E+00 0. -1.
</event>
<event>
 4    1  0.1977788E-002  0.9118800E+02  0.7818608E-02  0.1130116E+00
         25   -1    0    0    0    0  0.00000000000E+00  0.00000000000E+00  0.99999998245E-14  0.12500000000E+03  0.12500000000E+03 0.  0.
        -11    1    1    0    0    0 -0.16611065088E+02 -0.20708427578E+02  0.31308820455E+02  0.41048857410E+02  0.51100000000E-03 0. -1.
         11    1    1    0    0    0 -0.10101662700E+02 -0.15695509679E+02  0.11340322040E+02  0.21840227050E+02  0.51100000000E-03 0.  1.
         22    1    1    0    0    0  0.26712727788E+02  0.36403937257E+02 -0.42649142495E+02  0.62110915540E+02  0.00000000000E+00 0. -1.
</event>
<event>
 4    1  0.1977788E-002  0.9118800E+02  0.7818608E-02  0.1130116E+00
         25   -1    0    0    0    0  0.00000000000E+00  0.00000000000E+00  0.99999998245E-14  0.12500000000E+03  0.12500000000E+03 0.  0.
        -11    1    1    0    0    0  0.42723361084E+01 -0.35988464421E+01  0.11107812095E+02  0.12433343932E+02  0.51100000000E-03 0.  1.
         11    1    1    0    0    0  0.17025550012E+02 -0.14767228387E+02  0.44707274744E+02  0.50066763454E+02  0.51100000000E-03 0. -1.
         22    1    1    0    0    0 -0.21297886121E+02  0.18366074829E+02 -0.55815086839E+02  0.62499892614E+02  0.00000000000E+00 0. -1.
</event>
<event>
 4    1  0.1977788E-002  0.9118800E+02  0.7818608E-02  0.1130116E+00
         25   -1    0    0    0    0  0.00000000000E+00  0.00000000000E+00  0.99999998245E-14  0.12500000000E+03  0.12500000000E+03 0.  0.
        -11    1    1    0    0    0  0.38838307809E+00  0.63669946557E+00  0.12731288639E+01  0.14754948289E+01  0.51100000000E-03 0.  1.
         11    1    1    0    0    0  0.17452037232E+02  0.27482787387E+02  0.51615541854E+02  0.61024924148E+02  0.51100000000E-03 0. -1.
         22    1    1    0    0    0 -0.17840420310E+02 -0.28119486852E+02 -0.52888670718E+02  0.62499581023E+02  0.00000000000E+00 0. -1.
</event>
<event>
 4    1  0.1977788E-002  0.9118800E+02  0.7818608E-02  0.1130116E+00
         25   -1    0    0    0    0  0.00000000000E+00  0.00000000000E+00  0.99999998245E-14  0.12500000000E+03  0.12500000000E+03 0.  0.
        -11    1    1    0    0    0 -0.83438963615E+01 -0.20609347586E+02 -0.25222631500E+01  0.22376944073E+02  0.51100000000E-03 0. -1.
         11    1    1    0    0    0 -0.14967569367E+02 -0.36951989501E+02 -0.45146401227E+01  0.40123056172E+02  0.51100000000E-03 0.  1.
         22    1    1    0    0    0  0.23311465729E+02  0.57561337087E+02  0.70369032727E+01  0.62499999755E+02  0.00000000000E+00 0.  1.
</event>
<event>
 4    1  0.1977788E-002  0.9118800E+02  0.7818608E-02  0.1130116E+00
         25   -1    0    0    0    0  0.00000000000E+00  0.00000000000E+00  0.99999998245E-14  0.12500000000E+03  0.12500000000E+03 0.  0.
        -11    1    1    0    0    0  0.23633572139E+02  0.27447674449E+02 -0.27625684057E+02  0.45553254380E+02  0.51100000000E-03 0. -1.
         11    1    1    0    0    0  0.87919964467E+01  0.10211560643E+02 -0.10277013908E+02  0.16946745629E+02  0.51100000000E-03 0.  1.
         22    1    1    0    0    0 -0.32425568586E+02 -0.37659235092E+02  0.37902697965E+02  0.62499999991E+02  0.00000000000E+00 0. -1.
</event>
<event>
 4    1  0.1977788E-002  0.9118800E+02  0.7818608E-02  0.1130116E+00
         25   -1    0    0    0    0  0.00000000000E+00  0.00000000000E+00  0.99999998245E-14  0.12500000000E+03  0.12500000000E+03 0.  0.
        -11    1    1    0    0    0 -0.24294480011E+02  0.11390610706E+02  0.10938508277E+02  0.28976175297E+02  0.51100000000E-03 0. -1.
         11    1    1    0    0    0 -0.30495956768E+02 -0.17176480794E+02  0.11049417656E+02  0.36703194717E+02  0.51100000000E-03 0.  1.
         22    1    1    0    0    0  0.54790436778E+02  0.57858700874E+01 -0.21987925934E+02  0.59320629986E+02  0.00000000000E+00 0.  1.
</event>
<event>
 4    1  0.1977788E-002  0.9118800E+02  0.7818608E-02  0.1130116E+00
         25   -1    0    0    0    0  0.00000000000E+00  0.00000000000E+00  0.99999998245E-14  0.12500000000E+03  0.12500000000E+03 0.  0.
        -11    1    1    0    0    0 -0.72463393297E+01  0.33532451900E+01  0.61699572851E+01  0.10090691758E+02  0.51100000000E-03 0.  1.
         11    1    1    0    0    0 -0.26387553887E+02  0.30493281546E+02 -0.39701696827E+02  0.56589468550E+02  0.51100000000E-03 0. -1.
         22    1    1    0    0    0  0.33633893217E+02 -0.33846526736E+02  0.33531739542E+02  0.58319839692E+02  0.00000000000E+00 0. -1.
</event>
<event>
 4    1  0.1977788E-002  0.9118800E+02  0.7818608E-02  0.1130116E+00
         25   -1    0    0    0    0  0.00000000000E+00  0.00000000000E+00  0.99999998245E-14  0.12500000000E+03  0.12500000000E+03 0.  0.
        -11    1    1    0    0    0  0.13496839732E+02  0.90047885276E+01  0.46272387011E+01  0.16871936387E+02  0.51100000000E-03 0.  1.
         11    1    1    0    0    0  0.36508983277E+02  0.24341871138E+02  0.12509503021E+02  0.45628063914E+02  0.51100000000E-03 0. -1.
         22    1    1    0    0    0 -0.50005823009E+02 -0.33346659666E+02 -0.17136741722E+02  0.62499999700E+02  0.00000000000E+00 0. -1.
</event>
<event>
 4    1  0.1977788E-002  0.9118800E+02  0.7818608E-02  0.1130116E+00
         25   -1    0    0    0    0  0.00000000000E+00  0.00000000000E+00  0.99999998245E-14  0.12500000000E+03  0.12500000000E+03 0.  0.
        -11    1    1    0    0    0 -0.24224293992E+02  0.10312330585E+02 -0.14870362664E+02  0.30237200061E+02  0.51100000000E-03 0.  1.
         11    1    1    0    0    0 -0.25939036184E+02  0.10958900870E+02 -0.15746845323E+02  0.32262892684E+02  0.51100000000E-03 0. -1.
         22    1    1    0    0    0  0.50163330176E+02 -0.21271231455E+02  0.30617207987E+02  0.62499907255E+02  0.00000000000E+00 0.  1.
</event>
<event>
 4    1  0.1977788E-002  0.9118800E+02  0.7818608E-02  0.1130116E+00
         25   -1    0    0    0    0  0.00000000000E+00  0.00000000000E+00  0.99999998245E-14  0.12500000000E+03  0.12500000000E+03 0.  0.
        -11    1    1    0    0    0 -0.55031914102E+01 -0.27326450450E+01  0.56750962678E+01  0.83641606004E+01  0.51100000000E-03 0.  1.
         11    1    1    0    0    0 -0.35580059628E+02 -0.17767487576E+02  0.36729625470E+02  0.54135844367E+02  0.51100000000E-03 0. -1.
         22    1    1    0    0    0  0.41083251038E+02  0.20500132621E+02 -0.42404721738E+02  0.62499995032E+02  0.00000000000E+00 0. -1.
</event>
<event>
 4    1  0.1977788E-002  0.9118800E+02  0.7818608E-02  0.1130116E+00
         25   -1    0    0    0    0  0.00000000000E+00  0.00000000000E+00  0.99999998245E-14  0.12500000000E+03  0.12500000000E+03 0.  0.
        -11    1    1    0    0    0  0.16850715301E+02 -0.60403391941E+01  0.49964476929E+02  0.53074299419E+02  0.51100000000E-03 0. -1.
         11    1    1    0    0    0  0.29928427961E+01 -0.10744739993E+01  0.88731184100E+01  0.94257006613E+01  0.51100000000E-03 0.  1.
         22    1    1    0    0    0 -0.19843558097E+02  0.71148131934E+01 -0.58837595339E+02  0.62499999920E+02  0.00000000000E+00 0. -1.
</event>
<event>
 4    1  0.1977788E-002  0.9118800E+02  0.7818608E-02  0.1130116E+00
         25   -1    0    0    0    0  0.00000000000E+00  0.00000000000E+00  0.99999998245E-14  0.12500000000E+03  0.12500000000E+03 0.  0.
        -11    1    1    0    0    0  0.14647910938E+02  0.19169113881E+01 -0.53653894256E+02  0.55650482596E+02  0.51100000000E-03 0. -1.
         11    1    1    0    0    0  0.17822277816E+01  0.22507610296E+00 -0.66097769896E+01  0.68495362785E+01  0.51100000000E-03 0.  1.
         22    1    1    0    0    0 -0.16430138719E+02 -0.21419874911E+01  0.60263671245E+02  0.62499981126E+02  0.00000000000E+00 0. -1.
</event>
<event>
 4    1  0.1977788E-002  0.9118800E+02  0.7818608E-02  0.1130116E+00
         25   -1    0    0    0    0  0.00000000000E+00  0.00000000000E+00  0.99999998245E-14  0.12500000000E+03  0.12500000000E+03 0.  0.
        -11    1    1    0    0    0  0.49063359295E+01  0.82873701808E+01 -0.62602856018E+01  0.11486679801E+02  0.51100000000E-03 0.  1.
         11    1    1    0    0    0  0.21543534482E+02  0.37327265719E+02 -0.27294039252E+02  0.51013853246E+02  0.51100000000E-03 0. -1.
         22    1    1    0    0    0 -0.26449870412E+02 -0.45614635900E+02  0.33554324853E+02  0.62499466953E+02  0.00000000000E+00 0. -1.
</event>
<event>
 4    1  0.1977788E-002  0.9118800E+02  0.7818608E-02  0.1130116E+00
         25   -1    0    0    0    0  0.00000000000E+00  0.00000000000E+00  0.99999998245E-14  0.12500000000E+03  0.12500000000E+03 0.  0.
        -11    1    1    0    0    0  0.41775383080E+01 -0.59955726846E+01  0.19469944852E+02  0.20796092685E+02  0.51100000000E-03 0.  1.
         11    1    1    0    0    0  0.83859329822E+01 -0.12029436074E+02  0.39040808156E+02  0.41703907562E+02  0.51100000000E-03 0. -1.
         22    1    1    0    0    0 -0.12563471290E+02  0.18025008759E+02 -0.58510753008E+02  0.62499999753E+02  0.00000000000E+00 0. -1.
</event>
<event>
 4    1  0.1977788E-002  0.9118800E+02  0.7818608E-02  0.1130116E+00
         25   -1    0    0    0    0  0.00000000000E+00  0.00000000000E+00  0.99999998245E-14  0.12500000000E+03  0.12500000000E+03 0.  0.
        -11    1    1    0    0    0 -0.22148305168E+02  0.24480571246E+02 -0.19996269576E+02  0.38596587771E+02  0.51100000000E-03 0.  1.
         11    1    1    0    0    0 -0.63894187276E+01  0.15942741276E+02 -0.17347306740E+02  0.24411569439E+02  0.51100000000E-03 0. -1.
         22    1    1    0    0    0  0.28537723895E+02 -0.40423312522E+02  0.37343576317E+02  0.61991842790E+02  0.00000000000E+00 0.  1.
</event>
<event>
 4    1  0.1977788E-002  0.9118800E+02  0.7818608E-02  0.1130116E+00
         25   -1    0    0    0    0  0.00000000000E+00  0.00000000000E+00  0.99999998245E-14  0.12500000000E+03  0.12500000000E+03 0.  0.
        -11    1    1    0    0    0  0.63474231882E+01 -0.49668868919E+01 -0.68162311925E+01  0.10555602989E+02  0.51100000000E-03 0. -1.
         11    1    1    0    0    0  0.31235007942E+02 -0.24439826118E+02 -0.33545335899E+02  0.51944397029E+02  0.51100000000E-03 0.  1.
         22    1    1    0    0    0 -0.37582431130E+02  0.29406713010E+02  0.40361567092E+02  0.62499999982E+02  0.00000000000E+00 0.  1.
</event>
<event>
 4    1  0.1977788E-002  0.9118800E+02  0.7818608E-02  0.1130116E+00
         25   -1    0    0    0    0  0.00000000000E+00  0.00000000000E+00  0.99999998245E-14  0.12500000000E+03  0.12500000000E+03 0.  0.
        -11    1    1    0    0    0  0.50292101112E+02 -0.32091767132E+02 -0.11133868089E+02  0.60688878477E+02  0.51100000000E-03 0. -1.
         11    1    1    0    0    0  0.15005135635E+01 -0.95810467111E+00 -0.33264956612E+00  0.18111216165E+01  0.51100000000E-03 0.  1.
         22    1    1    0    0    0 -0.51792614676E+02  0.33049871803E+02  0.11466517655E+02  0.62499999906E+02  0.00000000000E+00 0. -1.
</event>
<event>
 4    1  0.1977788E-002  0.9118800E+02  0.7818608E-02  0.1130116E+00
         25   -1    0    0    0    0  0.00000000000E+00  0.00000000000E+00  0.99999998245E-14  0.12500000000E+03  0.12500000000E+03 0.  0.
        -11    1    1    0    0    0  0.10699061497E+02  0.22322047949E+02 -0.46989660426E+01  0.25195714392E+02  0.51100000000E-03 0. -1.
         11    1    1    0    0    0  0.18620713909E+02 -0.44332773501E+02  0.28686958743E+02  0.55991672550E+02  0.51100000000E-03 0.  1.
         22    1    1    0    0    0 -0.29319775406E+02  0.22010725552E+02 -0.23987992700E+02  0.43812613058E+02  0.00000000000E+00 0.  1.
</event>
<event>
 4    1  0.1977788E-002  0.9118800E+02  0.7818608E-02  0.1130116E+00
         25   -1    0    0    0    0  0.00000000000E+00  0.00000000000E+00  0.99999998245E-14  0.12500000000E+03  0.12500000000E+03 0.  0.
        -11    1    1    0    0    0  0.35158932153E+02  0.32645442026E+02  0.15399505139E+01  0.48002571213E+02  0.51100000000E-03 0. -1.
         11    1    1    0    0    0  0.77829660727E+01  0.12201814204E+02  0.28532950471E+01  0.14751275323E+02  0.51100000000E-03 0.  1.
         22    1    1    0    0    0 -0.42941898226E+02 -0.44847256230E+02 -0.43932455610E+01  0.62246153464E+02  0.00000000000E+00 0. -1.
</event>
<event>
 4    1  0.1977788E-002  0.9118800E+02  0.7818608E-02  0.1130116E+00
         25   -1    0    0    0    0  0.00000000000E+00  0.00000000000E+00  0.99999998245E-14  0.12500000000E+03  0.12500000000E+03 0.  0.
        -11    1    1    0    0    0  0.34577960027E+02 -0.14029186065E+02  0.22225525112E+02  0.43433021401E+02  0.51100000000E-03 0. -1.
         11    1    1    0    0    0  0.15179405828E+02 -0.61615228104E+01  0.97555600301E+01  0.19066978690E+02  0.51100000000E-03 0.  1.
         22    1    1    0    0    0 -0.49757365855E+02  0.20190708875E+02 -0.31981085142E+02  0.62499999908E+02  0.00000000000E+00 0. -1.
</event>
<event>
 4    1  0.1977788E-002  0.9118800E+02  0.7818608E-02  0.1130116E+00
         25   -1    0    0    0    0  0.00000000000E+00  0.00000000000E+00  0.99999998245E-14  0.12500000000E+03  0.12500000000E+03 0.  0.
        -11    1    1    0    0    0  0.16060710063E+02 -0.19126319258E+01 -0.78259503609E+01  0.17968029050E+02  0.51100000000E-03 0. -1.
         11    1    1    0    0    0  0.39784137138E+02 -0.47579043999E+01 -0.19434030229E+02  0.44531974505E+02  0.51100000000E-03 0.  1.
         22    1    1    0    0    0 -0.55844847202E+02  0.66705363257E+01  0.27259980590E+02  0.62499996445E+02  0.00000000000E+00 0.  1.
</event>
<event>
 4    1  0.1977788E-002  0.9118800E+02  0.7818608E-02  0.1130116E+00
         25   -1    0    0    0    0  0.00000000000E+00  0.00000000000E+00  0.99999998245E-14  0.12500000000E+03  0.12500000000E+03 0.  0.
        -11    1    1    0    0    0  0.22284339384E+01 -0.35477100925E+02  0.41183547929E+02  0.54402897240E+02  0.51100000000E-03 0. -1.
         11    1    1    0    0    0  0.74957648042E+01 -0.83710698552E+01 -0.29590406100E+01  0.11619691137E+02  0.51100000000E-03 0.  1.
         22    1    1    0    0    0 -0.97241987425E+01  0.43848170780E+02 -0.38224507319E+02  0.58977411623E+02  0.00000000000E+00 0. -1.
</event>
<event>
 4    1  0.1977788E-002  0.9118800E+02  0.7818608E-02  0.1130116E+00
         25   -1    0    0    0    0  0.00000000000E+00  0.00000000000E+00  0.99999998245E-14  0.12500000000E+03  0.12500000000E+03 0.  0.
        -11    1    1    0    0    0  0.37086779482E+01 -0.97141079476E+01  0.32578108636E+01  0.10896399278E+02  0.51100000000E-03 0. -1.
         11    1    1    0    0    0  0.17574785279E+02 -0.45995210448E+02  0.15443418786E+02  0.51603601094E+02  0.51100000000E-03 0. -1.
         22    1    1    0    0    0 -0.21283463227E+02  0.55709318396E+02 -0.18701229649E+02  0.62499999628E+02  0.00000000000E+00 0. -1.
</event>
<event>
 4    1  0.1977788E-002  0.9118800E+02  0.7818608E-02  0.1130116E+00
         25   -1    0    0    0    0  0.00000000000E+00  0.00000000000E+00  0.99999998245E-14  0.12500000000E+03  0.12500000000E+03 0.  0.
        -11    1    1    0    0    0  0.21730392138E+02  0.79087507111E+01 -0.32484597197E+02  0.39874896057E+02  0.51100000000E-03 0.  1.
         11    1    1    0    0    0  0.14974644952E+02  0.69831240125E+01 -0.15670257926E+02  0.22771934396E+02  0.51100000000E-03 0. -1.
         22    1    1    0    0    0 -0.36705037091E+02 -0.14891874724E+02  0.48154855123E+02  0.62353169546E+02  0.00000000000E+00 0.  1.
</event>
<event>
 4    1  0.1977788E-002  0.9118800E+02  0.7818608E-02  0.1130116E+00
         25   -1    0    0    0    0  0.00000000000E+00  0.00000000000E+00  0.99999998245E-14  0.12500000000E+03  0.12500000000E+03 0.  0.
        -11    1    1    0    0    0  0.27403194421E+02 -0.25384295682E+02 -0.34777750542E+02  0.51037138094E+02  0.51100000000E-03 0. -1.
         11    1    1    0    0    0  0.61686798857E+01 -0.56939494655E+01 -0.78053600548E+01  0.11462866914E+02  0.51100000000E-03 0.  1.
         22    1    1    0    0    0 -0.33571874307E+02  0.31078245147E+02  0.42583110597E+02  0.62499994992E+02  0.00000000000E+00 0. -1.
</event>
<event>
 4    1  0.1977788E-002  0.9118800E+02  0.7818608E-02  0.1130116E+00
         25   -1    0    0    0    0  0.00000000000E+00  0.00000000000E+00  0.99999998245E-14  0.12500000000E+03  0.12500000000E+03 0.  0.
        -11    1    1    0    0    0 -0.49358761307E-01 -0.68109499826E+00 -0.13399353612E+01  0.15039128024E+01  0.51100000000E-03 0. -1.
         11    1    1    0    0    0  0.24881148086E+00 -0.25051931608E+02 -0.55614938714E+02  0.60997398247E+02  0.51100000000E-03 0.  1.
         22    1    1    0    0    0 -0.19945271955E+00  0.25733026606E+02  0.56954874075E+02  0.62498688951E+02  0.00000000000E+00 0.  1.
</event>
<event>
 4    1  0.1977788E-002  0.9118800E+02  0.7818608E-02  0.1130116E+00
         25   -1    0    0    0    0  0.00000000000E+00  0.00000000000E+00  0.99999998245E-14  0.12500000000E+03  0.12500000000E+03 0.  0.
        -11    1    1    0    0    0  0.22235559471E+02  0.36628170119E+02 -0.11665033918E+02  0.44408512335E+02  0.51100000000E-03 0.  1.
         11    1    1    0    0    0  0.90579270467E+01  0.14921869035E+02 -0.47532839720E+01  0.18091487685E+02  0.51100000000E-03 0.  1.
         22    1    1    0    0    0 -0.31293486518E+02 -0.51550039153E+02  0.16418317890E+02  0.62499999980E+02  0.00000000000E+00 0.  1.
</event>
<event>
 4    1  0.1977788E-002  0.9118800E+02  0.7818608E-02  0.1130116E+00
         25   -1    0    0    0    0  0.00000000000E+00  0.00000000000E+00  0.99999998245E-14  0.12500000000E+03  0.12500000000E+03 0.  0.
        -11    1    1    0    0    0 -0.66999797754E+01 -0.86814292742E+01  0.58768323368E+02  0.59782713011E+02  0.51100000000E-03 0.  1.
         11    1    1    0    0    0 -0.30394342731E+00 -0.39487642592E+00  0.26712056568E+01  0.27172870516E+01  0.51100000000E-03 0. -1.
         22    1    1    0    0    0  0.70039232027E+01  0.90763057001E+01 -0.61439529025E+02  0.62499999937E+02  0.00000000000E+00 0.  1.
</event>
<event>
 4    1  0.1977788E-002  0.9118800E+02  0.7818608E-02  0.1130116E+00
         25   -1    0    0    0    0  0.00000000000E+00  0.00000000000E+00  0.99999998245E-14  0.12500000000E+03  0.12500000000E+03 0.  0.
        -11    1    1    0    0    0 -0.49605609683E+02 -0.17174506852E+02  0.23804342146E+02  0.57639629621E+02  0.51100000000E-03 0.  1.
         11    1    1    0    0    0  0.89491643268E+01 -0.99959404195E+01 -0.11438741210E+01  0.13465318982E+02  0.51100000000E-03 0. -1.
         22    1    1    0    0    0  0.40656445356E+02  0.27170447272E+02 -0.22660468025E+02  0.53895051397E+02  0.00000000000E+00 0.  1.
</event>
<event>
 4    1  0.1977788E-002  0.9118800E+02  0.7818608E-02  0.1130116E+00
         25   -1    0    0    0    0  0.00000000000E+00  0.00000000000E+00  0.99999998245E-14  0.12500000000E+03  0.12500000000E+03 0.  0.
        -11    1    1    0    0    0 -0.29836394196E+02  0.24999656857E+01 -0.50806632369E+02  0.58972655867E+02  0.51100000000E-03 0. -1.
         11    1    1    0    0    0 -0.17818817136E+01  0.15240047753E+00 -0.30403678344E+01  0.35273453440E+01  0.51100000000E-03 0.  1.
         22    1    1    0    0    0  0.31618275909E+02 -0.26523661632E+01  0.53847000204E+02  0.62499998789E+02  0.00000000000E+00 0. -1.
</event>
<event>
 4    1  0.1977788E-002  0.9118800E+02  0.7818608E-02  0.1130116E+00
         25   -1    0    0    0    0  0.00000000000E+00  0.00000000000E+00  0.99999998245E-14  0.12500000000E+03  0.12500000000E+03 0.  0.
        -11    1    1    0    0    0 -0.13730391050E+01 -0.41685427689E+00  0.13118371697E+01  0.19442018653E+01  0.51100000000E-03 0. -1.
         11    1    1    0    0    0 -0.42961303569E+02 -0.10963086581E+02  0.41245705675E+02  0.60556346559E+02  0.51100000000E-03 0.  1.
         22    1    1    0    0    0  0.44334342674E+02  0.11379940858E+02 -0.42557542845E+02  0.62499451575E+02  0.00000000000E+00 0.  1.
</event>
<event>
 4    1  0.1977788E-002  0.9118800E+02  0.7818608E-02  0.1130116E+00
         25   -1    0    0    0    0  0.00000000000E+00  0.00000000000E+00  0.99999998245E-14  0.12500000000E+03  0.12500000000E+03 0.  0.
        -11    1    1    0    0    0  0.21457824526E+02 -0.24069497068E+02 -0.16033555648E+02  0.36011856790E+02  0.51100000000E-03 0.  1.
         11    1    1    0    0    0  0.15820747112E+02 -0.17685279658E+02 -0.11771033447E+02  0.26488155550E+02  0.51100000000E-03 0. -1.
         22    1    1    0    0    0 -0.37278571638E+02  0.41754776726E+02  0.27804589095E+02  0.62499987660E+02  0.00000000000E+00 0.  1.
</event>
<event>
 4    1  0.1977788E-002  0.9118800E+02  0.7818608E-02  0.1130116E+00
         25   -1    0    0    0    0  0.00000000000E+00  0.00000000000E+00  0.99999998245E-14  0.12500000000E+03  0.12500000000E+03 0.  0.
        -11    1    1    0    0    0  0.84880917855E+01 -0.10489338206E+02  0.56040872931E+02  0.57642461409E+02  0.51100000000E-03 0.  1.
         11    1    1    0    0    0  0.74300239241E+00 -0.89059334302E+00  0.47170817664E+01  0.48575785851E+01  0.51100000000E-03 0. -1.
         22    1    1    0    0    0 -0.92310941779E+01  0.11379931549E+02 -0.60757954697E+02  0.62499960006E+02  0.00000000000E+00 0.  1.
</event>
<event>
 4    1  0.1977788E-002  0.9118800E+02  0.7818608E-02  0.1130116E+00
         25   -1    0    0    0    0  0.00000000000E+00  0.00000000000E+00  0.99999998245E-14  0.12500000000E+03  0.12500000000E+03 0.  0.
        -11    1    1    0    0    0 -0.43438125528E+02 -0.17161882746E+02 -0.34054871324E+02  0.57802553836E+02  0.51100000000E-03 0. -1.
         11    1    1    0    0    0 -0.35248732089E+01 -0.13918044801E+01 -0.27756434048E+01  0.46974511622E+01  0.51100000000E-03 0.  1.
         22    1    1    0    0    0  0.46962998737E+02  0.18553687226E+02  0.36830514728E+02  0.62499995002E+02  0.00000000000E+00 0. -1.
</event>
<event>
 4    1  0.1977788E-002  0.9118800E+02  0.7818608E-02  0.1130116E+00
         25   -1    0    0    0    0  0.00000000000E+00  0.00000000000E+00  0.99999998245E-14  0.12500000000E+03  0.12500000000E+03 0.  0.
        -11    1    1    0    0    0 -0.17764636834E+01  0.44555256484E+02  0.10999463640E+02  0.45927278433E+02  0.51100000000E-03 0.  1.
         11    1    1    0    0    0 -0.63307318333E+00  0.16077184749E+02  0.39722129620E+01  0.16572722383E+02  0.51100000000E-03 0. -1.
         22    1    1    0    0    0  0.24095368668E+01 -0.60632441233E+02 -0.14971676602E+02  0.62499999185E+02  0.00000000000E+00 0.  1.
</event>
<event>
 4    1  0.1977788E-002  0.9118800E+02  0.7818608E-02  0.1130116E+00
         25   -1    0    0    0    0  0.00000000000E+00  0.00000000000E+00  0.99999998245E-14  0.12500000000E+03  0.12500000000E+03 0.  0.
        -11    1    1    0    0    0  0.44158147522E+02  0.12072760270E+02 -0.34749494113E+02  0.57473653742E+02  0.51100000000E-03 0. -1.
         11    1    1    0    0    0  0.38585587257E+01  0.10697509989E+01 -0.30383232782E+01  0.50263556623E+01  0.51100000000E-03 0.  1.
         22    1    1    0    0    0 -0.48016706247E+02 -0.13142511269E+02  0.37787817391E+02  0.62499990596E+02  0.00000000000E+00 0. -1.
</event>
<event>
 4    1  0.1977788E-002  0.9118800E+02  0.7818608E-02  0.1130116E+00
         25   -1    0    0    0    0  0.00000000000E+00  0.00000000000E+00  0.99999998245E-14  0.12500000000E+03  0.12500000000E+03 0.  0.
        -11    1    1    0    0    0  0.45196699549E+02 -0.46941899848E+01  0.14256670659E+02  0.47623835716E+02  0.51100000000E-03 0. -1.
         11    1    1    0    0    0  0.14118221192E+02 -0.14632512766E+01  0.44536494518E+01  0.14876164412E+02  0.51100000000E-03 0. -1.
         22    1    1    0    0    0 -0.59314920741E+02  0.61574412614E+01 -0.18710320111E+02  0.62499999872E+02  0.00000000000E+00 0. -1.
</event>
<event>
 4    1  0.1977788E-002  0.9118800E+02  0.7818608E-02  0.1130116E+00
         25   -1    0    0    0    0  0.00000000000E+00  0.00000000000E+00  0.99999998245E-14  0.12500000000E+03  0.12500000000E+03 0.  0.
        -11    1    1    0    0    0  0.13982916242E+02  0.40036574767E+02  0.31423816279E+02  0.52781677650E+02  0.51100000000E-03 0.  1.
         11    1    1    0    0    0  0.25805839338E+01  0.73706591339E+01  0.57844425985E+01  0.97183232064E+01  0.51100000000E-03 0. -1.
         22    1    1    0    0    0 -0.16563500176E+02 -0.47407233901E+02 -0.37208258878E+02  0.62499999144E+02  0.00000000000E+00 0.  1.
</event>
<event>
 4    1  0.1977788E-002  0.9118800E+02  0.7818608E-02  0.1130116E+00
         25   -1    0    0    0    0  0.00000000000E+00  0.00000000000E+00  0.99999998245E-14  0.12500000000E+03  0.12500000000E+03 0.  0.
        -11    1    1    0    0    0 -0.20697738519E+02  0.33607422801E+02 -0.11490920031E+02  0.41108350618E+02  0.51100000000E-03 0.  1.
         11    1    1    0    0    0 -0.10770104309E+02  0.17488116319E+02 -0.59810789033E+01  0.21391649406E+02  0.51100000000E-03 0. -1.
         22    1    1    0    0    0  0.31467842828E+02 -0.51095539120E+02  0.17471998935E+02  0.62499999976E+02  0.00000000000E+00 0. -1.
</event>
<event>
 4    1  0.1977788E-002  0.9118800E+02  0.7818608E-02  0.1130116E+00
         25   -1    0    0    0    0  0.00000000000E+00  0.00000000000E+00  0.99999998245E-14  0.12500000000E+03  0.12500000000E+03 0.  0.
        -11    1    1    0    0    0 -0.43397565961E+01 -0.54230697895E+02  0.16279933388E+02  0.56787659865E+02  0.51100000000E-03 0. -1.
         11    1    1    0    0    0 -0.36691750072E+00 -0.54363200888E+01  0.17169292074E+01  0.57127971016E+01  0.51100000000E-03 0.  1.
         22    1    1    0    0    0  0.47066740969E+01  0.59667017984E+02 -0.17996862595E+02  0.62499543034E+02  0.00000000000E+00 0. -1.
</event>
<event>
 4    1  0.1977788E-002  0.9118800E+02  0.7818608E-02  0.1130116E+00
         25   -1    0    0    0    0  0.00000000000E+00  0.00000000000E+00  0.99999998245E-14  0.12500000000E+03  0.12500000000E+03 0.  0.
        -11    1    1    0    0    0 -0.14776271976E+00 -0.37124316383E+01  0.70227298291E+01  0.79449806169E+01  0.51100000000E-03 0. -1.
         11    1    1    0    0    0 -0.12494241452E+01 -0.25018600216E+02  0.48464215447E+02  0.54555216035E+02  0.51100000000E-03 0.  1.
         22    1    1    0    0    0  0.13971868650E+01  0.28731031854E+02 -0.55486945276E+02  0.62499803348E+02  0.00000000000E+00 0.  1.
</event>
<event>
 4    1  0.1977788E-002  0.9118800E+02  0.7818608E-02  0.1130116E+00
         25   -1    0    0    0    0  0.00000000000E+00  0.00000000000E+00  0.99999998245E-14  0.12500000000E+03  0.12500000000E+03 0.  0.
        -11    1    1    0    0    0  0.16791944776E+02  0.12263335601E+02 -0.55125165223E+01  0.21511546855E+02  0.51100000000E-03 0.  1.
         11    1    1    0    0    0  0.29487551151E+02  0.25252020869E+02 -0.13261886921E+02  0.41025088371E+02  0.51100000000E-03 0. -1.
         22    1    1    0    0    0 -0.46279495927E+02 -0.37515356470E+02  0.18774403443E+02  0.62463364775E+02  0.00000000000E+00 0. -1.
</event>
<event>
 4    1  0.1977788E-002  0.9118800E+02  0.7818608E-02  0.1130116E+00
         25   -1    0    0    0    0  0.00000000000E+00  0.00000000000E+00  0.99999998245E-14  0.12500000000E+03  0.12500000000E+03 0.  0.
        -11    1    1    0    0    0  0.18892275002E+02  0.27909438379E+02  0.19754038885E+02  0.39065033699E+02  0.51100000000E-03 0.  1.
         11    1    1    0    0    0  0.11233831971E+02  0.16747033372E+02  0.11939057758E+02  0.23435084978E+02  0.51100000000E-03 0. -1.
         22    1    1    0    0    0 -0.30126106973E+02 -0.44656471750E+02 -0.31693096643E+02  0.62499881323E+02  0.00000000000E+00 0.  1.
</event>
<event>
 4    1  0.1977788E-002  0.9118800E+02  0.7818608E-02  0.1130116E+00
         25   -1    0    0    0    0  0.00000000000E+00  0.00000000000E+00  0.99999998245E-14  0.12500000000E+03  0.12500000000E+03 0.  0.
        -11    1    1    0    0    0 -0.48966748722E+01 -0.82172852842E-01 -0.17002827742E+02  0.17694076090E+02  0.51100000000E-03 0. -1.
         11    1    1    0    0    0  0.44293024382E+02 -0.26303516339E+02 -0.10381656863E+02  0.52550221504E+02  0.51100000000E-03 0.  1.
         22    1    1    0    0    0 -0.39396349510E+02  0.26385689192E+02  0.27384484605E+02  0.54755702406E+02  0.00000000000E+00 0.  1.
</event>
<event>
 4    1  0.1977788E-002  0.9118800E+02  0.7818608E-02  0.1130116E+00
         25   -1    0    0    0    0  0.00000000000E+00  0.00000000000E+00  0.99999998245E-14  0.12500000000E+03  0.12500000000E+03 0.  0.
        -11    1    1    0    0    0 -0.15548599656E+00  0.21035894510E+02 -0.18032901275E+02  0.27707734703E+02  0.51100000000E-03 0. -1.
         11    1    1    0    0    0 -0.49638070302E-01  0.25961464718E+02 -0.23164887691E+02  0.34793851989E+02  0.51100000000E-03 0.  1.
         22    1    1    0    0    0  0.20512406686E+00 -0.46997359228E+02  0.41197788967E+02  0.62498413308E+02  0.00000000000E+00 0. -1.
</event>
<event>
 4    1  0.1977788E-002  0.9118800E+02  0.7818608E-02  0.1130116E+00
         25   -1    0    0    0    0  0.00000000000E+00  0.00000000000E+00  0.99999998245E-14  0.12500000000E+03  0.12500000000E+03 0.  0.
        -11    1    1    0    0    0  0.98050681574E+01 -0.22849869098E+02  0.43285537466E+02  0.49918870514E+02  0.51100000000E-03 0.  1.
         11    1    1    0    0    0  0.24717071723E+01 -0.57585238217E+01  0.10909394404E+02  0.12581129499E+02  0.51100000000E-03 0. -1.
         22    1    1    0    0    0 -0.12276775330E+02  0.28608392920E+02 -0.54194931870E+02  0.62499999987E+02  0.00000000000E+00 0.  1.
</event>
<event>
 4    1  0.1977788E-002  0.9118800E+02  0.7818608E-02  0.1130116E+00
         25   -1    0    0    0    0  0.00000000000E+00  0.00000000000E+00  0.99999998245E-14  0.12500000000E+03  0.12500000000E+03 0.  0.
        -11    1    1    0    0    0 -0.65413556148E+01  0.93383833960E+01 -0.14082616289E+02  0.18119459692E+02  0.51100000000E-03 0. -1.
         11    1    1    0    0    0 -0.15949829966E+02  0.23107389138E+02 -0.34369969084E+02  0.44380663400E+02  0.51100000000E-03 0.  1.
         22    1    1    0    0    0  0.22491185581E+02 -0.32445772534E+02  0.48452585373E+02  0.62499876908E+02  0.00000000000E+00 0.  1.
</event>
<event>
 4    1  0.1977788E-002  0.9118800E+02  0.7818608E-02  0.1130116E+00
         25   -1    0    0    0    0  0.00000000000E+00  0.00000000000E+00  0.99999998245E-14  0.12500000000E+03  0.12500000000E+03 0.  0.
        -11    1    1    0    0    0 -0.31179652606E+02  0.25348115623E+02 -0.17345630963E+02  0.43767209370E+02  0.51100000000E-03 0. -1.
         11    1    1    0    0    0 -0.13345147254E+02  0.10849533368E+02 -0.74237534478E+01  0.18732790637E+02  0.51100000000E-03 0. -1.
         22    1    1    0    0    0  0.44524799860E+02 -0.36197648991E+02  0.24769384411E+02  0.62499999993E+02  0.00000000000E+00 0. -1.
</event>
<event>
 4    1  0.1977788E-002  0.9118800E+02  0.7818608E-02  0.1130116E+00
         25   -1    0    0    0    0  0.00000000000E+00  0.00000000000E+00  0.99999998245E-14  0.12500000000E+03  0.12500000000E+03 0.  0.
        -11    1    1    0    0    0 -0.29875177908E+02 -0.23840120505E+02 -0.26018334811E+02  0.46236688325E+02  0.51100000000E-03 0. -1.
         11    1    1    0    0    0 -0.19351647881E+02  0.11511033646E+02  0.19587234799E+01  0.22601477148E+02  0.51100000000E-03 0.  1.
         22    1    1    0    0    0  0.49226825789E+02  0.12329086858E+02  0.24059611331E+02  0.56161834527E+02  0.00000000000E+00 0. -1.
</event>
<event>
 4    1  0.1977788E-002  0.9118800E+02  0.7818608E-02  0.1130116E+00
         25   -1    0    0    0    0  0.00000000000E+00  0.00000000000E+00  0.99999998245E-14  0.12500000000E+03  0.12500000000E+03 0.  0.
        -11    1    1    0    0    0 -0.86010687559E+00  0.17331512917E+01  0.84215417163E+01  0.86409468450E+01  0.51100000000E-03 0.  1.
         11    1    1    0    0    0 -0.51764080707E+01  0.10267426051E+02  0.52617541118E+02  0.53859269135E+02  0.51100000000E-03 0. -1.
         22    1    1    0    0    0  0.60365149463E+01 -0.12000577342E+02 -0.61039082834E+02  0.62499784020E+02  0.00000000000E+00 0. -1.
</event>
<event>
 4    1  0.1977788E-002  0.9118800E+02  0.7818608E-02  0.1130116E+00
         25   -1    0    0    0    0  0.00000000000E+00  0.00000000000E+00  0.99999998245E-14  0.12500000000E+03  0.12500000000E+03 0.  0.
        -11    1    1    0    0    0  0.18213939071E+01 -0.31751479821E+01 -0.16671064049E+01  0.40222238251E+01  0.51100000000E-03 0.  1.
         11    1    1    0    0    0  0.19482663817E+02 -0.48706471489E+02 -0.25877143774E+02  0.58493769963E+02  0.51100000000E-03 0. -1.
         22    1    1    0    0    0 -0.21304057724E+02  0.51881619471E+02  0.27544250179E+02  0.62484006212E+02  0.00000000000E+00 0. -1.
</event>
<event>
 4    1  0.1977788E-002  0.9118800E+02  0.7818608E-02  0.1130116E+00
         25   -1    0    0    0    0  0.00000000000E+00  0.00000000000E+00  0.99999998245E-14  0.12500000000E+03  0.12500000000E+03 0.  0.
        -11    1    1    0    0    0  0.28995277155E+02 -0.14086825981E+02 -0.13747988433E+02  0.35045284272E+02  0.51100000000E-03 0. -1.
         11    1    1    0    0    0  0.22734768787E+02 -0.10989893866E+02 -0.10775650419E+02  0.27454728576E+02  0.51100000000E-03 0.  1.
         22    1    1    0    0    0 -0.51730045942E+02  0.25076719847E+02  0.24523638852E+02  0.62499987152E+02  0.00000000000E+00 0. -1.
</event>
<event>
 4    1  0.1977788E-002  0.9118800E+02  0.7818608E-02  0.1130116E+00
         25   -1    0    0    0    0  0.00000000000E+00  0.00000000000E+00  0.99999998245E-14  0.12500000000E+03  0.12500000000E+03 0.  0.
        -11    1    1    0    0    0 -0.50534507752E+01  0.13635787221E+02  0.20177648563E+02  0.24871862811E+02  0.51100000000E-03 0. -1.
         11    1    1    0    0    0 -0.29598947882E+02 -0.48255138148E+01  0.27393976376E+02  0.40617893117E+02  0.51100000000E-03 0.  1.
         22    1    1    0    0    0  0.34652398658E+02 -0.88102734064E+01 -0.47571624939E+02  0.59510244072E+02  0.00000000000E+00 0.  1.
</event>
<event>
 4    1  0.1977788E-002  0.9118800E+02  0.7818608E-02  0.1130116E+00
         25   -1    0    0    0    0  0.00000000000E+00  0.00000000000E+00  0.99999998245E-14  0.12500000000E+03  0.12500000000E+03 0.  0.
        -11    1    1    0    0    0  0.77530315088E+01  0.27231093466E+02  0.27112193262E+02  0.39200930763E+02  0.51100000000E-03 0.  1.
         11    1    1    0    0    0  0.89539870838E+01  0.98914296103E+01  0.19680496017E+02  0.23776799368E+02  0.51100000000E-03 0. -1.
         22    1    1    0    0    0 -0.16707018593E+02 -0.37122523077E+02 -0.46792689279E+02  0.62022269870E+02  0.00000000000E+00 0.  1.
</event>
<event>
 4    1  0.1977788E-002  0.9118800E+02  0.7818608E-02  0.1130116E+00
         25   -1    0    0    0    0  0.00000000000E+00  0.00000000000E+00  0.99999998245E-14  0.12500000000E+03  0.12500000000E+03 0.  0.
        -11    1    1    0    0    0  0.16033847110E+02 -0.38835547998E+02  0.23624910386E+02  0.48201871670E+02  0.51100000000E-03 0.  1.
         11    1    1    0    0    0  0.20898588069E+00 -0.13372978028E+02  0.59463238059E+01  0.14636904847E+02  0.51100000000E-03 0. -1.
         22    1    1    0    0    0 -0.16242832991E+02  0.52208526026E+02 -0.29571234192E+02  0.62161223484E+02  0.00000000000E+00 0.  1.
</event>
<event>
 4    1  0.1977788E-002  0.9118800E+02  0.7818608E-02  0.1130116E+00
         25   -1    0    0    0    0  0.00000000000E+00  0.00000000000E+00  0.99999998245E-14  0.12500000000E+03  0.12500000000E+03 0.  0.
        -11    1    1    0    0    0 -0.37077727481E+01 -0.76679976839E+01  0.54281500338E+01  0.10100028727E+02  0.51100000000E-03 0.  1.
         11    1    1    0    0    0 -0.19168890550E+02 -0.39797192701E+02  0.28186779056E+02  0.52399975436E+02  0.51100000000E-03 0. -1.
         22    1    1    0    0    0  0.22876663298E+02  0.47465190385E+02 -0.33614929090E+02  0.62499995838E+02  0.00000000000E+00 0. -1.
</event>
<event>
 4    1  0.1977788E-002  0.9118800E+02  0.7818608E-02  0.1130116E+00
         25   -1    0    0    0    0  0.00000000000E+00  0.00000000000E+00  0.99999998245E-14  0.12500000000E+03  0.12500000000E+03 0.  0.
        -11    1    1    0    0    0  0.36160946623E+00 -0.29887400156E+00  0.14652386778E+01  0.15385095771E+01  0.51100000000E-03 0.  1.
         11    1    1    0    0    0  0.14353756969E+02 -0.11827941227E+02  0.58054911916E+02  0.60961490554E+02  0.51100000000E-03 0. -1.
         22    1    1    0    0    0 -0.14715366435E+02  0.12126815228E+02 -0.59520150594E+02  0.62499999869E+02  0.00000000000E+00 0. -1.
</event>
<event>
 4    1  0.1977788E-002  0.9118800E+02  0.7818608E-02  0.1130116E+00
         25   -1    0    0    0    0  0.00000000000E+00  0.00000000000E+00  0.99999998245E-14  0.12500000000E+03  0.12500000000E+03 0.  0.
        -11    1    1    0    0    0  0.12345176594E+02 -0.27733415234E+02  0.34460767128E+02  0.45924831813E+02  0.51100000000E-03 0. -1.
         11    1    1    0    0    0 -0.19322967127E+02  0.16684689458E+02  0.13838784713E+02  0.29039075114E+02  0.51100000000E-03 0.  1.
         22    1    1    0    0    0  0.69777905323E+01  0.11048725776E+02 -0.48299551841E+02  0.50036093073E+02  0.00000000000E+00 0. -1.
</event>
<event>
 4    1  0.1977788E-002  0.9118800E+02  0.7818608E-02  0.1130116E+00
         25   -1    0    0    0    0  0.00000000000E+00  0.00000000000E+00  0.99999998245E-14  0.12500000000E+03  0.12500000000E+03 0.  0.
        -11    1    1    0    0    0 -0.54284954405E+02  0.15354341704E+02 -0.26676192600E+01  0.56477679456E+02  0.51100000000E-03 0. -1.
         11    1    1    0    0    0 -0.61337576502E+01 -0.35206363222E-01 -0.19329883781E-01  0.61338891663E+01  0.51100000000E-03 0.  1.
         22    1    1    0    0    0  0.60418712056E+02 -0.15319135341E+02  0.26869491438E+01  0.62388431378E+02  0.00000000000E+00 0. -1.
</event>
<event>
 4    1  0.1977788E-002  0.9118800E+02  0.7818608E-02  0.1130116E+00
         25   -1    0    0    0    0  0.00000000000E+00  0.00000000000E+00  0.99999998245E-14  0.12500000000E+03  0.12500000000E+03 0.  0.
        -11    1    1    0    0    0  0.16310114100E+02  0.11344003106E+02  0.96202997211E+00  0.19890493466E+02  0.51100000000E-03 0.  1.
         11    1    1    0    0    0  0.40792256782E+02  0.13241286502E+02  0.11603961308E+01  0.42903221337E+02  0.51100000000E-03 0. -1.
         22    1    1    0    0    0 -0.57102370882E+02 -0.24585289608E+02 -0.21224261029E+01  0.62206285197E+02  0.00000000000E+00 0.  1.
</event>
<event>
 4    1  0.1977788E-002  0.9118800E+02  0.7818608E-02  0.1130116E+00
         25   -1    0    0    0    0  0.00000000000E+00  0.00000000000E+00  0.99999998245E-14  0.12500000000E+03  0.12500000000E+03 0.  0.
        -11    1    1    0    0    0 -0.47333149074E+02 -0.27354319634E+02 -0.69338308991E+01  0.55106840003E+02  0.51100000000E-03 0. -1.
         11    1    1    0    0    0 -0.54785936987E+01 -0.43457335519E+01  0.43670059990E+01  0.82444606055E+01  0.51100000000E-03 0.  1.
         22    1    1    0    0    0  0.52811742772E+02  0.31700053186E+02  0.25668249001E+01  0.61648699392E+02  0.00000000000E+00 0. -1.
</event>
<event>
 4    1  0.1977788E-002  0.9118800E+02  0.7818608E-02  0.1130116E+00
         25   -1    0    0    0    0  0.00000000000E+00  0.00000000000E+00  0.99999998245E-14  0.12500000000E+03  0.12500000000E+03 0.  0.
        -11    1    1    0    0    0  0.64545401491E+01  0.67911513530E+01  0.17272030118E+02  0.19649525437E+02  0.51100000000E-03 0. -1.
         11    1    1    0    0    0 -0.88397747843E+01  0.11051381640E+02  0.41519358097E+02  0.43864926211E+02  0.51100000000E-03 0.  1.
         22    1    1    0    0    0  0.23852346353E+01 -0.17842532993E+02 -0.58791388216E+02  0.61485548352E+02  0.00000000000E+00 0.  1.
</event>
<event>
 4    1  0.1977788E-002  0.9118800E+02  0.7818608E-02  0.1130116E+00
         25   -1    0    0    0    0  0.00000000000E+00  0.00000000000E+00  0.99999998245E-14  0.12500000000E+03  0.12500000000E+03 0.  0.
        -11    1    1    0    0    0  0.19676837609E+02 -0.37228438142E+02 -0.29287913206E+02  0.51292459533E+02  0.51100000000E-03 0.  1.
         11    1    1    0    0    0  0.77078379847E+01 -0.93761800696E+01 -0.18679794840E+00  0.12139127350E+02  0.51100000000E-03 0. -1.
         22    1    1    0    0    0 -0.27384675594E+02  0.46604618211E+02  0.29474711154E+02  0.61568413116E+02  0.00000000000E+00 0.  1.
</event>
<event>
 4    1  0.1977788E-002  0.9118800E+02  0.7818608E-02  0.1130116E+00
         25   -1    0    0    0    0  0.00000000000E+00  0.00000000000E+00  0.99999998245E-14  0.12500000000E+03  0.12500000000E+03 0.  0.
        -11    1    1    0    0    0 -0.31641935393E+02 -0.49751049521E+00 -0.40123899912E+02  0.51101731248E+02  0.51100000000E-03 0. -1.
         11    1    1    0    0    0  0.12942682043E+02 -0.36597180678E+01 -0.12211913519E+02  0.18166931135E+02  0.51100000000E-03 0.  1.
         22    1    1    0    0    0  0.18699253351E+02  0.41572285630E+01  0.52335813431E+02  0.55731337618E+02  0.00000000000E+00 0. -1.
</event>
<event>
 4    1  0.1977788E-002  0.9118800E+02  0.7818608E-02  0.1130116E+00
         25   -1    0    0    0    0  0.00000000000E+00  0.00000000000E+00  0.99999998245E-14  0.12500000000E+03  0.12500000000E+03 0.  0.
        -11    1    1    0    0    0  0.37560326309E+01  0.10895939712E+02  0.10505567353E+02  0.15594750046E+02  0.51100000000E-03 0. -1.
         11    1    1    0    0    0  0.11281104807E+02  0.32800999828E+02  0.31574257941E+02  0.46905252160E+02  0.51100000000E-03 0.  1.
         22    1    1    0    0    0 -0.15037137437E+02 -0.43696939540E+02 -0.42079825294E+02  0.62499997794E+02  0.00000000000E+00 0.  1.
</event>
<event>
 4    1  0.1977788E-002  0.9118800E+02  0.7818608E-02  0.1130116E+00
         25   -1    0    0    0    0  0.00000000000E+00  0.00000000000E+00  0.99999998245E-14  0.12500000000E+03  0.12500000000E+03 0.  0.
        -11    1    1    0    0    0  0.52805843916E+02  0.86868320356E+01  0.28096244993E+02  0.60442676856E+02  0.51100000000E-03 0.  1.
         11    1    1    0    0    0  0.17211501200E+01  0.34635021031E+00  0.10777016887E+01  0.20600382022E+01  0.51100000000E-03 0. -1.
         22    1    1    0    0    0 -0.54526994036E+02 -0.90331822459E+01 -0.29173946681E+02  0.62497284942E+02  0.00000000000E+00 0.  1.
</event>
<event>
 4    1  0.1977788E-002  0.9118800E+02  0.7818608E-02  0.1130116E+00
         25   -1    0    0    0    0  0.00000000000E+00  0.00000000000E+00  0.99999998245E-14  0.12500000000E+03  0.12500000000E+03 0.  0.
        -11    1    1    0    0    0 -0.40825161905E+01 -0.97672773910E+01 -0.84803948290E+01  0.13564060704E+02  0.51100000000E-03 0.  1.
         11    1    1    0    0    0 -0.13652354397E+02 -0.35964364511E+02 -0.30250615304E+02  0.48937940514E+02  0.51100000000E-03 0. -1.
         22    1    1    0    0    0  0.17734870587E+02  0.45731641902E+02  0.38731010133E+02  0.62497998781E+02  0.00000000000E+00 0. -1.
</event>
<event>
 4    1  0.1977788E-002  0.9118800E+02  0.7818608E-02  0.1130116E+00
         25   -1    0    0    0    0  0.00000000000E+00  0.00000000000E+00  0.99999998245E-14  0.12500000000E+03  0.12500000000E+03 0.  0.
        -11    1    1    0    0    0  0.12075675761E+02  0.74100858966E+01  0.12599639939E+02  0.18960017008E+02  0.51100000000E-03 0.  1.
         11    1    1    0    0    0  0.27691609886E+02  0.17046602250E+02  0.28953732757E+02  0.43539987910E+02  0.51100000000E-03 0. -1.
         22    1    1    0    0    0 -0.39767285647E+02 -0.24456688147E+02 -0.41553372696E+02  0.62499995082E+02  0.00000000000E+00 0. -1.
</event>
<event>
 4    1  0.1977788E-002  0.9118800E+02  0.7818608E-02  0.1130116E+00
         25   -1    0    0    0    0  0.00000000000E+00  0.00000000000E+00  0.99999998245E-14  0.12500000000E+03  0.12500000000E+03 0.  0.
        -11    1    1    0    0    0 -0.69141219272E+01  0.20494409240E+02  0.41952001917E+02  0.47199537680E+02  0.51100000000E-03 0.  1.
         11    1    1    0    0    0 -0.13643181999E+01  0.70263925029E+01  0.13535876440E+02  0.15311809397E+02  0.51100000000E-03 0. -1.
         22    1    1    0    0    0  0.82784401271E+01 -0.27520801742E+02 -0.55487878357E+02  0.62488652923E+02  0.00000000000E+00 0.  1.
</event>
<event>
 4    1  0.1977788E-002  0.9118800E+02  0.7818608E-02  0.1130116E+00
         25   -1    0    0    0    0  0.00000000000E+00  0.00000000000E+00  0.99999998245E-14  0.12500000000E+03  0.12500000000E+03 0.  0.
        -11    1    1    0    0    0 -0.74565722140E+01  0.75051544457E+01  0.79053362223E+01  0.13206897951E+02  0.51100000000E-03 0.  1.
         11    1    1    0    0    0 -0.27826920474E+02  0.28021507811E+02  0.29500296963E+02  0.49293102198E+02  0.51100000000E-03 0. -1.
         22    1    1    0    0    0  0.35283492688E+02 -0.35526662257E+02 -0.37405633186E+02  0.62499999851E+02  0.00000000000E+00 0. -1.
</event>
<event>
 4    1  0.1977788E-002  0.9118800E+02  0.7818608E-02  0.1130116E+00
         25   -1    0    0    0    0  0.00000000000E+00  0.00000000000E+00  0.99999998245E-14  0.12500000000E+03  0.12500000000E+03 0.  0.
        -11    1    1    0    0    0 -0.21124294456E+01 -0.17638440484E+01  0.54865020615E+00  0.28061577468E+01  0.51100000000E-03 0. -1.
         11    1    1    0    0    0 -0.45779556984E+02 -0.36995916542E+02  0.99487624822E+01  0.59694585631E+02  0.51100000000E-03 0.  1.
         22    1    1    0    0    0  0.47891986430E+02  0.38759760591E+02 -0.10497412688E+02  0.62499256622E+02  0.00000000000E+00 0.  1.
</event>
<event>
 4    1  0.1977788E-002  0.9118800E+02  0.7818608E-02  0.1130116E+00
         25   -1    0    0    0    0  0.00000000000E+00  0.00000000000E+00  0.99999998245E-14  0.12500000000E+03  0.12500000000E+03 0.  0.
        -11    1    1    0    0    0 -0.60157366973E+01 -0.33071571987E+02 -0.44990253151E+02  0.56160847933E+02  0.51100000000E-03 0. -1.
         11    1    1    0    0    0 -0.98608219974E+00 -0.41350510323E+01 -0.47208418164E+01  0.63527437270E+01  0.51100000000E-03 0.  1.
         22    1    1    0    0    0  0.70018188971E+01  0.37206623019E+02  0.49711094967E+02  0.62486408340E+02  0.00000000000E+00 0. -1.
</event>
<event>
 4    1  0.1977788E-002  0.9118800E+02  0.7818608E-02  0.1130116E+00
         25   -1    0    0    0    0  0.00000000000E+00  0.00000000000E+00  0.99999998245E-14  0.12500000000E+03  0.12500000000E+03 0.  0.
        -11    1    1    0    0    0 -0.75165366714E+01 -0.16845784502E+01 -0.26733602943E+02  0.27821244664E+02  0.51100000000E-03 0.  1.
         11    1    1    0    0    0 -0.10860969290E+02 -0.27262512665E+01 -0.32830771915E+02  0.34687932839E+02  0.51100000000E-03 0. -1.
         22    1    1    0    0    0  0.18377505961E+02  0.44108297168E+01  0.59564374858E+02  0.62490822497E+02  0.00000000000E+00 0.  1.
</event>
<event>
 4    1  0.1977788E-002  0.9118800E+02  0.7818608E-02  0.1130116E+00
         25   -1    0    0    0    0  0.00000000000E+00  0.00000000000E+00  0.99999998245E-14  0.12500000000E+03  0.12500000000E+03 0.  0.
        -11    1    1    0    0    0  0.51810842052E+02  0.27851351052E+02  0.13816486600E+02  0.60423144670E+02  0.51100000000E-03 0.  1.
         11    1    1    0    0    0  0.17806372104E+01  0.95746275004E+00  0.47531490532E+00  0.20768553905E+01  0.51100000000E-03 0. -1.
         22    1    1    0    0    0 -0.53591479262E+02 -0.28808813802E+02 -0.14291801505E+02  0.62499999940E+02  0.00000000000E+00 0.  1.
</event>
<event>
 4    1  0.1977788E-002  0.9118800E+02  0.7818608E-02  0.1130116E+00
         25   -1    0    0    0    0  0.00000000000E+00  0.00000000000E+00  0.99999998245E-14  0.12500000000E+03  0.12500000000E+03 0.  0.
        -11    1    1    0    0    0 -0.35019032039E+00  0.26377973683E+02 -0.47668184985E+02  0.54480969053E+02  0.51100000000E-03 0. -1.
         11    1    1    0    0    0 -0.13109062676E+00  0.42581307432E+01 -0.68000456464E+01  0.80243057789E+01  0.51100000000E-03 0.  1.
         22    1    1    0    0    0  0.48128094714E+00 -0.30636104426E+02  0.54468230631E+02  0.62494725168E+02  0.00000000000E+00 0. -1.
</event>
<event>
 4    1  0.1977788E-002  0.9118800E+02  0.7818608E-02  0.1130116E+00
         25   -1    0    0    0    0  0.00000000000E+00  0.00000000000E+00  0.99999998245E-14  0.12500000000E+03  0.12500000000E+03 0.  0.
        -11    1    1    0    0    0  0.32820757727E+02 -0.27218054701E+02 -0.24286483359E+02  0.49069928812E+02  0.51100000000E-03 0. -1.
         11    1    1    0    0    0  0.89812301856E+01 -0.74499481355E+01 -0.66485029204E+01  0.13430071266E+02  0.51100000000E-03 0.  1.
         22    1    1    0    0    0 -0.41801987913E+02  0.34668002836E+02  0.30934986279E+02  0.62499999921E+02  0.00000000000E+00 0. -1.
</event>
<event>
 4    1  0.1977788E-002  0.9118800E+02  0.7818608E-02  0.1130116E+00
         25   -1    0    0    0    0  0.00000000000E+00  0.00000000000E+00  0.99999998245E-14  0.12500000000E+03  0.12500000000E+03 0.  0.
        -11    1    1    0    0    0  0.50794268422E+01 -0.56994305568E+01  0.99419622268E+00  0.76988643388E+01  0.51100000000E-03 0. -1.
         11    1    1    0    0    0  0.36210289080E+02 -0.40496939797E+02  0.72096388685E+01  0.54801150181E+02  0.51100000000E-03 0.  1.
         22    1    1    0    0    0 -0.41289715923E+02  0.46196370354E+02 -0.82038350911E+01  0.62499985481E+02  0.00000000000E+00 0.  1.
</event>
<event>
 4    1  0.1977788E-002  0.9118800E+02  0.7818608E-02  0.1130116E+00
         25   -1    0    0    0    0  0.00000000000E+00  0.00000000000E+00  0.99999998245E-14  0.12500000000E+03  0.12500000000E+03 0.  0.
        -11    1    1    0    0    0 -0.16713411623E+02  0.36887418717E+02 -0.25163390324E+02  0.47678255008E+02  0.51100000000E-03 0. -1.
         11    1    1    0    0    0 -0.51903847369E+01  0.11468400071E+02 -0.78243110323E+01  0.14821745420E+02  0.51100000000E-03 0.  1.
         22    1    1    0    0    0  0.21903796360E+02 -0.48355818789E+02  0.32987701356E+02  0.62499999572E+02  0.00000000000E+00 0. -1.
</event>
<event>
 4    1  0.1977788E-002  0.9118800E+02  0.7818608E-02  0.1130116E+00
         25   -1    0    0    0    0  0.00000000000E+00  0.00000000000E+00  0.99999998245E-14  0.12500000000E+03  0.12500000000E+03 0.  0.
        -11    1    1    0    0    0 -0.75451930008E+00  0.41872235136E+00 -0.11919765371E+01  0.14715420850E+01  0.51100000000E-03 0.  1.
         11    1    1    0    0    0 -0.58075317409E+02  0.15506539394E+02 -0.11686722329E+02  0.61235404262E+02  0.51100000000E-03 0. -1.
         22    1    1    0    0    0  0.58829836709E+02 -0.15925261746E+02  0.12878698866E+02  0.62293053653E+02  0.00000000000E+00 0. -1.
</event>
<event>
 4    1  0.1977788E-002  0.9118800E+02  0.7818608E-02  0.1130116E+00
         25   -1    0    0    0    0  0.00000000000E+00  0.00000000000E+00  0.99999998245E-14  0.12500000000E+03  0.12500000000E+03 0.  0.
        -11    1    1    0    0    0 -0.49895740783E+02 -0.15052251956E+02  0.30366991577E+01  0.52205141311E+02  0.51100000000E-03 0.  1.
         11    1    1    0    0    0 -0.98386572659E+01 -0.29699286471E+01  0.60371653501E+00  0.10294859245E+02  0.51100000000E-03 0. -1.
         22    1    1    0    0    0  0.59734398049E+02  0.18022180603E+02 -0.36404156927E+01  0.62499999444E+02  0.00000000000E+00 0.  1.
</event>
<event>
 4    1  0.1977788E-002  0.9118800E+02  0.7818608E-02  0.1130116E+00
         25   -1    0    0    0    0  0.00000000000E+00  0.00000000000E+00  0.99999998245E-14  0.12500000000E+03  0.12500000000E+03 0.  0.
        -11    1    1    0    0    0 -0.10468744888E+01  0.39500062095E+01  0.60068240194E+01  0.72650141302E+01  0.51100000000E-03 0. -1.
         11    1    1    0    0    0 -0.79316620994E+01  0.30058973736E+02  0.45655783839E+02  0.55234986774E+02  0.51100000000E-03 0.  1.
         22    1    1    0    0    0  0.89785365882E+01 -0.34008979946E+02 -0.51662607858E+02  0.62499999096E+02  0.00000000000E+00 0.  1.
</event>
<event>
 4    1  0.1977788E-002  0.9118800E+02  0.7818608E-02  0.1130116E+00
         25   -1    0    0    0    0  0.00000000000E+00  0.00000000000E+00  0.99999998245E-14  0.12500000000E+03  0.12500000000E+03 0.  0.
        -11    1    1    0    0    0  0.53179140653E+01 -0.20883752941E+02 -0.90099928251E+01  0.23357896264E+02  0.51100000000E-03 0.  1.
         11    1    1    0    0    0  0.86990722657E+01 -0.35177593578E+02 -0.14798606002E+02  0.39142504877E+02  0.51100000000E-03 0. -1.
         22    1    1    0    0    0 -0.14016986331E+02  0.56061346519E+02  0.23808598827E+02  0.62499598858E+02  0.00000000000E+00 0.  1.
</event>
<event>
 4    1  0.1977788E-002  0.9118800E+02  0.7818608E-02  0.1130116E+00
         25   -1    0    0    0    0  0.00000000000E+00  0.00000000000E+00  0.99999998245E-14  0.12500000000E+03  0.12500000000E+03 0.  0.
        -11    1    1    0    0    0  0.18583606894E+01 -0.44620164138E+01  0.84712569464E+01  0.97532194398E+01  0.51100000000E-03 0.  1.
         11    1    1    0    0    0  0.10099902512E+02 -0.24049748177E+02  0.45845667531E+02  0.52746788052E+02  0.51100000000E-03 0. -1.
         22    1    1    0    0    0 -0.11958263201E+02  0.28511764591E+02 -0.54316924477E+02  0.62499992509E+02  0.00000000000E+00 0. -1.
</event>
<event>
 4    1  0.1977788E-002  0.9118800E+02  0.7818608E-02  0.1130116E+00
         25   -1    0    0    0    0  0.00000000000E+00  0.00000000000E+00  0.99999998245E-14  0.12500000000E+03  0.12500000000E+03 0.  0.
        -11    1    1    0    0    0  0.10871222974E+02  0.38815025176E+02  0.14650567592E+02  0.42888562571E+02  0.51100000000E-03 0.  1.
         11    1    1    0    0    0  0.67654637510E+01  0.16838212321E+02  0.75464079369E+01  0.19653121048E+02  0.51100000000E-03 0. -1.
         22    1    1    0    0    0 -0.17636686725E+02 -0.55653237497E+02 -0.22196975529E+02  0.62458316381E+02  0.00000000000E+00 0.  1.
</event>
<event>
 4    1  0.1977788E-002  0.9118800E+02  0.7818608E-02  0.1130116E+00
         25   -1    0    0    0    0  0.00000000000E+00  0.00000000000E+00  0.99999998245E-14  0.12500000000E+03  0.12500000000E+03 0.  0.
        -11    1    1    0    0    0 -0.11238832127E+02  0.45995682968E+01 -0.15445467815E+02  0.19647642413E+02  0.51100000000E-03 0. -1.
         11    1    1    0    0    0 -0.21606544680E+02  0.11079879647E+02 -0.35336181299E+02  0.42874843615E+02  0.51100000000E-03 0.  1.
         22    1    1    0    0    0  0.32845376807E+02 -0.15679447944E+02  0.50781649114E+02  0.62477513972E+02  0.00000000000E+00 0.  1.
</event>
<event>
 4    1  0.1977788E-002  0.9118800E+02  0.7818608E-02  0.1130116E+00
         25   -1    0    0    0    0  0.00000000000E+00  0.00000000000E+00  0.99999998245E-14  0.12500000000E+03  0.12500000000E+03 0.  0.
        -11    1    1    0    0    0 -0.37108741603E+02 -0.25116237936E+02 -0.29567310916E+01  0.44906863289E+02  0.51100000000E-03 0.  1.
         11    1    1    0    0    0 -0.11446429683E+02 -0.13640494745E+02 -0.10491340789E+01  0.17837727769E+02  0.51100000000E-03 0. -1.
         22    1    1    0    0    0  0.48555171287E+02  0.38756732681E+02  0.40058651705E+01  0.62255408942E+02  0.00000000000E+00 0.  1.
</event>
<event>
 4    1  0.1977788E-002  0.9118800E+02  0.7818608E-02  0.1130116E+00
         25   -1    0    0    0    0  0.00000000000E+00  0.00000000000E+00  0.99999998245E-14  0.12500000000E+03  0.12500000000E+03 0.  0.
        -11    1    1    0    0    0  0.88748655393E+01 -0.53118387979E+02 -0.73086929334E+01  0.54348352068E+02  0.51100000000E-03 0. -1.
         11    1    1    0    0    0  0.11705660079E+01 -0.80365864128E+01 -0.74741596704E+00  0.81557082364E+01  0.51100000000E-03 0.  1.
         22    1    1    0    0    0 -0.10045431547E+02  0.61154974392E+02  0.80561089004E+01  0.62495939696E+02  0.00000000000E+00 0. -1.
</event>
<event>
 4    1  0.1977788E-002  0.9118800E+02  0.7818608E-02  0.1130116E+00
         25   -1    0    0    0    0  0.00000000000E+00  0.00000000000E+00  0.99999998245E-14  0.12500000000E+03  0.12500000000E+03 0.  0.
        -11    1    1    0    0    0 -0.34675443955E+02  0.38247351206E+02  0.14896645154E+02  0.53732265212E+02  0.51100000000E-03 0. -1.
         11    1    1    0    0    0 -0.56587267349E+01  0.62404929227E+01  0.24306857626E+01  0.87677348110E+01  0.51100000000E-03 0.  1.
         22    1    1    0    0    0  0.40334170690E+02 -0.44487844129E+02 -0.17327330916E+02  0.62499999977E+02  0.00000000000E+00 0. -1.
</event>
<event>
 4    1  0.1977788E-002  0.9118800E+02  0.7818608E-02  0.1130116E+00
         25   -1    0    0    0    0  0.00000000000E+00  0.00000000000E+00  0.99999998245E-14  0.12500000000E+03  0.12500000000E+03 0.  0.
        -11    1    1    0    0    0  0.32159415774E+02 -0.30424112003E+02  0.41687750663E+02  0.60808906993E+02  0.51100000000E-03 0. -1.
         11    1    1    0    0    0  0.15792694476E+01 -0.52891208074E+00  0.69031602618E+00  0.18028800444E+01  0.51100000000E-03 0.  1.
         22    1    1    0    0    0 -0.33738685222E+02  0.30953024083E+02 -0.42378066689E+02  0.62388212963E+02  0.00000000000E+00 0. -1.
</event>
<event>
 4    1  0.1977788E-002  0.9118800E+02  0.7818608E-02  0.1130116E+00
         25   -1    0    0    0    0  0.00000000000E+00  0.00000000000E+00  0.99999998245E-14  0.12500000000E+03  0.12500000000E+03 0.  0.
        -11    1    1    0    0    0 -0.32434481226E+01 -0.87104577102E+01  0.85686278500E+01  0.12641732980E+02  0.51100000000E-03 0.  1.
         11    1    1    0    0    0 -0.14218466063E+02 -0.34213529287E+02  0.33366790120E+02  0.49860535964E+02  0.51100000000E-03 0. -1.
         22    1    1    0    0    0  0.17461914186E+02  0.42923986997E+02 -0.41935417970E+02  0.62497731056E+02  0.00000000000E+00 0. -1.
</event>
<event>
 4    1  0.1977788E-002  0.9118800E+02  0.7818608E-02  0.1130116E+00
         25   -1    0    0    0    0  0.00000000000E+00  0.00000000000E+00  0.99999998245E-14  0.12500000000E+03  0.12500000000E+03 0.  0.
        -11    1    1    0    0    0 -0.11447546587E+02  0.19350675030E+02 -0.53128220923E+02  0.57689711437E+02  0.51100000000E-03 0.  1.
         11    1    1    0    0    0 -0.13011696277E+01 -0.75405972439E+00 -0.48629591577E+01  0.50901886506E+01  0.51100000000E-03 0. -1.
         22    1    1    0    0    0  0.12748716215E+02 -0.18596615306E+02  0.57991180081E+02  0.62220099912E+02  0.00000000000E+00 0.  1.
</event>
<event>
 4    1  0.1977788E-002  0.9118800E+02  0.7818608E-02  0.1130116E+00
         25   -1    0    0    0    0  0.00000000000E+00  0.00000000000E+00  0.99999998245E-14  0.12500000000E+03  0.12500000000E+03 0.  0.
        -11    1    1    0    0    0  0.24133091253E+01 -0.28376575035E+02  0.39589754541E+02  0.48768870568E+02  0.51100000000E-03 0.  1.
         11    1    1    0    0    0  0.67106774248E+00 -0.79800785270E+01  0.11154013350E+02  0.13731132483E+02  0.51100000000E-03 0. -1.
         22    1    1    0    0    0 -0.30843768678E+01  0.36356653562E+02 -0.50743767890E+02  0.62499996949E+02  0.00000000000E+00 0.  1.
</event>
<event>
 4    1  0.1977788E-002  0.9118800E+02  0.7818608E-02  0.1130116E+00
         25   -1    0    0    0    0  0.00000000000E+00  0.00000000000E+00  0.99999998245E-14  0.12500000000E+03  0.12500000000E+03 0.  0.
        -11    1    1    0    0    0  0.15190159444E+02  0.51584912475E+01 -0.40416430465E+01  0.16543453529E+02  0.51100000000E-03 0. -1.
         11    1    1    0    0    0  0.46056997341E+02  0.29144896514E+01 -0.31822228221E+01  0.46258705087E+02  0.51100000000E-03 0.  1.
         22    1    1    0    0    0 -0.61247156785E+02 -0.80729808990E+01  0.72238658686E+01  0.62197841384E+02  0.00000000000E+00 0.  1.
</event>
<event>
 4    1  0.1977788E-002  0.9118800E+02  0.7818608E-02  0.1130116E+00
         25   -1    0    0    0    0  0.00000000000E+00  0.00000000000E+00  0.99999998245E-14  0.12500000000E+03  0.12500000000E+03 0.  0.
        -11    1    1    0    0    0  0.17651750776E+01 -0.47164726201E+01  0.10699685651E+02  0.11825575264E+02  0.51100000000E-03 0. -1.
         11    1    1    0    0    0  0.75763048317E+01 -0.20210455648E+02  0.45847948972E+02  0.50674424886E+02  0.51100000000E-03 0.  1.
         22    1    1    0    0    0 -0.93414799092E+01  0.24926928268E+02 -0.56547634623E+02  0.62499999850E+02  0.00000000000E+00 0.  1.
</event>
<event>
 4    1  0.1977788E-002  0.9118800E+02  0.7818608E-02  0.1130116E+00
         25   -1    0    0    0    0  0.00000000000E+00  0.00000000000E+00  0.99999998245E-14  0.12500000000E+03  0.12500000000E+03 0.  0.
        -11    1    1    0    0    0  0.65542730347E+01 -0.49428466564E+02 -0.28014140776E+02  0.57191991446E+02  0.51100000000E-03 0.  1.
         11    1    1    0    0    0  0.60808934802E+00 -0.45986585875E+01 -0.25802629259E+01  0.53080307542E+01  0.51100000000E-03 0. -1.
         22    1    1    0    0    0 -0.71623623827E+01  0.54027125152E+02  0.30594403702E+02  0.62499977800E+02  0.00000000000E+00 0.  1.
</event>
<event>
 4    1  0.1977788E-002  0.9118800E+02  0.7818608E-02  0.1130116E+00
         25   -1    0    0    0    0  0.00000000000E+00  0.00000000000E+00  0.99999998245E-14  0.12500000000E+03  0.12500000000E+03 0.  0.
        -11    1    1    0    0    0 -0.31270365128E+02  0.17176434894E+02  0.21172101136E+02  0.41486425704E+02  0.51100000000E-03 0.  1.
         11    1    1    0    0    0 -0.15840078516E+02  0.86961876484E+01  0.10725602272E+02  0.21013574455E+02  0.51100000000E-03 0. -1.
         22    1    1    0    0    0  0.47110443643E+02 -0.25872622542E+02 -0.31897703408E+02  0.62499999842E+02  0.00000000000E+00 0.  1.
</event>
<event>
 4    1  0.1977788E-002  0.9118800E+02  0.7818608E-02  0.1130116E+00
         25   -1    0    0    0    0  0.00000000000E+00  0.00000000000E+00  0.99999998245E-14  0.12500000000E+03  0.12500000000E+03 0.  0.
        -11    1    1    0    0    0  0.97388821039E+01  0.57860405783E+02  0.18662027964E+02  0.61570639675E+02  0.51100000000E-03 0.  1.
         11    1    1    0    0    0  0.16536463089E+00  0.87916125981E+00  0.25303678733E+00  0.92967621178E+00  0.51100000000E-03 0. -1.
         22    1    1    0    0    0 -0.99042467348E+01 -0.58739567043E+02 -0.18915064751E+02  0.62499684113E+02  0.00000000000E+00 0.  1.
</event>
<event>
 4    1  0.1977788E-002  0.9118800E+02  0.7818608E-02  0.1130116E+00
         25   -1    0    0    0    0  0.00000000000E+00  0.00000000000E+00  0.99999998245E-14  0.12500000000E+03  0.12500000000E+03 0.  0.
        -11    1    1    0    0    0  0.24761987632E+01 -0.61833101067E+01  0.29722244040E+02  0.30459426705E+02  0.51100000000E-03 0.  1.
         11    1    1    0    0    0  0.36476441460E+01 -0.66219946040E+01  0.31140238300E+02  0.32044821141E+02  0.51100000000E-03 0. -1.
         22    1    1    0    0    0 -0.61238429092E+01  0.12805304711E+02 -0.60862482339E+02  0.62495752154E+02  0.00000000000E+00 0.  1.
</event>
<event>
 4    1  0.1977788E-002  0.9118800E+02  0.7818608E-02  0.1130116E+00
         25   -1    0    0    0    0  0.00000000000E+00  0.00000000000E+00  0.99999998245E-14  0.12500000000E+03  0.12500000000E+03 0.  0.
        -11    1    1    0    0    0  0.17076777059E+02 -0.64088200572E+01 -0.19481070947E+01  0.18343511408E+02  0.51100000000E-03 0. -1.
         11    1    1    0    0    0  0.42517600760E+02 -0.12142280426E+02  0.23870613326E+00  0.44218076950E+02  0.51100000000E-03 0.  1.
         22    1    1    0    0    0 -0.59594377819E+02  0.18551100483E+02  0.17094009614E+01  0.62438411642E+02  0.00000000000E+00 0.  1.
</event>
<event>
 4    1  0.1977788E-002  0.9118800E+02  0.7818608E-02  0.1130116E+00
         25   -1    0    0    0    0  0.00000000000E+00  0.00000000000E+00  0.99999998245E-14  0.12500000000E+03  0.12500000000E+03 0.  0.
        -11    1    1    0    0    0 -0.35037297659E+02  0.22420125518E+02  0.10315582921E+02  0.42856569003E+02  0.51100000000E-03 0.  1.
         11    1    1    0    0    0 -0.15912493560E+02  0.10431736575E+02  0.48846577908E+01  0.19644043913E+02  0.51100000000E-03 0. -1.
         22    1    1    0    0    0  0.50949791218E+02 -0.32851862093E+02 -0.15200240711E+02  0.62499387084E+02  0.00000000000E+00 0.  1.
</event>
<event>
 4    1  0.1977788E-002  0.9118800E+02  0.7818608E-02  0.1130116E+00
         25   -1    0    0    0    0  0.00000000000E+00  0.00000000000E+00  0.99999998245E-14  0.12500000000E+03  0.12500000000E+03 0.  0.
        -11    1    1    0    0    0  0.26221351057E+02  0.19029922778E+02  0.43655690647E+02  0.54364662588E+02  0.51100000000E-03 0. -1.
         11    1    1    0    0    0 -0.24130642966E+01  0.47372751901E+01  0.76307037905E+01  0.93001234468E+01  0.51100000000E-03 0.  1.
         22    1    1    0    0    0 -0.23808286760E+02 -0.23767197968E+02 -0.51286394438E+02  0.61335213965E+02  0.00000000000E+00 0. -1.
</event>
<event>
 4    1  0.1977788E-002  0.9118800E+02  0.7818608E-02  0.1130116E+00
         25   -1    0    0    0    0  0.00000000000E+00  0.00000000000E+00  0.99999998245E-14  0.12500000000E+03  0.12500000000E+03 0.  0.
        -11    1    1    0    0    0  0.29372185756E+02  0.31149887361E+02  0.37968813652E+02  0.57224746300E+02  0.51100000000E-03 0. -1.
         11    1    1    0    0    0  0.27115283357E+01  0.28701820133E+01  0.34982824409E+01  0.52752545912E+01  0.51100000000E-03 0.  1.
         22    1    1    0    0    0 -0.32083714092E+02 -0.34020069374E+02 -0.41467096093E+02  0.62499999109E+02  0.00000000000E+00 0. -1.
</event>
<event>
 4    1  0.1977788E-002  0.9118800E+02  0.7818608E-02  0.1130116E+00
         25   -1    0    0    0    0  0.00000000000E+00  0.00000000000E+00  0.99999998245E-14  0.12500000000E+03  0.12500000000E+03 0.  0.
        -11    1    1    0    0    0  0.10609156240E+02 -0.21022820375E+02  0.97337452654E+01  0.25480560626E+02  0.51100000000E-03 0.  1.
         11    1    1    0    0    0  0.15280879985E+02 -0.30810182183E+02  0.13701239066E+02  0.37020218415E+02  0.51100000000E-03 0. -1.
         22    1    1    0    0    0 -0.25890036225E+02  0.51833002558E+02 -0.23434984332E+02  0.62499220960E+02  0.00000000000E+00 0.  1.
</event>
<event>
 4    1  0.1977788E-002  0.9118800E+02  0.7818608E-02  0.1130116E+00
         25   -1    0    0    0    0  0.00000000000E+00  0.00000000000E+00  0.99999998245E-14  0.12500000000E+03  0.12500000000E+03 0.  0.
        -11    1    1    0    0    0  0.62770407654E+01 -0.83081957215E+01  0.11359284738E+02  0.15409760119E+02  0.51100000000E-03 0.  1.
         11    1    1    0    0    0  0.28220979465E+02  0.42397417696E+02  0.16650560211E+02  0.53583634300E+02  0.51100000000E-03 0. -1.
         22    1    1    0    0    0 -0.34498020231E+02 -0.34089221974E+02 -0.28009844948E+02  0.56006605581E+02  0.00000000000E+00 0. -1.
</event>
<event>
 4    1  0.1977788E-002  0.9118800E+02  0.7818608E-02  0.1130116E+00
         25   -1    0    0    0    0  0.00000000000E+00  0.00000000000E+00  0.99999998245E-14  0.12500000000E+03  0.12500000000E+03 0.  0.
        -11    1    1    0    0    0 -0.31278655658E+00  0.18749406393E+00  0.80531316553E-02  0.36476645684E+00  0.51100000000E-03 0. -1.
         11    1    1    0    0    0 -0.54192657139E+02  0.30326438224E+02  0.20643965573E+01  0.62135325513E+02  0.51100000000E-03 0.  1.
         22    1    1    0    0    0  0.54505443696E+02 -0.30513932288E+02 -0.20724496889E+01  0.62499908031E+02  0.00000000000E+00 0.  1.
</event>
<event>
 4    1  0.1977788E-002  0.9118800E+02  0.7818608E-02  0.1130116E+00
         25   -1    0    0    0    0  0.00000000000E+00  0.00000000000E+00  0.99999998245E-14  0.12500000000E+03  0.12500000000E+03 0.  0.
        -11    1    1    0    0    0  0.16943754451E+02  0.93990684670E+01 -0.16474950255E+01  0.19446016123E+02  0.51100000000E-03 0. -1.
         11    1    1    0    0    0  0.38402663611E+02  0.15555034034E+02 -0.12378590778E+02  0.43242955104E+02  0.51100000000E-03 0.  1.
         22    1    1    0    0    0 -0.55346418061E+02 -0.24954102501E+02  0.14026085803E+02  0.62311028773E+02  0.00000000000E+00 0.  1.
</event>
<event>
 4    1  0.1977788E-002  0.9118800E+02  0.7818608E-02  0.1130116E+00
         25   -1    0    0    0    0  0.00000000000E+00  0.00000000000E+00  0.99999998245E-14  0.12500000000E+03  0.12500000000E+03 0.  0.
        -11    1    1    0    0    0  0.25705756070E+02  0.32843627012E+01 -0.52528858970E+02  0.58573491944E+02  0.51100000000E-03 0.  1.
         11    1    1    0    0    0  0.19012664003E+01  0.34850584690E+00 -0.34217569286E+01  0.39299734083E+01  0.51100000000E-03 0. -1.
         22    1    1    0    0    0 -0.27607022471E+02 -0.36328685481E+01  0.55950615899E+02  0.62496534648E+02  0.00000000000E+00 0.  1.
</event>
<event>
 4    1  0.1977788E-002  0.9118800E+02  0.7818608E-02  0.1130116E+00
         25   -1    0    0    0    0  0.00000000000E+00  0.00000000000E+00  0.99999998245E-14  0.12500000000E+03  0.12500000000E+03 0.  0.
        -11    1    1    0    0    0  0.49550637411E+02  0.12553375072E+01  0.13379994096E+02  0.51340683501E+02  0.51100000000E-03 0.  1.
         11    1    1    0    0    0  0.10770296578E+02  0.27219617514E+00  0.29080862560E+01  0.11159316515E+02  0.51100000000E-03 0. -1.
         22    1    1    0    0    0 -0.60320933989E+02 -0.15275336823E+01 -0.16288080352E+02  0.62499999984E+02  0.00000000000E+00 0.  1.
</event>
<event>
 4    1  0.1977788E-002  0.9118800E+02  0.7818608E-02  0.1130116E+00
         25   -1    0    0    0    0  0.00000000000E+00  0.00000000000E+00  0.99999998245E-14  0.12500000000E+03  0.12500000000E+03 0.  0.
        -11    1    1    0    0    0  0.11999658741E+00 -0.57535779005E+01  0.18497075211E+02  0.19371624853E+02  0.51100000000E-03 0. -1.
         11    1    1    0    0    0  0.22794438930E+02  0.35924942887E+02  0.23875918997E+02  0.48787779984E+02  0.51100000000E-03 0.  1.
         22    1    1    0    0    0 -0.22914435518E+02 -0.30171364986E+02 -0.42372994208E+02  0.56840595162E+02  0.00000000000E+00 0.  1.
</event>
<event>
 4    1  0.1977788E-002  0.9118800E+02  0.7818608E-02  0.1130116E+00
         25   -1    0    0    0    0  0.00000000000E+00  0.00000000000E+00  0.99999998245E-14  0.12500000000E+03  0.12500000000E+03 0.  0.
        -11    1    1    0    0    0 -0.36640767254E+01  0.47048540235E+01 -0.53597351309E+00  0.59873514595E+01  0.51100000000E-03 0.  1.
         11    1    1    0    0    0 -0.35079878359E+02  0.44178028310E+02 -0.33956158526E+01  0.56513947468E+02  0.51100000000E-03 0. -1.
         22    1    1    0    0    0  0.38743955084E+02 -0.48882882334E+02  0.39315893657E+01  0.62498701073E+02  0.00000000000E+00 0. -1.
</event>
<event>
 4    1  0.1977788E-002  0.9118800E+02  0.7818608E-02  0.1130116E+00
         25   -1    0    0    0    0  0.00000000000E+00  0.00000000000E+00  0.99999998245E-14  0.12500000000E+03  0.12500000000E+03 0.  0.
        -11    1    1    0    0    0  0.30251631473E+01  0.35961916087E+01 -0.10906014956E+01  0.48242738353E+01  0.51100000000E-03 0. -1.
         11    1    1    0    0    0  0.36165220716E+02  0.42994373765E+02 -0.13040323059E+02  0.57675726182E+02  0.51100000000E-03 0. -1.
         22    1    1    0    0    0 -0.39190383863E+02 -0.46590565373E+02  0.14130924555E+02  0.62499999983E+02  0.00000000000E+00 0. -1.
</event>
<event>
 4    1  0.1977788E-002  0.9118800E+02  0.7818608E-02  0.1130116E+00
         25   -1    0    0    0    0  0.00000000000E+00  0.00000000000E+00  0.99999998245E-14  0.12500000000E+03  0.12500000000E+03 0.  0.
        -11    1    1    0    0    0  0.17439248391E+01  0.66549370485E+01  0.85875052230E+01  0.11003395257E+02  0.51100000000E-03 0. -1.
         11    1    1    0    0    0  0.25435538326E+02 -0.42086387670E+02 -0.36583476519E+02  0.61290956849E+02  0.51100000000E-03 0.  1.
         22    1    1    0    0    0 -0.27179463165E+02  0.35431450621E+02  0.27995971296E+02  0.52705647894E+02  0.00000000000E+00 0.  1.
</event>
<event>
 4    1  0.1977788E-002  0.9118800E+02  0.7818608E-02  0.1130116E+00
         25   -1    0    0    0    0  0.00000000000E+00  0.00000000000E+00  0.99999998245E-14  0.12500000000E+03  0.12500000000E+03 0.  0.
        -11    1    1    0    0    0 -0.56767751928E+01  0.24869668707E+02 -0.46439250298E+02  0.52984244514E+02  0.51100000000E-03 0. -1.
         11    1    1    0    0    0 -0.90351204306E+00  0.43641592045E+01 -0.84082986780E+01  0.95163914639E+01  0.51100000000E-03 0.  1.
         22    1    1    0    0    0  0.65802872358E+01 -0.29233827911E+02  0.54847548976E+02  0.62499364022E+02  0.00000000000E+00 0. -1.
</event>
<event>
 4    1  0.1977788E-002  0.9118800E+02  0.7818608E-02  0.1130116E+00
         25   -1    0    0    0    0  0.00000000000E+00  0.00000000000E+00  0.99999998245E-14  0.12500000000E+03  0.12500000000E+03 0.  0.
        -11    1    1    0    0    0 -0.13177730531E+02 -0.69772147437E+01 -0.64731213413E+01  0.16255319366E+02  0.51100000000E-03 0. -1.
         11    1    1    0    0    0 -0.37622208550E+02 -0.19959300883E+02 -0.18021937037E+02  0.46244940077E+02  0.51100000000E-03 0.  1.
         22    1    1    0    0    0  0.50799939081E+02  0.26936515627E+02  0.24495058379E+02  0.62499740557E+02  0.00000000000E+00 0. -1.
</event>
<event>
 4    1  0.1977788E-002  0.9118800E+02  0.7818608E-02  0.1130116E+00
         25   -1    0    0    0    0  0.00000000000E+00  0.00000000000E+00  0.99999998245E-14  0.12500000000E+03  0.12500000000E+03 0.  0.
        -11    1    1    0    0    0  0.58703812747E-01 -0.70494826824E-01  0.20539531972E+00  0.22495145415E+00  0.51100000000E-03 0.  1.
         11    1    1    0    0    0  0.47169921019E+02 -0.33568406614E+02  0.23032122196E+02  0.62308250053E+02  0.51100000000E-03 0. -1.
         22    1    1    0    0    0 -0.47228624832E+02  0.33638901441E+02 -0.23237517516E+02  0.62466798493E+02  0.00000000000E+00 0. -1.
</event>
<event>
 4    1  0.1977788E-002  0.9118800E+02  0.7818608E-02  0.1130116E+00
         25   -1    0    0    0    0  0.00000000000E+00  0.00000000000E+00  0.99999998245E-14  0.12500000000E+03  0.12500000000E+03 0.  0.
        -11    1    1    0    0    0  0.10346554434E+01  0.19478386493E+01 -0.10051517642E+01  0.24238229351E+01  0.51100000000E-03 0.  1.
         11    1    1    0    0    0  0.25638854458E+02  0.48258298205E+02 -0.24958623731E+02  0.60076177495E+02  0.51100000000E-03 0. -1.
         22    1    1    0    0    0 -0.26673509902E+02 -0.50206136854E+02  0.25963775495E+02  0.62499999570E+02  0.00000000000E+00 0. -1.
</event>
<event>
 4    1  0.1977788E-002  0.9118800E+02  0.7818608E-02  0.1130116E+00
         25   -1    0    0    0    0  0.00000000000E+00  0.00000000000E+00  0.99999998245E-14  0.12500000000E+03  0.12500000000E+03 0.  0.
        -11    1    1    0    0    0  0.29397065486E+02  0.26760353589E+02  0.96116666659E+01  0.40898509995E+02  0.51100000000E-03 0. -1.
         11    1    1    0    0    0  0.15515603619E+02  0.14155853063E+02  0.50500164205E+01  0.21601499895E+02  0.51100000000E-03 0.  1.
         22    1    1    0    0    0 -0.44912669105E+02 -0.40916206652E+02 -0.14661683086E+02  0.62499990111E+02  0.00000000000E+00 0. -1.
</event>
<event>
 4    1  0.1977788E-002  0.9118800E+02  0.7818608E-02  0.1130116E+00
         25   -1    0    0    0    0  0.00000000000E+00  0.00000000000E+00  0.99999998245E-14  0.12500000000E+03  0.12500000000E+03 0.  0.
        -11    1    1    0    0    0  0.31267818047E+01 -0.41290700038E+01 -0.53017468870E+01  0.74117814232E+01  0.51100000000E-03 0.  1.
         11    1    1    0    0    0  0.23252225216E+02 -0.30685341425E+02 -0.39401214220E+02  0.55088218687E+02  0.51100000000E-03 0.  1.
         22    1    1    0    0    0 -0.26379007020E+02  0.34814411429E+02  0.44702961107E+02  0.62499999890E+02  0.00000000000E+00 0.  1.
</event>
<event>
 4    1  0.1977788E-002  0.9118800E+02  0.7818608E-02  0.1130116E+00
         25   -1    0    0    0    0  0.00000000000E+00  0.00000000000E+00  0.99999998245E-14  0.12500000000E+03  0.12500000000E+03 0.  0.
        -11    1    1    0    0    0 -0.14612893745E+01 -0.71801723258E+00  0.79804525022E+00  0.18132269204E+01  0.51100000000E-03 0.  1.
         11    1    1    0    0    0  0.88658265501E+01  0.46946873184E+02 -0.39854085040E+02  0.62217038477E+02  0.51100000000E-03 0. -1.
         22    1    1    0    0    0 -0.74045371755E+01 -0.46228855952E+02  0.39056039790E+02  0.60969734602E+02  0.00000000000E+00 0. -1.
</event>
<event>
 4    1  0.1977788E-002  0.9118800E+02  0.7818608E-02  0.1130116E+00
         25   -1    0    0    0    0  0.00000000000E+00  0.00000000000E+00  0.99999998245E-14  0.12500000000E+03  0.12500000000E+03 0.  0.
        -11    1    1    0    0    0 -0.72889934771E+01  0.22145161885E+02 -0.48821385275E+02  0.54102359295E+02  0.51100000000E-03 0. -1.
         11    1    1    0    0    0  0.23497958689E+01 -0.31439166339E+02  0.13954959193E+02  0.34477291180E+02  0.51100000000E-03 0.  1.
         22    1    1    0    0    0  0.49391976081E+01  0.92940044547E+01  0.34866426082E+02  0.36420349525E+02  0.00000000000E+00 0. -1.
</event>
<event>
 4    1  0.1977788E-002  0.9118800E+02  0.7818608E-02  0.1130116E+00
         25   -1    0    0    0    0  0.00000000000E+00  0.00000000000E+00  0.99999998245E-14  0.12500000000E+03  0.12500000000E+03 0.  0.
        -11    1    1    0    0    0 -0.35321568814E-01  0.63832977172E-01  0.48885159914E+00  0.49426552509E+00  0.51100000000E-03 0. -1.
         11    1    1    0    0    0 -0.69043095818E+01  0.92446533143E+01  0.60922975119E+02  0.62005983609E+02  0.51100000000E-03 0.  1.
         22    1    1    0    0    0  0.69396311506E+01 -0.93084862915E+01 -0.61411826718E+02  0.62499750866E+02  0.00000000000E+00 0.  1.
</event>
<event>
 4    1  0.1977788E-002  0.9118800E+02  0.7818608E-02  0.1130116E+00
         25   -1    0    0    0    0  0.00000000000E+00  0.00000000000E+00  0.99999998245E-14  0.12500000000E+03  0.12500000000E+03 0.  0.
        -11    1    1    0    0    0 -0.23250308743E+01  0.25385266164E+01  0.17038210151E+01  0.38409493958E+01  0.51100000000E-03 0.  1.
         11    1    1    0    0    0 -0.35613577032E+02  0.38645924881E+02  0.26058601053E+02  0.58659057851E+02  0.51100000000E-03 0. -1.
         22    1    1    0    0    0  0.37938607906E+02 -0.41184451498E+02 -0.27762422068E+02  0.62499992753E+02  0.00000000000E+00 0. -1.
</event>
<event>
 4    1  0.1977788E-002  0.9118800E+02  0.7818608E-02  0.1130116E+00
         25   -1    0    0    0    0  0.00000000000E+00  0.00000000000E+00  0.99999998245E-14  0.12500000000E+03  0.12500000000E+03 0.  0.
        -11    1    1    0    0    0 -0.27215123157E+01 -0.27828741408E+01  0.33179026671E+00  0.39065461485E+01  0.51100000000E-03 0. -1.
         11    1    1    0    0    0 -0.40772812222E+02 -0.41784465606E+02  0.49828892422E+01  0.58593454992E+02  0.51100000000E-03 0.  1.
         22    1    1    0    0    0  0.43494324538E+02  0.44567339747E+02 -0.53146795089E+01  0.62499998859E+02  0.00000000000E+00 0.  1.
</event>
<event>
 4    1  0.1977788E-002  0.9118800E+02  0.7818608E-02  0.1130116E+00
         25   -1    0    0    0    0  0.00000000000E+00  0.00000000000E+00  0.99999998245E-14  0.12500000000E+03  0.12500000000E+03 0.  0.
        -11    1    1    0    0    0 -0.40146427873E+01  0.19260315731E+02  0.32789469044E+02  0.38239069016E+02  0.51100000000E-03 0. -1.
         11    1    1    0    0    0 -0.25473294748E+01  0.12221784923E+02  0.20802208048E+02  0.24260931023E+02  0.51100000000E-03 0.  1.
         22    1    1    0    0    0  0.65619722621E+01 -0.31482100654E+02 -0.53591677092E+02  0.62499999961E+02  0.00000000000E+00 0. -1.
</event>
<event>
 4    1  0.1977788E-002  0.9118800E+02  0.7818608E-02  0.1130116E+00
         25   -1    0    0    0    0  0.00000000000E+00  0.00000000000E+00  0.99999998245E-14  0.12500000000E+03  0.12500000000E+03 0.  0.
        -11    1    1    0    0    0 -0.15452703911E+02  0.52648310314E+02 -0.61621902809E+01  0.55214157844E+02  0.51100000000E-03 0. -1.
         11    1    1    0    0    0 -0.17812232129E+01  0.70192954918E+01 -0.81970306525E+00  0.72880161026E+01  0.51100000000E-03 0.  1.
         22    1    1    0    0    0  0.17233927124E+02 -0.59667605806E+02  0.69818933461E+01  0.62497826054E+02  0.00000000000E+00 0. -1.
</event>
<event>
 4    1  0.1977788E-002  0.9118800E+02  0.7818608E-02  0.1130116E+00
         25   -1    0    0    0    0  0.00000000000E+00  0.00000000000E+00  0.99999998245E-14  0.12500000000E+03  0.12500000000E+03 0.  0.
        -11    1    1    0    0    0 -0.48666566322E+02 -0.27448102007E+02  0.88419811271E+00  0.55880361379E+02  0.51100000000E-03 0. -1.
         11    1    1    0    0    0 -0.57672387118E+01 -0.32481697891E+01  0.89846146089E-01  0.66196466619E+01  0.51100000000E-03 0.  1.
         22    1    1    0    0    0  0.54433805034E+02  0.30696271796E+02 -0.97404425879E+00  0.62499991959E+02  0.00000000000E+00 0. -1.
</event>
<event>
 4    1  0.1977788E-002  0.9118800E+02  0.7818608E-02  0.1130116E+00
         25   -1    0    0    0    0  0.00000000000E+00  0.00000000000E+00  0.99999998245E-14  0.12500000000E+03  0.12500000000E+03 0.  0.
        -11    1    1    0    0    0  0.11750638121E+02 -0.32935197251E+01 -0.95216021800E+01  0.15478555384E+02  0.51100000000E-03 0.  1.
         11    1    1    0    0    0  0.28080166826E+02 -0.17972136971E+02 -0.33423067533E+02  0.47207996355E+02  0.51100000000E-03 0. -1.
         22    1    1    0    0    0 -0.39830804947E+02  0.21265656696E+02  0.42944669713E+02  0.62313448261E+02  0.00000000000E+00 0. -1.
</event>
<event>
 4    1  0.1977788E-002  0.9118800E+02  0.7818608E-02  0.1130116E+00
         25   -1    0    0    0    0  0.00000000000E+00  0.00000000000E+00  0.99999998245E-14  0.12500000000E+03  0.12500000000E+03 0.  0.
        -11    1    1    0    0    0 -0.21184857825E+02  0.63294545017E+01  0.57273506059E+02  0.61393115997E+02  0.51100000000E-03 0. -1.
         11    1    1    0    0    0  0.43138336763E+01  0.11932016042E+01 -0.12950999709E+01  0.46594179090E+01  0.51100000000E-03 0.  1.
         22    1    1    0    0    0  0.16871024149E+02 -0.75226561058E+01 -0.55978406088E+02  0.58947466094E+02  0.00000000000E+00 0. -1.
</event>
<event>
 4    1  0.1977788E-002  0.9118800E+02  0.7818608E-02  0.1130116E+00
         25   -1    0    0    0    0  0.00000000000E+00  0.00000000000E+00  0.99999998245E-14  0.12500000000E+03  0.12500000000E+03 0.  0.
        -11    1    1    0    0    0 -0.30936242337E+01  0.41457879204E+01 -0.14930346954E+00  0.51749744122E+01  0.51100000000E-03 0.  1.
         11    1    1    0    0    0 -0.34182444157E+02  0.45993316314E+02 -0.15280998310E+01  0.57325035748E+02  0.51100000000E-03 0. -1.
         22    1    1    0    0    0  0.37276068391E+02 -0.50139104235E+02  0.16774033006E+01  0.62499989840E+02  0.00000000000E+00 0. -1.
</event>
<event>
 4    1  0.1977788E-002  0.9118800E+02  0.7818608E-02  0.1130116E+00
         25   -1    0    0    0    0  0.00000000000E+00  0.00000000000E+00  0.99999998245E-14  0.12500000000E+03  0.12500000000E+03 0.  0.
        -11    1    1    0    0    0  0.17153729586E+02 -0.45112744935E+02 -0.31265301208E+02  0.57505906255E+02  0.51100000000E-03 0.  1.
         11    1    1    0    0    0  0.14947429585E+01 -0.39195971323E+01 -0.27098893448E+01  0.49940963861E+01  0.51100000000E-03 0. -1.
         22    1    1    0    0    0 -0.18648472545E+02  0.49032342067E+02  0.33975190553E+02  0.62499997359E+02  0.00000000000E+00 0.  1.
</event>
<event>
 4    1  0.1977788E-002  0.9118800E+02  0.7818608E-02  0.1130116E+00
         25   -1    0    0    0    0  0.00000000000E+00  0.00000000000E+00  0.99999998245E-14  0.12500000000E+03  0.12500000000E+03 0.  0.
        -11    1    1    0    0    0  0.11938554761E+02  0.73889293696E+01  0.64442629026E+01  0.15448426833E+02  0.51100000000E-03 0. -1.
         11    1    1    0    0    0  0.36354957963E+02  0.22516646342E+02  0.19625703307E+02  0.47051573423E+02  0.51100000000E-03 0.  1.
         22    1    1    0    0    0 -0.48293512724E+02 -0.29905575711E+02 -0.26069966210E+02  0.62499999744E+02  0.00000000000E+00 0.  1.
</event>
<event>
 4    1  0.1977788E-002  0.9118800E+02  0.7818608E-02  0.1130116E+00
         25   -1    0    0    0    0  0.00000000000E+00  0.00000000000E+00  0.99999998245E-14  0.12500000000E+03  0.12500000000E+03 0.  0.
        -11    1    1    0    0    0 -0.12540149332E+01 -0.11608964823E+01 -0.13933384057E+02  0.14037785638E+02  0.51100000000E-03 0. -1.
         11    1    1    0    0    0 -0.38906351342E+02 -0.20264340216E+01 -0.31601120848E+02  0.50164145051E+02  0.51100000000E-03 0.  1.
         22    1    1    0    0    0  0.40160366275E+02  0.31873305039E+01  0.45534504904E+02  0.60798069311E+02  0.00000000000E+00 0.  1.
</event>
<event>
 4    1  0.1977788E-002  0.9118800E+02  0.7818608E-02  0.1130116E+00
         25   -1    0    0    0    0  0.00000000000E+00  0.00000000000E+00  0.99999998245E-14  0.12500000000E+03  0.12500000000E+03 0.  0.
        -11    1    1    0    0    0 -0.25395126627E+02  0.22332386080E+02  0.44890528701E+02  0.56203269404E+02  0.51100000000E-03 0.  1.
         11    1    1    0    0    0  0.12882144613E+01  0.14477509279E+01  0.67619413785E+01  0.70341545843E+01  0.51100000000E-03 0. -1.
         22    1    1    0    0    0  0.24106912166E+02 -0.23780137008E+02 -0.51652470079E+02  0.61762576011E+02  0.00000000000E+00 0.  1.
</event>
<event>
 4    1  0.1977788E-002  0.9118800E+02  0.7818608E-02  0.1130116E+00
         25   -1    0    0    0    0  0.00000000000E+00  0.00000000000E+00  0.99999998245E-14  0.12500000000E+03  0.12500000000E+03 0.  0.
        -11    1    1    0    0    0 -0.17252981668E+01  0.12765989937E+02 -0.77228517605E+01  0.15019640222E+02  0.51100000000E-03 0. -1.
         11    1    1    0    0    0 -0.62538352360E+01  0.46440845033E+02 -0.94830774273E+01  0.47809949804E+02  0.51100000000E-03 0.  1.
         22    1    1    0    0    0  0.79791334028E+01 -0.59206834970E+02  0.17205929188E+02  0.62170409973E+02  0.00000000000E+00 0.  1.
</event>
<event>
 4    1  0.1977788E-002  0.9118800E+02  0.7818608E-02  0.1130116E+00
         25   -1    0    0    0    0  0.00000000000E+00  0.00000000000E+00  0.99999998245E-14  0.12500000000E+03  0.12500000000E+03 0.  0.
        -11    1    1    0    0    0 -0.17777355724E+01  0.23671630809E+02  0.36309983994E+01  0.24014383161E+02  0.51100000000E-03 0.  1.
         11    1    1    0    0    0 -0.36324369244E+01  0.38105255837E+02  0.40795091494E+01  0.38494772575E+02  0.51100000000E-03 0. -1.
         22    1    1    0    0    0  0.54101724968E+01 -0.61776886647E+02 -0.77105075488E+01  0.62490844264E+02  0.00000000000E+00 0.  1.
</event>
<event>
 4    1  0.1977788E-002  0.9118800E+02  0.7818608E-02  0.1130116E+00
         25   -1    0    0    0    0  0.00000000000E+00  0.00000000000E+00  0.99999998245E-14  0.12500000000E+03  0.12500000000E+03 0.  0.
        -11    1    1    0    0    0  0.40225026478E+01  0.38222098531E+02  0.31674013903E+02  0.49803137458E+02  0.51100000000E-03 0. -1.
         11    1    1    0    0    0  0.84009084125E+00  0.97388406536E+01  0.81039243981E+01  0.12697415517E+02  0.51100000000E-03 0.  1.
         22    1    1    0    0    0 -0.48625934891E+01 -0.47960939185E+02 -0.39777938301E+02  0.62499447025E+02  0.00000000000E+00 0. -1.
</event>
<event>
 4    1  0.1977788E-002  0.9118800E+02  0.7818608E-02  0.1130116E+00
         25   -1    0    0    0    0  0.00000000000E+00  0.00000000000E+00  0.99999998245E-14  0.12500000000E+03  0.12500000000E+03 0.  0.
        -11    1    1    0    0    0 -0.10951097837E+02  0.13646178222E+02  0.16643024275E+01  0.17575967306E+02  0.51100000000E-03 0. -1.
         11    1    1    0    0    0 -0.27972512596E+02  0.34895989392E+02  0.42399634879E+01  0.44924033960E+02  0.51100000000E-03 0.  1.
         22    1    1    0    0    0  0.38923610432E+02 -0.48542167615E+02 -0.59042659154E+01  0.62499998734E+02  0.00000000000E+00 0.  1.
</event>
<event>
 4    1  0.1977788E-002  0.9118800E+02  0.7818608E-02  0.1130116E+00
         25   -1    0    0    0    0  0.00000000000E+00  0.00000000000E+00  0.99999998245E-14  0.12500000000E+03  0.12500000000E+03 0.  0.
        -11    1    1    0    0    0 -0.41086465461E+02 -0.17014177476E+02  0.71922026645E+01  0.45047837447E+02  0.51100000000E-03 0.  1.
         11    1    1    0    0    0 -0.15917314370E+02 -0.65964504249E+01  0.27756032088E+01  0.17452164003E+02  0.51100000000E-03 0. -1.
         22    1    1    0    0    0  0.57003779830E+02  0.23610627900E+02 -0.99678058733E+01  0.62499998550E+02  0.00000000000E+00 0.  1.
</event>
<event>
 4    1  0.1977788E-002  0.9118800E+02  0.7818608E-02  0.1130116E+00
         25   -1    0    0    0    0  0.00000000000E+00  0.00000000000E+00  0.99999998245E-14  0.12500000000E+03  0.12500000000E+03 0.  0.
        -11    1    1    0    0    0 -0.27268049557E+01  0.49059027415E+01 -0.46288350022E+01  0.72752636182E+01  0.51100000000E-03 0. -1.
         11    1    1    0    0    0  0.57380566655E+02 -0.14716304713E+02  0.15299476948E+02  0.61181476357E+02  0.51100000000E-03 0.  1.
         22    1    1    0    0    0 -0.54653761699E+02  0.98104019719E+01 -0.10670641946E+02  0.56543260025E+02  0.00000000000E+00 0.  1.
</event>
<event>
 4    1  0.1977788E-002  0.9118800E+02  0.7818608E-02  0.1130116E+00
         25   -1    0    0    0    0  0.00000000000E+00  0.00000000000E+00  0.99999998245E-14  0.12500000000E+03  0.12500000000E+03 0.  0.
        -11    1    1    0    0    0 -0.60152038811E+00  0.24396221281E+01 -0.71034047747E+00  0.26111619559E+01  0.51100000000E-03 0. -1.
         11    1    1    0    0    0 -0.13656004477E+02  0.55959683735E+02 -0.16392098201E+02  0.59888843249E+02  0.51100000000E-03 0.  1.
         22    1    1    0    0    0  0.14257524865E+02 -0.58399305863E+02  0.17102438678E+02  0.62499994795E+02  0.00000000000E+00 0.  1.
</event>
<event>
 4    1  0.1977788E-002  0.9118800E+02  0.7818608E-02  0.1130116E+00
         25   -1    0    0    0    0  0.00000000000E+00  0.00000000000E+00  0.99999998245E-14  0.12500000000E+03  0.12500000000E+03 0.  0.
        -11    1    1    0    0    0  0.32647511733E+02 -0.28175677903E+02 -0.17519528011E+02  0.46547424307E+02  0.51100000000E-03 0.  1.
         11    1    1    0    0    0  0.11189209875E+02 -0.96605339172E+01 -0.59966962503E+01  0.15952576575E+02  0.51100000000E-03 0. -1.
         22    1    1    0    0    0 -0.43836721608E+02  0.37836211820E+02  0.23516224261E+02  0.62499999118E+02  0.00000000000E+00 0.  1.
</event>
<event>
 4    1  0.1977788E-002  0.9118800E+02  0.7818608E-02  0.1130116E+00
         25   -1    0    0    0    0  0.00000000000E+00  0.00000000000E+00  0.99999998245E-14  0.12500000000E+03  0.12500000000E+03 0.  0.
        -11    1    1    0    0    0  0.20788513803E+02  0.79821702062E+01  0.20413525478E+02  0.30209094161E+02  0.51100000000E-03 0. -1.
         11    1    1    0    0    0  0.22179466395E+02  0.85336221830E+01  0.21862113468E+02  0.32290918889E+02  0.51100000000E-03 0.  1.
         22    1    1    0    0    0 -0.42967980197E+02 -0.16515792389E+02 -0.42275638946E+02  0.62499986950E+02  0.00000000000E+00 0. -1.
</event>
<event>
 4    1  0.1977788E-002  0.9118800E+02  0.7818608E-02  0.1130116E+00
         25   -1    0    0    0    0  0.00000000000E+00  0.00000000000E+00  0.99999998245E-14  0.12500000000E+03  0.12500000000E+03 0.  0.
        -11    1    1    0    0    0  0.15114196053E+02 -0.10922379976E+02 -0.58130031846E+01  0.19532749754E+02  0.51100000000E-03 0. -1.
         11    1    1    0    0    0  0.34774149063E+02 -0.25827650099E+02  0.35793749796E+01  0.43464018201E+02  0.51100000000E-03 0.  1.
         22    1    1    0    0    0 -0.49888345117E+02  0.36750030075E+02  0.22336282050E+01  0.62003232044E+02  0.00000000000E+00 0. -1.
</event>
<event>
 4    1  0.1977788E-002  0.9118800E+02  0.7818608E-02  0.1130116E+00
         25   -1    0    0    0    0  0.00000000000E+00  0.00000000000E+00  0.99999998245E-14  0.12500000000E+03  0.12500000000E+03 0.  0.
        -11    1    1    0    0    0 -0.53153250953E+01 -0.78256848328E+01 -0.22071804773E+02  0.24013716709E+02  0.51100000000E-03 0.  1.
         11    1    1    0    0    0 -0.50433510673E+01 -0.13873844412E+02 -0.35580125230E+02  0.38520958716E+02  0.51100000000E-03 0. -1.
         22    1    1    0    0    0  0.10358676163E+02  0.21699529245E+02  0.57651930003E+02  0.62465324575E+02  0.00000000000E+00 0. -1.
</event>
<event>
 4    1  0.1977788E-002  0.9118800E+02  0.7818608E-02  0.1130116E+00
         25   -1    0    0    0    0  0.00000000000E+00  0.00000000000E+00  0.99999998245E-14  0.12500000000E+03  0.12500000000E+03 0.  0.
        -11    1    1    0    0    0 -0.19563935793E+02  0.89422746182E-01 -0.15381767118E+02  0.24886830655E+02  0.51100000000E-03 0. -1.
         11    1    1    0    0    0 -0.29706105547E+02 -0.22493713368E+00 -0.23071258862E+02  0.37613644987E+02  0.51100000000E-03 0.  1.
         22    1    1    0    0    0  0.49270041340E+02  0.13551438750E+00  0.38453025981E+02  0.62499524357E+02  0.00000000000E+00 0.  1.
</event>
<event>
 4    1  0.1977788E-002  0.9118800E+02  0.7818608E-02  0.1130116E+00
         25   -1    0    0    0    0  0.00000000000E+00  0.00000000000E+00  0.99999998245E-14  0.12500000000E+03  0.12500000000E+03 0.  0.
        -11    1    1    0    0    0 -0.36166521076E+02  0.16604985534E+02 -0.90006331531E+01  0.40801399348E+02  0.51100000000E-03 0. -1.
         11    1    1    0    0    0 -0.19229044984E+02  0.88422171446E+01 -0.47841767913E+01  0.21698601864E+02  0.51100000000E-03 0.  1.
         22    1    1    0    0    0  0.55395566060E+02 -0.25447202678E+02  0.13784809944E+02  0.62499998788E+02  0.00000000000E+00 0. -1.
</event>
<event>
 4    1  0.1977788E-002  0.9118800E+02  0.7818608E-02  0.1130116E+00
         25   -1    0    0    0    0  0.00000000000E+00  0.00000000000E+00  0.99999998245E-14  0.12500000000E+03  0.12500000000E+03 0.  0.
        -11    1    1    0    0    0  0.27131580863E+02 -0.38892912863E+02 -0.21447148653E+02  0.52045763869E+02  0.51100000000E-03 0.  1.
         11    1    1    0    0    0  0.54750966732E+01 -0.78024348409E+01 -0.42938060361E+01  0.10454254807E+02  0.51100000000E-03 0. -1.
         22    1    1    0    0    0 -0.32606677537E+02  0.46695347704E+02  0.25740954689E+02  0.62499981324E+02  0.00000000000E+00 0. -1.
</event>
<event>
 4    1  0.1977788E-002  0.9118800E+02  0.7818608E-02  0.1130116E+00
         25   -1    0    0    0    0  0.00000000000E+00  0.00000000000E+00  0.99999998245E-14  0.12500000000E+03  0.12500000000E+03 0.  0.
        -11    1    1    0    0    0 -0.22552810954E+02  0.34846344135E+02 -0.33477854824E+02  0.53326013777E+02  0.51100000000E-03 0. -1.
         11    1    1    0    0    0 -0.38629600184E+01  0.60036316726E+01 -0.57616080456E+01  0.91739948166E+01  0.51100000000E-03 0.  1.
         22    1    1    0    0    0  0.26415770972E+02 -0.40849975807E+02  0.39239462869E+02  0.62499991406E+02  0.00000000000E+00 0. -1.
</event>
<event>
 4    1  0.1977788E-002  0.9118800E+02  0.7818608E-02  0.1130116E+00
         25   -1    0    0    0    0  0.00000000000E+00  0.00000000000E+00  0.99999998245E-14  0.12500000000E+03  0.12500000000E+03 0.  0.
        -11    1    1    0    0    0 -0.54288842403E+01  0.20015503342E+02 -0.20173472591E+02  0.28932026455E+02  0.51100000000E-03 0.  1.
         11    1    1    0    0    0 -0.63356675298E+01  0.23205173098E+02 -0.23413425746E+02  0.33567979489E+02  0.51100000000E-03 0. -1.
         22    1    1    0    0    0  0.11764551770E+02 -0.43220676440E+02  0.43586898337E+02  0.62499994056E+02  0.00000000000E+00 0. -1.
</event>
<event>
 4    1  0.1977788E-002  0.9118800E+02  0.7818608E-02  0.1130116E+00
         25   -1    0    0    0    0  0.00000000000E+00  0.00000000000E+00  0.99999998245E-14  0.12500000000E+03  0.12500000000E+03 0.  0.
        -11    1    1    0    0    0  0.54019777359E+02  0.21495166926E+02  0.56142782065E+01  0.58409748049E+02  0.51100000000E-03 0. -1.
         11    1    1    0    0    0 -0.75686505169E+01 -0.64125144985E+01 -0.13876754356E+02  0.17057817110E+02  0.51100000000E-03 0.  1.
         22    1    1    0    0    0 -0.46451126842E+02 -0.15082652428E+02  0.82624761493E+01  0.49532434841E+02  0.00000000000E+00 0. -1.
</event>
<event>
 4    1  0.1977788E-002  0.9118800E+02  0.7818608E-02  0.1130116E+00
         25   -1    0    0    0    0  0.00000000000E+00  0.00000000000E+00  0.99999998245E-14  0.12500000000E+03  0.12500000000E+03 0.  0.
        -11    1    1    0    0    0  0.27987111901E+02  0.81668853843E+01 -0.24788786240E+02  0.38268268487E+02  0.51100000000E-03 0. -1.
         11    1    1    0    0    0  0.17499269775E+02  0.41250560022E+01 -0.16259883387E+02  0.24240964042E+02  0.51100000000E-03 0.  1.
         22    1    1    0    0    0 -0.45486381676E+02 -0.12291941386E+02  0.41048669627E+02  0.62490767471E+02  0.00000000000E+00 0.  1.
</event>
<event>
 4    1  0.1977788E-002  0.9118800E+02  0.7818608E-02  0.1130116E+00
         25   -1    0    0    0    0  0.00000000000E+00  0.00000000000E+00  0.99999998245E-14  0.12500000000E+03  0.12500000000E+03 0.  0.
        -11    1    1    0    0    0 -0.72478821548E+01 -0.45555601009E+02 -0.27268264675E+02  0.53585472263E+02  0.51100000000E-03 0. -1.
         11    1    1    0    0    0 -0.17657624089E+01 -0.66287527875E+01 -0.57979911749E+01  0.89819253130E+01  0.51100000000E-03 0.  1.
         22    1    1    0    0    0  0.90136445637E+01  0.52184353796E+02  0.33066255850E+02  0.62432602424E+02  0.00000000000E+00 0. -1.
</event>
<event>
 4    1  0.1977788E-002  0.9118800E+02  0.7818608E-02  0.1130116E+00
         25   -1    0    0    0    0  0.00000000000E+00  0.00000000000E+00  0.99999998245E-14  0.12500000000E+03  0.12500000000E+03 0.  0.
        -11    1    1    0    0    0 -0.39149155402E+01 -0.36265399890E+02 -0.24204275586E+02  0.43776166458E+02  0.51100000000E-03 0.  1.
         11    1    1    0    0    0 -0.16566306649E+01 -0.15340482258E+02 -0.10608505711E+02  0.18724722021E+02  0.51100000000E-03 0. -1.
         22    1    1    0    0    0  0.55715462051E+01  0.51605882148E+02  0.34812781297E+02  0.62499111522E+02  0.00000000000E+00 0.  1.
</event>
<event>
 4    1  0.1977788E-002  0.9118800E+02  0.7818608E-02  0.1130116E+00
         25   -1    0    0    0    0  0.00000000000E+00  0.00000000000E+00  0.99999998245E-14  0.12500000000E+03  0.12500000000E+03 0.  0.
        -11    1    1    0    0    0  0.19344568344E+01  0.67860504114E+01 -0.81365542934E+01  0.10770149463E+02  0.51100000000E-03 0.  1.
         11    1    1    0    0    0  0.93208178549E+01  0.32573341827E+02 -0.39090629491E+02  0.51729851706E+02  0.51100000000E-03 0. -1.
         22    1    1    0    0    0 -0.11255274689E+02 -0.39359392239E+02  0.47227183784E+02  0.62499998831E+02  0.00000000000E+00 0. -1.
</event>
<event>
 4    1  0.1977788E-002  0.9118800E+02  0.7818608E-02  0.1130116E+00
         25   -1    0    0    0    0  0.00000000000E+00  0.00000000000E+00  0.99999998245E-14  0.12500000000E+03  0.12500000000E+03 0.  0.
        -11    1    1    0    0    0 -0.33706825547E+01 -0.70880865233E+01 -0.11629849984E+02  0.14030533930E+02  0.51100000000E-03 0. -1.
         11    1    1    0    0    0 -0.11689814758E+02 -0.24452749732E+02 -0.40183339433E+02  0.48469469842E+02  0.51100000000E-03 0.  1.
         22    1    1    0    0    0  0.15060497313E+02  0.31540836255E+02  0.51813189417E+02  0.62499996228E+02  0.00000000000E+00 0.  1.
</event>
<event>
 4    1  0.1977788E-002  0.9118800E+02  0.7818608E-02  0.1130116E+00
         25   -1    0    0    0    0  0.00000000000E+00  0.00000000000E+00  0.99999998245E-14  0.12500000000E+03  0.12500000000E+03 0.  0.
        -11    1    1    0    0    0 -0.46871435044E+02  0.10873231447E+02  0.11654882804E+02  0.49507523455E+02  0.51100000000E-03 0. -1.
         11    1    1    0    0    0 -0.12301199958E+02  0.28512761188E+01  0.30586194346E+01  0.12992476632E+02  0.51100000000E-03 0.  1.
         22    1    1    0    0    0  0.59172635003E+02 -0.13724507566E+02 -0.14713502238E+02  0.62499999913E+02  0.00000000000E+00 0. -1.
</event>
<event>
 4    1  0.1977788E-002  0.9118800E+02  0.7818608E-02  0.1130116E+00
         25   -1    0    0    0    0  0.00000000000E+00  0.00000000000E+00  0.99999998245E-14  0.12500000000E+03  0.12500000000E+03 0.  0.
        -11    1    1    0    0    0 -0.28713805286E+00 -0.81264116116E+01 -0.36336537764E+01  0.89064276772E+01  0.51100000000E-03 0. -1.
         11    1    1    0    0    0 -0.17356949613E+01 -0.48895511176E+02 -0.21874353855E+02  0.53593572441E+02  0.51100000000E-03 0.  1.
         22    1    1    0    0    0  0.20228330141E+01  0.57021922788E+02  0.25508007631E+02  0.62499999881E+02  0.00000000000E+00 0.  1.
</event>
<event>
 4    1  0.1977788E-002  0.9118800E+02  0.7818608E-02  0.1130116E+00
         25   -1    0    0    0    0  0.00000000000E+00  0.00000000000E+00  0.99999998245E-14  0.12500000000E+03  0.12500000000E+03 0.  0.
        -11    1    1    0    0    0 -0.10113040286E+02 -0.80922350170E+01 -0.15660253185E+00  0.12953083649E+02  0.51100000000E-03 0. -1.
         11    1    1    0    0    0 -0.38511990784E+02 -0.31153960653E+02 -0.10891844156E+01  0.49547240302E+02  0.51100000000E-03 0.  1.
         22    1    1    0    0    0  0.48625031070E+02  0.39246195670E+02  0.12457869474E+01  0.62499676050E+02  0.00000000000E+00 0.  1.
</event>
<event>
 4    1  0.1977788E-002  0.9118800E+02  0.7818608E-02  0.1130116E+00
         25   -1    0    0    0    0  0.00000000000E+00  0.00000000000E+00  0.99999998245E-14  0.12500000000E+03  0.12500000000E+03 0.  0.
        -11    1    1    0    0    0  0.11815169403E+02 -0.29082762104E+02  0.10128461151E+02  0.32984708656E+02  0.51100000000E-03 0.  1.
         11    1    1    0    0    0  0.10586653525E+02 -0.26027791001E+02  0.90349075091E+01  0.29515295885E+02  0.51100000000E-03 0. -1.
         22    1    1    0    0    0 -0.22401822927E+02  0.55110553104E+02 -0.19163368660E+02  0.62499995459E+02  0.00000000000E+00 0.  1.
</event>
<event>
 4    1  0.1977788E-002  0.9118800E+02  0.7818608E-02  0.1130116E+00
         25   -1    0    0    0    0  0.00000000000E+00  0.00000000000E+00  0.99999998245E-14  0.12500000000E+03  0.12500000000E+03 0.  0.
        -11    1    1    0    0    0  0.93717336591E+01  0.23414670851E+01 -0.85172749333E+01  0.12878502725E+02  0.51100000000E-03 0. -1.
         11    1    1    0    0    0  0.36122733244E+02  0.90308763486E+01 -0.32800677775E+02  0.49621497835E+02  0.51100000000E-03 0.  1.
         22    1    1    0    0    0 -0.45494466904E+02 -0.11372343434E+02  0.41317952708E+02  0.62499999440E+02  0.00000000000E+00 0.  1.
</event>
<event>
 4    1  0.1977788E-002  0.9118800E+02  0.7818608E-02  0.1130116E+00
         25   -1    0    0    0    0  0.00000000000E+00  0.00000000000E+00  0.99999998245E-14  0.12500000000E+03  0.12500000000E+03 0.  0.
        -11    1    1    0    0    0 -0.25067085611E+02  0.45871072717E+02  0.26517919710E+02  0.58614965318E+02  0.51100000000E-03 0.  1.
         11    1    1    0    0    0 -0.16611216974E+01  0.30402072928E+01  0.17582118503E+01  0.38850347294E+01  0.51100000000E-03 0.  1.
         22    1    1    0    0    0  0.26728207309E+02 -0.48911280009E+02 -0.28276131560E+02  0.62499999953E+02  0.00000000000E+00 0.  1.
</event>
<event>
 4    1  0.1977788E-002  0.9118800E+02  0.7818608E-02  0.1130116E+00
         25   -1    0    0    0    0  0.00000000000E+00  0.00000000000E+00  0.99999998245E-14  0.12500000000E+03  0.12500000000E+03 0.  0.
        -11    1    1    0    0    0  0.53169173374E+01 -0.58561653067E+02  0.30024264575E+01  0.58879125204E+02  0.51100000000E-03 0.  1.
         11    1    1    0    0    0 -0.29039276243E-01 -0.36283289047E+01  0.94872370871E-01  0.36296852409E+01  0.51100000000E-03 0. -1.
         22    1    1    0    0    0 -0.52878780612E+01  0.62189981971E+02 -0.30972988284E+01  0.62491189555E+02  0.00000000000E+00 0.  1.
</event>
<event>
 4    1  0.1977788E-002  0.9118800E+02  0.7818608E-02  0.1130116E+00
         25   -1    0    0    0    0  0.00000000000E+00  0.00000000000E+00  0.99999998245E-14  0.12500000000E+03  0.12500000000E+03 0.  0.
        -11    1    1    0    0    0 -0.38075676934E+02  0.10325645982E+02  0.26019154474E+02  0.47258571061E+02  0.51100000000E-03 0. -1.
         11    1    1    0    0    0 -0.10063409141E+02  0.10928549220E+02  0.61348588508E+01  0.16073017295E+02  0.51100000000E-03 0.  1.
         22    1    1    0    0    0  0.48139086075E+02 -0.21254195201E+02 -0.32154013325E+02  0.61668411644E+02  0.00000000000E+00 0. -1.
</event>
<event>
 4    1  0.1977788E-002  0.9118800E+02  0.7818608E-02  0.1130116E+00
         25   -1    0    0    0    0  0.00000000000E+00  0.00000000000E+00  0.99999998245E-14  0.12500000000E+03  0.12500000000E+03 0.  0.
        -11    1    1    0    0    0 -0.67164540641E+01 -0.25917036270E+02 -0.98387036514E+01  0.28523737729E+02  0.51100000000E-03 0.  1.
         11    1    1    0    0    0 -0.80189641806E+01 -0.30866060616E+02 -0.11720452164E+02  0.33976263533E+02  0.51100000000E-03 0. -1.
         22    1    1    0    0    0  0.14735418245E+02  0.56783096886E+02  0.21559155815E+02  0.62499998738E+02  0.00000000000E+00 0.  1.
</event>
<event>
 4    1  0.1977788E-002  0.9118800E+02  0.7818608E-02  0.1130116E+00
         25   -1    0    0    0    0  0.00000000000E+00  0.00000000000E+00  0.99999998245E-14  0.12500000000E+03  0.12500000000E+03 0.  0.
        -11    1    1    0    0    0 -0.36884268829E+02 -0.31064127382E+02  0.12828459060E+02  0.49899886365E+02  0.51100000000E-03 0.  1.
         11    1    1    0    0    0 -0.92500828748E+01 -0.79289471855E+01  0.32148652895E+01  0.12600301415E+02  0.51100000000E-03 0. -1.
         22    1    1    0    0    0  0.46134351704E+02  0.38993074568E+02 -0.16043324349E+02  0.62499812220E+02  0.00000000000E+00 0.  1.
</event>
<event>
 4    1  0.1977788E-002  0.9118800E+02  0.7818608E-02  0.1130116E+00
         25   -1    0    0    0    0  0.00000000000E+00  0.00000000000E+00  0.99999998245E-14  0.12500000000E+03  0.12500000000E+03 0.  0.
        -11    1    1    0    0    0 -0.15950914707E+02  0.45016093687E+02 -0.35988360439E+02  0.59800020554E+02  0.51100000000E-03 0. -1.
         11    1    1    0    0    0 -0.40236841297E+01 -0.10883953143E+01 -0.11311782003E+01  0.43190511363E+01  0.51100000000E-03 0.  1.
         22    1    1    0    0    0  0.19974598837E+02 -0.43927698373E+02  0.37119538640E+02  0.60880928310E+02  0.00000000000E+00 0. -1.
</event>
<event>
 4    1  0.1977788E-002  0.9118800E+02  0.7818608E-02  0.1130116E+00
         25   -1    0    0    0    0  0.00000000000E+00  0.00000000000E+00  0.99999998245E-14  0.12500000000E+03  0.12500000000E+03 0.  0.
        -11    1    1    0    0    0 -0.63206482077E+01 -0.36405479290E+02  0.37557241210E+02  0.52686391826E+02  0.51100000000E-03 0.  1.
         11    1    1    0    0    0 -0.11773395220E+01 -0.67805763760E+01  0.69960389593E+01  0.98136081908E+01  0.51100000000E-03 0. -1.
         22    1    1    0    0    0  0.74979877296E+01  0.43186055666E+02 -0.44553280169E+02  0.62499999983E+02  0.00000000000E+00 0.  1.
</event>
<event>
 4    1  0.1977788E-002  0.9118800E+02  0.7818608E-02  0.1130116E+00
         25   -1    0    0    0    0  0.00000000000E+00  0.00000000000E+00  0.99999998245E-14  0.12500000000E+03  0.12500000000E+03 0.  0.
        -11    1    1    0    0    0  0.20959959907E+02 -0.31436296134E+01 -0.30538953943E+02  0.37172974520E+02  0.51100000000E-03 0. -1.
         11    1    1    0    0    0  0.14281275397E+02 -0.21398710377E+01 -0.20806834116E+02  0.25327025510E+02  0.51100000000E-03 0. -1.
         22    1    1    0    0    0 -0.35241235304E+02  0.52835006511E+01  0.51345788059E+02  0.62499999970E+02  0.00000000000E+00 0. -1.
</event>
<event>
 4    1  0.1977788E-002  0.9118800E+02  0.7818608E-02  0.1130116E+00
         25   -1    0    0    0    0  0.00000000000E+00  0.00000000000E+00  0.99999998245E-14  0.12500000000E+03  0.12500000000E+03 0.  0.
        -11    1    1    0    0    0 -0.52422428846E+01  0.66320291026E+01 -0.21933302114E+02  0.23506055866E+02  0.51100000000E-03 0. -1.
         11    1    1    0    0    0 -0.15500203485E+02  0.13749388554E+02 -0.33215344054E+02  0.39147938318E+02  0.51100000000E-03 0.  1.
         22    1    1    0    0    0  0.20742446370E+02 -0.20381417657E+02  0.55148646168E+02  0.62346005816E+02  0.00000000000E+00 0.  1.
</event>
<event>
 4    1  0.1977788E-002  0.9118800E+02  0.7818608E-02  0.1130116E+00
         25   -1    0    0    0    0  0.00000000000E+00  0.00000000000E+00  0.99999998245E-14  0.12500000000E+03  0.12500000000E+03 0.  0.
        -11    1    1    0    0    0 -0.63299298825E+01 -0.72398137328E+01  0.42308568323E+01  0.10506334518E+02  0.51100000000E-03 0.  1.
         11    1    1    0    0    0 -0.31623165825E+02 -0.35553526803E+02  0.20958940775E+02  0.51993798511E+02  0.51100000000E-03 0. -1.
         22    1    1    0    0    0  0.37953095707E+02  0.42793340536E+02 -0.25189797607E+02  0.62499866972E+02  0.00000000000E+00 0. -1.
</event>
<event>
 4    1  0.1977788E-002  0.9118800E+02  0.7818608E-02  0.1130116E+00
         25   -1    0    0    0    0  0.00000000000E+00  0.00000000000E+00  0.99999998245E-14  0.12500000000E+03  0.12500000000E+03 0.  0.
        -11    1    1    0    0    0 -0.59156540513E+01  0.11655117808E+02  0.88849902312E+01  0.15804422977E+02  0.51100000000E-03 0. -1.
         11    1    1    0    0    0 -0.17336939778E+02  0.34461253791E+02  0.26312211875E+02  0.46695609941E+02  0.51100000000E-03 0.  1.
         22    1    1    0    0    0  0.23252593829E+02 -0.46116371598E+02 -0.35197202106E+02  0.62499967082E+02  0.00000000000E+00 0.  1.
</event>
<event>
 4    1  0.1977788E-002  0.9118800E+02  0.7818608E-02  0.1130116E+00
         25   -1    0    0    0    0  0.00000000000E+00  0.00000000000E+00  0.99999998245E-14  0.12500000000E+03  0.12500000000E+03 0.  0.
        -11    1    1    0    0    0 -0.84966904470E+01 -0.74291429963E+01 -0.38973611199E+01  0.11940491538E+02  0.51100000000E-03 0.  1.
         11    1    1    0    0    0 -0.35986176476E+02 -0.31412294510E+02 -0.16568867553E+02  0.50559514595E+02  0.51100000000E-03 0. -1.
         22    1    1    0    0    0  0.44482866923E+02  0.38841437507E+02  0.20466228673E+02  0.62499993867E+02  0.00000000000E+00 0. -1.
</event>
<event>
 4    1  0.1977788E-002  0.9118800E+02  0.7818608E-02  0.1130116E+00
         25   -1    0    0    0    0  0.00000000000E+00  0.00000000000E+00  0.99999998245E-14  0.12500000000E+03  0.12500000000E+03 0.  0.
        -11    1    1    0    0    0 -0.15796828679E+02  0.41809063435E+02  0.60669755862E+01  0.45103722404E+02  0.51100000000E-03 0. -1.
         11    1    1    0    0    0 -0.18374798407E+01  0.17076302610E+02  0.39319304302E+01  0.17619208841E+02  0.51100000000E-03 0.  1.
         22    1    1    0    0    0  0.17634308520E+02 -0.58885366045E+02 -0.99989060164E+01  0.62277068756E+02  0.00000000000E+00 0. -1.
</event>
<event>
 4    1  0.1977788E-002  0.9118800E+02  0.7818608E-02  0.1130116E+00
         25   -1    0    0    0    0  0.00000000000E+00  0.00000000000E+00  0.99999998245E-14  0.12500000000E+03  0.12500000000E+03 0.  0.
        -11    1    1    0    0    0  0.29003785217E+02  0.39445412038E+02 -0.15317815805E+02  0.51301028928E+02  0.51100000000E-03 0. -1.
         11    1    1    0    0    0  0.63171505655E+01  0.86154876603E+01 -0.33591849537E+01  0.11198979539E+02  0.51100000000E-03 0.  1.
         22    1    1    0    0    0 -0.35320935783E+02 -0.48060899698E+02  0.18677000758E+02  0.62499991534E+02  0.00000000000E+00 0. -1.
</event>
<event>
 4    1  0.1977788E-002  0.9118800E+02  0.7818608E-02  0.1130116E+00
         25   -1    0    0    0    0  0.00000000000E+00  0.00000000000E+00  0.99999998245E-14  0.12500000000E+03  0.12500000000E+03 0.  0.
        -11    1    1    0    0    0  0.48232595562E+01 -0.15199511842E+02 -0.56998192269E+01  0.16934489436E+02  0.51100000000E-03 0.  1.
         11    1    1    0    0    0  0.11882395293E+02 -0.43741904886E+02 -0.59139995786E+01  0.45711278173E+02  0.51100000000E-03 0. -1.
         22    1    1    0    0    0 -0.16705654849E+02  0.58941416728E+02  0.11613818805E+02  0.62354232391E+02  0.00000000000E+00 0. -1.
</event>
<event>
 4    1  0.1977788E-002  0.9118800E+02  0.7818608E-02  0.1130116E+00
         25   -1    0    0    0    0  0.00000000000E+00  0.00000000000E+00  0.99999998245E-14  0.12500000000E+03  0.12500000000E+03 0.  0.
        -11    1    1    0    0    0 -0.24043660082E+02 -0.32559950178E+02  0.43641534061E+02  0.59521688830E+02  0.51100000000E-03 0. -1.
         11    1    1    0    0    0 -0.12506149571E+01 -0.16197660015E+01  0.21642449984E+01  0.29785292251E+01  0.51100000000E-03 0.  1.
         22    1    1    0    0    0  0.25294275039E+02  0.34179716180E+02 -0.45805779060E+02  0.62499781945E+02  0.00000000000E+00 0. -1.
</event>
<event>
 4    1  0.1977788E-002  0.9118800E+02  0.7818608E-02  0.1130116E+00
         25   -1    0    0    0    0  0.00000000000E+00  0.00000000000E+00  0.99999998245E-14  0.12500000000E+03  0.12500000000E+03 0.  0.
        -11    1    1    0    0    0 -0.15412235733E+01  0.93822959896E+01  0.41087821811E+01  0.10357844342E+02  0.51100000000E-03 0. -1.
         11    1    1    0    0    0 -0.77589051491E+01  0.47230661945E+02  0.20684979102E+02  0.52142155667E+02  0.51100000000E-03 0. -1.
         22    1    1    0    0    0  0.93001287224E+01 -0.56612957934E+02 -0.24793761283E+02  0.62499999991E+02  0.00000000000E+00 0. -1.
</event>
<event>
 4    1  0.1977788E-002  0.9118800E+02  0.7818608E-02  0.1130116E+00
         25   -1    0    0    0    0  0.00000000000E+00  0.00000000000E+00  0.99999998245E-14  0.12500000000E+03  0.12500000000E+03 0.  0.
        -11    1    1    0    0    0 -0.20037841969E+02 -0.56359737453E+02 -0.17392591640E+01  0.59841124147E+02  0.51100000000E-03 0. -1.
         11    1    1    0    0    0 -0.87779676506E+00 -0.25078374368E+01 -0.10097100764E+00  0.26589417398E+01  0.51100000000E-03 0.  1.
         22    1    1    0    0    0  0.20915638734E+02  0.58867574889E+02  0.18402301717E+01  0.62499934113E+02  0.00000000000E+00 0. -1.
</event>
<event>
 4    1  0.1977788E-002  0.9118800E+02  0.7818608E-02  0.1130116E+00
         25   -1    0    0    0    0  0.00000000000E+00  0.00000000000E+00  0.99999998245E-14  0.12500000000E+03  0.12500000000E+03 0.  0.
        -11    1    1    0    0    0  0.39554704712E+02 -0.14058134160E+02  0.34152375469E+02  0.54116453611E+02  0.51100000000E-03 0.  1.
         11    1    1    0    0    0  0.61092504069E+01 -0.22305421888E+01  0.52902684885E+01  0.83836268960E+01  0.51100000000E-03 0. -1.
         22    1    1    0    0    0 -0.45663955119E+02  0.16288676349E+02 -0.39442643958E+02  0.62499919493E+02  0.00000000000E+00 0.  1.
</event>
<event>
 4    1  0.1977788E-002  0.9118800E+02  0.7818608E-02  0.1130116E+00
         25   -1    0    0    0    0  0.00000000000E+00  0.00000000000E+00  0.99999998245E-14  0.12500000000E+03  0.12500000000E+03 0.  0.
        -11    1    1    0    0    0 -0.25429095165E+01  0.25302526403E+01  0.95358047666E+01  0.10188235374E+02  0.51100000000E-03 0.  1.
         11    1    1    0    0    0 -0.11088509014E+02  0.30414310523E+01  0.51118355125E+02  0.52395530019E+02  0.51100000000E-03 0. -1.
         22    1    1    0    0    0  0.13631418530E+02 -0.55716836926E+01 -0.60654159892E+02  0.62416234607E+02  0.00000000000E+00 0. -1.
</event>
<event>
 4    1  0.1977788E-002  0.9118800E+02  0.7818608E-02  0.1130116E+00
         25   -1    0    0    0    0  0.00000000000E+00  0.00000000000E+00  0.99999998245E-14  0.12500000000E+03  0.12500000000E+03 0.  0.
        -11    1    1    0    0    0  0.54785833268E+02 -0.36459765611E+01  0.13837804891E+01  0.54924452848E+02  0.51100000000E-03 0. -1.
         11    1    1    0    0    0  0.75586876882E+01 -0.46406593880E+00  0.20126972960E+00  0.75755941369E+01  0.51100000000E-03 0.  1.
         22    1    1    0    0    0 -0.62344520956E+02  0.41100424999E+01 -0.15850502187E+01  0.62499953015E+02  0.00000000000E+00 0. -1.
</event>
<event>
 4    1  0.1977788E-002  0.9118800E+02  0.7818608E-02  0.1130116E+00
         25   -1    0    0    0    0  0.00000000000E+00  0.00000000000E+00  0.99999998245E-14  0.12500000000E+03  0.12500000000E+03 0.  0.
        -11    1    1    0    0    0 -0.16816351721E+01  0.10596248890E+02 -0.31021748585E+01  0.11168342603E+02  0.51100000000E-03 0. -1.
         11    1    1    0    0    0 -0.55197782147E+01  0.51153052131E+02  0.45156084121E+01  0.51647782271E+02  0.51100000000E-03 0.  1.
         22    1    1    0    0    0  0.72014133869E+01 -0.61749301021E+02 -0.14134335536E+01  0.62183875126E+02  0.00000000000E+00 0. -1.
</event>
<event>
 4    1  0.1977788E-002  0.9118800E+02  0.7818608E-02  0.1130116E+00
         25   -1    0    0    0    0  0.00000000000E+00  0.00000000000E+00  0.99999998245E-14  0.12500000000E+03  0.12500000000E+03 0.  0.
        -11    1    1    0    0    0  0.58927633670E+00 -0.32477841290E+01 -0.32364535594E+01  0.46227675966E+01  0.51100000000E-03 0.  1.
         11    1    1    0    0    0  0.87482197751E+01 -0.39781710577E+02 -0.41118968530E+02  0.57878194675E+02  0.51100000000E-03 0. -1.
         22    1    1    0    0    0 -0.93374961118E+01  0.43029494706E+02  0.44355422089E+02  0.62499037728E+02  0.00000000000E+00 0. -1.
</event>
<event>
 4    1  0.1977788E-002  0.9118800E+02  0.7818608E-02  0.1130116E+00
         25   -1    0    0    0    0  0.00000000000E+00  0.00000000000E+00  0.99999998245E-14  0.12500000000E+03  0.12500000000E+03 0.  0.
        -11    1    1    0    0    0 -0.92051053202E+00 -0.49559507652E+00  0.59096614786E+00  0.12009143885E+01  0.51100000000E-03 0.  1.
         11    1    1    0    0    0 -0.47123353635E+02 -0.25641587751E+02  0.29656032003E+02  0.61299116752E+02  0.51100000000E-03 0. -1.
         22    1    1    0    0    0  0.48043864167E+02  0.26137182828E+02 -0.30246998150E+02  0.62499968859E+02  0.00000000000E+00 0. -1.
</event>
<event>
 4    1  0.1977788E-002  0.9118800E+02  0.7818608E-02  0.1130116E+00
         25   -1    0    0    0    0  0.00000000000E+00  0.00000000000E+00  0.99999998245E-14  0.12500000000E+03  0.12500000000E+03 0.  0.
        -11    1    1    0    0    0  0.89441183225E+01  0.63713535136E+01  0.44950705790E+01  0.11865793607E+02  0.51100000000E-03 0. -1.
         11    1    1    0    0    0 -0.26262195232E+02  0.47161387330E+02 -0.14712776395E+02  0.55949666155E+02  0.51100000000E-03 0.  1.
         22    1    1    0    0    0  0.17318076910E+02 -0.53532740843E+02  0.10217705816E+02  0.57184540238E+02  0.00000000000E+00 0.  1.
</event>
<event>
 4    1  0.1977788E-002  0.9118800E+02  0.7818608E-02  0.1130116E+00
         25   -1    0    0    0    0  0.00000000000E+00  0.00000000000E+00  0.99999998245E-14  0.12500000000E+03  0.12500000000E+03 0.  0.
        -11    1    1    0    0    0  0.13823606654E+02 -0.77306306432E+01 -0.18867422178E+02  0.24634008423E+02  0.51100000000E-03 0. -1.
         11    1    1    0    0    0  0.23548756893E+02 -0.14569235926E+02 -0.25910936272E+02  0.37923385997E+02  0.51100000000E-03 0.  1.
         22    1    1    0    0    0 -0.37372363547E+02  0.22299866569E+02  0.44778358451E+02  0.62442605580E+02  0.00000000000E+00 0. -1.
</event>
<event>
 4    1  0.1977788E-002  0.9118800E+02  0.7818608E-02  0.1130116E+00
         25   -1    0    0    0    0  0.00000000000E+00  0.00000000000E+00  0.99999998245E-14  0.12500000000E+03  0.12500000000E+03 0.  0.
        -11    1    1    0    0    0  0.10574624431E+00 -0.74059010936E+00  0.13580538860E+01  0.15504730235E+01  0.51100000000E-03 0. -1.
         11    1    1    0    0    0  0.47224956991E+01 -0.28911977824E+02  0.53447590518E+02  0.60949564066E+02  0.51100000000E-03 0.  1.
         22    1    1    0    0    0 -0.48282419434E+01  0.29652567934E+02 -0.54805644404E+02  0.62499962911E+02  0.00000000000E+00 0.  1.
</event>
<event>
 4    1  0.1977788E-002  0.9118800E+02  0.7818608E-02  0.1130116E+00
         25   -1    0    0    0    0  0.00000000000E+00  0.00000000000E+00  0.99999998245E-14  0.12500000000E+03  0.12500000000E+03 0.  0.
        -11    1    1    0    0    0  0.58290747061E+01  0.83832249792E+01  0.32398133309E+02  0.33969039067E+02  0.51100000000E-03 0.  1.
         11    1    1    0    0    0  0.48728396853E+01  0.70234725120E+01  0.27220254393E+02  0.28530965322E+02  0.51100000000E-03 0. -1.
         22    1    1    0    0    0 -0.10701914391E+02 -0.15406697491E+02 -0.59618387702E+02  0.62499995611E+02  0.00000000000E+00 0. -1.
</event>
<event>
 4    1  0.1977788E-002  0.9118800E+02  0.7818608E-02  0.1130116E+00
         25   -1    0    0    0    0  0.00000000000E+00  0.00000000000E+00  0.99999998245E-14  0.12500000000E+03  0.12500000000E+03 0.  0.
        -11    1    1    0    0    0  0.10515759542E+02  0.53372976302E+02 -0.28269230598E+02  0.61305833303E+02  0.51100000000E-03 0. -1.
         11    1    1    0    0    0  0.17247618898E+00  0.10979044769E+01 -0.44552785332E+00  0.11973460675E+01  0.51100000000E-03 0.  1.
         22    1    1    0    0    0 -0.10688235731E+02 -0.54470880779E+02  0.28714758451E+02  0.62496820630E+02  0.00000000000E+00 0. -1.
</event>
<event>
 4    1  0.1977788E-002  0.9118800E+02  0.7818608E-02  0.1130116E+00
         25   -1    0    0    0    0  0.00000000000E+00  0.00000000000E+00  0.99999998245E-14  0.12500000000E+03  0.12500000000E+03 0.  0.
        -11    1    1    0    0    0  0.29308357937E+01  0.37083537060E+02 -0.27805251856E+02  0.46442551075E+02  0.51100000000E-03 0. -1.
         11    1    1    0    0    0  0.10005603529E+01  0.12809730644E+02 -0.96307615263E+01  0.16057455839E+02  0.51100000000E-03 0.  1.
         22    1    1    0    0    0 -0.39313961467E+01 -0.49893267704E+02  0.37436013382E+02  0.62499993086E+02  0.00000000000E+00 0. -1.
</event>
<event>
 4    1  0.1977788E-002  0.9118800E+02  0.7818608E-02  0.1130116E+00
         25   -1    0    0    0    0  0.00000000000E+00  0.00000000000E+00  0.99999998245E-14  0.12500000000E+03  0.12500000000E+03 0.  0.
        -11    1    1    0    0    0 -0.10962439916E+01  0.14023149732E+01  0.28848837633E+00  0.18031816263E+01  0.51100000000E-03 0. -1.
         11    1    1    0    0    0 -0.36818824177E+02  0.47251460704E+02  0.97866043849E+01  0.60696820165E+02  0.51100000000E-03 0.  1.
         22    1    1    0    0    0  0.37915068169E+02 -0.48653775678E+02 -0.10075092761E+02  0.62499998209E+02  0.00000000000E+00 0.  1.
</event>
<event>
 4    1  0.1977788E-002  0.9118800E+02  0.7818608E-02  0.1130116E+00
         25   -1    0    0    0    0  0.00000000000E+00  0.00000000000E+00  0.99999998245E-14  0.12500000000E+03  0.12500000000E+03 0.  0.
        -11    1    1    0    0    0 -0.67184913352E+01 -0.10232569749E+02 -0.21941210927E+01  0.12436148002E+02  0.51100000000E-03 0.  1.
         11    1    1    0    0    0 -0.30017839620E+02 -0.29418615033E+02  0.30134031682E+02  0.51716394611E+02  0.51100000000E-03 0. -1.
         22    1    1    0    0    0  0.36736330955E+02  0.39651184782E+02 -0.27939910590E+02  0.60847457387E+02  0.00000000000E+00 0. -1.
</event>
<event>
 4    1  0.1977788E-002  0.9118800E+02  0.7818608E-02  0.1130116E+00
         25   -1    0    0    0    0  0.00000000000E+00  0.00000000000E+00  0.99999998245E-14  0.12500000000E+03  0.12500000000E+03 0.  0.
        -11    1    1    0    0    0 -0.25697123960E+02  0.48684716197E+01  0.21418559182E+02  0.33805308362E+02  0.51100000000E-03 0.  1.
         11    1    1    0    0    0 -0.21794095723E+02  0.43221645482E+01  0.18158512226E+02  0.28694865068E+02  0.51100000000E-03 0. -1.
         22    1    1    0    0    0  0.47491219683E+02 -0.91906361680E+01 -0.39577071408E+02  0.62499826570E+02  0.00000000000E+00 0.  1.
</event>
<event>
 4    1  0.1977788E-002  0.9118800E+02  0.7818608E-02  0.1130116E+00
         25   -1    0    0    0    0  0.00000000000E+00  0.00000000000E+00  0.99999998245E-14  0.12500000000E+03  0.12500000000E+03 0.  0.
        -11    1    1    0    0    0 -0.41478903081E+01 -0.50715060941E+02  0.23646669968E+02  0.56110492789E+02  0.51100000000E-03 0.  1.
         11    1    1    0    0    0 -0.46857102437E+00 -0.57662758465E+01  0.27122904389E+01  0.63895238969E+01  0.51100000000E-03 0. -1.
         22    1    1    0    0    0  0.46164613324E+01  0.56481336787E+02 -0.26358960406E+02  0.62499983314E+02  0.00000000000E+00 0.  1.
</event>
<event>
 4    1  0.1977788E-002  0.9118800E+02  0.7818608E-02  0.1130116E+00
         25   -1    0    0    0    0  0.00000000000E+00  0.00000000000E+00  0.99999998245E-14  0.12500000000E+03  0.12500000000E+03 0.  0.
        -11    1    1    0    0    0  0.34527382049E+02 -0.45583184189E+02 -0.15827643177E+02  0.59333642066E+02  0.51100000000E-03 0. -1.
         11    1    1    0    0    0  0.18329001811E+01  0.13397646141E+01  0.74514793938E+01  0.77896750710E+01  0.51100000000E-03 0.  1.
         22    1    1    0    0    0 -0.36360282230E+02  0.44243419575E+02  0.83761637828E+01  0.57876682863E+02  0.00000000000E+00 0. -1.
</event>
<event>
 4    1  0.1977788E-002  0.9118800E+02  0.7818608E-02  0.1130116E+00
         25   -1    0    0    0    0  0.00000000000E+00  0.00000000000E+00  0.99999998245E-14  0.12500000000E+03  0.12500000000E+03 0.  0.
        -11    1    1    0    0    0 -0.12645768388E+01  0.39198595654E+01  0.19115699915E+01  0.45407657600E+01  0.51100000000E-03 0.  1.
         11    1    1    0    0    0 -0.19215406522E+02  0.48961489262E+02  0.24355670730E+02  0.57962556669E+02  0.51100000000E-03 0. -1.
         22    1    1    0    0    0  0.20479983360E+02 -0.52881348828E+02 -0.26267240722E+02  0.62496677571E+02  0.00000000000E+00 0. -1.
</event>
<event>
 4    1  0.1977788E-002  0.9118800E+02  0.7818608E-02  0.1130116E+00
         25   -1    0    0    0    0  0.00000000000E+00  0.00000000000E+00  0.99999998245E-14  0.12500000000E+03  0.12500000000E+03 0.  0.
        -11    1    1    0    0    0  0.31796446578E+02 -0.39344732233E+02  0.32632690433E+02  0.60198957256E+02  0.51100000000E-03 0.  1.
         11    1    1    0    0    0  0.12155944422E+01 -0.15036658765E+01  0.12474440767E+01  0.23010427857E+01  0.51100000000E-03 0. -1.
         22    1    1    0    0    0 -0.33012041021E+02  0.40848398110E+02 -0.33880134510E+02  0.62499999959E+02  0.00000000000E+00 0.  1.
</event>
<event>
 4    1  0.1977788E-002  0.9118800E+02  0.7818608E-02  0.1130116E+00
         25   -1    0    0    0    0  0.00000000000E+00  0.00000000000E+00  0.99999998245E-14  0.12500000000E+03  0.12500000000E+03 0.  0.
        -11    1    1    0    0    0  0.71030492591E+01 -0.65887487130E+01  0.11158101345E+02  0.14777284739E+02  0.51100000000E-03 0. -1.
         11    1    1    0    0    0  0.22838260887E+02 -0.21543119846E+02  0.35941284237E+02  0.47722825628E+02  0.51100000000E-03 0.  1.
         22    1    1    0    0    0 -0.29941310146E+02  0.28131868559E+02 -0.47099385582E+02  0.62499889633E+02  0.00000000000E+00 0.  1.
</event>
<event>
 4    1  0.1977788E-002  0.9118800E+02  0.7818608E-02  0.1130116E+00
         25   -1    0    0    0    0  0.00000000000E+00  0.00000000000E+00  0.99999998245E-14  0.12500000000E+03  0.12500000000E+03 0.  0.
        -11    1    1    0    0    0  0.50831549999E+01  0.34900147647E+01 -0.74424868321E+01  0.96648475579E+01  0.51100000000E-03 0. -1.
         11    1    1    0    0    0  0.27801318145E+02  0.19034144238E+02 -0.40698176576E+02  0.52835154153E+02  0.51100000000E-03 0.  1.
         22    1    1    0    0    0 -0.32884473145E+02 -0.22524159003E+02  0.48140663408E+02  0.62499998289E+02  0.00000000000E+00 0.  1.
</event>
<event>
 4    1  0.1977788E-002  0.9118800E+02  0.7818608E-02  0.1130116E+00
         25   -1    0    0    0    0  0.00000000000E+00  0.00000000000E+00  0.99999998245E-14  0.12500000000E+03  0.12500000000E+03 0.  0.
        -11    1    1    0    0    0 -0.27906881614E+02 -0.27202235501E+02 -0.19916916722E+02  0.43765731224E+02  0.51100000000E-03 0.  1.
         11    1    1    0    0    0 -0.17168280255E+02 -0.18942085154E+01 -0.98454551899E+01  0.19881419994E+02  0.51100000000E-03 0. -1.
         22    1    1    0    0    0  0.45075161868E+02  0.29096444016E+02  0.29762371912E+02  0.61352848782E+02  0.00000000000E+00 0.  1.
</event>
<event>
 4    1  0.1977788E-002  0.9118800E+02  0.7818608E-02  0.1130116E+00
         25   -1    0    0    0    0  0.00000000000E+00  0.00000000000E+00  0.99999998245E-14  0.12500000000E+03  0.12500000000E+03 0.  0.
        -11    1    1    0    0    0 -0.62071468085E+01  0.24902077119E+02 -0.21143364251E+02  0.33251826543E+02  0.51100000000E-03 0. -1.
         11    1    1    0    0    0 -0.54793500336E+01  0.21896012441E+02 -0.18600998194E+02  0.29248175528E+02  0.51100000000E-03 0.  1.
         22    1    1    0    0    0  0.11686496842E+02 -0.46798089560E+02  0.39744362446E+02  0.62499997929E+02  0.00000000000E+00 0. -1.
</event>
<event>
 4    1  0.1977788E-002  0.9118800E+02  0.7818608E-02  0.1130116E+00
         25   -1    0    0    0    0  0.00000000000E+00  0.00000000000E+00  0.99999998245E-14  0.12500000000E+03  0.12500000000E+03 0.  0.
        -11    1    1    0    0    0 -0.32700863378E+01  0.31969163772E+00 -0.38868207046E+01  0.50895032028E+01  0.51100000000E-03 0. -1.
         11    1    1    0    0    0 -0.41245768820E+02  0.15239061137E+02 -0.37023037243E+02  0.57481716370E+02  0.51100000000E-03 0.  1.
         22    1    1    0    0    0  0.44515855158E+02 -0.15558752775E+02  0.40909857947E+02  0.62428780427E+02  0.00000000000E+00 0.  1.
</event>
<event>
 4    1  0.1977788E-002  0.9118800E+02  0.7818608E-02  0.1130116E+00
         25   -1    0    0    0    0  0.00000000000E+00  0.00000000000E+00  0.99999998245E-14  0.12500000000E+03  0.12500000000E+03 0.  0.
        -11    1    1    0    0    0  0.25856131900E+02 -0.16371581656E+02  0.23870167186E+02  0.38811765285E+02  0.51100000000E-03 0. -1.
         11    1    1    0    0    0  0.15886652773E+02 -0.99721203352E+01  0.14467561049E+02  0.23688377810E+02  0.51100000000E-03 0.  1.
         22    1    1    0    0    0 -0.41742784673E+02  0.26343701991E+02 -0.38337728235E+02  0.62499856905E+02  0.00000000000E+00 0. -1.
</event>
<event>
 4    1  0.1977788E-002  0.9118800E+02  0.7818608E-02  0.1130116E+00
         25   -1    0    0    0    0  0.00000000000E+00  0.00000000000E+00  0.99999998245E-14  0.12500000000E+03  0.12500000000E+03 0.  0.
        -11    1    1    0    0    0  0.18315189736E+02  0.17298502219E+02 -0.17466332342E+02  0.30655458239E+02  0.51100000000E-03 0. -1.
         11    1    1    0    0    0  0.19026402594E+02  0.17987891020E+02 -0.18124756368E+02  0.31844544473E+02  0.51100000000E-03 0.  1.
         22    1    1    0    0    0 -0.37341592330E+02 -0.35286393239E+02  0.35591088710E+02  0.62499997289E+02  0.00000000000E+00 0.  1.
</event>
<event>
 4    1  0.1977788E-002  0.9118800E+02  0.7818608E-02  0.1130116E+00
         25   -1    0    0    0    0  0.00000000000E+00  0.00000000000E+00  0.99999998245E-14  0.12500000000E+03  0.12500000000E+03 0.  0.
        -11    1    1    0    0    0 -0.59976498995E+01  0.25925119329E+02  0.89386671964E+01  0.28071041806E+02  0.51100000000E-03 0.  1.
         11    1    1    0    0    0 -0.73551194771E+01  0.31797922225E+02  0.10961182570E+02  0.34428958218E+02  0.51100000000E-03 0.  1.
         22    1    1    0    0    0  0.13352769377E+02 -0.57723041554E+02 -0.19899849767E+02  0.62499999976E+02  0.00000000000E+00 0.  1.
</event>
<event>
 4    1  0.1977788E-002  0.9118800E+02  0.7818608E-02  0.1130116E+00
         25   -1    0    0    0    0  0.00000000000E+00  0.00000000000E+00  0.99999998245E-14  0.12500000000E+03  0.12500000000E+03 0.  0.
        -11    1    1    0    0    0  0.17663632276E+02 -0.51677197809E+01  0.43825201895E+01  0.18918660533E+02  0.51100000000E-03 0.  1.
         11    1    1    0    0    0  0.40691267791E+02 -0.11905416960E+02  0.10090338301E+02  0.43581339524E+02  0.51100000000E-03 0. -1.
         22    1    1    0    0    0 -0.58354900067E+02  0.17073136740E+02 -0.14472858490E+02  0.62499999943E+02  0.00000000000E+00 0.  1.
</event>
<event>
 4    1  0.1977788E-002  0.9118800E+02  0.7818608E-02  0.1130116E+00
         25   -1    0    0    0    0  0.00000000000E+00  0.00000000000E+00  0.99999998245E-14  0.12500000000E+03  0.12500000000E+03 0.  0.
        -11    1    1    0    0    0  0.86676347017E+00 -0.80696725997E+01 -0.41627505894E+01  0.91213698264E+01  0.51100000000E-03 0. -1.
         11    1    1    0    0    0  0.50705489023E+01 -0.47222384543E+02 -0.24364196953E+02  0.53378630195E+02  0.51100000000E-03 0.  1.
         22    1    1    0    0    0 -0.59373123725E+01  0.55292057143E+02  0.28526947542E+02  0.62499999979E+02  0.00000000000E+00 0.  1.
</event>
<event>
 4    1  0.1977788E-002  0.9118800E+02  0.7818608E-02  0.1130116E+00
         25   -1    0    0    0    0  0.00000000000E+00  0.00000000000E+00  0.99999998245E-14  0.12500000000E+03  0.12500000000E+03 0.  0.
        -11    1    1    0    0    0 -0.47438539186E+02  0.23859911275E+02  0.40323316491E+01  0.53253826763E+02  0.51100000000E-03 0. -1.
         11    1    1    0    0    0  0.62530393009E+01 -0.82952949076E+00  0.18434157259E+02  0.19483500040E+02  0.51100000000E-03 0.  1.
         22    1    1    0    0    0  0.41185499885E+02 -0.23030381784E+02 -0.22466488908E+02  0.52262673197E+02  0.00000000000E+00 0. -1.
</event>
<event>
 4    1  0.1977788E-002  0.9118800E+02  0.7818608E-02  0.1130116E+00
         25   -1    0    0    0    0  0.00000000000E+00  0.00000000000E+00  0.99999998245E-14  0.12500000000E+03  0.12500000000E+03 0.  0.
        -11    1    1    0    0    0  0.72337261330E+01  0.21998122168E+02 -0.11241979824E+02  0.25741528379E+02  0.51100000000E-03 0. -1.
         11    1    1    0    0    0  0.10329094665E+02  0.31412611687E+02 -0.16054372197E+02  0.36758471629E+02  0.51100000000E-03 0.  1.
         22    1    1    0    0    0 -0.17562820798E+02 -0.53410733855E+02  0.27296352022E+02  0.62499999992E+02  0.00000000000E+00 0.  1.
</event>
<event>
 4    1  0.1977788E-002  0.9118800E+02  0.7818608E-02  0.1130116E+00
         25   -1    0    0    0    0  0.00000000000E+00  0.00000000000E+00  0.99999998245E-14  0.12500000000E+03  0.12500000000E+03 0.  0.
        -11    1    1    0    0    0 -0.92829813448E+00 -0.10021993136E+01  0.13012103126E+01  0.18866079162E+01  0.51100000000E-03 0.  1.
         11    1    1    0    0    0 -0.34017374769E+02 -0.29743256970E+02  0.40404531393E+02  0.60616575941E+02  0.51100000000E-03 0. -1.
         22    1    1    0    0    0  0.34945672903E+02  0.30745456284E+02 -0.41705741706E+02  0.62496816143E+02  0.00000000000E+00 0. -1.
</event>
<event>
 4    1  0.1977788E-002  0.9118800E+02  0.7818608E-02  0.1130116E+00
         25   -1    0    0    0    0  0.00000000000E+00  0.00000000000E+00  0.99999998245E-14  0.12500000000E+03  0.12500000000E+03 0.  0.
        -11    1    1    0    0    0  0.12949612419E+02  0.47630923384E+02 -0.88583279266E+01  0.50148452599E+02  0.51100000000E-03 0.  1.
         11    1    1    0    0    0  0.47988918011E+01  0.15325294686E+01 -0.16143072875E+02  0.16910848920E+02  0.51100000000E-03 0. -1.
         22    1    1    0    0    0 -0.17748504220E+02 -0.49163452852E+02  0.25001400802E+02  0.57940698481E+02  0.00000000000E+00 0.  1.
</event>
<event>
 4    1  0.1977788E-002  0.9118800E+02  0.7818608E-02  0.1130116E+00
         25   -1    0    0    0    0  0.00000000000E+00  0.00000000000E+00  0.99999998245E-14  0.12500000000E+03  0.12500000000E+03 0.  0.
        -11    1    1    0    0    0  0.48824150532E+02  0.19662645215E+02 -0.15896224420E+01  0.52658752281E+02  0.51100000000E-03 0. -1.
         11    1    1    0    0    0  0.91390153020E+01  0.36335910976E+01 -0.35765430493E+00  0.98413668673E+01  0.51100000000E-03 0.  1.
         22    1    1    0    0    0 -0.57963165834E+02 -0.23296236313E+02  0.19472767470E+01  0.62499880852E+02  0.00000000000E+00 0. -1.
</event>
<event>
 4    1  0.1977788E-002  0.9118800E+02  0.7818608E-02  0.1130116E+00
         25   -1    0    0    0    0  0.00000000000E+00  0.00000000000E+00  0.99999998245E-14  0.12500000000E+03  0.12500000000E+03 0.  0.
        -11    1    1    0    0    0 -0.93874715989E+00 -0.50260816680E+02  0.20250489818E+02  0.54195140720E+02  0.51100000000E-03 0. -1.
         11    1    1    0    0    0 -0.14240785825E+00 -0.77017274570E+01  0.31038367935E+01  0.83048593559E+01  0.51100000000E-03 0.  1.
         22    1    1    0    0    0  0.10811550181E+01  0.57962544137E+02 -0.23354326611E+02  0.62499999924E+02  0.00000000000E+00 0. -1.
</event>
<event>
 4    1  0.1977788E-002  0.9118800E+02  0.7818608E-02  0.1130116E+00
         25   -1    0    0    0    0  0.00000000000E+00  0.00000000000E+00  0.99999998245E-14  0.12500000000E+03  0.12500000000E+03 0.  0.
        -11    1    1    0    0    0 -0.16257412746E+02 -0.55550001501E+02  0.95859585758E+01  0.58668532775E+02  0.51100000000E-03 0.  1.
         11    1    1    0    0    0 -0.11020537656E+01 -0.36191522586E+01  0.60689848154E+00  0.38315938721E+01  0.51100000000E-03 0. -1.
         22    1    1    0    0    0  0.17359466511E+02  0.59169153759E+02 -0.10192857057E+02  0.62499873353E+02  0.00000000000E+00 0.  1.
</event>
<event>
 4    1  0.1977788E-002  0.9118800E+02  0.7818608E-02  0.1130116E+00
         25   -1    0    0    0    0  0.00000000000E+00  0.00000000000E+00  0.99999998245E-14  0.12500000000E+03  0.12500000000E+03 0.  0.
        -11    1    1    0    0    0 -0.31933387657E+01  0.55590589458E+01  0.44750594042E+00  0.64265706767E+01  0.51100000000E-03 0. -1.
         11    1    1    0    0    0 -0.27864462861E+02  0.48502540138E+02  0.39121336794E+01  0.56073429363E+02  0.51100000000E-03 0.  1.
         22    1    1    0    0    0  0.31057801626E+02 -0.54061599084E+02 -0.43596396198E+01  0.62499999960E+02  0.00000000000E+00 0.  1.
</event>
<event>
 4    1  0.1977788E-002  0.9118800E+02  0.7818608E-02  0.1130116E+00
         25   -1    0    0    0    0  0.00000000000E+00  0.00000000000E+00  0.99999998245E-14  0.12500000000E+03  0.12500000000E+03 0.  0.
        -11    1    1    0    0    0  0.16717551523E+02  0.39574745147E+02  0.15878633096E+02  0.45801397049E+02  0.51100000000E-03 0.  1.
         11    1    1    0    0    0  0.61598693601E+01  0.14383200710E+02  0.58331714471E+01  0.16698692841E+02  0.51100000000E-03 0. -1.
         22    1    1    0    0    0 -0.22877420883E+02 -0.53957945857E+02 -0.21711804543E+02  0.62499910111E+02  0.00000000000E+00 0.  1.
</event>
<event>
 4    1  0.1977788E-002  0.9118800E+02  0.7818608E-02  0.1130116E+00
         25   -1    0    0    0    0  0.00000000000E+00  0.00000000000E+00  0.99999998245E-14  0.12500000000E+03  0.12500000000E+03 0.  0.
        -11    1    1    0    0    0  0.37322003958E+01 -0.20768062112E+01  0.64029989819E+01  0.76968071339E+01  0.51100000000E-03 0. -1.
         11    1    1    0    0    0  0.26576966019E+02 -0.14768193604E+02  0.45595562377E+02  0.54803193099E+02  0.51100000000E-03 0.  1.
         22    1    1    0    0    0 -0.30309166415E+02  0.16844999816E+02 -0.51998561359E+02  0.62499999767E+02  0.00000000000E+00 0.  1.
</event>
<event>
 4    1  0.1977788E-002  0.9118800E+02  0.7818608E-02  0.1130116E+00
         25   -1    0    0    0    0  0.00000000000E+00  0.00000000000E+00  0.99999998245E-14  0.12500000000E+03  0.12500000000E+03 0.  0.
        -11    1    1    0    0    0 -0.28651162758E+01 -0.50391925790E+01  0.17909166742E+02  0.18823937069E+02  0.51100000000E-03 0.  1.
         11    1    1    0    0    0 -0.69844186753E+01 -0.12826941100E+02  0.41164544750E+02  0.43678739302E+02  0.51100000000E-03 0. -1.
         22    1    1    0    0    0  0.98495349511E+01  0.17866133679E+02 -0.59073711492E+02  0.62497323630E+02  0.00000000000E+00 0. -1.
</event>
<event>
 4    1  0.1977788E-002  0.9118800E+02  0.7818608E-02  0.1130116E+00
         25   -1    0    0    0    0  0.00000000000E+00  0.00000000000E+00  0.99999998245E-14  0.12500000000E+03  0.12500000000E+03 0.  0.
        -11    1    1    0    0    0 -0.12673710406E+01 -0.25741055955E+02 -0.23156050935E+01  0.25876054920E+02  0.51100000000E-03 0.  1.
         11    1    1    0    0    0 -0.18533131232E+01 -0.36428700245E+02 -0.32907683286E+01  0.36623955651E+02  0.51100000000E-03 0. -1.
         22    1    1    0    0    0  0.31206841638E+01  0.62169756200E+02  0.56063734221E+01  0.62499989429E+02  0.00000000000E+00 0. -1.
</event>
<event>
 4    1  0.1977788E-002  0.9118800E+02  0.7818608E-02  0.1130116E+00
         25   -1    0    0    0    0  0.00000000000E+00  0.00000000000E+00  0.99999998245E-14  0.12500000000E+03  0.12500000000E+03 0.  0.
        -11    1    1    0    0    0  0.14271434012E+02  0.28466160631E+00  0.38294983099E+01  0.14779036455E+02  0.51100000000E-03 0. -1.
         11    1    1    0    0    0  0.46080163156E+02  0.92162148743E+00  0.12371723615E+02  0.47720963613E+02  0.51100000000E-03 0.  1.
         22    1    1    0    0    0 -0.60351597168E+02 -0.12062830937E+01 -0.16201221925E+02  0.62499999932E+02  0.00000000000E+00 0.  1.
</event>
<event>
 4    1  0.1977788E-002  0.9118800E+02  0.7818608E-02  0.1130116E+00
         25   -1    0    0    0    0  0.00000000000E+00  0.00000000000E+00  0.99999998245E-14  0.12500000000E+03  0.12500000000E+03 0.  0.
        -11    1    1    0    0    0  0.10597054703E+01  0.90357866865E+00 -0.11420137768E+01  0.18010068911E+01  0.51100000000E-03 0.  1.
         11    1    1    0    0    0  0.52481706064E+02  0.22640108121E+02 -0.20663445270E+02  0.60777314335E+02  0.51100000000E-03 0. -1.
         22    1    1    0    0    0 -0.53541411534E+02 -0.23543686790E+02  0.21805459047E+02  0.62421678774E+02  0.00000000000E+00 0. -1.
</event>
<event>
 4    1  0.1977788E-002  0.9118800E+02  0.7818608E-02  0.1130116E+00
         25   -1    0    0    0    0  0.00000000000E+00  0.00000000000E+00  0.99999998245E-14  0.12500000000E+03  0.12500000000E+03 0.  0.
        -11    1    1    0    0    0  0.11761402335E+02  0.44679097621E+02  0.16630973137E+02  0.49103376837E+02  0.51100000000E-03 0.  1.
         11    1    1    0    0    0  0.26698067813E+01  0.98688861982E+01  0.92797395120E+01  0.13807112251E+02  0.51100000000E-03 0. -1.
         22    1    1    0    0    0 -0.14431209116E+02 -0.54547983819E+02 -0.25910712649E+02  0.62089510912E+02  0.00000000000E+00 0. -1.
</event>
<event>
 4    1  0.1977788E-002  0.9118800E+02  0.7818608E-02  0.1130116E+00
         25   -1    0    0    0    0  0.00000000000E+00  0.00000000000E+00  0.99999998245E-14  0.12500000000E+03  0.12500000000E+03 0.  0.
        -11    1    1    0    0    0 -0.10179323560E+00  0.72924994292E-01 -0.58296991982E+00  0.59626680784E+00  0.51100000000E-03 0. -1.
         11    1    1    0    0    0 -0.10516366444E+02  0.75008058761E+01 -0.60541028917E+02  0.61903733608E+02  0.51100000000E-03 0.  1.
         22    1    1    0    0    0  0.10618159680E+02 -0.75737308704E+01  0.61123998837E+02  0.62499999585E+02  0.00000000000E+00 0.  1.
</event>
<event>
 4    1  0.1977788E-002  0.9118800E+02  0.7818608E-02  0.1130116E+00
         25   -1    0    0    0    0  0.00000000000E+00  0.00000000000E+00  0.99999998245E-14  0.12500000000E+03  0.12500000000E+03 0.  0.
        -11    1    1    0    0    0 -0.61855493239E+01 -0.17306884855E+02  0.16559050624E+02  0.24738460777E+02  0.51100000000E-03 0. -1.
         11    1    1    0    0    0 -0.94898445530E+01 -0.26450373008E+02  0.25224108857E+02  0.37761555182E+02  0.51100000000E-03 0.  1.
         22    1    1    0    0    0  0.15675393877E+02  0.43757257863E+02 -0.41783159480E+02  0.62499984040E+02  0.00000000000E+00 0.  1.
</event>
<event>
 4    1  0.1977788E-002  0.9118800E+02  0.7818608E-02  0.1130116E+00
         25   -1    0    0    0    0  0.00000000000E+00  0.00000000000E+00  0.99999998245E-14  0.12500000000E+03  0.12500000000E+03 0.  0.
        -11    1    1    0    0    0 -0.59831317226E+02 -0.59919651361E+01  0.12185201280E+02  0.61352826322E+02  0.51100000000E-03 0. -1.
         11    1    1    0    0    0 -0.11195915137E+01 -0.10809171282E+00  0.22549732987E+00  0.11471784006E+01  0.51100000000E-03 0.  1.
         22    1    1    0    0    0  0.60950908739E+02  0.61000568489E+01 -0.12410698610E+02  0.62499995278E+02  0.00000000000E+00 0. -1.
</event>
<event>
 4    1  0.1977788E-002  0.9118800E+02  0.7818608E-02  0.1130116E+00
         25   -1    0    0    0    0  0.00000000000E+00  0.00000000000E+00  0.99999998245E-14  0.12500000000E+03  0.12500000000E+03 0.  0.
        -11    1    1    0    0    0  0.24447708436E+02  0.17636272415E+02  0.32856962900E+01  0.30323659952E+02  0.51100000000E-03 0. -1.
         11    1    1    0    0    0  0.25923747337E+02  0.18748653861E+02  0.34300587219E+01  0.32176357791E+02  0.51100000000E-03 0.  1.
         22    1    1    0    0    0 -0.50371455773E+02 -0.36384926276E+02 -0.67157550119E+01  0.62499982258E+02  0.00000000000E+00 0. -1.
</event>
<event>
 4    1  0.1977788E-002  0.9118800E+02  0.7818608E-02  0.1130116E+00
         25   -1    0    0    0    0  0.00000000000E+00  0.00000000000E+00  0.99999998245E-14  0.12500000000E+03  0.12500000000E+03 0.  0.
        -11    1    1    0    0    0  0.17975519683E+02  0.15143485238E+02 -0.25964303064E+02  0.35022699594E+02  0.51100000000E-03 0. -1.
         11    1    1    0    0    0  0.14097660297E+02  0.11880517321E+02 -0.20374281127E+02  0.27477300620E+02  0.51100000000E-03 0.  1.
         22    1    1    0    0    0 -0.32073179981E+02 -0.27024002559E+02  0.46338584190E+02  0.62499999785E+02  0.00000000000E+00 0.  1.
</event>
<event>
 4    1  0.1977788E-002  0.9118800E+02  0.7818608E-02  0.1130116E+00
         25   -1    0    0    0    0  0.00000000000E+00  0.00000000000E+00  0.99999998245E-14  0.12500000000E+03  0.12500000000E+03 0.  0.
        -11    1    1    0    0    0  0.34570956919E+01  0.39755888358E+01 -0.42831457570E+01  0.67898567769E+01  0.51100000000E-03 0. -1.
         11    1    1    0    0    0  0.28294850430E+02  0.32576188051E+02 -0.35239386292E+02  0.55710151098E+02  0.51100000000E-03 0.  1.
         22    1    1    0    0    0 -0.31751946122E+02 -0.36551776887E+02  0.39522532049E+02  0.62499992126E+02  0.00000000000E+00 0.  1.
</event>
<event>
 4    1  0.1977788E-002  0.9118800E+02  0.7818608E-02  0.1130116E+00
         25   -1    0    0    0    0  0.00000000000E+00  0.00000000000E+00  0.99999998245E-14  0.12500000000E+03  0.12500000000E+03 0.  0.
        -11    1    1    0    0    0 -0.22169393059E+02 -0.27358907458E+02  0.29784023827E+02  0.46120276251E+02  0.51100000000E-03 0. -1.
         11    1    1    0    0    0 -0.10292853353E+02 -0.62114664068E+01  0.11435136984E+02  0.16591790234E+02  0.51100000000E-03 0.  1.
         22    1    1    0    0    0  0.32462246412E+02  0.33570373865E+02 -0.41219160811E+02  0.62287933515E+02  0.00000000000E+00 0. -1.
</event>
<event>
 4    1  0.1977788E-002  0.9118800E+02  0.7818608E-02  0.1130116E+00
         25   -1    0    0    0    0  0.00000000000E+00  0.00000000000E+00  0.99999998245E-14  0.12500000000E+03  0.12500000000E+03 0.  0.
        -11    1    1    0    0    0  0.86218054208E+01  0.66558182154E+00  0.65995976532E+01  0.10878107249E+02  0.51100000000E-03 0. -1.
         11    1    1    0    0    0  0.48089145276E+02 -0.34976133621E+01  0.19014951500E+02  0.51830180141E+02  0.51100000000E-03 0.  1.
         22    1    1    0    0    0 -0.56710950697E+02  0.28320315406E+01 -0.25614549153E+02  0.62291712610E+02  0.00000000000E+00 0.  1.
</event>
<event>
 4    1  0.1977788E-002  0.9118800E+02  0.7818608E-02  0.1130116E+00
         25   -1    0    0    0    0  0.00000000000E+00  0.00000000000E+00  0.99999998245E-14  0.12500000000E+03  0.12500000000E+03 0.  0.
        -11    1    1    0    0    0 -0.74775695101E+01  0.11073062035E+02 -0.47189640823E+02  0.49044764755E+02  0.51100000000E-03 0.  1.
         11    1    1    0    0    0 -0.40956959847E+01 -0.63705049494E+00 -0.13070863037E+02  0.13712330937E+02  0.51100000000E-03 0. -1.
         22    1    1    0    0    0  0.11573265495E+02 -0.10436011541E+02  0.60260503861E+02  0.62242904307E+02  0.00000000000E+00 0.  1.
</event>
<event>
 4    1  0.1977788E-002  0.9118800E+02  0.7818608E-02  0.1130116E+00
         25   -1    0    0    0    0  0.00000000000E+00  0.00000000000E+00  0.99999998245E-14  0.12500000000E+03  0.12500000000E+03 0.  0.
        -11    1    1    0    0    0 -0.26827869484E+01 -0.18143934899E+01  0.21275189963E+01  0.38750105661E+01  0.51100000000E-03 0. -1.
         11    1    1    0    0    0 -0.40606525290E+02 -0.27291280591E+02  0.32298400425E+02  0.58624999468E+02  0.51100000000E-03 0.  1.
         22    1    1    0    0    0  0.43289312238E+02  0.29105674081E+02 -0.34425919421E+02  0.62499989966E+02  0.00000000000E+00 0.  1.
</event>
<event>
 4    1  0.1977788E-002  0.9118800E+02  0.7818608E-02  0.1130116E+00
         25   -1    0    0    0    0  0.00000000000E+00  0.00000000000E+00  0.99999998245E-14  0.12500000000E+03  0.12500000000E+03 0.  0.
        -11    1    1    0    0    0  0.10754098162E+02  0.75843331261E+01 -0.62580267961E-01  0.13159660056E+02  0.51100000000E-03 0.  1.
         11    1    1    0    0    0  0.29262493883E+02  0.40020988205E+02  0.20265593891E+01  0.49619350946E+02  0.51100000000E-03 0. -1.
         22    1    1    0    0    0 -0.40016592045E+02 -0.47605321331E+02 -0.19639791211E+01  0.62220988998E+02  0.00000000000E+00 0. -1.
</event>
<event>
 4    1  0.1977788E-002  0.9118800E+02  0.7818608E-02  0.1130116E+00
         25   -1    0    0    0    0  0.00000000000E+00  0.00000000000E+00  0.99999998245E-14  0.12500000000E+03  0.12500000000E+03 0.  0.
        -11    1    1    0    0    0 -0.49855111676E+01  0.50314098953E+00  0.11514463867E+02  0.12557521685E+02  0.51100000000E-03 0.  1.
         11    1    1    0    0    0 -0.18656786170E+02  0.80673950886E+01  0.45661039046E+02  0.49980886554E+02  0.51100000000E-03 0. -1.
         22    1    1    0    0    0  0.23642297337E+02 -0.85705360782E+01 -0.57175502913E+02  0.62461591761E+02  0.00000000000E+00 0. -1.
</event>
<event>
 4    1  0.1977788E-002  0.9118800E+02  0.7818608E-02  0.1130116E+00
         25   -1    0    0    0    0  0.00000000000E+00  0.00000000000E+00  0.99999998245E-14  0.12500000000E+03  0.12500000000E+03 0.  0.
        -11    1    1    0    0    0  0.33589141882E+01  0.88866487458E+01  0.13454081418E+02  0.16470189359E+02  0.51100000000E-03 0.  1.
         11    1    1    0    0    0  0.93836280455E+01  0.24842844722E+02  0.37596862486E+02  0.46029810756E+02  0.51100000000E-03 0. -1.
         22    1    1    0    0    0 -0.12742542234E+02 -0.33729493468E+02 -0.51050943904E+02  0.62499999885E+02  0.00000000000E+00 0. -1.
</event>
<event>
 4    1  0.1977788E-002  0.9118800E+02  0.7818608E-02  0.1130116E+00
         25   -1    0    0    0    0  0.00000000000E+00  0.00000000000E+00  0.99999998245E-14  0.12500000000E+03  0.12500000000E+03 0.  0.
        -11    1    1    0    0    0 -0.23996988543E+02 -0.47133573716E+02 -0.53762533952E+01  0.53163270509E+02  0.51100000000E-03 0.  1.
         11    1    1    0    0    0 -0.42055997108E+01 -0.82790087322E+01 -0.97254231425E+00  0.93367496127E+01  0.51100000000E-03 0. -1.
         22    1    1    0    0    0  0.28202588254E+02  0.55412582448E+02  0.63487957095E+01  0.62499979878E+02  0.00000000000E+00 0.  1.
</event>
<event>
 4    1  0.1977788E-002  0.9118800E+02  0.7818608E-02  0.1130116E+00
         25   -1    0    0    0    0  0.00000000000E+00  0.00000000000E+00  0.99999998245E-14  0.12500000000E+03  0.12500000000E+03 0.  0.
        -11    1    1    0    0    0  0.39649901815E+02  0.21947291130E+02 -0.40194408106E+02  0.60575479735E+02  0.51100000000E-03 0.  1.
         11    1    1    0    0    0  0.12048842748E+01  0.18067016209E+00 -0.15446125056E+01  0.19672864246E+01  0.51100000000E-03 0. -1.
         22    1    1    0    0    0 -0.40854786090E+02 -0.22127961292E+02  0.41739020611E+02  0.62457233840E+02  0.00000000000E+00 0.  1.
</event>
<event>
 4    1  0.1977788E-002  0.9118800E+02  0.7818608E-02  0.1130116E+00
         25   -1    0    0    0    0  0.00000000000E+00  0.00000000000E+00  0.99999998245E-14  0.12500000000E+03  0.12500000000E+03 0.  0.
        -11    1    1    0    0    0 -0.32202255287E+02  0.11774851020E+02 -0.66284898201E+01  0.34922331532E+02  0.51100000000E-03 0. -1.
         11    1    1    0    0    0 -0.25421735093E+02  0.93133820048E+01 -0.52463528620E+01  0.27577670643E+02  0.51100000000E-03 0.  1.
         22    1    1    0    0    0  0.57623990379E+02 -0.21088233025E+02  0.11874842682E+02  0.62499997825E+02  0.00000000000E+00 0.  1.
</event>
<event>
 4    1  0.1977788E-002  0.9118800E+02  0.7818608E-02  0.1130116E+00
         25   -1    0    0    0    0  0.00000000000E+00  0.00000000000E+00  0.99999998245E-14  0.12500000000E+03  0.12500000000E+03 0.  0.
        -11    1    1    0    0    0 -0.25839450573E+02  0.96664788479E+01  0.16042784399E+02  0.31913773684E+02  0.51100000000E-03 0.  1.
         11    1    1    0    0    0 -0.23809147053E+02  0.85130009613E+01  0.17246504153E+02  0.30607002051E+02  0.51100000000E-03 0. -1.
         22    1    1    0    0    0  0.49648597627E+02 -0.18179479809E+02 -0.33289288552E+02  0.62479224265E+02  0.00000000000E+00 0.  1.
</event>
<event>
 4    1  0.1977788E-002  0.9118800E+02  0.7818608E-02  0.1130116E+00
         25   -1    0    0    0    0  0.00000000000E+00  0.00000000000E+00  0.99999998245E-14  0.12500000000E+03  0.12500000000E+03 0.  0.
        -11    1    1    0    0    0 -0.21622142707E+01  0.77952092987E+01 -0.35731298778E+01  0.88435126476E+01  0.51100000000E-03 0.  1.
         11    1    1    0    0    0 -0.15085562814E+02  0.46596215137E+02 -0.21921442035E+02  0.53659398912E+02  0.51100000000E-03 0. -1.
         22    1    1    0    0    0  0.17247777085E+02 -0.54391424435E+02  0.25494571913E+02  0.62497088440E+02  0.00000000000E+00 0. -1.
</event>
<event>
 4    1  0.1977788E-002  0.9118800E+02  0.7818608E-02  0.1130116E+00
         25   -1    0    0    0    0  0.00000000000E+00  0.00000000000E+00  0.99999998245E-14  0.12500000000E+03  0.12500000000E+03 0.  0.
        -11    1    1    0    0    0 -0.15733433661E+02 -0.63794273204E+01  0.11342062959E+02  0.20417649721E+02  0.51100000000E-03 0.  1.
         11    1    1    0    0    0 -0.35291226993E+02 -0.11153474690E+02  0.20119096792E+02  0.42126580164E+02  0.51100000000E-03 0. -1.
         22    1    1    0    0    0  0.51024660654E+02  0.17532902011E+02 -0.31461159751E+02  0.62455770115E+02  0.00000000000E+00 0. -1.
</event>
<event>
 4    1  0.1977788E-002  0.9118800E+02  0.7818608E-02  0.1130116E+00
         25   -1    0    0    0    0  0.00000000000E+00  0.00000000000E+00  0.99999998245E-14  0.12500000000E+03  0.12500000000E+03 0.  0.
        -11    1    1    0    0    0 -0.23181505247E+02 -0.16983394049E+02 -0.16483524902E+02  0.33128906598E+02  0.51100000000E-03 0. -1.
         11    1    1    0    0    0 -0.13185074837E+02 -0.23716577495E+02 -0.12720445493E+02  0.29968850167E+02  0.51100000000E-03 0.  1.
         22    1    1    0    0    0  0.36366580084E+02  0.40699971544E+02  0.29203970394E+02  0.61902243235E+02  0.00000000000E+00 0. -1.
</event>
<event>
 4    1  0.1977788E-002  0.9118800E+02  0.7818608E-02  0.1130116E+00
         25   -1    0    0    0    0  0.00000000000E+00  0.00000000000E+00  0.99999998245E-14  0.12500000000E+03  0.12500000000E+03 0.  0.
        -11    1    1    0    0    0  0.88588878509E+01  0.27546837879E+02 -0.45257302168E+02  0.53717144106E+02  0.51100000000E-03 0.  1.
         11    1    1    0    0    0  0.14478817511E+01  0.45036075481E+01 -0.73999807617E+01  0.87828559163E+01  0.51100000000E-03 0.  1.
         22    1    1    0    0    0 -0.10306769602E+02 -0.32050445427E+02  0.52657282930E+02  0.62499999978E+02  0.00000000000E+00 0.  1.
</event>
<event>
 4    1  0.1977788E-002  0.9118800E+02  0.7818608E-02  0.1130116E+00
         25   -1    0    0    0    0  0.00000000000E+00  0.00000000000E+00  0.99999998245E-14  0.12500000000E+03  0.12500000000E+03 0.  0.
        -11    1    1    0    0    0  0.37367609198E+02  0.34225766668E+01  0.38165379135E+02  0.53522410381E+02  0.51100000000E-03 0.  1.
         11    1    1    0    0    0  0.71954167989E+01  0.95981078072E+00  0.53660580499E+01  0.90271722538E+01  0.51100000000E-03 0. -1.
         22    1    1    0    0    0 -0.44563025997E+02 -0.43823874475E+01 -0.43531437185E+02  0.62450417365E+02  0.00000000000E+00 0.  1.
</event>
<event>
 4    1  0.1977788E-002  0.9118800E+02  0.7818608E-02  0.1130116E+00
         25   -1    0    0    0    0  0.00000000000E+00  0.00000000000E+00  0.99999998245E-14  0.12500000000E+03  0.12500000000E+03 0.  0.
        -11    1    1    0    0    0  0.64135540804E+01 -0.15100447255E+02  0.57843023578E+01  0.17395842529E+02  0.51100000000E-03 0. -1.
         11    1    1    0    0    0  0.22391829239E+02 -0.32279034063E+02  0.22590109839E+02  0.45317139357E+02  0.51100000000E-03 0.  1.
         22    1    1    0    0    0 -0.28805383320E+02  0.47379481318E+02 -0.28374412196E+02  0.62287018115E+02  0.00000000000E+00 0. -1.
</event>
<event>
 4    1  0.1977788E-002  0.9118800E+02  0.7818608E-02  0.1130116E+00
         25   -1    0    0    0    0  0.00000000000E+00  0.00000000000E+00  0.99999998245E-14  0.12500000000E+03  0.12500000000E+03 0.  0.
        -11    1    1    0    0    0  0.98432495939E+01  0.20624805016E+02  0.25801159672E+02  0.34466969481E+02  0.51100000000E-03 0. -1.
         11    1    1    0    0    0  0.79676110814E+01  0.16463326508E+02  0.21245534586E+02  0.28033848936E+02  0.51100000000E-03 0.  1.
         22    1    1    0    0    0 -0.17810860675E+02 -0.37088131524E+02 -0.47046694258E+02  0.62499181583E+02  0.00000000000E+00 0. -1.
</event>
<event>
 4    1  0.1977788E-002  0.9118800E+02  0.7818608E-02  0.1130116E+00
         25   -1    0    0    0    0  0.00000000000E+00  0.00000000000E+00  0.99999998245E-14  0.12500000000E+03  0.12500000000E+03 0.  0.
        -11    1    1    0    0    0 -0.20556882453E+02 -0.24686399391E+02 -0.36991842654E+02  0.48993878743E+02  0.51100000000E-03 0.  1.
         11    1    1    0    0    0 -0.57130903202E+01 -0.72184745504E+01 -0.98881150269E+01  0.13510018316E+02  0.51100000000E-03 0. -1.
         22    1    1    0    0    0  0.26269972773E+02  0.31904873941E+02  0.46879957681E+02  0.62496102942E+02  0.00000000000E+00 0.  1.
</event>
<event>
 4    1  0.1977788E-002  0.9118800E+02  0.7818608E-02  0.1130116E+00
         25   -1    0    0    0    0  0.00000000000E+00  0.00000000000E+00  0.99999998245E-14  0.12500000000E+03  0.12500000000E+03 0.  0.
        -11    1    1    0    0    0 -0.12217712219E+02  0.32754769176E+02  0.17747888410E+02  0.39206312488E+02  0.51100000000E-03 0. -1.
         11    1    1    0    0    0 -0.75967030901E+01  0.19100364415E+02  0.10963281793E+02  0.23296509750E+02  0.51100000000E-03 0.  1.
         22    1    1    0    0    0  0.19814415309E+02 -0.51855133591E+02 -0.28711170203E+02  0.62497177762E+02  0.00000000000E+00 0. -1.
</event>
<event>
 4    1  0.1977788E-002  0.9118800E+02  0.7818608E-02  0.1130116E+00
         25   -1    0    0    0    0  0.00000000000E+00  0.00000000000E+00  0.99999998245E-14  0.12500000000E+03  0.12500000000E+03 0.  0.
        -11    1    1    0    0    0  0.15284407416E+02  0.13115932417E+01  0.96035120449E+01  0.18098641682E+02  0.51100000000E-03 0. -1.
         11    1    1    0    0    0  0.41653301285E+02  0.10601016953E+02  0.12359191903E+02  0.44722798360E+02  0.51100000000E-03 0.  1.
         22    1    1    0    0    0 -0.56937708701E+02 -0.11912610194E+02 -0.21962703948E+02  0.62178559958E+02  0.00000000000E+00 0.  1.
</event>
<event>
 4    1  0.1977788E-002  0.9118800E+02  0.7818608E-02  0.1130116E+00
         25   -1    0    0    0    0  0.00000000000E+00  0.00000000000E+00  0.99999998245E-14  0.12500000000E+03  0.12500000000E+03 0.  0.
        -11    1    1    0    0    0 -0.11888662849E+02  0.51958906304E+02  0.85976210181E+01  0.53990622669E+02  0.51100000000E-03 0. -1.
         11    1    1    0    0    0 -0.18722091007E+01  0.81895906261E+01  0.13546003542E+01  0.85093774108E+01  0.51100000000E-03 0.  1.
         22    1    1    0    0    0  0.13760871950E+02 -0.60148496931E+02 -0.99522213723E+01  0.62499999921E+02  0.00000000000E+00 0. -1.
</event>
<event>
 4    1  0.1977788E-002  0.9118800E+02  0.7818608E-02  0.1130116E+00
         25   -1    0    0    0    0  0.00000000000E+00  0.00000000000E+00  0.99999998245E-14  0.12500000000E+03  0.12500000000E+03 0.  0.
        -11    1    1    0    0    0  0.34437132275E+01 -0.30258380161E+01  0.10823937236E+02  0.11754678815E+02  0.51100000000E-03 0. -1.
         11    1    1    0    0    0  0.18942454037E+02 -0.18156779291E+02  0.43492426136E+02  0.50794451770E+02  0.51100000000E-03 0.  1.
         22    1    1    0    0    0 -0.22386167265E+02  0.21182617307E+02 -0.54316363372E+02  0.62450869415E+02  0.00000000000E+00 0.  1.
</event>
<event>
 4    1  0.1977788E-002  0.9118800E+02  0.7818608E-02  0.1130116E+00
         25   -1    0    0    0    0  0.00000000000E+00  0.00000000000E+00  0.99999998245E-14  0.12500000000E+03  0.12500000000E+03 0.  0.
        -11    1    1    0    0    0 -0.92390978355E+00  0.72410328706E+00 -0.36639834250E+00  0.12297084471E+01  0.51100000000E-03 0. -1.
         11    1    1    0    0    0 -0.41505694748E+02  0.36825867038E+02 -0.25999589039E+02  0.61276796670E+02  0.51100000000E-03 0.  1.
         22    1    1    0    0    0  0.42429604531E+02 -0.37549970325E+02  0.26365987382E+02  0.62493494883E+02  0.00000000000E+00 0.  1.
</event>
<event>
 4    1  0.1977788E-002  0.9118800E+02  0.7818608E-02  0.1130116E+00
         25   -1    0    0    0    0  0.00000000000E+00  0.00000000000E+00  0.99999998245E-14  0.12500000000E+03  0.12500000000E+03 0.  0.
        -11    1    1    0    0    0 -0.36576967685E+02  0.43056091945E+01 -0.83750297453E+01  0.37769749258E+02  0.51100000000E-03 0. -1.
         11    1    1    0    0    0 -0.23940761410E+02  0.28271720106E+01 -0.55165851751E+01  0.24730258201E+02  0.51100000000E-03 0.  1.
         22    1    1    0    0    0  0.60517729094E+02 -0.71327812051E+01  0.13891614920E+02  0.62499992540E+02  0.00000000000E+00 0. -1.
</event>
<event>
 4    1  0.1977788E-002  0.9118800E+02  0.7818608E-02  0.1130116E+00
         25   -1    0    0    0    0  0.00000000000E+00  0.00000000000E+00  0.99999998245E-14  0.12500000000E+03  0.12500000000E+03 0.  0.
        -11    1    1    0    0    0  0.83527777525E+01  0.50106588957E+02  0.45817358679E+01  0.51004229795E+02  0.51100000000E-03 0. -1.
         11    1    1    0    0    0  0.18813728772E+01  0.11289363310E+02  0.10790409934E+01  0.11495808696E+02  0.51100000000E-03 0.  1.
         22    1    1    0    0    0 -0.10234150630E+02 -0.61395952268E+02 -0.56607768613E+01  0.62499961509E+02  0.00000000000E+00 0. -1.
</event>
<event>
 4    1  0.1977788E-002  0.9118800E+02  0.7818608E-02  0.1130116E+00
         25   -1    0    0    0    0  0.00000000000E+00  0.00000000000E+00  0.99999998245E-14  0.12500000000E+03  0.12500000000E+03 0.  0.
        -11    1    1    0    0    0 -0.11376346871E+02  0.23746233301E+02  0.57783394147E+01  0.26957263785E+02  0.51100000000E-03 0.  1.
         11    1    1    0    0    0 -0.16547711989E+02  0.30599940510E+02  0.73311792820E+01  0.35551783658E+02  0.51100000000E-03 0. -1.
         22    1    1    0    0    0  0.27924058860E+02 -0.54346173811E+02 -0.13109518697E+02  0.62490952558E+02  0.00000000000E+00 0. -1.
</event>
<event>
 4    1  0.1977788E-002  0.9118800E+02  0.7818608E-02  0.1130116E+00
         25   -1    0    0    0    0  0.00000000000E+00  0.00000000000E+00  0.99999998245E-14  0.12500000000E+03  0.12500000000E+03 0.  0.
        -11    1    1    0    0    0  0.19512421762E+02 -0.47739803102E+02  0.32940906085E+02  0.61195806206E+02  0.51100000000E-03 0. -1.
         11    1    1    0    0    0  0.39568749765E+00 -0.10409914623E+01  0.67927457613E+00  0.13044715525E+01  0.51100000000E-03 0.  1.
         22    1    1    0    0    0 -0.19908109260E+02  0.48780794564E+02 -0.33620180661E+02  0.62499722242E+02  0.00000000000E+00 0. -1.
</event>
<event>
 4    1  0.1977788E-002  0.9118800E+02  0.7818608E-02  0.1130116E+00
         25   -1    0    0    0    0  0.00000000000E+00  0.00000000000E+00  0.99999998245E-14  0.12500000000E+03  0.12500000000E+03 0.  0.
        -11    1    1    0    0    0  0.26756691705E+02 -0.80064381294E+01  0.33838868946E+02  0.43875877818E+02  0.51100000000E-03 0. -1.
         11    1    1    0    0    0 -0.11682533588E+02  0.60230674828E+01  0.20691847298E+02  0.24513495829E+02  0.51100000000E-03 0.  1.
         22    1    1    0    0    0 -0.15074158117E+02  0.19833706466E+01 -0.54530716243E+02  0.56610626353E+02  0.00000000000E+00 0. -1.
</event>
<event>
 4    1  0.1977788E-002  0.9118800E+02  0.7818608E-02  0.1130116E+00
         25   -1    0    0    0    0  0.00000000000E+00  0.00000000000E+00  0.99999998245E-14  0.12500000000E+03  0.12500000000E+03 0.  0.
        -11    1    1    0    0    0 -0.95969704473E+01  0.23025083053E+02  0.31047867941E+02  0.39827457806E+02  0.51100000000E-03 0. -1.
         11    1    1    0    0    0 -0.55906431681E+01  0.13108584464E+02  0.17634046222E+02  0.22672667777E+02  0.51100000000E-03 0.  1.
         22    1    1    0    0    0  0.15187613615E+02 -0.36133667517E+02 -0.48681914163E+02  0.62499874417E+02  0.00000000000E+00 0. -1.
</event>
<event>
 4    1  0.1977788E-002  0.9118800E+02  0.7818608E-02  0.1130116E+00
         25   -1    0    0    0    0  0.00000000000E+00  0.00000000000E+00  0.99999998245E-14  0.12500000000E+03  0.12500000000E+03 0.  0.
        -11    1    1    0    0    0  0.15189805754E+02  0.18324272277E+02  0.11374371557E+02  0.26379641429E+02  0.51100000000E-03 0.  1.
         11    1    1    0    0    0  0.20789448950E+02  0.25089860891E+02  0.15587753269E+02  0.36120359348E+02  0.51100000000E-03 0. -1.
         22    1    1    0    0    0 -0.35979254703E+02 -0.43414133169E+02 -0.26962124826E+02  0.62499999223E+02  0.00000000000E+00 0.  1.
</event>
<event>
 4    1  0.1977788E-002  0.9118800E+02  0.7818608E-02  0.1130116E+00
         25   -1    0    0    0    0  0.00000000000E+00  0.00000000000E+00  0.99999998245E-14  0.12500000000E+03  0.12500000000E+03 0.  0.
        -11    1    1    0    0    0  0.43333068800E+02 -0.30627890008E+02  0.23296890675E+02  0.57953150159E+02  0.51100000000E-03 0.  1.
         11    1    1    0    0    0  0.33908305948E+01 -0.24167614364E+01  0.18263355942E+01  0.45468637463E+01  0.51100000000E-03 0. -1.
         22    1    1    0    0    0 -0.46723899394E+02  0.33044651444E+02 -0.25123226269E+02  0.62499986095E+02  0.00000000000E+00 0.  1.
</event>
<event>
 4    1  0.1977788E-002  0.9118800E+02  0.7818608E-02  0.1130116E+00
         25   -1    0    0    0    0  0.00000000000E+00  0.00000000000E+00  0.99999998245E-14  0.12500000000E+03  0.12500000000E+03 0.  0.
        -11    1    1    0    0    0  0.19249468625E+02 -0.17799046033E+02 -0.96743601282E+01  0.27945327448E+02  0.51100000000E-03 0.  1.
         11    1    1    0    0    0  0.23762192871E+02 -0.22039455910E+02 -0.11985268185E+02  0.34554682469E+02  0.51100000000E-03 0. -1.
         22    1    1    0    0    0 -0.43011661496E+02  0.39838501943E+02  0.21659628313E+02  0.62499990083E+02  0.00000000000E+00 0. -1.
</event>
<event>
 4    1  0.1977788E-002  0.9118800E+02  0.7818608E-02  0.1130116E+00
         25   -1    0    0    0    0  0.00000000000E+00  0.00000000000E+00  0.99999998245E-14  0.12500000000E+03  0.12500000000E+03 0.  0.
        -11    1    1    0    0    0  0.53863177507E+01  0.19751847822E+02 -0.16325131520E+00  0.20473753016E+02  0.51100000000E-03 0.  1.
         11    1    1    0    0    0  0.11055148483E+02  0.40544757893E+02 -0.33426874220E+00  0.42026246994E+02  0.51100000000E-03 0. -1.
         22    1    1    0    0    0 -0.16441466233E+02 -0.60296605715E+02  0.49752005739E+00  0.62499999990E+02  0.00000000000E+00 0. -1.
</event>
<event>
 4    1  0.1977788E-002  0.9118800E+02  0.7818608E-02  0.1130116E+00
         25   -1    0    0    0    0  0.00000000000E+00  0.00000000000E+00  0.99999998245E-14  0.12500000000E+03  0.12500000000E+03 0.  0.
        -11    1    1    0    0    0 -0.14616941907E+02 -0.55673611612E+02 -0.15319029151E+02  0.59564072015E+02  0.51100000000E-03 0. -1.
         11    1    1    0    0    0 -0.20806475460E+01  0.59399809874E+01 -0.61048758705E+01  0.87682368807E+01  0.51100000000E-03 0.  1.
         22    1    1    0    0    0  0.16697589453E+02  0.49733630625E+02  0.21423905021E+02  0.56667691104E+02  0.00000000000E+00 0. -1.
</event>
<event>
 4    1  0.1977788E-002  0.9118800E+02  0.7818608E-02  0.1130116E+00
         25   -1    0    0    0    0  0.00000000000E+00  0.00000000000E+00  0.99999998245E-14  0.12500000000E+03  0.12500000000E+03 0.  0.
        -11    1    1    0    0    0 -0.92856479333E+01 -0.68902424882E+01  0.10261979528E+02  0.15459848744E+02  0.51100000000E-03 0.  1.
         11    1    1    0    0    0 -0.28879795507E+02 -0.21770388477E+02  0.30084428588E+02  0.47043227426E+02  0.51100000000E-03 0. -1.
         22    1    1    0    0    0  0.38165443441E+02  0.28660630965E+02 -0.40346408116E+02  0.62496923830E+02  0.00000000000E+00 0. -1.
</event>
<event>
 4    1  0.1977788E-002  0.9118800E+02  0.7818608E-02  0.1130116E+00
         25   -1    0    0    0    0  0.00000000000E+00  0.00000000000E+00  0.99999998245E-14  0.12500000000E+03  0.12500000000E+03 0.  0.
        -11    1    1    0    0    0  0.21722282698E+02 -0.33547194322E+01  0.29143477992E+02  0.36502794658E+02  0.51100000000E-03 0.  1.
         11    1    1    0    0    0  0.17980906586E+02 -0.17398723606E+01  0.18778248450E+02  0.26056914103E+02  0.51100000000E-03 0. -1.
         22    1    1    0    0    0 -0.39703189283E+02  0.50945917929E+01 -0.47921726442E+02  0.62440291239E+02  0.00000000000E+00 0.  1.
</event>
<event>
 4    1  0.1977788E-002  0.9118800E+02  0.7818608E-02  0.1130116E+00
         25   -1    0    0    0    0  0.00000000000E+00  0.00000000000E+00  0.99999998245E-14  0.12500000000E+03  0.12500000000E+03 0.  0.
        -11    1    1    0    0    0  0.96659883579E+01  0.40021932106E+01  0.21557706752E+00  0.10464002827E+02  0.51100000000E-03 0.  1.
         11    1    1    0    0    0  0.47773377046E+02  0.20393221869E+02  0.31554295410E+01  0.52039752002E+02  0.51100000000E-03 0. -1.
         22    1    1    0    0    0 -0.57439365404E+02 -0.24395415080E+02 -0.33710066085E+01  0.62496245171E+02  0.00000000000E+00 0. -1.
</event>
<event>
 4    1  0.1977788E-002  0.9118800E+02  0.7818608E-02  0.1130116E+00
         25   -1    0    0    0    0  0.00000000000E+00  0.00000000000E+00  0.99999998245E-14  0.12500000000E+03  0.12500000000E+03 0.  0.
        -11    1    1    0    0    0 -0.22387380663E+00  0.22861899091E+00  0.15225141186E-01  0.32034074100E+00  0.51100000000E-03 0. -1.
         11    1    1    0    0    0 -0.47867351340E+02  0.22077798386E+02  0.33033938245E+02  0.62208950981E+02  0.51100000000E-03 0.  1.
         22    1    1    0    0    0  0.48091225147E+02 -0.22306417377E+02 -0.33049163386E+02  0.62470708278E+02  0.00000000000E+00 0.  1.
</event>
<event>
 4    1  0.1977788E-002  0.9118800E+02  0.7818608E-02  0.1130116E+00
         25   -1    0    0    0    0  0.00000000000E+00  0.00000000000E+00  0.99999998245E-14  0.12500000000E+03  0.12500000000E+03 0.  0.
        -11    1    1    0    0    0 -0.20119087054E+01  0.41620422354E+02 -0.17188237897E+02  0.45074858356E+02  0.51100000000E-03 0.  1.
         11    1    1    0    0    0 -0.77751537598E+00  0.16085960469E+02 -0.66537915503E+01  0.17425142657E+02  0.51100000000E-03 0. -1.
         22    1    1    0    0    0  0.27894240813E+01 -0.57706382823E+02  0.23842029448E+02  0.62499998987E+02  0.00000000000E+00 0.  1.
</event>
<event>
 4    1  0.1977788E-002  0.9118800E+02  0.7818608E-02  0.1130116E+00
         25   -1    0    0    0    0  0.00000000000E+00  0.00000000000E+00  0.99999998245E-14  0.12500000000E+03  0.12500000000E+03 0.  0.
        -11    1    1    0    0    0 -0.27627796081E+01  0.25459900079E+01 -0.60411422831E+00  0.38052556478E+01  0.51100000000E-03 0.  1.
         11    1    1    0    0    0 -0.42920783296E+02  0.38992007734E+02 -0.90834798517E+01  0.58694803112E+02  0.51100000000E-03 0. -1.
         22    1    1    0    0    0  0.45683562904E+02 -0.41537997742E+02  0.96875940800E+01  0.62499941240E+02  0.00000000000E+00 0. -1.
</event>
<event>
 4    1  0.1977788E-002  0.9118800E+02  0.7818608E-02  0.1130116E+00
         25   -1    0    0    0    0  0.00000000000E+00  0.00000000000E+00  0.99999998245E-14  0.12500000000E+03  0.12500000000E+03 0.  0.
        -11    1    1    0    0    0 -0.19490193034E+02  0.33009455293E+02  0.19880865191E+02  0.43182641932E+02  0.51100000000E-03 0. -1.
         11    1    1    0    0    0 -0.47913481225E+01  0.15378116286E+02  0.10986794302E+02  0.19497515909E+02  0.51100000000E-03 0.  1.
         22    1    1    0    0    0  0.24281541156E+02 -0.48387571579E+02 -0.30867659493E+02  0.62319842159E+02  0.00000000000E+00 0. -1.
</event>
<event>
 4    1  0.1977788E-002  0.9118800E+02  0.7818608E-02  0.1130116E+00
         25   -1    0    0    0    0  0.00000000000E+00  0.00000000000E+00  0.99999998245E-14  0.12500000000E+03  0.12500000000E+03 0.  0.
        -11    1    1    0    0    0 -0.79236229368E+01  0.31784078939E+00  0.10110522004E+02  0.12849415499E+02  0.51100000000E-03 0.  1.
         11    1    1    0    0    0 -0.30726429599E+02  0.13979151647E+01  0.38975863693E+02  0.49650635379E+02  0.51100000000E-03 0. -1.
         22    1    1    0    0    0  0.38650052536E+02 -0.17157559541E+01 -0.49086385696E+02  0.62499949122E+02  0.00000000000E+00 0. -1.
</event>
<event>
 4    1  0.1977788E-002  0.9118800E+02  0.7818608E-02  0.1130116E+00
         25   -1    0    0    0    0  0.00000000000E+00  0.00000000000E+00  0.99999998245E-14  0.12500000000E+03  0.12500000000E+03 0.  0.
        -11    1    1    0    0    0  0.11181224031E+02 -0.21694402666E+02 -0.62758279911E+00  0.24414355168E+02  0.51100000000E-03 0. -1.
         11    1    1    0    0    0  0.17443119075E+02 -0.33842188427E+02 -0.97990919442E+00  0.38085644840E+02  0.51100000000E-03 0. -1.
         22    1    1    0    0    0 -0.28624343105E+02  0.55536591093E+02  0.16074919935E+01  0.62499999992E+02  0.00000000000E+00 0. -1.
</event>
<event>
 4    1  0.1977788E-002  0.9118800E+02  0.7818608E-02  0.1130116E+00
         25   -1    0    0    0    0  0.00000000000E+00  0.00000000000E+00  0.99999998245E-14  0.12500000000E+03  0.12500000000E+03 0.  0.
        -11    1    1    0    0    0 -0.29573766854E+02  0.13406860528E+02 -0.29338932334E+02  0.43762135985E+02  0.51100000000E-03 0. -1.
         11    1    1    0    0    0 -0.12659923484E+02  0.57414785881E+01 -0.12564605603E+02  0.18737864158E+02  0.51100000000E-03 0.  1.
         22    1    1    0    0    0  0.42233690338E+02 -0.19148339116E+02  0.41903537937E+02  0.62499999857E+02  0.00000000000E+00 0. -1.
</event>
<event>
 4    1  0.1977788E-002  0.9118800E+02  0.7818608E-02  0.1130116E+00
         25   -1    0    0    0    0  0.00000000000E+00  0.00000000000E+00  0.99999998245E-14  0.12500000000E+03  0.12500000000E+03 0.  0.
        -11    1    1    0    0    0  0.75134502918E+01  0.39157040605E+02 -0.26304733462E+02  0.47766774718E+02  0.51100000000E-03 0. -1.
         11    1    1    0    0    0  0.23165044374E+01  0.12077807708E+02 -0.81134638479E+01  0.14733225299E+02  0.51100000000E-03 0. -1.
         22    1    1    0    0    0 -0.98299547292E+01 -0.51234848314E+02  0.34418197310E+02  0.62499999982E+02  0.00000000000E+00 0. -1.
</event>
<event>
 4    1  0.1977788E-002  0.9118800E+02  0.7818608E-02  0.1130116E+00
         25   -1    0    0    0    0  0.00000000000E+00  0.00000000000E+00  0.99999998245E-14  0.12500000000E+03  0.12500000000E+03 0.  0.
        -11    1    1    0    0    0  0.15827613172E+01  0.32525636500E+01  0.40521076014E+01  0.54317474131E+01  0.51100000000E-03 0. -1.
         11    1    1    0    0    0  0.11487907365E+02 -0.44428730740E+02 -0.41894229045E+02  0.62137030492E+02  0.51100000000E-03 0.  1.
         22    1    1    0    0    0 -0.13070668682E+02  0.41176167090E+02  0.37842121443E+02  0.57431222095E+02  0.00000000000E+00 0.  1.
</event>
<event>
 4    1  0.1977788E-002  0.9118800E+02  0.7818608E-02  0.1130116E+00
         25   -1    0    0    0    0  0.00000000000E+00  0.00000000000E+00  0.99999998245E-14  0.12500000000E+03  0.12500000000E+03 0.  0.
        -11    1    1    0    0    0 -0.37899310991E+02 -0.19658286638E+02 -0.94172396752E+01  0.43720594810E+02  0.51100000000E-03 0. -1.
         11    1    1    0    0    0 -0.16092416318E+02 -0.19258089613E+01 -0.11072814651E+02  0.19628597191E+02  0.51100000000E-03 0.  1.
         22    1    1    0    0    0  0.53991727310E+02  0.21584095599E+02  0.20490054326E+02  0.61650808000E+02  0.00000000000E+00 0. -1.
</event>
<event>
 4    1  0.1977788E-002  0.9118800E+02  0.7818608E-02  0.1130116E+00
         25   -1    0    0    0    0  0.00000000000E+00  0.00000000000E+00  0.99999998245E-14  0.12500000000E+03  0.12500000000E+03 0.  0.
        -11    1    1    0    0    0  0.25589018390E+01 -0.69066248349E+01  0.14422369848E+02  0.16194264340E+02  0.51100000000E-03 0. -1.
         11    1    1    0    0    0  0.72986024664E+01 -0.19745881395E+02  0.41243808898E+02  0.46305736175E+02  0.51100000000E-03 0.  1.
         22    1    1    0    0    0 -0.98575043054E+01  0.26652506230E+02 -0.55666178746E+02  0.62499999485E+02  0.00000000000E+00 0.  1.
</event>
<event>
 4    1  0.1977788E-002  0.9118800E+02  0.7818608E-02  0.1130116E+00
         25   -1    0    0    0    0  0.00000000000E+00  0.00000000000E+00  0.99999998245E-14  0.12500000000E+03  0.12500000000E+03 0.  0.
        -11    1    1    0    0    0 -0.26345828482E+02  0.20892183610E+02  0.26069997950E+02  0.42546807257E+02  0.51100000000E-03 0. -1.
         11    1    1    0    0    0 -0.14875644848E+02  0.39391628806E+01  0.13251951901E+02  0.20308029035E+02  0.51100000000E-03 0.  1.
         22    1    1    0    0    0  0.41221473330E+02 -0.24831346491E+02 -0.39321949852E+02  0.62145163707E+02  0.00000000000E+00 0. -1.
</event>
<event>
 4    1  0.1977788E-002  0.9118800E+02  0.7818608E-02  0.1130116E+00
         25   -1    0    0    0    0  0.00000000000E+00  0.00000000000E+00  0.99999998245E-14  0.12500000000E+03  0.12500000000E+03 0.  0.
        -11    1    1    0    0    0  0.60031285782E+01  0.42078432294E+02 -0.27951419424E+02  0.50871542783E+02  0.51100000000E-03 0.  1.
         11    1    1    0    0    0  0.13991142180E+01  0.96295191592E+01 -0.63668207284E+01  0.11628480824E+02  0.51100000000E-03 0. -1.
         22    1    1    0    0    0 -0.74022427961E+01 -0.51707951453E+02  0.34318240153E+02  0.62499976393E+02  0.00000000000E+00 0.  1.
</event>
<event>
 4    1  0.1977788E-002  0.9118800E+02  0.7818608E-02  0.1130116E+00
         25   -1    0    0    0    0  0.00000000000E+00  0.00000000000E+00  0.99999998245E-14  0.12500000000E+03  0.12500000000E+03 0.  0.
        -11    1    1    0    0    0  0.28685862955E+02 -0.58717322299E+01  0.50697639616E+02  0.58545765311E+02  0.51100000000E-03 0. -1.
         11    1    1    0    0    0  0.17312839995E+01  0.16413524141E+00  0.35763060019E+01  0.39767134099E+01  0.51100000000E-03 0.  1.
         22    1    1    0    0    0 -0.30417146955E+02  0.57075969885E+01 -0.54273945618E+02  0.62477521279E+02  0.00000000000E+00 0. -1.
</event>
<event>
 4    1  0.1977788E-002  0.9118800E+02  0.7818608E-02  0.1130116E+00
         25   -1    0    0    0    0  0.00000000000E+00  0.00000000000E+00  0.99999998245E-14  0.12500000000E+03  0.12500000000E+03 0.  0.
        -11    1    1    0    0    0  0.46082615761E+02  0.37998088582E+01  0.39635703293E+02  0.60901847251E+02  0.51100000000E-03 0.  1.
         11    1    1    0    0    0  0.12093024681E+01  0.99498770808E-01  0.10400863619E+01  0.15981527981E+01  0.51100000000E-03 0.  1.
         22    1    1    0    0    0 -0.47291918230E+02 -0.38993076290E+01 -0.40675789655E+02  0.62499999951E+02  0.00000000000E+00 0.  1.
</event>
<event>
 4    1  0.1977788E-002  0.9118800E+02  0.7818608E-02  0.1130116E+00
         25   -1    0    0    0    0  0.00000000000E+00  0.00000000000E+00  0.99999998245E-14  0.12500000000E+03  0.12500000000E+03 0.  0.
        -11    1    1    0    0    0  0.99153273618E+01  0.12832026466E+02  0.19593275238E+01  0.16334429422E+02  0.51100000000E-03 0.  1.
         11    1    1    0    0    0  0.27991957704E+02  0.36270126053E+02  0.56736864647E+01  0.46165598213E+02  0.51100000000E-03 0. -1.
         22    1    1    0    0    0 -0.37907285065E+02 -0.49102152520E+02 -0.76330139884E+01  0.62499972365E+02  0.00000000000E+00 0. -1.
</event>
<event>
 4    1  0.1977788E-002  0.9118800E+02  0.7818608E-02  0.1130116E+00
         25   -1    0    0    0    0  0.00000000000E+00  0.00000000000E+00  0.99999998245E-14  0.12500000000E+03  0.12500000000E+03 0.  0.
        -11    1    1    0    0    0  0.52231033070E+02  0.17780741797E+02  0.13225261743E+02  0.56737493273E+02  0.51100000000E-03 0. -1.
         11    1    1    0    0    0  0.53073602608E+01  0.17987648612E+01  0.13427143426E+01  0.57625090048E+01  0.51100000000E-03 0.  1.
         22    1    1    0    0    0 -0.57538393331E+02 -0.19579506659E+02 -0.14567976086E+02  0.62499997723E+02  0.00000000000E+00 0. -1.
</event>
<event>
 4    1  0.1977788E-002  0.9118800E+02  0.7818608E-02  0.1130116E+00
         25   -1    0    0    0    0  0.00000000000E+00  0.00000000000E+00  0.99999998245E-14  0.12500000000E+03  0.12500000000E+03 0.  0.
        -11    1    1    0    0    0 -0.34988164070E+02 -0.40648527395E+02  0.20903411406E+02  0.57562374978E+02  0.51100000000E-03 0. -1.
         11    1    1    0    0    0 -0.27534407004E+01 -0.36585345758E+01  0.18594983458E+01  0.49420689283E+01  0.51100000000E-03 0.  1.
         22    1    1    0    0    0  0.37741604770E+02  0.44307061971E+02 -0.22762909752E+02  0.62495556094E+02  0.00000000000E+00 0. -1.
</event>
<event>
 4    1  0.1977788E-002  0.9118800E+02  0.7818608E-02  0.1130116E+00
         25   -1    0    0    0    0  0.00000000000E+00  0.00000000000E+00  0.99999998245E-14  0.12500000000E+03  0.12500000000E+03 0.  0.
        -11    1    1    0    0    0 -0.36052294342E+02 -0.29045269817E+02 -0.17026941726E+02  0.49328616146E+02  0.51100000000E-03 0. -1.
         11    1    1    0    0    0 -0.96253623568E+01 -0.77567857758E+01 -0.45464302031E+01  0.13171383903E+02  0.51100000000E-03 0.  1.
         22    1    1    0    0    0  0.45677656699E+02  0.36802055593E+02  0.21573371929E+02  0.62499999950E+02  0.00000000000E+00 0. -1.
</event>
<event>
 4    1  0.1977788E-002  0.9118800E+02  0.7818608E-02  0.1130116E+00
         25   -1    0    0    0    0  0.00000000000E+00  0.00000000000E+00  0.99999998245E-14  0.12500000000E+03  0.12500000000E+03 0.  0.
        -11    1    1    0    0    0  0.34634333783E+02  0.15791622576E+01 -0.46159509331E+02  0.57729811467E+02  0.51100000000E-03 0. -1.
         11    1    1    0    0    0  0.28006132650E+01  0.10268732364E+00 -0.38605441023E+01  0.47705115421E+01  0.51100000000E-03 0.  1.
         22    1    1    0    0    0 -0.37434947048E+02 -0.16818495812E+01  0.50020053434E+02  0.62499676991E+02  0.00000000000E+00 0. -1.
</event>
<event>
 4    1  0.1977788E-002  0.9118800E+02  0.7818608E-02  0.1130116E+00
         25   -1    0    0    0    0  0.00000000000E+00  0.00000000000E+00  0.99999998245E-14  0.12500000000E+03  0.12500000000E+03 0.  0.
        -11    1    1    0    0    0  0.99536853878E+01 -0.10634040391E+02 -0.32106726156E+02  0.35256212680E+02  0.51100000000E-03 0.  1.
         11    1    1    0    0    0  0.76535244485E+01 -0.83648907842E+01 -0.24772627219E+02  0.27243914805E+02  0.51100000000E-03 0. -1.
         22    1    1    0    0    0 -0.17607209836E+02  0.18998931175E+02  0.56879353375E+02  0.62499872515E+02  0.00000000000E+00 0. -1.
</event>
<event>
 4    1  0.1977788E-002  0.9118800E+02  0.7818608E-02  0.1130116E+00
         25   -1    0    0    0    0  0.00000000000E+00  0.00000000000E+00  0.99999998245E-14  0.12500000000E+03  0.12500000000E+03 0.  0.
        -11    1    1    0    0    0  0.51389198094E+01  0.18192478379E+02  0.22892137070E+02  0.29688797656E+02  0.51100000000E-03 0. -1.
         11    1    1    0    0    0  0.37409003310E+02 -0.92023444201E+01 -0.32930035401E+02  0.50680409462E+02  0.51100000000E-03 0.  1.
         22    1    1    0    0    0 -0.42547923119E+02 -0.89901339588E+01  0.10037898331E+02  0.44630792882E+02  0.00000000000E+00 0.  1.
</event>
<event>
 4    1  0.1977788E-002  0.9118800E+02  0.7818608E-02  0.1130116E+00
         25   -1    0    0    0    0  0.00000000000E+00  0.00000000000E+00  0.99999998245E-14  0.12500000000E+03  0.12500000000E+03 0.  0.
        -11    1    1    0    0    0  0.78952122660E+01 -0.54113791181E+01 -0.30961863952E+01  0.10060008506E+02  0.51100000000E-03 0. -1.
         11    1    1    0    0    0 -0.53117031424E+02 -0.26664423325E+02  0.48555062479E+00  0.59436068664E+02  0.51100000000E-03 0.  1.
         22    1    1    0    0    0  0.45221819158E+02  0.32075802443E+02  0.26106357704E+01  0.55503922830E+02  0.00000000000E+00 0.  1.
</event>
<event>
 4    1  0.1977788E-002  0.9118800E+02  0.7818608E-02  0.1130116E+00
         25   -1    0    0    0    0  0.00000000000E+00  0.00000000000E+00  0.99999998245E-14  0.12500000000E+03  0.12500000000E+03 0.  0.
        -11    1    1    0    0    0 -0.89290132178E+01 -0.19409914783E+01  0.95404343017E+00  0.91872152522E+01  0.51100000000E-03 0.  1.
         11    1    1    0    0    0 -0.50886365386E+02 -0.86669361873E+01  0.13526589337E+02  0.53362033173E+02  0.51100000000E-03 0. -1.
         22    1    1    0    0    0  0.59815378604E+02  0.10607927666E+02 -0.14480632768E+02  0.62450751574E+02  0.00000000000E+00 0. -1.
</event>
<event>
 4    1  0.1977788E-002  0.9118800E+02  0.7818608E-02  0.1130116E+00
         25   -1    0    0    0    0  0.00000000000E+00  0.00000000000E+00  0.99999998245E-14  0.12500000000E+03  0.12500000000E+03 0.  0.
        -11    1    1    0    0    0 -0.10794038968E+02  0.62140972064E+01  0.10741389070E+02  0.16446997317E+02  0.51100000000E-03 0. -1.
         11    1    1    0    0    0 -0.30205154386E+02  0.17679004082E+02  0.29933150934E+02  0.46053143888E+02  0.51100000000E-03 0.  1.
         22    1    1    0    0    0  0.40999193354E+02 -0.23893101288E+02 -0.40674540005E+02  0.62499858795E+02  0.00000000000E+00 0.  1.
</event>
<event>
 4    1  0.1977788E-002  0.9118800E+02  0.7818608E-02  0.1130116E+00
         25   -1    0    0    0    0  0.00000000000E+00  0.00000000000E+00  0.99999998245E-14  0.12500000000E+03  0.12500000000E+03 0.  0.
        -11    1    1    0    0    0 -0.31932039399E+02 -0.31540323285E+02  0.17992319023E+02  0.48354634496E+02  0.51100000000E-03 0. -1.
         11    1    1    0    0    0 -0.93073375317E+01 -0.91908095303E+01  0.53852146366E+01  0.14145601744E+02  0.51100000000E-03 0.  1.
         22    1    1    0    0    0  0.41239376931E+02  0.40731132815E+02 -0.23377533660E+02  0.62499763760E+02  0.00000000000E+00 0. -1.
</event>
<event>
 4    1  0.1977788E-002  0.9118800E+02  0.7818608E-02  0.1130116E+00
         25   -1    0    0    0    0  0.00000000000E+00  0.00000000000E+00  0.99999998245E-14  0.12500000000E+03  0.12500000000E+03 0.  0.
        -11    1    1    0    0    0 -0.12434105237E+01 -0.32277852152E+01 -0.33850941002E+00  0.34755224079E+01  0.51100000000E-03 0. -1.
         11    1    1    0    0    0  0.89600042823E+01 -0.56360856755E+02 -0.15976320372E+02  0.59262725754E+02  0.51100000000E-03 0.  1.
         22    1    1    0    0    0 -0.77165937586E+01  0.59588641970E+02  0.16314829783E+02  0.62261751838E+02  0.00000000000E+00 0.  1.
</event>
<event>
 4    1  0.1977788E-002  0.9118800E+02  0.7818608E-02  0.1130116E+00
         25   -1    0    0    0    0  0.00000000000E+00  0.00000000000E+00  0.99999998245E-14  0.12500000000E+03  0.12500000000E+03 0.  0.
        -11    1    1    0    0    0  0.27286893190E+02 -0.18769407679E+01  0.13341943620E+01  0.27383891642E+02  0.51100000000E-03 0.  1.
         11    1    1    0    0    0  0.34990074342E+02 -0.26219167639E+01  0.14110773141E+01  0.35116532993E+02  0.51100000000E-03 0. -1.
         22    1    1    0    0    0 -0.62276967533E+02  0.44988575318E+01 -0.27452716762E+01  0.62499575365E+02  0.00000000000E+00 0. -1.
</event>
<event>
 4    1  0.1977788E-002  0.9118800E+02  0.7818608E-02  0.1130116E+00
         25   -1    0    0    0    0  0.00000000000E+00  0.00000000000E+00  0.99999998245E-14  0.12500000000E+03  0.12500000000E+03 0.  0.
        -11    1    1    0    0    0 -0.12014453365E+02  0.26927781664E+02  0.38207659788E+01  0.29732991238E+02  0.51100000000E-03 0. -1.
         11    1    1    0    0    0 -0.13632472095E+02  0.29550165307E+02  0.38333353389E+01  0.32768140399E+02  0.51100000000E-03 0.  1.
         22    1    1    0    0    0  0.25646925460E+02 -0.56477946972E+02 -0.76541013177E+01  0.62498868363E+02  0.00000000000E+00 0.  1.
</event>
<event>
 4    1  0.1977788E-002  0.9118800E+02  0.7818608E-02  0.1130116E+00
         25   -1    0    0    0    0  0.00000000000E+00  0.00000000000E+00  0.99999998245E-14  0.12500000000E+03  0.12500000000E+03 0.  0.
        -11    1    1    0    0    0 -0.59025788110E+02  0.57873399034E+01 -0.16506849289E+01  0.59331793553E+02  0.51100000000E-03 0.  1.
         11    1    1    0    0    0 -0.30677383297E+01  0.89328356301E+00  0.29046309181E-01  0.31952805718E+01  0.51100000000E-03 0. -1.
         22    1    1    0    0    0  0.62093526440E+02 -0.66806234664E+01  0.16216386197E+01  0.62472925876E+02  0.00000000000E+00 0.  1.
</event>
<event>
 4    1  0.1977788E-002  0.9118800E+02  0.7818608E-02  0.1130116E+00
         25   -1    0    0    0    0  0.00000000000E+00  0.00000000000E+00  0.99999998245E-14  0.12500000000E+03  0.12500000000E+03 0.  0.
        -11    1    1    0    0    0 -0.31789155153E+01  0.31035670003E+01 -0.56217298223E+00  0.44781325016E+01  0.51100000000E-03 0.  1.
         11    1    1    0    0    0 -0.41151181551E+02  0.40255407270E+02 -0.72539438229E+01  0.58021868798E+02  0.51100000000E-03 0. -1.
         22    1    1    0    0    0  0.44330097066E+02 -0.43358974271E+02  0.78161168052E+01  0.62499998701E+02  0.00000000000E+00 0. -1.
</event>
<event>
 4    1  0.1977788E-002  0.9118800E+02  0.7818608E-02  0.1130116E+00
         25   -1    0    0    0    0  0.00000000000E+00  0.00000000000E+00  0.99999998245E-14  0.12500000000E+03  0.12500000000E+03 0.  0.
        -11    1    1    0    0    0  0.44126788481E+02  0.17815032789E+02 -0.39613966068E+02  0.61917809739E+02  0.51100000000E-03 0. -1.
         11    1    1    0    0    0 -0.34470629412E+00 -0.83169363785E+00 -0.73964149906E+00  0.11651637416E+01  0.51100000000E-03 0.  1.
         22    1    1    0    0    0 -0.43782082187E+02 -0.16983339151E+02  0.40353607567E+02  0.61917026520E+02  0.00000000000E+00 0. -1.
</event>
<event>
 4    1  0.1977788E-002  0.9118800E+02  0.7818608E-02  0.1130116E+00
         25   -1    0    0    0    0  0.00000000000E+00  0.00000000000E+00  0.99999998245E-14  0.12500000000E+03  0.12500000000E+03 0.  0.
        -11    1    1    0    0    0 -0.61030314569E+00  0.77780601226E+00 -0.13111811860E+00  0.99731857723E+00  0.51100000000E-03 0. -1.
         11    1    1    0    0    0 -0.37462728176E+02  0.48103744005E+02 -0.80718048761E+01  0.61502684689E+02  0.51100000000E-03 0.  1.
         22    1    1    0    0    0  0.38073031321E+02 -0.48881550018E+02  0.82029229947E+01  0.62499996734E+02  0.00000000000E+00 0.  1.
</event>
<event>
 4    1  0.1977788E-002  0.9118800E+02  0.7818608E-02  0.1130116E+00
         25   -1    0    0    0    0  0.00000000000E+00  0.00000000000E+00  0.99999998245E-14  0.12500000000E+03  0.12500000000E+03 0.  0.
        -11    1    1    0    0    0 -0.46214455538E+02 -0.27580541386E+02 -0.55727489206E+01  0.54106540220E+02  0.51100000000E-03 0. -1.
         11    1    1    0    0    0 -0.71690434487E+01 -0.42789205518E+01 -0.86361004985E+00  0.83934598133E+01  0.51100000000E-03 0. -1.
         22    1    1    0    0    0  0.53383498987E+02  0.31859461938E+02  0.64363589704E+01  0.62499999967E+02  0.00000000000E+00 0. -1.
</event>
<event>
 4    1  0.1977788E-002  0.9118800E+02  0.7818608E-02  0.1130116E+00
         25   -1    0    0    0    0  0.00000000000E+00  0.00000000000E+00  0.99999998245E-14  0.12500000000E+03  0.12500000000E+03 0.  0.
        -11    1    1    0    0    0 -0.26125286411E+02 -0.17640251342E+02  0.45822747722E+02  0.55618641358E+02  0.51100000000E-03 0.  1.
         11    1    1    0    0    0 -0.31619779546E+01 -0.21349231356E+01  0.57272853619E+01  0.68817003173E+01  0.51100000000E-03 0. -1.
         22    1    1    0    0    0  0.29287264366E+02  0.19775174478E+02 -0.51550033084E+02  0.62499658324E+02  0.00000000000E+00 0.  1.
</event>
<event>
 4    1  0.1977788E-002  0.9118800E+02  0.7818608E-02  0.1130116E+00
         25   -1    0    0    0    0  0.00000000000E+00  0.00000000000E+00  0.99999998245E-14  0.12500000000E+03  0.12500000000E+03 0.  0.
        -11    1    1    0    0    0 -0.18982768377E+02 -0.36097526767E+02 -0.34718173097E+02  0.53560512296E+02  0.51100000000E-03 0.  1.
         11    1    1    0    0    0 -0.31993327279E+01 -0.59900956388E+01 -0.58136519925E+01  0.89395483900E+01  0.51100000000E-03 0. -1.
         22    1    1    0    0    0  0.22182101104E+02  0.42087622406E+02  0.40531825090E+02  0.62499939314E+02  0.00000000000E+00 0.  1.
</event>
<event>
 4    1  0.1977788E-002  0.9118800E+02  0.7818608E-02  0.1130116E+00
         25   -1    0    0    0    0  0.00000000000E+00  0.00000000000E+00  0.99999998245E-14  0.12500000000E+03  0.12500000000E+03 0.  0.
        -11    1    1    0    0    0 -0.93513099781E+01  0.51482792244E+01  0.76176815641E+01  0.13114146940E+02  0.51100000000E-03 0.  1.
         11    1    1    0    0    0 -0.35263946720E+02  0.19532020763E+02  0.28529313896E+02  0.49385904112E+02  0.51100000000E-03 0. -1.
         22    1    1    0    0    0  0.44615256698E+02 -0.24680299988E+02 -0.36146995460E+02  0.62499948948E+02  0.00000000000E+00 0. -1.
</event>
<event>
 4    1  0.1977788E-002  0.9118800E+02  0.7818608E-02  0.1130116E+00
         25   -1    0    0    0    0  0.00000000000E+00  0.00000000000E+00  0.99999998245E-14  0.12500000000E+03  0.12500000000E+03 0.  0.
        -11    1    1    0    0    0 -0.38049421545E+02  0.31348062700E+02  0.34409785346E+02  0.60120652382E+02  0.51100000000E-03 0. -1.
         11    1    1    0    0    0 -0.15042226977E+01  0.12425222186E+01  0.13618922730E+01  0.23793482747E+01  0.51100000000E-03 0.  1.
         22    1    1    0    0    0  0.39553644243E+02 -0.32590584919E+02 -0.35771677619E+02  0.62499999343E+02  0.00000000000E+00 0. -1.
</event>
<event>
 4    1  0.1977788E-002  0.9118800E+02  0.7818608E-02  0.1130116E+00
         25   -1    0    0    0    0  0.00000000000E+00  0.00000000000E+00  0.99999998245E-14  0.12500000000E+03  0.12500000000E+03 0.  0.
        -11    1    1    0    0    0 -0.60580797827E-01 -0.47681483885E+00  0.62324761361E+00  0.78705798554E+00  0.51100000000E-03 0. -1.
         11    1    1    0    0    0 -0.48545833390E+01 -0.37166881191E+02  0.49025949401E+02  0.61712946387E+02  0.51100000000E-03 0.  1.
         22    1    1    0    0    0  0.49151641368E+01  0.37643696030E+02 -0.49649197014E+02  0.62499995628E+02  0.00000000000E+00 0.  1.
</event>
<event>
 4    1  0.1977788E-002  0.9118800E+02  0.7818608E-02  0.1130116E+00
         25   -1    0    0    0    0  0.00000000000E+00  0.00000000000E+00  0.99999998245E-14  0.12500000000E+03  0.12500000000E+03 0.  0.
        -11    1    1    0    0    0  0.34434286485E+02 -0.22539735733E+02  0.30740552432E+02  0.51368680504E+02  0.51100000000E-03 0. -1.
         11    1    1    0    0    0  0.74613073471E+01 -0.48845669377E+01  0.66615442849E+01  0.11131319509E+02  0.51100000000E-03 0. -1.
         22    1    1    0    0    0 -0.41895593832E+02  0.27424302671E+02 -0.37402096716E+02  0.62499999987E+02  0.00000000000E+00 0. -1.
</event>
<event>
 4    1  0.1977788E-002  0.9118800E+02  0.7818608E-02  0.1130116E+00
         25   -1    0    0    0    0  0.00000000000E+00  0.00000000000E+00  0.99999998245E-14  0.12500000000E+03  0.12500000000E+03 0.  0.
        -11    1    1    0    0    0 -0.26931744973E+02 -0.21508752907E+02 -0.16041552589E+02  0.38016795612E+02  0.51100000000E-03 0. -1.
         11    1    1    0    0    0 -0.17354587285E+02 -0.13914350198E+02 -0.10229409064E+02  0.24483293311E+02  0.51100000000E-03 0.  1.
         22    1    1    0    0    0  0.44286332258E+02  0.35423103105E+02  0.26270961653E+02  0.62499911077E+02  0.00000000000E+00 0. -1.
</event>
<event>
 4    1  0.1977788E-002  0.9118800E+02  0.7818608E-02  0.1130116E+00
         25   -1    0    0    0    0  0.00000000000E+00  0.00000000000E+00  0.99999998245E-14  0.12500000000E+03  0.12500000000E+03 0.  0.
        -11    1    1    0    0    0  0.13439957517E+01 -0.20568797803E+00  0.29756296635E+01  0.32715446322E+01  0.51100000000E-03 0. -1.
         11    1    1    0    0    0  0.44386389141E+02 -0.40192920300E+02  0.54629072809E+01  0.60128743039E+02  0.51100000000E-03 0.  1.
         22    1    1    0    0    0 -0.45730384893E+02  0.40398608278E+02 -0.84385369444E+01  0.61599712329E+02  0.00000000000E+00 0.  1.
</event>
<event>
 4    1  0.1977788E-002  0.9118800E+02  0.7818608E-02  0.1130116E+00
         25   -1    0    0    0    0  0.00000000000E+00  0.00000000000E+00  0.99999998245E-14  0.12500000000E+03  0.12500000000E+03 0.  0.
        -11    1    1    0    0    0 -0.20471478626E+02  0.13015099953E+02  0.12889685276E+02  0.27470315810E+02  0.51100000000E-03 0.  1.
         11    1    1    0    0    0 -0.26098746221E+02  0.16600147779E+02  0.16442911340E+02  0.35029684472E+02  0.51100000000E-03 0. -1.
         22    1    1    0    0    0  0.46570224847E+02 -0.29615247732E+02 -0.29332596617E+02  0.62499999718E+02  0.00000000000E+00 0.  1.
</event>
<event>
 4    1  0.1977788E-002  0.9118800E+02  0.7818608E-02  0.1130116E+00
         25   -1    0    0    0    0  0.00000000000E+00  0.00000000000E+00  0.99999998245E-14  0.12500000000E+03  0.12500000000E+03 0.  0.
        -11    1    1    0    0    0  0.26341201861E+02 -0.24689572427E+02 -0.20683037893E+02  0.41607955476E+02  0.51100000000E-03 0. -1.
         11    1    1    0    0    0  0.11164741808E+02 -0.10476772844E+02 -0.14504465630E+02  0.21090134005E+02  0.51100000000E-03 0.  1.
         22    1    1    0    0    0 -0.37505943670E+02  0.35166345271E+02  0.35187503522E+02  0.62301910520E+02  0.00000000000E+00 0. -1.
</event>
<event>
 4    1  0.1977788E-002  0.9118800E+02  0.7818608E-02  0.1130116E+00
         25   -1    0    0    0    0  0.00000000000E+00  0.00000000000E+00  0.99999998245E-14  0.12500000000E+03  0.12500000000E+03 0.  0.
        -11    1    1    0    0    0  0.66485894119E+00  0.80538549001E+01 -0.30711267250E+02  0.31756708780E+02  0.51100000000E-03 0.  1.
         11    1    1    0    0    0  0.66420491583E+00  0.78004608623E+01 -0.29729811780E+02  0.30743293034E+02  0.51100000000E-03 0. -1.
         22    1    1    0    0    0 -0.13290638570E+01 -0.15854315762E+02  0.60441079030E+02  0.62499998186E+02  0.00000000000E+00 0.  1.
</event>
<event>
 4    1  0.1977788E-002  0.9118800E+02  0.7818608E-02  0.1130116E+00
         25   -1    0    0    0    0  0.00000000000E+00  0.00000000000E+00  0.99999998245E-14  0.12500000000E+03  0.12500000000E+03 0.  0.
        -11    1    1    0    0    0 -0.22887832103E+02  0.18912733576E+02 -0.34963847201E+02  0.45869542847E+02  0.51100000000E-03 0.  1.
         11    1    1    0    0    0 -0.82997869126E+01  0.68570647807E+01 -0.12675421340E+02  0.16630457198E+02  0.51100000000E-03 0. -1.
         22    1    1    0    0    0  0.31187619016E+02 -0.25769798356E+02  0.47639268541E+02  0.62499999955E+02  0.00000000000E+00 0.  1.
</event>
<event>
 4    1  0.1977788E-002  0.9118800E+02  0.7818608E-02  0.1130116E+00
         25   -1    0    0    0    0  0.00000000000E+00  0.00000000000E+00  0.99999998245E-14  0.12500000000E+03  0.12500000000E+03 0.  0.
        -11    1    1    0    0    0 -0.52453362142E+02 -0.31269939541E+02 -0.10690683124E+02  0.61995604883E+02  0.51100000000E-03 0.  1.
         11    1    1    0    0    0 -0.42724536526E+00 -0.25424368688E+00 -0.85075138635E-01  0.50439715978E+00  0.51100000000E-03 0. -1.
         22    1    1    0    0    0  0.52880607507E+02  0.31524183228E+02  0.10775758263E+02  0.62499997957E+02  0.00000000000E+00 0.  1.
</event>
<event>
 4    1  0.1977788E-002  0.9118800E+02  0.7818608E-02  0.1130116E+00
         25   -1    0    0    0    0  0.00000000000E+00  0.00000000000E+00  0.99999998245E-14  0.12500000000E+03  0.12500000000E+03 0.  0.
        -11    1    1    0    0    0 -0.49544923977E+01 -0.19642246304E+02 -0.17229237240E+02  0.26593447518E+02  0.51100000000E-03 0.  1.
         11    1    1    0    0    0 -0.66906510662E+01 -0.26522127067E+02 -0.23261394549E+02  0.35906552500E+02  0.51100000000E-03 0. -1.
         22    1    1    0    0    0  0.11645143464E+02  0.46164373371E+02  0.40490631789E+02  0.62499999981E+02  0.00000000000E+00 0.  1.
</event>
<event>
 4    1  0.1977788E-002  0.9118800E+02  0.7818608E-02  0.1130116E+00
         25   -1    0    0    0    0  0.00000000000E+00  0.00000000000E+00  0.99999998245E-14  0.12500000000E+03  0.12500000000E+03 0.  0.
        -11    1    1    0    0    0  0.20918629371E+01  0.43012624299E+01 -0.55081657375E-01  0.47832816443E+01  0.51100000000E-03 0. -1.
         11    1    1    0    0    0  0.25653925646E+02  0.51695569985E+02 -0.82022927271E+00  0.57716796805E+02  0.51100000000E-03 0.  1.
         22    1    1    0    0    0 -0.27745788583E+02 -0.55996832415E+02  0.87531093008E+00  0.62499921551E+02  0.00000000000E+00 0.  1.
</event>
<event>
 4    1  0.1977788E-002  0.9118800E+02  0.7818608E-02  0.1130116E+00
         25   -1    0    0    0    0  0.00000000000E+00  0.00000000000E+00  0.99999998245E-14  0.12500000000E+03  0.12500000000E+03 0.  0.
        -11    1    1    0    0    0 -0.19796904353E+02 -0.12670685671E+02  0.51132988425E+02  0.56276515554E+02  0.51100000000E-03 0. -1.
         11    1    1    0    0    0 -0.26751280297E+01  0.65897254169E+00  0.57600075240E+01  0.63850013096E+01  0.51100000000E-03 0.  1.
         22    1    1    0    0    0  0.22472032382E+02  0.12011713130E+02 -0.56892995949E+02  0.62338483137E+02  0.00000000000E+00 0. -1.
</event>
<event>
 4    1  0.1977788E-002  0.9118800E+02  0.7818608E-02  0.1130116E+00
         25   -1    0    0    0    0  0.00000000000E+00  0.00000000000E+00  0.99999998245E-14  0.12500000000E+03  0.12500000000E+03 0.  0.
        -11    1    1    0    0    0  0.70168419213E+01 -0.30392637434E+02 -0.37531578502E+02  0.48801310084E+02  0.51100000000E-03 0.  1.
         11    1    1    0    0    0  0.19982495942E+01 -0.85547457875E+01 -0.10510860768E+02  0.13698717870E+02  0.51100000000E-03 0. -1.
         22    1    1    0    0    0 -0.90150915155E+01  0.38947383222E+02  0.48042439270E+02  0.62499972047E+02  0.00000000000E+00 0.  1.
</event>
<event>
 4    1  0.1977788E-002  0.9118800E+02  0.7818608E-02  0.1130116E+00
         25   -1    0    0    0    0  0.00000000000E+00  0.00000000000E+00  0.99999998245E-14  0.12500000000E+03  0.12500000000E+03 0.  0.
        -11    1    1    0    0    0  0.37360130115E+02  0.20595169301E+01 -0.25051811125E+02  0.45029036999E+02  0.51100000000E-03 0. -1.
         11    1    1    0    0    0 -0.37612043729E+01 -0.43426901706E+01 -0.21646765297E+02  0.22396161822E+02  0.51100000000E-03 0.  1.
         22    1    1    0    0    0 -0.33598925742E+02  0.22831732405E+01  0.46698576422E+02  0.57574801179E+02  0.00000000000E+00 0. -1.
</event>
<event>
 4    1  0.1977788E-002  0.9118800E+02  0.7818608E-02  0.1130116E+00
         25   -1    0    0    0    0  0.00000000000E+00  0.00000000000E+00  0.99999998245E-14  0.12500000000E+03  0.12500000000E+03 0.  0.
        -11    1    1    0    0    0  0.11802669031E+02  0.49974765128E+01 -0.22877619800E+02  0.26223334184E+02  0.51100000000E-03 0. -1.
         11    1    1    0    0    0  0.16327979862E+02  0.69108932525E+01 -0.31648587840E+02  0.36276665839E+02  0.51100000000E-03 0.  1.
         22    1    1    0    0    0 -0.28130648893E+02 -0.11908369765E+02  0.54526207639E+02  0.62499999977E+02  0.00000000000E+00 0.  1.
</event>
<event>
 4    1  0.1977788E-002  0.9118800E+02  0.7818608E-02  0.1130116E+00
         25   -1    0    0    0    0  0.00000000000E+00  0.00000000000E+00  0.99999998245E-14  0.12500000000E+03  0.12500000000E+03 0.  0.
        -11    1    1    0    0    0  0.23205526878E+01 -0.64363842677E+01  0.46529131579E+01  0.82741530282E+01  0.51100000000E-03 0. -1.
         11    1    1    0    0    0  0.15114937839E+02 -0.42041805251E+02  0.30732285791E+02  0.54225899023E+02  0.51100000000E-03 0.  1.
         22    1    1    0    0    0 -0.17435490527E+02  0.48478189519E+02 -0.35385198949E+02  0.62499947949E+02  0.00000000000E+00 0.  1.
</event>
<event>
 4    1  0.1977788E-002  0.9118800E+02  0.7818608E-02  0.1130116E+00
         25   -1    0    0    0    0  0.00000000000E+00  0.00000000000E+00  0.99999998245E-14  0.12500000000E+03  0.12500000000E+03 0.  0.
        -11    1    1    0    0    0  0.99346819360E+01 -0.25001500637E+02  0.61984740739E+01  0.27607861569E+02  0.51100000000E-03 0.  1.
         11    1    1    0    0    0  0.12555021098E+02 -0.31597969837E+02  0.78358836613E+01  0.34892138450E+02  0.51100000000E-03 0. -1.
         22    1    1    0    0    0 -0.22489703034E+02  0.56599470475E+02 -0.14034357735E+02  0.62499999981E+02  0.00000000000E+00 0.  1.
</event>
<event>
 4    1  0.1977788E-002  0.9118800E+02  0.7818608E-02  0.1130116E+00
         25   -1    0    0    0    0  0.00000000000E+00  0.00000000000E+00  0.99999998245E-14  0.12500000000E+03  0.12500000000E+03 0.  0.
        -11    1    1    0    0    0 -0.12767593301E+02 -0.78246764709E+01  0.36201437167E+01  0.15405922282E+02  0.51100000000E-03 0. -1.
         11    1    1    0    0    0 -0.45143244369E+02  0.52016135091E+01  0.16329989022E+02  0.48287035910E+02  0.51100000000E-03 0.  1.
         22    1    1    0    0    0  0.57910837670E+02  0.26230629617E+01 -0.19950132738E+02  0.61307041808E+02  0.00000000000E+00 0.  1.
</event>
<event>
 4    1  0.1977788E-002  0.9118800E+02  0.7818608E-02  0.1130116E+00
         25   -1    0    0    0    0  0.00000000000E+00  0.00000000000E+00  0.99999998245E-14  0.12500000000E+03  0.12500000000E+03 0.  0.
        -11    1    1    0    0    0 -0.40871076794E+01 -0.24195659615E+02 -0.72735156095E+01  0.25593718428E+02  0.51100000000E-03 0. -1.
         11    1    1    0    0    0 -0.58032237897E+01 -0.34919771425E+02 -0.10440694204E+02  0.36906312989E+02  0.51100000000E-03 0.  1.
         22    1    1    0    0    0  0.98903314691E+01  0.59115431040E+02  0.17714209813E+02  0.62499968583E+02  0.00000000000E+00 0.  1.
</event>
<event>
 4    1  0.1977788E-002  0.9118800E+02  0.7818608E-02  0.1130116E+00
         25   -1    0    0    0    0  0.00000000000E+00  0.00000000000E+00  0.99999998245E-14  0.12500000000E+03  0.12500000000E+03 0.  0.
        -11    1    1    0    0    0  0.19218206730E+01  0.38988925768E+01  0.10149999070E+02  0.11041613985E+02  0.51100000000E-03 0.  1.
         11    1    1    0    0    0 -0.61363537254E+01  0.15378854317E+02  0.48937568115E+02  0.51662845164E+02  0.51100000000E-03 0. -1.
         22    1    1    0    0    0  0.42145330524E+01 -0.19277746894E+02 -0.59087567184E+02  0.62295540851E+02  0.00000000000E+00 0. -1.
</event>
<event>
 4    1  0.1977788E-002  0.9118800E+02  0.7818608E-02  0.1130116E+00
         25   -1    0    0    0    0  0.00000000000E+00  0.00000000000E+00  0.99999998245E-14  0.12500000000E+03  0.12500000000E+03 0.  0.
        -11    1    1    0    0    0 -0.38718833666E+01  0.33735758116E+02 -0.53994638328E+00  0.33961513494E+02  0.51100000000E-03 0. -1.
         11    1    1    0    0    0 -0.57277977764E+01  0.27968934568E+02 -0.10906847401E+01  0.28570239091E+02  0.51100000000E-03 0.  1.
         22    1    1    0    0    0  0.95996811429E+01 -0.61704692684E+02  0.16306311234E+01  0.62468247415E+02  0.00000000000E+00 0.  1.
</event>
<event>
 4    1  0.1977788E-002  0.9118800E+02  0.7818608E-02  0.1130116E+00
         25   -1    0    0    0    0  0.00000000000E+00  0.00000000000E+00  0.99999998245E-14  0.12500000000E+03  0.12500000000E+03 0.  0.
        -11    1    1    0    0    0 -0.31212787419E+02 -0.46017840445E+02  0.12363363925E+02  0.56962553537E+02  0.51100000000E-03 0. -1.
         11    1    1    0    0    0 -0.30539336361E+01 -0.44672414674E+01  0.11751913503E+01  0.55374932915E+01  0.51100000000E-03 0.  1.
         22    1    1    0    0    0  0.34266721055E+02  0.50485081912E+02 -0.13538555275E+02  0.62499953172E+02  0.00000000000E+00 0. -1.
</event>
<event>
 4    1  0.1977788E-002  0.9118800E+02  0.7818608E-02  0.1130116E+00
         25   -1    0    0    0    0  0.00000000000E+00  0.00000000000E+00  0.99999998245E-14  0.12500000000E+03  0.12500000000E+03 0.  0.
        -11    1    1    0    0    0 -0.23921594470E+02 -0.69300458031E+01  0.19158556058E+01  0.24978765377E+02  0.51100000000E-03 0.  1.
         11    1    1    0    0    0 -0.35933810785E+02 -0.10416575096E+02  0.28459560813E+01  0.37521237460E+02  0.51100000000E-03 0. -1.
         22    1    1    0    0    0  0.59855405254E+02  0.17346620899E+02 -0.47618116871E+01  0.62499997163E+02  0.00000000000E+00 0. -1.
</event>
<event>
 4    1  0.1977788E-002  0.9118800E+02  0.7818608E-02  0.1130116E+00
         25   -1    0    0    0    0  0.00000000000E+00  0.00000000000E+00  0.99999998245E-14  0.12500000000E+03  0.12500000000E+03 0.  0.
        -11    1    1    0    0    0 -0.98740884332E+00 -0.51139675884E+01 -0.54581610170E+01  0.75444789527E+01  0.51100000000E-03 0.  1.
         11    1    1    0    0    0 -0.72339525492E+01 -0.37133068016E+02 -0.39861210078E+02  0.54955535471E+02  0.51100000000E-03 0. -1.
         22    1    1    0    0    0  0.82213613925E+01  0.42247035605E+02  0.45319371095E+02  0.62499985576E+02  0.00000000000E+00 0. -1.
</event>
<event>
 4    1  0.1977788E-002  0.9118800E+02  0.7818608E-02  0.1130116E+00
         25   -1    0    0    0    0  0.00000000000E+00  0.00000000000E+00  0.99999998245E-14  0.12500000000E+03  0.12500000000E+03 0.  0.
        -11    1    1    0    0    0 -0.42087543671E+01 -0.21249915237E+02 -0.62896835039E+01  0.22557318762E+02  0.51100000000E-03 0.  1.
         11    1    1    0    0    0  0.31107989136E+02 -0.30700649982E+02  0.12440633788E+01  0.43723959009E+02  0.51100000000E-03 0. -1.
         22    1    1    0    0    0 -0.26899234769E+02  0.51950565219E+02  0.50456201252E+01  0.58718722229E+02  0.00000000000E+00 0. -1.
</event>
<event>
 4    1  0.1977788E-002  0.9118800E+02  0.7818608E-02  0.1130116E+00
         25   -1    0    0    0    0  0.00000000000E+00  0.00000000000E+00  0.99999998245E-14  0.12500000000E+03  0.12500000000E+03 0.  0.
        -11    1    1    0    0    0  0.18774832150E+02  0.23965545177E+01 -0.63893456782E+01  0.19976524579E+02  0.51100000000E-03 0.  1.
         11    1    1    0    0    0  0.40113660822E+02  0.63295507253E+01 -0.12628249352E+02  0.42528128090E+02  0.51100000000E-03 0. -1.
         22    1    1    0    0    0 -0.58888492972E+02 -0.87261052430E+01  0.19017595030E+02  0.62495347330E+02  0.00000000000E+00 0. -1.
</event>
<event>
 4    1  0.1977788E-002  0.9118800E+02  0.7818608E-02  0.1130116E+00
         25   -1    0    0    0    0  0.00000000000E+00  0.00000000000E+00  0.99999998245E-14  0.12500000000E+03  0.12500000000E+03 0.  0.
        -11    1    1    0    0    0  0.36352781797E+02  0.37867754293E+02 -0.73253614241E+01  0.53001438469E+02  0.51100000000E-03 0. -1.
         11    1    1    0    0    0  0.64721065042E+01  0.67407362117E+01 -0.17234096759E+01  0.95024117175E+01  0.51100000000E-03 0.  1.
         22    1    1    0    0    0 -0.42824888301E+02 -0.44608490505E+02  0.90487711000E+01  0.62496149813E+02  0.00000000000E+00 0. -1.
</event>
<event>
 4    1  0.1977788E-002  0.9118800E+02  0.7818608E-02  0.1130116E+00
         25   -1    0    0    0    0  0.00000000000E+00  0.00000000000E+00  0.99999998245E-14  0.12500000000E+03  0.12500000000E+03 0.  0.
        -11    1    1    0    0    0 -0.50730786175E+01  0.30743674751E+02 -0.32184205126E+02  0.44796570446E+02  0.51100000000E-03 0. -1.
         11    1    1    0    0    0 -0.27519896919E+01  0.10980539921E+02 -0.13647907845E+02  0.17731641013E+02  0.51100000000E-03 0.  1.
         22    1    1    0    0    0  0.78250683095E+01 -0.41724214673E+02  0.45832112971E+02  0.62471788541E+02  0.00000000000E+00 0. -1.
</event>
<event>
 4    1  0.1977788E-002  0.9118800E+02  0.7818608E-02  0.1130116E+00
         25   -1    0    0    0    0  0.00000000000E+00  0.00000000000E+00  0.99999998245E-14  0.12500000000E+03  0.12500000000E+03 0.  0.
        -11    1    1    0    0    0 -0.16409650005E+00  0.57646374434E+00 -0.17499758995E-01  0.59962039037E+00  0.51100000000E-03 0. -1.
         11    1    1    0    0    0 -0.19013466363E+02  0.58844660935E+02 -0.27345677178E+01  0.61900596803E+02  0.51100000000E-03 0.  1.
         22    1    1    0    0    0  0.19177562863E+02 -0.59421124679E+02  0.27520674768E+01  0.62499782807E+02  0.00000000000E+00 0.  1.
</event>
<event>
 4    1  0.1977788E-002  0.9118800E+02  0.7818608E-02  0.1130116E+00
         25   -1    0    0    0    0  0.00000000000E+00  0.00000000000E+00  0.99999998245E-14  0.12500000000E+03  0.12500000000E+03 0.  0.
        -11    1    1    0    0    0 -0.22704620755E+01  0.42897909646E+02  0.27551100378E+02  0.51033800391E+02  0.51100000000E-03 0. -1.
         11    1    1    0    0    0 -0.28832192973E-01  0.79081146006E+01  0.85127932126E+01  0.11619240783E+02  0.51100000000E-03 0.  1.
         22    1    1    0    0    0  0.22992942684E+01 -0.50806024247E+02 -0.36063893591E+02  0.62346958826E+02  0.00000000000E+00 0.  1.
</event>
<event>
 4    1  0.1977788E-002  0.9118800E+02  0.7818608E-02  0.1130116E+00
         25   -1    0    0    0    0  0.00000000000E+00  0.00000000000E+00  0.99999998245E-14  0.12500000000E+03  0.12500000000E+03 0.  0.
        -11    1    1    0    0    0  0.67819065175E+01 -0.38806021539E+02 -0.35397977372E+02  0.52961480021E+02  0.51100000000E-03 0. -1.
         11    1    1    0    0    0  0.12231199780E+01 -0.69904481799E+01 -0.63734589078E+01  0.95385201654E+01  0.51100000000E-03 0.  1.
         22    1    1    0    0    0 -0.80050264955E+01  0.45796469719E+02  0.41771436280E+02  0.62499999814E+02  0.00000000000E+00 0.  1.
</event>
<event>
 4    1  0.1977788E-002  0.9118800E+02  0.7818608E-02  0.1130116E+00
         25   -1    0    0    0    0  0.00000000000E+00  0.00000000000E+00  0.99999998245E-14  0.12500000000E+03  0.12500000000E+03 0.  0.
        -11    1    1    0    0    0 -0.17159218209E+01  0.30383698832E+01 -0.43100957993E+01  0.55455392256E+01  0.51100000000E-03 0. -1.
         11    1    1    0    0    0 -0.91089508983E+01  0.30922197577E+02 -0.46991545153E+02  0.56985617533E+02  0.51100000000E-03 0.  1.
         22    1    1    0    0    0  0.10824872719E+02 -0.33960567460E+02  0.51301640952E+02  0.62468843242E+02  0.00000000000E+00 0.  1.
</event>
<event>
 4    1  0.1977788E-002  0.9118800E+02  0.7818608E-02  0.1130116E+00
         25   -1    0    0    0    0  0.00000000000E+00  0.00000000000E+00  0.99999998245E-14  0.12500000000E+03  0.12500000000E+03 0.  0.
        -11    1    1    0    0    0 -0.11901422147E+02 -0.33387933815E+01 -0.74369149576E+01  0.14425640184E+02  0.51100000000E-03 0.  1.
         11    1    1    0    0    0 -0.39624503350E+02 -0.11380036363E+02 -0.24729445823E+02  0.48074442111E+02  0.51100000000E-03 0. -1.
         22    1    1    0    0    0  0.51525925497E+02  0.14718829744E+02  0.32166360780E+02  0.62499917705E+02  0.00000000000E+00 0. -1.
</event>
<event>
 4    1  0.1977788E-002  0.9118800E+02  0.7818608E-02  0.1130116E+00
         25   -1    0    0    0    0  0.00000000000E+00  0.00000000000E+00  0.99999998245E-14  0.12500000000E+03  0.12500000000E+03 0.  0.
        -11    1    1    0    0    0  0.54877269371E+01 -0.32694532289E+02  0.25018370089E+02  0.41532715186E+02  0.51100000000E-03 0. -1.
         11    1    1    0    0    0  0.27801665112E+02 -0.56574665587E+01 -0.46477325689E+01  0.28749624853E+02  0.51100000000E-03 0.  1.
         22    1    1    0    0    0 -0.33289392049E+02  0.38351998848E+02 -0.20370637520E+02  0.54717659961E+02  0.00000000000E+00 0. -1.
</event>
<event>
 4    1  0.1977788E-002  0.9118800E+02  0.7818608E-02  0.1130116E+00
         25   -1    0    0    0    0  0.00000000000E+00  0.00000000000E+00  0.99999998245E-14  0.12500000000E+03  0.12500000000E+03 0.  0.
        -11    1    1    0    0    0 -0.24347518859E+02 -0.14824257948E+02  0.29572982689E+01  0.28658435261E+02  0.51100000000E-03 0.  1.
         11    1    1    0    0    0 -0.27386464173E+02 -0.23098776531E+00  0.23708603424E+02  0.36223882340E+02  0.51100000000E-03 0. -1.
         22    1    1    0    0    0  0.51733983032E+02  0.15055245714E+02 -0.26665901693E+02  0.60117682398E+02  0.00000000000E+00 0.  1.
</event>
<event>
 4    1  0.1977788E-002  0.9118800E+02  0.7818608E-02  0.1130116E+00
         25   -1    0    0    0    0  0.00000000000E+00  0.00000000000E+00  0.99999998245E-14  0.12500000000E+03  0.12500000000E+03 0.  0.
        -11    1    1    0    0    0  0.98479104056E+01  0.21114259524E+02  0.44068065212E+02  0.49847644542E+02  0.51100000000E-03 0. -1.
         11    1    1    0    0    0  0.17895891945E+01  0.59241968960E+01  0.11050747112E+02  0.12665612908E+02  0.51100000000E-03 0.  1.
         22    1    1    0    0    0 -0.11637499600E+02 -0.27038456420E+02 -0.55118812324E+02  0.62486742550E+02  0.00000000000E+00 0. -1.
</event>
<event>
 4    1  0.1977788E-002  0.9118800E+02  0.7818608E-02  0.1130116E+00
         25   -1    0    0    0    0  0.00000000000E+00  0.00000000000E+00  0.99999998245E-14  0.12500000000E+03  0.12500000000E+03 0.  0.
        -11    1    1    0    0    0 -0.38051320191E+01  0.43312084953E+00  0.17646590319E+01  0.42167102239E+01  0.51100000000E-03 0.  1.
         11    1    1    0    0    0 -0.51723997141E+02 -0.92907902476E+01  0.25361119142E+02  0.58351324133E+02  0.51100000000E-03 0. -1.
         22    1    1    0    0    0  0.55529129160E+02  0.88576693980E+01 -0.27125778174E+02  0.62431965643E+02  0.00000000000E+00 0. -1.
</event>
<event>
 4    1  0.1977788E-002  0.9118800E+02  0.7818608E-02  0.1130116E+00
         25   -1    0    0    0    0  0.00000000000E+00  0.00000000000E+00  0.99999998245E-14  0.12500000000E+03  0.12500000000E+03 0.  0.
        -11    1    1    0    0    0  0.23580569888E+02 -0.68906937662E+01  0.11486706003E+02  0.27119538194E+02  0.51100000000E-03 0. -1.
         11    1    1    0    0    0  0.30733247745E+02 -0.90126151658E+01  0.15033899869E+02  0.35380473352E+02  0.51100000000E-03 0.  1.
         22    1    1    0    0    0 -0.54313817633E+02  0.15903308932E+02 -0.26520605872E+02  0.62499988453E+02  0.00000000000E+00 0.  1.
</event>
<event>
 4    1  0.1977788E-002  0.9118800E+02  0.7818608E-02  0.1130116E+00
         25   -1    0    0    0    0  0.00000000000E+00  0.00000000000E+00  0.99999998245E-14  0.12500000000E+03  0.12500000000E+03 0.  0.
        -11    1    1    0    0    0 -0.30876735493E+00 -0.49955884338E+02 -0.11924263054E+02  0.51360235269E+02  0.51100000000E-03 0.  1.
         11    1    1    0    0    0 -0.62442335438E+00 -0.10745655039E+02 -0.28994213368E+01  0.11147450431E+02  0.51100000000E-03 0. -1.
         22    1    1    0    0    0  0.93319070931E+00  0.60701539377E+02  0.14823684390E+02  0.62492314300E+02  0.00000000000E+00 0.  1.
</event>
<event>
 4    1  0.1977788E-002  0.9118800E+02  0.7818608E-02  0.1130116E+00
         25   -1    0    0    0    0  0.00000000000E+00  0.00000000000E+00  0.99999998245E-14  0.12500000000E+03  0.12500000000E+03 0.  0.
        -11    1    1    0    0    0 -0.26167971459E+02 -0.25743419996E+01 -0.51187611134E+02  0.57546168430E+02  0.51100000000E-03 0. -1.
         11    1    1    0    0    0 -0.22532157561E+01 -0.22097304498E+00 -0.44062043916E+01  0.49538316212E+01  0.51100000000E-03 0.  1.
         22    1    1    0    0    0  0.28421187215E+02  0.27953150446E+01  0.55593815526E+02  0.62499999949E+02  0.00000000000E+00 0. -1.
</event>
<event>
 4    1  0.1977788E-002  0.9118800E+02  0.7818608E-02  0.1130116E+00
         25   -1    0    0    0    0  0.00000000000E+00  0.00000000000E+00  0.99999998245E-14  0.12500000000E+03  0.12500000000E+03 0.  0.
        -11    1    1    0    0    0  0.17707638005E+01 -0.19608734669E+01  0.27767119505E+01  0.38328525549E+01  0.51100000000E-03 0. -1.
         11    1    1    0    0    0  0.26537576307E+02 -0.30716884960E+02  0.42356697781E+02  0.58667365930E+02  0.51100000000E-03 0.  1.
         22    1    1    0    0    0 -0.28308340108E+02  0.32677758427E+02 -0.45133409732E+02  0.62499781516E+02  0.00000000000E+00 0.  1.
</event>
<event>
 4    1  0.1977788E-002  0.9118800E+02  0.7818608E-02  0.1130116E+00
         25   -1    0    0    0    0  0.00000000000E+00  0.00000000000E+00  0.99999998245E-14  0.12500000000E+03  0.12500000000E+03 0.  0.
        -11    1    1    0    0    0 -0.38106344672E+02 -0.12022439632E+01 -0.25106222791E+02  0.45649329873E+02  0.51100000000E-03 0.  1.
         11    1    1    0    0    0 -0.14087962821E+02 -0.37952340878E+00 -0.92375514587E+01  0.16850729708E+02  0.51100000000E-03 0. -1.
         22    1    1    0    0    0  0.52194307493E+02  0.15817673720E+01  0.34343774249E+02  0.62499940419E+02  0.00000000000E+00 0.  1.
</event>
<event>
 4    1  0.1977788E-002  0.9118800E+02  0.7818608E-02  0.1130116E+00
         25   -1    0    0    0    0  0.00000000000E+00  0.00000000000E+00  0.99999998245E-14  0.12500000000E+03  0.12500000000E+03 0.  0.
        -11    1    1    0    0    0 -0.62414404168E+00 -0.17451187454E-01 -0.20123694837E+00  0.65601592909E+00  0.51100000000E-03 0. -1.
         11    1    1    0    0    0  0.24517661146E+02 -0.51589942433E+02 -0.24737284061E+02  0.62246052817E+02  0.51100000000E-03 0.  1.
         22    1    1    0    0    0 -0.23893517105E+02  0.51607393620E+02  0.24938521010E+02  0.62097931254E+02  0.00000000000E+00 0.  1.
</event>
<event>
 4    1  0.1977788E-002  0.9118800E+02  0.7818608E-02  0.1130116E+00
         25   -1    0    0    0    0  0.00000000000E+00  0.00000000000E+00  0.99999998245E-14  0.12500000000E+03  0.12500000000E+03 0.  0.
        -11    1    1    0    0    0  0.24418418362E+02  0.29963764975E+02 -0.40827407566E+02  0.56222447258E+02  0.51100000000E-03 0.  1.
         11    1    1    0    0    0  0.27261155583E+01  0.33456990518E+01 -0.45587564312E+01  0.62775527590E+01  0.51100000000E-03 0.  1.
         22    1    1    0    0    0 -0.27144533921E+02 -0.33309464027E+02  0.45386163997E+02  0.62499999983E+02  0.00000000000E+00 0.  1.
</event>
<event>
 4    1  0.1977788E-002  0.9118800E+02  0.7818608E-02  0.1130116E+00
         25   -1    0    0    0    0  0.00000000000E+00  0.00000000000E+00  0.99999998245E-14  0.12500000000E+03  0.12500000000E+03 0.  0.
        -11    1    1    0    0    0  0.26946247872E+01  0.17162496679E+01 -0.44627679956E+00  0.32257834567E+01  0.51100000000E-03 0.  1.
         11    1    1    0    0    0  0.45754720705E+02  0.37603927931E+02 -0.28187553483E+01  0.59291611924E+02  0.51100000000E-03 0. -1.
         22    1    1    0    0    0 -0.48449345492E+02 -0.39320177599E+02  0.32650321479E+01  0.62482604619E+02  0.00000000000E+00 0. -1.
</event>
<event>
 4    1  0.1977788E-002  0.9118800E+02  0.7818608E-02  0.1130116E+00
         25   -1    0    0    0    0  0.00000000000E+00  0.00000000000E+00  0.99999998245E-14  0.12500000000E+03  0.12500000000E+03 0.  0.
        -11    1    1    0    0    0 -0.19528906099E+01  0.24953920311E+01  0.38160356919E+00  0.31916116099E+01  0.51100000000E-03 0. -1.
         11    1    1    0    0    0 -0.36582507109E+02  0.46173476963E+02  0.68716481115E+01  0.59308425618E+02  0.51100000000E-03 0.  1.
         22    1    1    0    0    0  0.38535397719E+02 -0.48668868994E+02 -0.72532516807E+01  0.62499962772E+02  0.00000000000E+00 0.  1.
</event>
<event>
 4    1  0.1977788E-002  0.9118800E+02  0.7818608E-02  0.1130116E+00
         25   -1    0    0    0    0  0.00000000000E+00  0.00000000000E+00  0.99999998245E-14  0.12500000000E+03  0.12500000000E+03 0.  0.
        -11    1    1    0    0    0 -0.76944193275E-01 -0.17789041378E-01  0.14484826222E+00  0.16497920796E+00  0.51100000000E-03 0.  1.
         11    1    1    0    0    0 -0.50294533451E+02 -0.34574837132E+02 -0.12975652295E+02  0.62396530437E+02  0.51100000000E-03 0. -1.
         22    1    1    0    0    0  0.50371477645E+02  0.34592626173E+02  0.12830804033E+02  0.62438490355E+02  0.00000000000E+00 0. -1.
</event>
<event>
 4    1  0.1977788E-002  0.9118800E+02  0.7818608E-02  0.1130116E+00
         25   -1    0    0    0    0  0.00000000000E+00  0.00000000000E+00  0.99999998245E-14  0.12500000000E+03  0.12500000000E+03 0.  0.
        -11    1    1    0    0    0 -0.43222112922E+02 -0.16326533193E+02  0.21372668222E+01  0.46252293362E+02  0.51100000000E-03 0.  1.
         11    1    1    0    0    0 -0.15188548406E+02 -0.57215344511E+01  0.74839422404E+00  0.16247709172E+02  0.51100000000E-03 0. -1.
         22    1    1    0    0    0  0.58410661328E+02  0.22048067644E+02 -0.28856610463E+01  0.62499997466E+02  0.00000000000E+00 0.  1.
</event>
<event>
 4    1  0.1977788E-002  0.9118800E+02  0.7818608E-02  0.1130116E+00
         25   -1    0    0    0    0  0.00000000000E+00  0.00000000000E+00  0.99999998245E-14  0.12500000000E+03  0.12500000000E+03 0.  0.
        -11    1    1    0    0    0  0.95341126540E+01 -0.78183187910E+01 -0.45187155077E+01  0.13131801206E+02  0.51100000000E-03 0. -1.
         11    1    1    0    0    0  0.35848405570E+02 -0.29384983623E+02 -0.16989220623E+02  0.49368198894E+02  0.51100000000E-03 0. -1.
         22    1    1    0    0    0 -0.45382518224E+02  0.37203302414E+02  0.21507936130E+02  0.62499999900E+02  0.00000000000E+00 0. -1.
</event>
<event>
 4    1  0.1977788E-002  0.9118800E+02  0.7818608E-02  0.1130116E+00
         25   -1    0    0    0    0  0.00000000000E+00  0.00000000000E+00  0.99999998245E-14  0.12500000000E+03  0.12500000000E+03 0.  0.
        -11    1    1    0    0    0 -0.13405633442E+01  0.39166228504E+01  0.24655646259E+01  0.48183040396E+01  0.51100000000E-03 0. -1.
         11    1    1    0    0    0 -0.16048502331E+02  0.46887892141E+02  0.29515236639E+02  0.57681695976E+02  0.51100000000E-03 0. -1.
         22    1    1    0    0    0  0.17389065676E+02 -0.50804514991E+02 -0.31980801265E+02  0.62499999985E+02  0.00000000000E+00 0. -1.
</event>
<event>
 4    1  0.1977788E-002  0.9118800E+02  0.7818608E-02  0.1130116E+00
         25   -1    0    0    0    0  0.00000000000E+00  0.00000000000E+00  0.99999998245E-14  0.12500000000E+03  0.12500000000E+03 0.  0.
        -11    1    1    0    0    0 -0.41464856165E+01  0.46481557498E+01 -0.29513158915E+01  0.68926744153E+01  0.51100000000E-03 0.  1.
         11    1    1    0    0    0 -0.33441664615E+02  0.37604282564E+02 -0.23659026388E+02  0.55607342404E+02  0.51100000000E-03 0. -1.
         22    1    1    0    0    0  0.37588150231E+02 -0.42252438314E+02  0.26610342279E+02  0.62499983180E+02  0.00000000000E+00 0. -1.
</event>
<event>
 4    1  0.1977788E-002  0.9118800E+02  0.7818608E-02  0.1130116E+00
         25   -1    0    0    0    0  0.00000000000E+00  0.00000000000E+00  0.99999998245E-14  0.12500000000E+03  0.12500000000E+03 0.  0.
        -11    1    1    0    0    0 -0.14219518526E+02  0.85423919003E+00 -0.17099846581E+02  0.22255992116E+02  0.51100000000E-03 0.  1.
         11    1    1    0    0    0 -0.25712903606E+02  0.15455430546E+01 -0.30919865068E+02  0.40244007893E+02  0.51100000000E-03 0.  1.
         22    1    1    0    0    0  0.39932422132E+02 -0.23997822446E+01  0.48019711649E+02  0.62499999992E+02  0.00000000000E+00 0.  1.
</event>
<event>
 4    1  0.1977788E-002  0.9118800E+02  0.7818608E-02  0.1130116E+00
         25   -1    0    0    0    0  0.00000000000E+00  0.00000000000E+00  0.99999998245E-14  0.12500000000E+03  0.12500000000E+03 0.  0.
        -11    1    1    0    0    0 -0.24411331795E+02 -0.12127197755E+02  0.49587347049E+02  0.56585219209E+02  0.51100000000E-03 0.  1.
         11    1    1    0    0    0 -0.25524219666E+01 -0.12696148311E+01  0.51824563970E+01  0.59147810005E+01  0.51100000000E-03 0. -1.
         22    1    1    0    0    0  0.26963753761E+02  0.13396812586E+02 -0.54769803446E+02  0.62499999791E+02  0.00000000000E+00 0.  1.
</event>
<event>
 4    1  0.1977788E-002  0.9118800E+02  0.7818608E-02  0.1130116E+00
         25   -1    0    0    0    0  0.00000000000E+00  0.00000000000E+00  0.99999998245E-14  0.12500000000E+03  0.12500000000E+03 0.  0.
        -11    1    1    0    0    0 -0.49579503554E+02 -0.17237812513E+02 -0.17691546505E+02  0.55391878204E+02  0.51100000000E-03 0. -1.
         11    1    1    0    0    0 -0.63653785967E+01 -0.22132801620E+01 -0.22602634490E+01  0.71081252715E+01  0.51100000000E-03 0.  1.
         22    1    1    0    0    0  0.55944882151E+02  0.19451092675E+02  0.19951809954E+02  0.62499996525E+02  0.00000000000E+00 0. -1.
</event>
<event>
 4    1  0.1977788E-002  0.9118800E+02  0.7818608E-02  0.1130116E+00
         25   -1    0    0    0    0  0.00000000000E+00  0.00000000000E+00  0.99999998245E-14  0.12500000000E+03  0.12500000000E+03 0.  0.
        -11    1    1    0    0    0  0.61619003697E+01  0.66400201458E+01  0.18136444326E+02  0.20272875888E+02  0.51100000000E-03 0. -1.
         11    1    1    0    0    0  0.12853819898E+02  0.13779663191E+02  0.37789293630E+02  0.42227130105E+02  0.51100000000E-03 0.  1.
         22    1    1    0    0    0 -0.19015720268E+02 -0.20419683337E+02 -0.55925737956E+02  0.62499994007E+02  0.00000000000E+00 0.  1.
</event>
<event>
 4    1  0.1977788E-002  0.9118800E+02  0.7818608E-02  0.1130116E+00
         25   -1    0    0    0    0  0.00000000000E+00  0.00000000000E+00  0.99999998245E-14  0.12500000000E+03  0.12500000000E+03 0.  0.
        -11    1    1    0    0    0 -0.28265051860E+02 -0.48604930862E+01 -0.23492672210E+02  0.37073483752E+02  0.51100000000E-03 0.  1.
         11    1    1    0    0    0 -0.11958858256E+02  0.38638029410E+01 -0.23141265317E+02  0.26333655741E+02  0.51100000000E-03 0. -1.
         22    1    1    0    0    0  0.40223910116E+02  0.99669014518E+00  0.46633937526E+02  0.61592860507E+02  0.00000000000E+00 0.  1.
</event>
<event>
 4    1  0.1977788E-002  0.9118800E+02  0.7818608E-02  0.1130116E+00
         25   -1    0    0    0    0  0.00000000000E+00  0.00000000000E+00  0.99999998245E-14  0.12500000000E+03  0.12500000000E+03 0.  0.
        -11    1    1    0    0    0  0.21329314910E+01  0.19773449314E+01  0.89509107555E+01  0.94115935599E+01  0.51100000000E-03 0. -1.
         11    1    1    0    0    0  0.12852015502E+02  0.11422480177E+02  0.50227411631E+02  0.53088984124E+02  0.51100000000E-03 0.  1.
         22    1    1    0    0    0 -0.14984946993E+02 -0.13399825109E+02 -0.59178322387E+02  0.62499422316E+02  0.00000000000E+00 0.  1.
</event>
<event>
 4    1  0.1977788E-002  0.9118800E+02  0.7818608E-02  0.1130116E+00
         25   -1    0    0    0    0  0.00000000000E+00  0.00000000000E+00  0.99999998245E-14  0.12500000000E+03  0.12500000000E+03 0.  0.
        -11    1    1    0    0    0  0.31914242994E+02  0.27347249810E+02  0.12058220193E+02  0.43724039755E+02  0.51100000000E-03 0. -1.
         11    1    1    0    0    0  0.13691038887E+02  0.11717010413E+02  0.52732613099E+01  0.18776052938E+02  0.51100000000E-03 0.  1.
         22    1    1    0    0    0 -0.45605281881E+02 -0.39064260223E+02 -0.17331481503E+02  0.62499907306E+02  0.00000000000E+00 0. -1.
</event>
<event>
 4    1  0.1977788E-002  0.9118800E+02  0.7818608E-02  0.1130116E+00
         25   -1    0    0    0    0  0.00000000000E+00  0.00000000000E+00  0.99999998245E-14  0.12500000000E+03  0.12500000000E+03 0.  0.
        -11    1    1    0    0    0 -0.49099347597E+02 -0.10187460182E+02 -0.36830864232E+02  0.62217705195E+02  0.51100000000E-03 0. -1.
         11    1    1    0    0    0 -0.22356632455E+00 -0.42687849325E-01 -0.16701080678E+00  0.28230661461E+00  0.51100000000E-03 0.  1.
         22    1    1    0    0    0  0.49322913921E+02  0.10230148032E+02  0.36997875039E+02  0.62499988190E+02  0.00000000000E+00 0. -1.
</event>
<event>
 4    1  0.1977788E-002  0.9118800E+02  0.7818608E-02  0.1130116E+00
         25   -1    0    0    0    0  0.00000000000E+00  0.00000000000E+00  0.99999998245E-14  0.12500000000E+03  0.12500000000E+03 0.  0.
        -11    1    1    0    0    0  0.26063358798E+02  0.22422551026E+02 -0.18854224312E+02  0.39211621249E+02  0.51100000000E-03 0. -1.
         11    1    1    0    0    0  0.15488419009E+02  0.13305208724E+02 -0.11199506811E+02  0.23288380271E+02  0.51100000000E-03 0.  1.
         22    1    1    0    0    0 -0.41551777807E+02 -0.35727759750E+02  0.30053731122E+02  0.62499998480E+02  0.00000000000E+00 0.  1.
</event>
<event>
 4    1  0.1977788E-002  0.9118800E+02  0.7818608E-02  0.1130116E+00
         25   -1    0    0    0    0  0.00000000000E+00  0.00000000000E+00  0.99999998245E-14  0.12500000000E+03  0.12500000000E+03 0.  0.
        -11    1    1    0    0    0  0.13496099384E+01  0.16003747043E+02  0.34188908449E+02  0.37773308402E+02  0.51100000000E-03 0.  1.
         11    1    1    0    0    0  0.87831613749E+00  0.10481053905E+02  0.22378234150E+02  0.24726691936E+02  0.51100000000E-03 0. -1.
         22    1    1    0    0    0 -0.22279260759E+01 -0.26484800949E+02 -0.56567142599E+02  0.62499999662E+02  0.00000000000E+00 0.  1.
</event>
<event>
 4    1  0.1977788E-002  0.9118800E+02  0.7818608E-02  0.1130116E+00
         25   -1    0    0    0    0  0.00000000000E+00  0.00000000000E+00  0.99999998245E-14  0.12500000000E+03  0.12500000000E+03 0.  0.
        -11    1    1    0    0    0  0.26310678971E+02  0.50997430817E+00  0.23806601954E+02  0.35486140936E+02  0.51100000000E-03 0.  1.
         11    1    1    0    0    0  0.15415627081E+02  0.15151783980E+02  0.18209038560E+02  0.28262823667E+02  0.51100000000E-03 0. -1.
         22    1    1    0    0    0 -0.41726306051E+02 -0.15661758289E+02 -0.42015640514E+02  0.61251035397E+02  0.00000000000E+00 0. -1.
</event>
<event>
 4    1  0.1977788E-002  0.9118800E+02  0.7818608E-02  0.1130116E+00
         25   -1    0    0    0    0  0.00000000000E+00  0.00000000000E+00  0.99999998245E-14  0.12500000000E+03  0.12500000000E+03 0.  0.
        -11    1    1    0    0    0 -0.13129720841E+01  0.24311894846E+01 -0.67224395686E+01  0.72681340122E+01  0.51100000000E-03 0.  1.
         11    1    1    0    0    0 -0.91640529163E+01  0.18672967390E+02 -0.51165814536E+02  0.55232238361E+02  0.51100000000E-03 0. -1.
         22    1    1    0    0    0  0.10477025000E+02 -0.21104156874E+02  0.57888254105E+02  0.62499627627E+02  0.00000000000E+00 0. -1.
</event>
<event>
 4    1  0.1977788E-002  0.9118800E+02  0.7818608E-02  0.1130116E+00
         25   -1    0    0    0    0  0.00000000000E+00  0.00000000000E+00  0.99999998245E-14  0.12500000000E+03  0.12500000000E+03 0.  0.
        -11    1    1    0    0    0 -0.72384099711E+00 -0.12418461554E+01  0.34789068992E+00  0.14789035993E+01  0.51100000000E-03 0.  1.
         11    1    1    0    0    0 -0.28820228515E+02 -0.51979844739E+02  0.13823427342E+02  0.61021282963E+02  0.51100000000E-03 0. -1.
         22    1    1    0    0    0  0.29544069512E+02  0.53221690894E+02 -0.14171318032E+02  0.62499813438E+02  0.00000000000E+00 0. -1.
</event>
<event>
 4    1  0.1977788E-002  0.9118800E+02  0.7818608E-02  0.1130116E+00
         25   -1    0    0    0    0  0.00000000000E+00  0.00000000000E+00  0.99999998245E-14  0.12500000000E+03  0.12500000000E+03 0.  0.
        -11    1    1    0    0    0 -0.12040699776E+02 -0.16059894411E+02 -0.23684629509E+02  0.31046100155E+02  0.51100000000E-03 0.  1.
         11    1    1    0    0    0 -0.12198002210E+02 -0.16272036562E+02 -0.23995361724E+02  0.31453899858E+02  0.51100000000E-03 0. -1.
         22    1    1    0    0    0  0.24238701985E+02  0.32331930973E+02  0.47679991233E+02  0.62499999987E+02  0.00000000000E+00 0. -1.
</event>
<event>
 4    1  0.1977788E-002  0.9118800E+02  0.7818608E-02  0.1130116E+00
         25   -1    0    0    0    0  0.00000000000E+00  0.00000000000E+00  0.99999998245E-14  0.12500000000E+03  0.12500000000E+03 0.  0.
        -11    1    1    0    0    0 -0.12194639498E+02 -0.23246410927E+02 -0.23328462139E+02  0.35118684479E+02  0.51100000000E-03 0.  1.
         11    1    1    0    0    0 -0.95079044004E+01 -0.18130107434E+02 -0.18183382911E+02  0.27381315819E+02  0.51100000000E-03 0. -1.
         22    1    1    0    0    0  0.21702543899E+02  0.41376518361E+02  0.41511845049E+02  0.62499999702E+02  0.00000000000E+00 0.  1.
</event>
<event>
 4    1  0.1977788E-002  0.9118800E+02  0.7818608E-02  0.1130116E+00
         25   -1    0    0    0    0  0.00000000000E+00  0.00000000000E+00  0.99999998245E-14  0.12500000000E+03  0.12500000000E+03 0.  0.
        -11    1    1    0    0    0  0.80268571879E+00 -0.41012446224E+02  0.27023813357E+02  0.49121803084E+02  0.51100000000E-03 0. -1.
         11    1    1    0    0    0 -0.40411954779E+01 -0.11331254717E+02  0.64616223823E+01  0.13655810428E+02  0.51100000000E-03 0.  1.
         22    1    1    0    0    0  0.32385097591E+01  0.52343700941E+02 -0.33485435739E+02  0.62222386488E+02  0.00000000000E+00 0. -1.
</event>
<event>
 4    1  0.1977788E-002  0.9118800E+02  0.7818608E-02  0.1130116E+00
         25   -1    0    0    0    0  0.00000000000E+00  0.00000000000E+00  0.99999998245E-14  0.12500000000E+03  0.12500000000E+03 0.  0.
        -11    1    1    0    0    0 -0.82252215062E+00  0.71162818830E+01  0.17747917245E+01  0.73802368833E+01  0.51100000000E-03 0.  1.
         11    1    1    0    0    0 -0.19284633905E+02  0.45263871652E+02  0.25297046023E+02  0.55323193324E+02  0.51100000000E-03 0. -1.
         22    1    1    0    0    0  0.20107156055E+02 -0.52380153535E+02 -0.27071837747E+02  0.62296569793E+02  0.00000000000E+00 0. -1.
</event>
<event>
 4    1  0.1977788E-002  0.9118800E+02  0.7818608E-02  0.1130116E+00
         25   -1    0    0    0    0  0.00000000000E+00  0.00000000000E+00  0.99999998245E-14  0.12500000000E+03  0.12500000000E+03 0.  0.
        -11    1    1    0    0    0  0.20474423056E+02 -0.27197080663E+02 -0.15612476424E+02  0.37451737161E+02  0.51100000000E-03 0.  1.
         11    1    1    0    0    0  0.13180760169E+02 -0.15494200145E+02 -0.14893814502E+02  0.25211671651E+02  0.51100000000E-03 0. -1.
         22    1    1    0    0    0 -0.33655183224E+02  0.42691280808E+02  0.30506290926E+02  0.62336591188E+02  0.00000000000E+00 0. -1.
</event>
<event>
 4    1  0.1977788E-002  0.9118800E+02  0.7818608E-02  0.1130116E+00
         25   -1    0    0    0    0  0.00000000000E+00  0.00000000000E+00  0.99999998245E-14  0.12500000000E+03  0.12500000000E+03 0.  0.
        -11    1    1    0    0    0 -0.46006697944E+01  0.20312148720E+02 -0.26759498720E+02  0.33909000578E+02  0.51100000000E-03 0.  1.
         11    1    1    0    0    0 -0.38806505540E+01  0.17127006742E+02 -0.22562168336E+02  0.28590999440E+02  0.51100000000E-03 0.  1.
         22    1    1    0    0    0  0.84813203483E+01 -0.37439155462E+02  0.49321667056E+02  0.62499999982E+02  0.00000000000E+00 0.  1.
</event>
<event>
 4    1  0.1977788E-002  0.9118800E+02  0.7818608E-02  0.1130116E+00
         25   -1    0    0    0    0  0.00000000000E+00  0.00000000000E+00  0.99999998245E-14  0.12500000000E+03  0.12500000000E+03 0.  0.
        -11    1    1    0    0    0 -0.48688425011E+01 -0.14761695862E+02 -0.98498375168E+01  0.18401972486E+02  0.51100000000E-03 0.  1.
         11    1    1    0    0    0 -0.12195083849E+02 -0.34400880458E+02 -0.24756239976E+02  0.44102290920E+02  0.51100000000E-03 0. -1.
         22    1    1    0    0    0  0.17063926350E+02  0.49162576320E+02  0.34606077493E+02  0.62495736594E+02  0.00000000000E+00 0. -1.
</event>
<event>
 4    1  0.1977788E-002  0.9118800E+02  0.7818608E-02  0.1130116E+00
         25   -1    0    0    0    0  0.00000000000E+00  0.00000000000E+00  0.99999998245E-14  0.12500000000E+03  0.12500000000E+03 0.  0.
        -11    1    1    0    0    0 -0.43288430454E+02 -0.11707946423E+01 -0.34510363351E+02  0.55373496820E+02  0.51100000000E-03 0. -1.
         11    1    1    0    0    0 -0.55706542181E+01 -0.15588557085E+00 -0.44419107317E+01  0.71265040474E+01  0.51100000000E-03 0.  1.
         22    1    1    0    0    0  0.48859084672E+02  0.13266802132E+01  0.38952274083E+02  0.62499999132E+02  0.00000000000E+00 0. -1.
</event>
<event>
 4    1  0.1977788E-002  0.9118800E+02  0.7818608E-02  0.1130116E+00
         25   -1    0    0    0    0  0.00000000000E+00  0.00000000000E+00  0.99999998245E-14  0.12500000000E+03  0.12500000000E+03 0.  0.
        -11    1    1    0    0    0 -0.58275344977E+00  0.12486850607E+02  0.21233696453E+01  0.12679500723E+02  0.51100000000E-03 0.  1.
         11    1    1    0    0    0 -0.10969768789E+01  0.48299964333E+02  0.12236567502E+02  0.49837972444E+02  0.51100000000E-03 0. -1.
         22    1    1    0    0    0  0.16797303287E+01 -0.60786814940E+02 -0.14359937147E+02  0.62482526833E+02  0.00000000000E+00 0. -1.
</event>
<event>
 4    1  0.1977788E-002  0.9118800E+02  0.7818608E-02  0.1130116E+00
         25   -1    0    0    0    0  0.00000000000E+00  0.00000000000E+00  0.99999998245E-14  0.12500000000E+03  0.12500000000E+03 0.  0.
        -11    1    1    0    0    0  0.12713270322E+00  0.12631648454E+02  0.38638971917E+01  0.13210011626E+02  0.51100000000E-03 0. -1.
         11    1    1    0    0    0 -0.20995540274E+01  0.48118266652E+02  0.10586840819E+02  0.49313861251E+02  0.51100000000E-03 0.  1.
         22    1    1    0    0    0  0.19724213242E+01 -0.60749915106E+02 -0.14450738011E+02  0.62476127123E+02  0.00000000000E+00 0.  1.
</event>
<event>
 4    1  0.1977788E-002  0.9118800E+02  0.7818608E-02  0.1130116E+00
         25   -1    0    0    0    0  0.00000000000E+00  0.00000000000E+00  0.99999998245E-14  0.12500000000E+03  0.12500000000E+03 0.  0.
        -11    1    1    0    0    0  0.42343151824E+01 -0.15146372108E+02 -0.40330986483E+01  0.16236006222E+02  0.51100000000E-03 0.  1.
         11    1    1    0    0    0  0.12056735746E+02 -0.43163354282E+02 -0.11485517359E+02  0.46263993980E+02  0.51100000000E-03 0. -1.
         22    1    1    0    0    0 -0.16291050928E+02  0.58309726389E+02  0.15518616007E+02  0.62499999798E+02  0.00000000000E+00 0. -1.
</event>
<event>
 4    1  0.1977788E-002  0.9118800E+02  0.7818608E-02  0.1130116E+00
         25   -1    0    0    0    0  0.00000000000E+00  0.00000000000E+00  0.99999998245E-14  0.12500000000E+03  0.12500000000E+03 0.  0.
        -11    1    1    0    0    0 -0.11071245029E+02  0.53372855980E+01  0.17136744740E+02  0.21088553876E+02  0.51100000000E-03 0.  1.
         11    1    1    0    0    0 -0.22164210191E+02  0.99638384408E+01  0.33532899015E+02  0.41412384700E+02  0.51100000000E-03 0. -1.
         22    1    1    0    0    0  0.33235455220E+02 -0.15301124039E+02 -0.50669643756E+02  0.62499061424E+02  0.00000000000E+00 0. -1.
</event>
<event>
 4    1  0.1977788E-002  0.9118800E+02  0.7818608E-02  0.1130116E+00
         25   -1    0    0    0    0  0.00000000000E+00  0.00000000000E+00  0.99999998245E-14  0.12500000000E+03  0.12500000000E+03 0.  0.
        -11    1    1    0    0    0  0.17461383488E+01  0.59820703763E+02  0.31854521499E+01  0.59930899406E+02  0.51100000000E-03 0. -1.
         11    1    1    0    0    0  0.82328469529E+00  0.23973556847E+01  0.83390096664E+00  0.26684270745E+01  0.51100000000E-03 0.  1.
         22    1    1    0    0    0 -0.25694230441E+01 -0.62218059448E+02 -0.40193531165E+01  0.62400673520E+02  0.00000000000E+00 0. -1.
</event>
<event>
 4    1  0.1977788E-002  0.9118800E+02  0.7818608E-02  0.1130116E+00
         25   -1    0    0    0    0  0.00000000000E+00  0.00000000000E+00  0.99999998245E-14  0.12500000000E+03  0.12500000000E+03 0.  0.
        -11    1    1    0    0    0  0.35236787156E+01 -0.19200531590E+00  0.57849842929E+01  0.67763722789E+01  0.51100000000E-03 0. -1.
         11    1    1    0    0    0  0.27426268982E+02  0.42062982424E+01  0.48344666708E+02  0.55741366817E+02  0.51100000000E-03 0.  1.
         22    1    1    0    0    0 -0.30949947698E+02 -0.40142929265E+01 -0.54129651001E+02  0.62482260904E+02  0.00000000000E+00 0.  1.
</event>
<event>
 4    1  0.1977788E-002  0.9118800E+02  0.7818608E-02  0.1130116E+00
         25   -1    0    0    0    0  0.00000000000E+00  0.00000000000E+00  0.99999998245E-14  0.12500000000E+03  0.12500000000E+03 0.  0.
        -11    1    1    0    0    0 -0.41411223671E+00 -0.34646567845E+02  0.11904219224E+02  0.36636956587E+02  0.51100000000E-03 0. -1.
         11    1    1    0    0    0 -0.29210351607E+00 -0.24457876574E+02  0.84038064965E+01  0.25863043418E+02  0.51100000000E-03 0. -1.
         22    1    1    0    0    0  0.70621575278E+00  0.59104444419E+02 -0.20308025720E+02  0.62499999995E+02  0.00000000000E+00 0. -1.
</event>
<event>
 4    1  0.1977788E-002  0.9118800E+02  0.7818608E-02  0.1130116E+00
         25   -1    0    0    0    0  0.00000000000E+00  0.00000000000E+00  0.99999998245E-14  0.12500000000E+03  0.12500000000E+03 0.  0.
        -11    1    1    0    0    0 -0.60801372494E+01 -0.11220103300E+01  0.15404469800E+02  0.16598935696E+02  0.51100000000E-03 0.  1.
         11    1    1    0    0    0 -0.73723137900E+01 -0.25156927596E+01  0.45377894921E+02  0.46041644936E+02  0.51100000000E-03 0. -1.
         22    1    1    0    0    0  0.13452451039E+02  0.36377030896E+01 -0.60782364722E+02  0.62359419368E+02  0.00000000000E+00 0. -1.
</event>
<event>
 4    1  0.1977788E-002  0.9118800E+02  0.7818608E-02  0.1130116E+00
         25   -1    0    0    0    0  0.00000000000E+00  0.00000000000E+00  0.99999998245E-14  0.12500000000E+03  0.12500000000E+03 0.  0.
        -11    1    1    0    0    0  0.20702856140E+02  0.16779179466E+02 -0.13938517313E+02  0.30073765662E+02  0.51100000000E-03 0.  1.
         11    1    1    0    0    0  0.23276828339E+02  0.16783355096E+02 -0.15119590727E+02  0.32435994972E+02  0.51100000000E-03 0. -1.
         22    1    1    0    0    0 -0.43979684480E+02 -0.33562534563E+02  0.29058108040E+02  0.62490239366E+02  0.00000000000E+00 0.  1.
</event>
<event>
 4    1  0.1977788E-002  0.9118800E+02  0.7818608E-02  0.1130116E+00
         25   -1    0    0    0    0  0.00000000000E+00  0.00000000000E+00  0.99999998245E-14  0.12500000000E+03  0.12500000000E+03 0.  0.
        -11    1    1    0    0    0 -0.25472542585E+02  0.21752720693E+02 -0.42826833017E+02  0.54370662216E+02  0.51100000000E-03 0.  1.
         11    1    1    0    0    0 -0.38096467889E+01  0.32530237149E+01 -0.64023871960E+01  0.81293378583E+01  0.51100000000E-03 0. -1.
         22    1    1    0    0    0  0.29282189374E+02 -0.25005744408E+02  0.49229220213E+02  0.62499999926E+02  0.00000000000E+00 0.  1.
</event>
<event>
 4    1  0.1977788E-002  0.9118800E+02  0.7818608E-02  0.1130116E+00
         25   -1    0    0    0    0  0.00000000000E+00  0.00000000000E+00  0.99999998245E-14  0.12500000000E+03  0.12500000000E+03 0.  0.
        -11    1    1    0    0    0 -0.60600836023E+02  0.30547935259E+01  0.24434016055E+01  0.60726956962E+02  0.51100000000E-03 0.  1.
         11    1    1    0    0    0 -0.17748586407E+01  0.15952271538E-01 -0.29588510788E-01  0.17751770082E+01  0.51100000000E-03 0. -1.
         22    1    1    0    0    0  0.62375694664E+02 -0.30707457974E+01 -0.24138130947E+01  0.62497866030E+02  0.00000000000E+00 0.  1.
</event>
<event>
 4    1  0.1977788E-002  0.9118800E+02  0.7818608E-02  0.1130116E+00
         25   -1    0    0    0    0  0.00000000000E+00  0.00000000000E+00  0.99999998245E-14  0.12500000000E+03  0.12500000000E+03 0.  0.
        -11    1    1    0    0    0  0.19241418062E+01  0.52187051580E+01 -0.58337451979E+02  0.58602009427E+02  0.51100000000E-03 0. -1.
         11    1    1    0    0    0  0.42148746380E+01  0.35700968873E+01 -0.14064084554E+01  0.56998899115E+01  0.51100000000E-03 0.  1.
         22    1    1    0    0    0 -0.61390164442E+01 -0.87888020453E+01  0.59743860434E+02  0.60698100661E+02  0.00000000000E+00 0. -1.
</event>
<event>
 4    1  0.1977788E-002  0.9118800E+02  0.7818608E-02  0.1130116E+00
         25   -1    0    0    0    0  0.00000000000E+00  0.00000000000E+00  0.99999998245E-14  0.12500000000E+03  0.12500000000E+03 0.  0.
        -11    1    1    0    0    0 -0.28604210793E+02 -0.17083917247E+02 -0.30054643784E+02  0.44870287684E+02  0.51100000000E-03 0.  1.
         11    1    1    0    0    0 -0.11235209937E+02 -0.67130076975E+01 -0.11811534586E+02  0.17629712539E+02  0.51100000000E-03 0. -1.
         22    1    1    0    0    0  0.39839420729E+02  0.23796924944E+02  0.41866178370E+02  0.62499999777E+02  0.00000000000E+00 0.  1.
</event>
<event>
 4    1  0.1977788E-002  0.9118800E+02  0.7818608E-02  0.1130116E+00
         25   -1    0    0    0    0  0.00000000000E+00  0.00000000000E+00  0.99999998245E-14  0.12500000000E+03  0.12500000000E+03 0.  0.
        -11    1    1    0    0    0 -0.14618003000E+02 -0.59491207112E+02 -0.81952273119E+01  0.61806565075E+02  0.51100000000E-03 0.  1.
         11    1    1    0    0    0 -0.19189562760E+00 -0.65943493246E+00 -0.98021632278E-01  0.69374841517E+00  0.51100000000E-03 0. -1.
         22    1    1    0    0    0  0.14809898628E+02  0.60150642045E+02  0.82932489442E+01  0.62499686510E+02  0.00000000000E+00 0.  1.
</event>
<event>
 4    1  0.1977788E-002  0.9118800E+02  0.7818608E-02  0.1130116E+00
         25   -1    0    0    0    0  0.00000000000E+00  0.00000000000E+00  0.99999998245E-14  0.12500000000E+03  0.12500000000E+03 0.  0.
        -11    1    1    0    0    0 -0.31545178804E+02  0.14660328258E+01  0.18310633645E+02  0.36503792444E+02  0.51100000000E-03 0.  1.
         11    1    1    0    0    0 -0.13292751058E+02 -0.66304389286E+01  0.22954232525E+02  0.27341483906E+02  0.51100000000E-03 0. -1.
         22    1    1    0    0    0  0.44837929862E+02  0.51644061027E+01 -0.41264866171E+02  0.61154723651E+02  0.00000000000E+00 0. -1.
</event>
<event>
 4    1  0.1977788E-002  0.9118800E+02  0.7818608E-02  0.1130116E+00
         25   -1    0    0    0    0  0.00000000000E+00  0.00000000000E+00  0.99999998245E-14  0.12500000000E+03  0.12500000000E+03 0.  0.
        -11    1    1    0    0    0  0.83428404060E+01 -0.58119886050E+02 -0.90957538670E+01  0.59415964851E+02  0.51100000000E-03 0.  1.
         11    1    1    0    0    0  0.43039961796E+00 -0.30179683786E+01 -0.46681166327E+00  0.30840379951E+01  0.51100000000E-03 0. -1.
         22    1    1    0    0    0 -0.87732400240E+01  0.61137854429E+02  0.95625655303E+01  0.62499997154E+02  0.00000000000E+00 0.  1.
</event>
<event>
 4    1  0.1977788E-002  0.9118800E+02  0.7818608E-02  0.1130116E+00
         25   -1    0    0    0    0  0.00000000000E+00  0.00000000000E+00  0.99999998245E-14  0.12500000000E+03  0.12500000000E+03 0.  0.
        -11    1    1    0    0    0 -0.63944878812E+01  0.59935179138E+01 -0.31950287121E+01  0.93284479405E+01  0.51100000000E-03 0.  1.
         11    1    1    0    0    0 -0.37323856483E+02  0.36101204797E+02 -0.11595348192E+02  0.53205444745E+02  0.51100000000E-03 0. -1.
         22    1    1    0    0    0  0.43718344365E+02 -0.42094722711E+02  0.14790376904E+02  0.62466107314E+02  0.00000000000E+00 0. -1.
</event>
<event>
 4    1  0.1977788E-002  0.9118800E+02  0.7818608E-02  0.1130116E+00
         25   -1    0    0    0    0  0.00000000000E+00  0.00000000000E+00  0.99999998245E-14  0.12500000000E+03  0.12500000000E+03 0.  0.
        -11    1    1    0    0    0  0.33816767578E+01  0.21686491555E+01  0.39492556389E+00  0.40366747845E+01  0.51100000000E-03 0.  1.
         11    1    1    0    0    0  0.34493133865E+02 -0.46534463972E+02  0.16506606846E+02  0.60230396735E+02  0.51100000000E-03 0. -1.
         22    1    1    0    0    0 -0.37874810623E+02  0.44365814817E+02 -0.16901532410E+02  0.60732928481E+02  0.00000000000E+00 0. -1.
</event>
<event>
 4    1  0.1977788E-002  0.9118800E+02  0.7818608E-02  0.1130116E+00
         25   -1    0    0    0    0  0.00000000000E+00  0.00000000000E+00  0.99999998245E-14  0.12500000000E+03  0.12500000000E+03 0.  0.
        -11    1    1    0    0    0 -0.24380710235E+02  0.13559437097E+02  0.40344668470E+02  0.49050684400E+02  0.51100000000E-03 0.  1.
         11    1    1    0    0    0 -0.79458968117E+01  0.14807869744E+02  0.25218716323E+00  0.16806959307E+02  0.51100000000E-03 0. -1.
         22    1    1    0    0    0  0.32326607047E+02 -0.28367306841E+02 -0.40596855633E+02  0.59142356293E+02  0.00000000000E+00 0.  1.
</event>
<event>
 4    1  0.1977788E-002  0.9118800E+02  0.7818608E-02  0.1130116E+00
         25   -1    0    0    0    0  0.00000000000E+00  0.00000000000E+00  0.99999998245E-14  0.12500000000E+03  0.12500000000E+03 0.  0.
        -11    1    1    0    0    0  0.53980147976E+01 -0.31220607768E+02 -0.24071051202E+02  0.39790456386E+02  0.51100000000E-03 0.  1.
         11    1    1    0    0    0  0.30794591684E+01 -0.17818468508E+02 -0.13738358089E+02  0.22709543632E+02  0.51100000000E-03 0. -1.
         22    1    1    0    0    0 -0.84774739660E+01  0.49039076276E+02  0.37809409291E+02  0.62499999982E+02  0.00000000000E+00 0. -1.
</event>
<event>
 4    1  0.1977788E-002  0.9118800E+02  0.7818608E-02  0.1130116E+00
         25   -1    0    0    0    0  0.00000000000E+00  0.00000000000E+00  0.99999998245E-14  0.12500000000E+03  0.12500000000E+03 0.  0.
        -11    1    1    0    0    0  0.46271367627E+02  0.62848522838E+01  0.39528946398E+02  0.61180686772E+02  0.51100000000E-03 0.  1.
         11    1    1    0    0    0 -0.67650686827E+00  0.15111158323E+01  0.13125348545E+01  0.21127897687E+01  0.51100000000E-03 0. -1.
         22    1    1    0    0    0 -0.45594860759E+02 -0.77959681160E+01 -0.40841481253E+02  0.61706523459E+02  0.00000000000E+00 0.  1.
</event>
<event>
 4    1  0.1977788E-002  0.9118800E+02  0.7818608E-02  0.1130116E+00
         25   -1    0    0    0    0  0.00000000000E+00  0.00000000000E+00  0.99999998245E-14  0.12500000000E+03  0.12500000000E+03 0.  0.
        -11    1    1    0    0    0  0.88542197226E+01 -0.59818394919E+02 -0.16492968590E+00  0.60470362821E+02  0.51100000000E-03 0. -1.
         11    1    1    0    0    0 -0.49803525250E+01  0.14943435022E+02 -0.95931949003E+01  0.18442872612E+02  0.51100000000E-03 0.  1.
         22    1    1    0    0    0 -0.38738671976E+01  0.44874959897E+02  0.97581245862E+01  0.46086764567E+02  0.00000000000E+00 0. -1.
</event>
<event>
 4    1  0.1977788E-002  0.9118800E+02  0.7818608E-02  0.1130116E+00
         25   -1    0    0    0    0  0.00000000000E+00  0.00000000000E+00  0.99999998245E-14  0.12500000000E+03  0.12500000000E+03 0.  0.
        -11    1    1    0    0    0 -0.19097040880E+02  0.10039732052E+01  0.94269841294E+01  0.21320716747E+02  0.51100000000E-03 0.  1.
         11    1    1    0    0    0 -0.36081786367E+02  0.72389969639E+01  0.18610927339E+02  0.41239119792E+02  0.51100000000E-03 0. -1.
         22    1    1    0    0    0  0.55178827247E+02 -0.82429701691E+01 -0.28037911468E+02  0.62440163462E+02  0.00000000000E+00 0. -1.
</event>
<event>
 4    1  0.1977788E-002  0.9118800E+02  0.7818608E-02  0.1130116E+00
         25   -1    0    0    0    0  0.00000000000E+00  0.00000000000E+00  0.99999998245E-14  0.12500000000E+03  0.12500000000E+03 0.  0.
        -11    1    1    0    0    0 -0.83036298411E+01  0.25163568750E+01 -0.16276459862E+02  0.18444659562E+02  0.51100000000E-03 0.  1.
         11    1    1    0    0    0 -0.19343663942E+02  0.66233364655E+01 -0.39024622512E+02  0.44056407969E+02  0.51100000000E-03 0. -1.
         22    1    1    0    0    0  0.27647293784E+02 -0.91396933406E+01  0.55301082375E+02  0.62498932469E+02  0.00000000000E+00 0. -1.
</event>
<event>
 4    1  0.1977788E-002  0.9118800E+02  0.7818608E-02  0.1130116E+00
         25   -1    0    0    0    0  0.00000000000E+00  0.00000000000E+00  0.99999998245E-14  0.12500000000E+03  0.12500000000E+03 0.  0.
        -11    1    1    0    0    0  0.20200866044E+02 -0.25352831644E+02 -0.11031565887E+02  0.34242320416E+02  0.51100000000E-03 0.  1.
         11    1    1    0    0    0  0.97679450892E+01 -0.11727467236E+02 -0.26162422926E+02  0.30288918975E+02  0.51100000000E-03 0. -1.
         22    1    1    0    0    0 -0.29968811133E+02  0.37080298880E+02  0.37193988814E+02  0.60468760609E+02  0.00000000000E+00 0.  1.
</event>
<event>
 4    1  0.1977788E-002  0.9118800E+02  0.7818608E-02  0.1130116E+00
         25   -1    0    0    0    0  0.00000000000E+00  0.00000000000E+00  0.99999998245E-14  0.12500000000E+03  0.12500000000E+03 0.  0.
        -11    1    1    0    0    0 -0.60837452614E+01  0.27711393803E+01 -0.43885036792E+01  0.79968828098E+01  0.51100000000E-03 0.  1.
         11    1    1    0    0    0 -0.41343122694E+02  0.15661477559E+02 -0.31889989503E+02  0.54511531846E+02  0.51100000000E-03 0. -1.
         22    1    1    0    0    0  0.47426867955E+02 -0.18432616939E+02  0.36278493182E+02  0.62491585344E+02  0.00000000000E+00 0. -1.
</event>
<event>
 4    1  0.1977788E-002  0.9118800E+02  0.7818608E-02  0.1130116E+00
         25   -1    0    0    0    0  0.00000000000E+00  0.00000000000E+00  0.99999998245E-14  0.12500000000E+03  0.12500000000E+03 0.  0.
        -11    1    1    0    0    0 -0.82809417584E+01  0.30191014025E+01 -0.59207302146E+02  0.59859782804E+02  0.51100000000E-03 0. -1.
         11    1    1    0    0    0  0.15692851889E+01 -0.11778086335E+01 -0.24232120631E+01  0.31179875152E+01  0.51100000000E-03 0.  1.
         22    1    1    0    0    0  0.67116565695E+01 -0.18412927690E+01  0.61630514209E+02  0.62022229681E+02  0.00000000000E+00 0. -1.
</event>
<event>
 4    1  0.1977788E-002  0.9118800E+02  0.7818608E-02  0.1130116E+00
         25   -1    0    0    0    0  0.00000000000E+00  0.00000000000E+00  0.99999998245E-14  0.12500000000E+03  0.12500000000E+03 0.  0.
        -11    1    1    0    0    0  0.46399684250E+01 -0.24200492071E+02 -0.12608074771E+01  0.24673523445E+02  0.51100000000E-03 0. -1.
         11    1    1    0    0    0  0.15482152705E+02 -0.20682282610E+02 -0.31866885818E+02  0.41023801363E+02  0.51100000000E-03 0.  1.
         22    1    1    0    0    0 -0.20122121130E+02  0.44882774681E+02  0.33127693295E+02  0.59302675191E+02  0.00000000000E+00 0.  1.
</event>
<event>
 4    1  0.1977788E-002  0.9118800E+02  0.7818608E-02  0.1130116E+00
         25   -1    0    0    0    0  0.00000000000E+00  0.00000000000E+00  0.99999998245E-14  0.12500000000E+03  0.12500000000E+03 0.  0.
        -11    1    1    0    0    0  0.35197704935E+02  0.98372863236E+01 -0.43592431637E+02  0.56885417562E+02  0.51100000000E-03 0. -1.
         11    1    1    0    0    0  0.34755733671E+01  0.97242012944E+00 -0.43009682596E+01  0.56145827423E+01  0.51100000000E-03 0.  1.
         22    1    1    0    0    0 -0.38673278302E+02 -0.10809706453E+02  0.47893399897E+02  0.62499999695E+02  0.00000000000E+00 0. -1.
</event>
<event>
 4    1  0.1977788E-002  0.9118800E+02  0.7818608E-02  0.1130116E+00
         25   -1    0    0    0    0  0.00000000000E+00  0.00000000000E+00  0.99999998245E-14  0.12500000000E+03  0.12500000000E+03 0.  0.
        -11    1    1    0    0    0 -0.31075955712E+02 -0.21189065746E+02 -0.38685314063E+01  0.37810806208E+02  0.51100000000E-03 0.  1.
         11    1    1    0    0    0 -0.20376049265E+02 -0.13700558687E+02 -0.25838532513E+01  0.24689369977E+02  0.51100000000E-03 0. -1.
         22    1    1    0    0    0  0.51452004976E+02  0.34889624433E+02  0.64523846576E+01  0.62499823815E+02  0.00000000000E+00 0.  1.
</event>
<event>
 4    1  0.1977788E-002  0.9118800E+02  0.7818608E-02  0.1130116E+00
         25   -1    0    0    0    0  0.00000000000E+00  0.00000000000E+00  0.99999998245E-14  0.12500000000E+03  0.12500000000E+03 0.  0.
        -11    1    1    0    0    0 -0.70566780413E+01  0.27851564212E+01 -0.66190351068E+01  0.10068039892E+02  0.51100000000E-03 0. -1.
         11    1    1    0    0    0 -0.36735654513E+02  0.26998688749E+02 -0.26243567707E+02  0.52603824508E+02  0.51100000000E-03 0.  1.
         22    1    1    0    0    0  0.43792332554E+02 -0.29783845170E+02  0.32862602814E+02  0.62328135600E+02  0.00000000000E+00 0. -1.
</event>
<event>
 4    1  0.1977788E-002  0.9118800E+02  0.7818608E-02  0.1130116E+00
         25   -1    0    0    0    0  0.00000000000E+00  0.00000000000E+00  0.99999998245E-14  0.12500000000E+03  0.12500000000E+03 0.  0.
        -11    1    1    0    0    0  0.12869701366E+02 -0.23433282141E+02 -0.51949162535E+02  0.58424852704E+02  0.51100000000E-03 0. -1.
         11    1    1    0    0    0  0.91672973478E+00 -0.16218637775E+01 -0.36243943621E+01  0.40751773302E+01  0.51100000000E-03 0.  1.
         22    1    1    0    0    0 -0.13786431100E+02  0.25055145918E+02  0.55573556897E+02  0.62499969966E+02  0.00000000000E+00 0. -1.
</event>
<event>
 4    1  0.1977788E-002  0.9118800E+02  0.7818608E-02  0.1130116E+00
         25   -1    0    0    0    0  0.00000000000E+00  0.00000000000E+00  0.99999998245E-14  0.12500000000E+03  0.12500000000E+03 0.  0.
        -11    1    1    0    0    0 -0.40834224146E+02 -0.89042634234E+01 -0.11058648475E+02  0.43232088489E+02  0.51100000000E-03 0.  1.
         11    1    1    0    0    0 -0.18512062271E+02 -0.37242587666E+01 -0.38878171021E+01  0.19279047564E+02  0.51100000000E-03 0. -1.
         22    1    1    0    0    0  0.59346286417E+02  0.12628522190E+02  0.14946465577E+02  0.62488863948E+02  0.00000000000E+00 0.  1.
</event>
<event>
 4    1  0.1977788E-002  0.9118800E+02  0.7818608E-02  0.1130116E+00
         25   -1    0    0    0    0  0.00000000000E+00  0.00000000000E+00  0.99999998245E-14  0.12500000000E+03  0.12500000000E+03 0.  0.
        -11    1    1    0    0    0 -0.89305196456E+01 -0.40076730926E+01  0.25444218551E+02  0.27262132761E+02  0.51100000000E-03 0.  1.
         11    1    1    0    0    0 -0.11370613786E+02 -0.53450904299E+01  0.32922015723E+02  0.35238047180E+02  0.51100000000E-03 0. -1.
         22    1    1    0    0    0  0.20301133431E+02  0.93527635224E+01 -0.58366234274E+02  0.62499820059E+02  0.00000000000E+00 0. -1.
</event>
<event>
 4    1  0.1977788E-002  0.9118800E+02  0.7818608E-02  0.1130116E+00
         25   -1    0    0    0    0  0.00000000000E+00  0.00000000000E+00  0.99999998245E-14  0.12500000000E+03  0.12500000000E+03 0.  0.
        -11    1    1    0    0    0 -0.12519243860E+01 -0.54194891503E+00 -0.27196936680E+01  0.30426562743E+01  0.51100000000E-03 0.  1.
         11    1    1    0    0    0 -0.24446068130E+02 -0.10610668659E+02 -0.53150533463E+02  0.59457343904E+02  0.51100000000E-03 0. -1.
         22    1    1    0    0    0  0.25697992516E+02  0.11152617574E+02  0.55870227131E+02  0.62499999822E+02  0.00000000000E+00 0. -1.
</event>
<event>
 4    1  0.1977788E-002  0.9118800E+02  0.7818608E-02  0.1130116E+00
         25   -1    0    0    0    0  0.00000000000E+00  0.00000000000E+00  0.99999998245E-14  0.12500000000E+03  0.12500000000E+03 0.  0.
        -11    1    1    0    0    0  0.43496297709E+01  0.21645628048E+01  0.76905539390E+01  0.90966604547E+01  0.51100000000E-03 0.  1.
         11    1    1    0    0    0  0.28866728521E+02  0.22871187592E+02  0.38817394894E+02  0.53508591684E+02  0.51100000000E-03 0. -1.
         22    1    1    0    0    0 -0.33216358292E+02 -0.25035750397E+02 -0.46507948833E+02  0.62394747862E+02  0.00000000000E+00 0. -1.
</event>
<event>
 4    1  0.1977788E-002  0.9118800E+02  0.7818608E-02  0.1130116E+00
         25   -1    0    0    0    0  0.00000000000E+00  0.00000000000E+00  0.99999998245E-14  0.12500000000E+03  0.12500000000E+03 0.  0.
        -11    1    1    0    0    0 -0.84508673598E+01 -0.13702307391E+02 -0.11206005662E+02  0.19614916521E+02  0.51100000000E-03 0. -1.
         11    1    1    0    0    0 -0.18117656268E+01 -0.44420448078E+02 -0.33862292499E+01  0.44586155373E+02  0.51100000000E-03 0.  1.
         22    1    1    0    0    0  0.10262632987E+02  0.58122755469E+02  0.14592234912E+02  0.60798928106E+02  0.00000000000E+00 0.  1.
</event>
<event>
 4    1  0.1977788E-002  0.9118800E+02  0.7818608E-02  0.1130116E+00
         25   -1    0    0    0    0  0.00000000000E+00  0.00000000000E+00  0.99999998245E-14  0.12500000000E+03  0.12500000000E+03 0.  0.
        -11    1    1    0    0    0 -0.90549541442E+01  0.33109251151E+02 -0.23773491677E+02  0.41753965238E+02  0.51100000000E-03 0.  1.
         11    1    1    0    0    0 -0.44636227396E+01  0.16186112003E+02 -0.12188309368E+02  0.20747747715E+02  0.51100000000E-03 0. -1.
         22    1    1    0    0    0  0.13518576884E+02 -0.49295363154E+02  0.35961801044E+02  0.62498287047E+02  0.00000000000E+00 0.  1.
</event>
<event>
 4    1  0.1977788E-002  0.9118800E+02  0.7818608E-02  0.1130116E+00
         25   -1    0    0    0    0  0.00000000000E+00  0.00000000000E+00  0.99999998245E-14  0.12500000000E+03  0.12500000000E+03 0.  0.
        -11    1    1    0    0    0  0.21651051741E+00  0.11441695350E+00  0.11127058519E+01  0.11393342869E+01  0.51100000000E-03 0. -1.
         11    1    1    0    0    0  0.95405507512E+01  0.67817886629E+01  0.60234225025E+02  0.61361035118E+02  0.51100000000E-03 0.  1.
         22    1    1    0    0    0 -0.97570612686E+01 -0.68962056164E+01 -0.61346930877E+02  0.62499630595E+02  0.00000000000E+00 0.  1.
</event>
<event>
 4    1  0.1977788E-002  0.9118800E+02  0.7818608E-02  0.1130116E+00
         25   -1    0    0    0    0  0.00000000000E+00  0.00000000000E+00  0.99999998245E-14  0.12500000000E+03  0.12500000000E+03 0.  0.
        -11    1    1    0    0    0  0.72514218522E+01 -0.34770692131E+00  0.14717431187E+01  0.74074318795E+01  0.51100000000E-03 0.  1.
         11    1    1    0    0    0  0.53905912949E+02 -0.22149739332E+01  0.11155640154E+02  0.55092666189E+02  0.51100000000E-03 0. -1.
         22    1    1    0    0    0 -0.61157334801E+02  0.25626808545E+01 -0.12627383273E+02  0.62499901931E+02  0.00000000000E+00 0. -1.
</event>
<event>
 4    1  0.1977788E-002  0.9118800E+02  0.7818608E-02  0.1130116E+00
         25   -1    0    0    0    0  0.00000000000E+00  0.00000000000E+00  0.99999998245E-14  0.12500000000E+03  0.12500000000E+03 0.  0.
        -11    1    1    0    0    0 -0.49918716923E+01 -0.98888250017E+01  0.39108427204E+01  0.11747439464E+02  0.51100000000E-03 0.  1.
         11    1    1    0    0    0 -0.21560481499E+02 -0.42738413697E+02  0.16864049222E+02  0.50752561750E+02  0.51100000000E-03 0. -1.
         22    1    1    0    0    0  0.26552353191E+02  0.52627238699E+02 -0.20774891942E+02  0.62499998786E+02  0.00000000000E+00 0. -1.
</event>
<event>
 4    1  0.1977788E-002  0.9118800E+02  0.7818608E-02  0.1130116E+00
         25   -1    0    0    0    0  0.00000000000E+00  0.00000000000E+00  0.99999998245E-14  0.12500000000E+03  0.12500000000E+03 0.  0.
        -11    1    1    0    0    0  0.31769220234E+02 -0.18571202922E+02 -0.19349904307E+01  0.36849927007E+02  0.51100000000E-03 0.  1.
         11    1    1    0    0    0  0.22114151116E+02 -0.12926049030E+02 -0.13445531769E+01  0.25650073034E+02  0.51100000000E-03 0. -1.
         22    1    1    0    0    0 -0.53883371350E+02  0.31497251952E+02  0.32795436076E+01  0.62499999959E+02  0.00000000000E+00 0.  1.
</event>
<event>
 4    1  0.1977788E-002  0.9118800E+02  0.7818608E-02  0.1130116E+00
         25   -1    0    0    0    0  0.00000000000E+00  0.00000000000E+00  0.99999998245E-14  0.12500000000E+03  0.12500000000E+03 0.  0.
        -11    1    1    0    0    0  0.27571592688E+01 -0.10108858623E+02  0.85927932492E+01  0.13550905726E+02  0.51100000000E-03 0.  1.
         11    1    1    0    0    0  0.10085683226E+02 -0.36472489636E+02  0.31049191007E+02  0.48949114076E+02  0.51100000000E-03 0. -1.
         22    1    1    0    0    0 -0.12842842495E+02  0.46581348259E+02 -0.39641984256E+02  0.62499980198E+02  0.00000000000E+00 0. -1.
</event>
<event>
 4    1  0.1977788E-002  0.9118800E+02  0.7818608E-02  0.1130116E+00
         25   -1    0    0    0    0  0.00000000000E+00  0.00000000000E+00  0.99999998245E-14  0.12500000000E+03  0.12500000000E+03 0.  0.
        -11    1    1    0    0    0  0.60136525396E+02  0.87525390330E+01  0.10244169948E+02  0.61627523432E+02  0.51100000000E-03 0.  1.
         11    1    1    0    0    0  0.85142849344E+00  0.12305054659E+00  0.14540892176E+00  0.87247689488E+00  0.51100000000E-03 0.  1.
         22    1    1    0    0    0 -0.60987953889E+02 -0.88755895796E+01 -0.10389578869E+02  0.62499999673E+02  0.00000000000E+00 0.  1.
</event>
<event>
 4    1  0.1977788E-002  0.9118800E+02  0.7818608E-02  0.1130116E+00
         25   -1    0    0    0    0  0.00000000000E+00  0.00000000000E+00  0.99999998245E-14  0.12500000000E+03  0.12500000000E+03 0.  0.
        -11    1    1    0    0    0  0.66443772310E+00  0.97130618985E+01 -0.57978474541E+01  0.11331376099E+02  0.51100000000E-03 0. -1.
         11    1    1    0    0    0  0.29959494875E+01  0.43855657067E+02 -0.26190336277E+02  0.51168624025E+02  0.51100000000E-03 0.  1.
         22    1    1    0    0    0 -0.36603872106E+01 -0.53568718965E+02  0.31988183731E+02  0.62499999876E+02  0.00000000000E+00 0.  1.
</event>
<event>
 4    1  0.1977788E-002  0.9118800E+02  0.7818608E-02  0.1130116E+00
         25   -1    0    0    0    0  0.00000000000E+00  0.00000000000E+00  0.99999998245E-14  0.12500000000E+03  0.12500000000E+03 0.  0.
        -11    1    1    0    0    0 -0.46645334794E+02 -0.91431374422E+01 -0.31129473146E+02  0.56819260106E+02  0.51100000000E-03 0.  1.
         11    1    1    0    0    0 -0.44571827189E+01 -0.12525859271E+01 -0.33051051143E+01  0.56885120526E+01  0.51100000000E-03 0. -1.
         22    1    1    0    0    0  0.51102517513E+02  0.10395723369E+02  0.34434578261E+02  0.62492227841E+02  0.00000000000E+00 0.  1.
</event>
<event>
 4    1  0.1977788E-002  0.9118800E+02  0.7818608E-02  0.1130116E+00
         25   -1    0    0    0    0  0.00000000000E+00  0.00000000000E+00  0.99999998245E-14  0.12500000000E+03  0.12500000000E+03 0.  0.
        -11    1    1    0    0    0  0.24263062705E+01  0.23738348926E+02 -0.45116959712E-01  0.23862066290E+02  0.51100000000E-03 0. -1.
         11    1    1    0    0    0  0.47443544729E+01  0.35390421195E+02 -0.16479199260E+02  0.39326261203E+02  0.51100000000E-03 0.  1.
         22    1    1    0    0    0 -0.71706607434E+01 -0.59128770121E+02  0.16524316219E+02  0.61811672506E+02  0.00000000000E+00 0.  1.
</event>
<event>
 4    1  0.1977788E-002  0.9118800E+02  0.7818608E-02  0.1130116E+00
         25   -1    0    0    0    0  0.00000000000E+00  0.00000000000E+00  0.99999998245E-14  0.12500000000E+03  0.12500000000E+03 0.  0.
        -11    1    1    0    0    0 -0.21866098215E+02 -0.47560474354E+01 -0.11044795192E+02  0.24954633627E+02  0.51100000000E-03 0. -1.
         11    1    1    0    0    0 -0.31880226281E+02 -0.66853593797E+01 -0.18701063908E+02  0.37560253584E+02  0.51100000000E-03 0.  1.
         22    1    1    0    0    0  0.53746324496E+02  0.11441406815E+02  0.29745859100E+02  0.62485112789E+02  0.00000000000E+00 0.  1.
</event>
<event>
 4    1  0.1977788E-002  0.9118800E+02  0.7818608E-02  0.1130116E+00
         25   -1    0    0    0    0  0.00000000000E+00  0.00000000000E+00  0.99999998245E-14  0.12500000000E+03  0.12500000000E+03 0.  0.
        -11    1    1    0    0    0 -0.15122705931E+01  0.61205478826E+01  0.10502635480E+02  0.12249629424E+02  0.51100000000E-03 0. -1.
         11    1    1    0    0    0 -0.62055211571E+01  0.25114326667E+02  0.43079715099E+02  0.50250370646E+02  0.51100000000E-03 0.  1.
         22    1    1    0    0    0  0.77177917503E+01 -0.31234874550E+02 -0.53582350579E+02  0.62499999930E+02  0.00000000000E+00 0.  1.
</event>
<event>
 4    1  0.1977788E-002  0.9118800E+02  0.7818608E-02  0.1130116E+00
         25   -1    0    0    0    0  0.00000000000E+00  0.00000000000E+00  0.99999998245E-14  0.12500000000E+03  0.12500000000E+03 0.  0.
        -11    1    1    0    0    0  0.40144439221E+02  0.71555175838E+01  0.12439280430E+02  0.42632301488E+02  0.51100000000E-03 0.  1.
         11    1    1    0    0    0  0.18700762219E+02  0.34853552573E+01  0.57330963974E+01  0.19867929017E+02  0.51100000000E-03 0. -1.
         22    1    1    0    0    0 -0.58845201440E+02 -0.10640872841E+02 -0.18172376828E+02  0.62499769495E+02  0.00000000000E+00 0.  1.
</event>
<event>
 4    1  0.1977788E-002  0.9118800E+02  0.7818608E-02  0.1130116E+00
         25   -1    0    0    0    0  0.00000000000E+00  0.00000000000E+00  0.99999998245E-14  0.12500000000E+03  0.12500000000E+03 0.  0.
        -11    1    1    0    0    0  0.15733990398E+02  0.49113034566E+01 -0.91760119283E+01  0.18864743588E+02  0.51100000000E-03 0.  1.
         11    1    1    0    0    0  0.36404460507E+02  0.11356513487E+02 -0.21208029618E+02  0.43635257120E+02  0.51100000000E-03 0. -1.
         22    1    1    0    0    0 -0.52138450905E+02 -0.16267816943E+02  0.30384041546E+02  0.62499999292E+02  0.00000000000E+00 0. -1.
</event>
<event>
 4    1  0.1977788E-002  0.9118800E+02  0.7818608E-02  0.1130116E+00
         25   -1    0    0    0    0  0.00000000000E+00  0.00000000000E+00  0.99999998245E-14  0.12500000000E+03  0.12500000000E+03 0.  0.
        -11    1    1    0    0    0  0.16913857841E+01  0.61664345256E+01  0.11265527196E+02  0.12953679165E+02  0.51100000000E-03 0.  1.
         11    1    1    0    0    0  0.28112604852E+01  0.27486620327E+02  0.41167556369E+02  0.49580088545E+02  0.51100000000E-03 0. -1.
         22    1    1    0    0    0 -0.45026462693E+01 -0.33653054853E+02 -0.52433083565E+02  0.62466232290E+02  0.00000000000E+00 0. -1.
</event>
<event>
 4    1  0.1977788E-002  0.9118800E+02  0.7818608E-02  0.1130116E+00
         25   -1    0    0    0    0  0.00000000000E+00  0.00000000000E+00  0.99999998245E-14  0.12500000000E+03  0.12500000000E+03 0.  0.
        -11    1    1    0    0    0  0.16498268249E+01  0.19595843268E+01  0.85177871587E+00  0.26995233890E+01  0.51100000000E-03 0.  1.
         11    1    1    0    0    0  0.36130162694E+02  0.43375396861E+02  0.19730765962E+02  0.59800642429E+02  0.51100000000E-03 0. -1.
         22    1    1    0    0    0 -0.37779989519E+02 -0.45334981188E+02 -0.20582544678E+02  0.62499834182E+02  0.00000000000E+00 0. -1.
</event>
<event>
 4    1  0.1977788E-002  0.9118800E+02  0.7818608E-02  0.1130116E+00
         25   -1    0    0    0    0  0.00000000000E+00  0.00000000000E+00  0.99999998245E-14  0.12500000000E+03  0.12500000000E+03 0.  0.
        -11    1    1    0    0    0 -0.26002255722E+02  0.22539052291E+02  0.23476951448E+02  0.41656853342E+02  0.51100000000E-03 0. -1.
         11    1    1    0    0    0 -0.12982209002E+02  0.11277417183E+02  0.11777922581E+02  0.20843160736E+02  0.51100000000E-03 0.  1.
         22    1    1    0    0    0  0.38984464723E+02 -0.33816469474E+02 -0.35254874029E+02  0.62499985922E+02  0.00000000000E+00 0.  1.
</event>
<event>
 4    1  0.1977788E-002  0.9118800E+02  0.7818608E-02  0.1130116E+00
         25   -1    0    0    0    0  0.00000000000E+00  0.00000000000E+00  0.99999998245E-14  0.12500000000E+03  0.12500000000E+03 0.  0.
        -11    1    1    0    0    0 -0.23627334804E+02 -0.27050719111E+01 -0.20049401240E+01  0.23866045948E+02  0.51100000000E-03 0.  1.
         11    1    1    0    0    0 -0.38467577528E+02 -0.39196072331E+01  0.80516503057E+00  0.38675135847E+02  0.51100000000E-03 0. -1.
         22    1    1    0    0    0  0.62094912333E+02  0.66246791442E+01  0.11997750935E+01  0.62458818206E+02  0.00000000000E+00 0. -1.
</event>
<event>
 4    1  0.1977788E-002  0.9118800E+02  0.7818608E-02  0.1130116E+00
         25   -1    0    0    0    0  0.00000000000E+00  0.00000000000E+00  0.99999998245E-14  0.12500000000E+03  0.12500000000E+03 0.  0.
        -11    1    1    0    0    0 -0.12033948185E+02  0.70675494829E+01  0.19003083312E+01  0.14084648970E+02  0.51100000000E-03 0.  1.
         11    1    1    0    0    0 -0.41574001022E+02  0.23982011336E+02  0.63663764042E+01  0.48415546857E+02  0.51100000000E-03 0. -1.
         22    1    1    0    0    0  0.53607949206E+02 -0.31049560819E+02 -0.82666847354E+01  0.62499804173E+02  0.00000000000E+00 0. -1.
</event>
<event>
 4    1  0.1977788E-002  0.9118800E+02  0.7818608E-02  0.1130116E+00
         25   -1    0    0    0    0  0.00000000000E+00  0.00000000000E+00  0.99999998245E-14  0.12500000000E+03  0.12500000000E+03 0.  0.
        -11    1    1    0    0    0  0.34337255236E+01 -0.21545664944E+02 -0.46314516168E+01  0.22303732719E+02  0.51100000000E-03 0. -1.
         11    1    1    0    0    0  0.63016159711E+01 -0.38786317240E+02 -0.84650017371E+01  0.40196330971E+02  0.51100000000E-03 0.  1.
         22    1    1    0    0    0 -0.97353414947E+01  0.60331982184E+02  0.13096453354E+02  0.62499936310E+02  0.00000000000E+00 0.  1.
</event>
<event>
 4    1  0.1977788E-002  0.9118800E+02  0.7818608E-02  0.1130116E+00
         25   -1    0    0    0    0  0.00000000000E+00  0.00000000000E+00  0.99999998245E-14  0.12500000000E+03  0.12500000000E+03 0.  0.
        -11    1    1    0    0    0  0.24850423082E+01  0.87615843487E+00 -0.13117822003E+01  0.29434438467E+01  0.51100000000E-03 0. -1.
         11    1    1    0    0    0  0.55194485758E+02  0.21949341301E+02  0.67795978850E+01  0.59784344016E+02  0.51100000000E-03 0.  1.
         22    1    1    0    0    0 -0.57679528066E+02 -0.22825499736E+02 -0.54678156847E+01  0.62272212138E+02  0.00000000000E+00 0.  1.
</event>
<event>
 4    1  0.1977788E-002  0.9118800E+02  0.7818608E-02  0.1130116E+00
         25   -1    0    0    0    0  0.00000000000E+00  0.00000000000E+00  0.99999998245E-14  0.12500000000E+03  0.12500000000E+03 0.  0.
        -11    1    1    0    0    0 -0.11382755416E+00 -0.39802493455E+02  0.40087925418E+02  0.56491532167E+02  0.51100000000E-03 0.  1.
         11    1    1    0    0    0 -0.40149392483E+01 -0.43379366068E+01  0.30500211323E+01  0.66513201953E+01  0.51100000000E-03 0. -1.
         22    1    1    0    0    0  0.41287668025E+01  0.44140430061E+02 -0.43137946551E+02  0.61857147638E+02  0.00000000000E+00 0.  1.
</event>
<event>
 4    1  0.1977788E-002  0.9118800E+02  0.7818608E-02  0.1130116E+00
         25   -1    0    0    0    0  0.00000000000E+00  0.00000000000E+00  0.99999998245E-14  0.12500000000E+03  0.12500000000E+03 0.  0.
        -11    1    1    0    0    0  0.31182939317E+02 -0.21312002828E+02  0.75599100787E+01  0.38519208321E+02  0.51100000000E-03 0. -1.
         11    1    1    0    0    0  0.19406939797E+02 -0.13270250088E+02  0.47275437719E+01  0.23980794818E+02  0.51100000000E-03 0.  1.
         22    1    1    0    0    0 -0.50589879115E+02  0.34582252916E+02 -0.12287453851E+02  0.62499996862E+02  0.00000000000E+00 0.  1.
</event>
<event>
 4    1  0.1977788E-002  0.9118800E+02  0.7818608E-02  0.1130116E+00
         25   -1    0    0    0    0  0.00000000000E+00  0.00000000000E+00  0.99999998245E-14  0.12500000000E+03  0.12500000000E+03 0.  0.
        -11    1    1    0    0    0  0.13248178675E+02  0.23207580613E+01  0.58590408982E+01  0.14670668583E+02  0.51100000000E-03 0. -1.
         11    1    1    0    0    0  0.43186492057E+02  0.76371416550E+01  0.19085244085E+02  0.47829337972E+02  0.51100000000E-03 0.  1.
         22    1    1    0    0    0 -0.56434670731E+02 -0.99578997164E+01 -0.24944284983E+02  0.62499993445E+02  0.00000000000E+00 0.  1.
</event>
<event>
 4    1  0.1977788E-002  0.9118800E+02  0.7818608E-02  0.1130116E+00
         25   -1    0    0    0    0  0.00000000000E+00  0.00000000000E+00  0.99999998245E-14  0.12500000000E+03  0.12500000000E+03 0.  0.
        -11    1    1    0    0    0 -0.13052654521E+02 -0.29699602571E+02  0.17453820241E+02  0.36838485639E+02  0.51100000000E-03 0.  1.
         11    1    1    0    0    0 -0.18453378212E+02  0.13671734554E+02  0.24312455572E+02  0.33444565917E+02  0.51100000000E-03 0. -1.
         22    1    1    0    0    0  0.31506032733E+02  0.16027868017E+02 -0.41766275813E+02  0.54716948444E+02  0.00000000000E+00 0.  1.
</event>
<event>
 4    1  0.1977788E-002  0.9118800E+02  0.7818608E-02  0.1130116E+00
         25   -1    0    0    0    0  0.00000000000E+00  0.00000000000E+00  0.99999998245E-14  0.12500000000E+03  0.12500000000E+03 0.  0.
        -11    1    1    0    0    0 -0.21191762059E+01 -0.67893529421E+00 -0.20074732904E+00  0.22343143639E+01  0.51100000000E-03 0. -1.
         11    1    1    0    0    0 -0.57170911058E+02 -0.18286948297E+02 -0.53877032624E+01  0.60265685891E+02  0.51100000000E-03 0.  1.
         22    1    1    0    0    0  0.59290087264E+02  0.18965883592E+02  0.55884505914E+01  0.62499999745E+02  0.00000000000E+00 0.  1.
</event>
<event>
 4    1  0.1977788E-002  0.9118800E+02  0.7818608E-02  0.1130116E+00
         25   -1    0    0    0    0  0.00000000000E+00  0.00000000000E+00  0.99999998245E-14  0.12500000000E+03  0.12500000000E+03 0.  0.
        -11    1    1    0    0    0 -0.17331405980E+02 -0.38197305381E+02  0.10754919917E+02  0.43302194798E+02  0.51100000000E-03 0. -1.
         11    1    1    0    0    0  0.21855922695E+02 -0.14216392012E+02 -0.12808733348E+02  0.29049110295E+02  0.51100000000E-03 0.  1.
         22    1    1    0    0    0 -0.45245167147E+01  0.52413697393E+02  0.20538134306E+01  0.52648694908E+02  0.00000000000E+00 0. -1.
</event>
<event>
 4    1  0.1977788E-002  0.9118800E+02  0.7818608E-02  0.1130116E+00
         25   -1    0    0    0    0  0.00000000000E+00  0.00000000000E+00  0.99999998245E-14  0.12500000000E+03  0.12500000000E+03 0.  0.
        -11    1    1    0    0    0 -0.12439677861E+02  0.25625253074E+02 -0.51280695088E+02  0.58660965466E+02  0.51100000000E-03 0.  1.
         11    1    1    0    0    0  0.14505859161E+00 -0.12482970820E+00 -0.41199541015E+01  0.41243965026E+01  0.51100000000E-03 0. -1.
         22    1    1    0    0    0  0.12294619269E+02 -0.25500423366E+02  0.55400649190E+02  0.62214638032E+02  0.00000000000E+00 0.  1.
</event>
<event>
 4    1  0.1977788E-002  0.9118800E+02  0.7818608E-02  0.1130116E+00
         25   -1    0    0    0    0  0.00000000000E+00  0.00000000000E+00  0.99999998245E-14  0.12500000000E+03  0.12500000000E+03 0.  0.
        -11    1    1    0    0    0  0.18006405714E+02  0.17203617900E+02  0.12784019570E+02  0.27993325494E+02  0.51100000000E-03 0. -1.
         11    1    1    0    0    0  0.19587723921E+02  0.27236463411E+02  0.91965677785E+01  0.34786214607E+02  0.51100000000E-03 0.  1.
         22    1    1    0    0    0 -0.37594129635E+02 -0.44440081311E+02 -0.21980587349E+02  0.62220459899E+02  0.00000000000E+00 0.  1.
</event>
<event>
 4    1  0.1977788E-002  0.9118800E+02  0.7818608E-02  0.1130116E+00
         25   -1    0    0    0    0  0.00000000000E+00  0.00000000000E+00  0.99999998245E-14  0.12500000000E+03  0.12500000000E+03 0.  0.
        -11    1    1    0    0    0  0.19145788431E+02  0.16529513633E+02  0.10624405779E+02  0.27434723144E+02  0.51100000000E-03 0. -1.
         11    1    1    0    0    0  0.24498448345E+02  0.21094845141E+02  0.13579674920E+02  0.35065282460E+02  0.51100000000E-03 0.  1.
         22    1    1    0    0    0 -0.43644236776E+02 -0.37624358774E+02 -0.24204080699E+02  0.62499994395E+02  0.00000000000E+00 0.  1.
</event>
<event>
 4    1  0.1977788E-002  0.9118800E+02  0.7818608E-02  0.1130116E+00
         25   -1    0    0    0    0  0.00000000000E+00  0.00000000000E+00  0.99999998245E-14  0.12500000000E+03  0.12500000000E+03 0.  0.
        -11    1    1    0    0    0 -0.99736684739E+01 -0.16321415304E+01 -0.14839031893E+01  0.10214691270E+02  0.51100000000E-03 0. -1.
         11    1    1    0    0    0 -0.51054147285E+02 -0.83466536113E+01 -0.75868926158E+01  0.52285308848E+02  0.51100000000E-03 0.  1.
         22    1    1    0    0    0  0.61027815759E+02  0.99787951417E+01  0.90707958051E+01  0.62499999882E+02  0.00000000000E+00 0.  1.
</event>
<event>
 4    1  0.1977788E-002  0.9118800E+02  0.7818608E-02  0.1130116E+00
         25   -1    0    0    0    0  0.00000000000E+00  0.00000000000E+00  0.99999998245E-14  0.12500000000E+03  0.12500000000E+03 0.  0.
        -11    1    1    0    0    0  0.23509144025E+02  0.23006983236E+01 -0.46922910527E+01  0.24082995269E+02  0.51100000000E-03 0. -1.
         11    1    1    0    0    0  0.37419055071E+02  0.37456611781E+01 -0.78536086830E+01  0.38417376664E+02  0.51100000000E-03 0.  1.
         22    1    1    0    0    0 -0.60928199096E+02 -0.60463595018E+01  0.12545899736E+02  0.62499628067E+02  0.00000000000E+00 0.  1.
</event>
<event>
 4    1  0.1977788E-002  0.9118800E+02  0.7818608E-02  0.1130116E+00
         25   -1    0    0    0    0  0.00000000000E+00  0.00000000000E+00  0.99999998245E-14  0.12500000000E+03  0.12500000000E+03 0.  0.
        -11    1    1    0    0    0  0.29617804641E+01  0.10239088548E+02  0.12111402756E+02  0.16133727244E+02  0.51100000000E-03 0.  1.
         11    1    1    0    0    0  0.88363103421E+01  0.29523028790E+02  0.34643323962E+02  0.46366469618E+02  0.51100000000E-03 0. -1.
         22    1    1    0    0    0 -0.11798090806E+02 -0.39762117339E+02 -0.46754726717E+02  0.62499803138E+02  0.00000000000E+00 0.  1.
</event>
<event>
 4    1  0.1977788E-002  0.9118800E+02  0.7818608E-02  0.1130116E+00
         25   -1    0    0    0    0  0.00000000000E+00  0.00000000000E+00  0.99999998245E-14  0.12500000000E+03  0.12500000000E+03 0.  0.
        -11    1    1    0    0    0  0.34585475784E+00 -0.40522920739E+01 -0.10828702151E+02  0.11567258842E+02  0.51100000000E-03 0.  1.
         11    1    1    0    0    0  0.15267361072E+01 -0.17844514703E+02 -0.47680042952E+02  0.50932741181E+02  0.51100000000E-03 0. -1.
         22    1    1    0    0    0 -0.18725908650E+01  0.21896806777E+02  0.58508745103E+02  0.62499999977E+02  0.00000000000E+00 0. -1.
</event>
<event>
 4    1  0.1977788E-002  0.9118800E+02  0.7818608E-02  0.1130116E+00
         25   -1    0    0    0    0  0.00000000000E+00  0.00000000000E+00  0.99999998245E-14  0.12500000000E+03  0.12500000000E+03 0.  0.
        -11    1    1    0    0    0 -0.12486550896E+01 -0.21615659691E+01  0.60266497054E+01  0.65231904698E+01  0.51100000000E-03 0. -1.
         11    1    1    0    0    0  0.16245490975E+02 -0.25625489303E+02  0.47480868326E+02  0.56347267337E+02  0.51100000000E-03 0.  1.
         22    1    1    0    0    0 -0.14996835886E+02  0.27787055272E+02 -0.53507518031E+02  0.62129542194E+02  0.00000000000E+00 0.  1.
</event>
<event>
 4    1  0.1977788E-002  0.9118800E+02  0.7818608E-02  0.1130116E+00
         25   -1    0    0    0    0  0.00000000000E+00  0.00000000000E+00  0.99999998245E-14  0.12500000000E+03  0.12500000000E+03 0.  0.
        -11    1    1    0    0    0 -0.18978013247E+01  0.24557603601E+01  0.12587585466E+01  0.33491614106E+01  0.51100000000E-03 0. -1.
         11    1    1    0    0    0 -0.33544350394E+02  0.43321505566E+02  0.22290033642E+02  0.59150840128E+02  0.51100000000E-03 0.  1.
         22    1    1    0    0    0  0.35442151718E+02 -0.45777265926E+02 -0.23548792189E+02  0.62499998461E+02  0.00000000000E+00 0.  1.
</event>
<event>
 4    1  0.1977788E-002  0.9118800E+02  0.7818608E-02  0.1130116E+00
         25   -1    0    0    0    0  0.00000000000E+00  0.00000000000E+00  0.99999998245E-14  0.12500000000E+03  0.12500000000E+03 0.  0.
        -11    1    1    0    0    0  0.64332939909E+01  0.80644949051E+01  0.38418228497E+01  0.11008312892E+02  0.51100000000E-03 0. -1.
         11    1    1    0    0    0  0.30115116150E+02  0.37707868475E+02  0.17960800336E+02  0.51491687821E+02  0.51100000000E-03 0.  1.
         22    1    1    0    0    0 -0.36548410141E+02 -0.45772363380E+02 -0.21802623185E+02  0.62499999288E+02  0.00000000000E+00 0.  1.
</event>
<event>
 4    1  0.1977788E-002  0.9118800E+02  0.7818608E-02  0.1130116E+00
         25   -1    0    0    0    0  0.00000000000E+00  0.00000000000E+00  0.99999998245E-14  0.12500000000E+03  0.12500000000E+03 0.  0.
        -11    1    1    0    0    0 -0.35973944544E+02  0.16105524592E+02 -0.30947545164E+02  0.50112505030E+02  0.51100000000E-03 0.  1.
         11    1    1    0    0    0 -0.86358318234E+01  0.48184977275E+01 -0.74815430803E+01  0.12400362848E+02  0.51100000000E-03 0. -1.
         22    1    1    0    0    0  0.44609776367E+02 -0.20924022320E+02  0.38429088245E+02  0.62487132122E+02  0.00000000000E+00 0.  1.
</event>
<event>
 4    1  0.1977788E-002  0.9118800E+02  0.7818608E-02  0.1130116E+00
         25   -1    0    0    0    0  0.00000000000E+00  0.00000000000E+00  0.99999998245E-14  0.12500000000E+03  0.12500000000E+03 0.  0.
        -11    1    1    0    0    0 -0.65257310953E+01 -0.40931326678E+01  0.72705137064E+01  0.10592415739E+02  0.51100000000E-03 0. -1.
         11    1    1    0    0    0 -0.31939693953E+02 -0.20389011855E+02  0.35476088160E+02  0.51907693896E+02  0.51100000000E-03 0.  1.
         22    1    1    0    0    0  0.38465425048E+02  0.24482144522E+02 -0.42746601866E+02  0.62499890365E+02  0.00000000000E+00 0.  1.
</event>
<event>
 4    1  0.1977788E-002  0.9118800E+02  0.7818608E-02  0.1130116E+00
         25   -1    0    0    0    0  0.00000000000E+00  0.00000000000E+00  0.99999998245E-14  0.12500000000E+03  0.12500000000E+03 0.  0.
        -11    1    1    0    0    0  0.46380164329E+02 -0.36507819337E+02  0.14215891065E+02  0.60712701101E+02  0.51100000000E-03 0. -1.
         11    1    1    0    0    0  0.13642394707E+01 -0.10761163640E+01  0.41864425847E+00  0.17872993702E+01  0.51100000000E-03 0.  1.
         22    1    1    0    0    0 -0.47744403800E+02  0.37583935701E+02 -0.14634535323E+02  0.62499999529E+02  0.00000000000E+00 0. -1.
</event>
<event>
 4    1  0.1977788E-002  0.9118800E+02  0.7818608E-02  0.1130116E+00
         25   -1    0    0    0    0  0.00000000000E+00  0.00000000000E+00  0.99999998245E-14  0.12500000000E+03  0.12500000000E+03 0.  0.
        -11    1    1    0    0    0  0.38726732929E+01 -0.38168042260E+01 -0.27272936473E+00  0.54442606937E+01  0.51100000000E-03 0.  1.
         11    1    1    0    0    0  0.40518432536E+02 -0.40068780054E+02 -0.28473296269E+01  0.57055742887E+02  0.51100000000E-03 0. -1.
         22    1    1    0    0    0 -0.44391105829E+02  0.43885584280E+02  0.31200589916E+01  0.62499996419E+02  0.00000000000E+00 0. -1.
</event>
<event>
 4    1  0.1977788E-002  0.9118800E+02  0.7818608E-02  0.1130116E+00
         25   -1    0    0    0    0  0.00000000000E+00  0.00000000000E+00  0.99999998245E-14  0.12500000000E+03  0.12500000000E+03 0.  0.
        -11    1    1    0    0    0 -0.37790385209E+02 -0.20661293239E+02  0.65262944588E+01  0.43561390843E+02  0.51100000000E-03 0. -1.
         11    1    1    0    0    0 -0.16432712931E+02 -0.89752716737E+01  0.28427791542E+01  0.18938610020E+02  0.51100000000E-03 0.  1.
         22    1    1    0    0    0  0.54223098141E+02  0.29636564912E+02 -0.93690736130E+01  0.62499999137E+02  0.00000000000E+00 0.  1.
</event>
<event>
 4    1  0.1977788E-002  0.9118800E+02  0.7818608E-02  0.1130116E+00
         25   -1    0    0    0    0  0.00000000000E+00  0.00000000000E+00  0.99999998245E-14  0.12500000000E+03  0.12500000000E+03 0.  0.
        -11    1    1    0    0    0  0.70326809641E+01  0.17014724613E+01 -0.13676050140E+02  0.15472167197E+02  0.51100000000E-03 0.  1.
         11    1    1    0    0    0  0.18219293886E+02  0.22120187316E+02 -0.37802943868E+02  0.47437410574E+02  0.51100000000E-03 0. -1.
         22    1    1    0    0    0 -0.25251974850E+02 -0.23821659777E+02  0.51478994009E+02  0.62090422229E+02  0.00000000000E+00 0. -1.
</event>
<event>
 4    1  0.1977788E-002  0.9118800E+02  0.7818608E-02  0.1130116E+00
         25   -1    0    0    0    0  0.00000000000E+00  0.00000000000E+00  0.99999998245E-14  0.12500000000E+03  0.12500000000E+03 0.  0.
        -11    1    1    0    0    0  0.18617433389E+02  0.24145081078E+02 -0.14324859812E+02  0.33686724019E+02  0.51100000000E-03 0. -1.
         11    1    1    0    0    0  0.13812123607E+02  0.22227282322E+02 -0.12134796543E+02  0.28845799094E+02  0.51100000000E-03 0.  1.
         22    1    1    0    0    0 -0.32429556996E+02 -0.46372363399E+02  0.26459656355E+02  0.62467476887E+02  0.00000000000E+00 0.  1.
</event>
<event>
 4    1  0.1977788E-002  0.9118800E+02  0.7818608E-02  0.1130116E+00
         25   -1    0    0    0    0  0.00000000000E+00  0.00000000000E+00  0.99999998245E-14  0.12500000000E+03  0.12500000000E+03 0.  0.
        -11    1    1    0    0    0 -0.53272348858E+01  0.10523157429E+02 -0.54733935158E+01  0.13002857788E+02  0.51100000000E-03 0.  1.
         11    1    1    0    0    0 -0.20280139625E+02  0.40094574080E+02 -0.20763160511E+02  0.49497149095E+02  0.51100000000E-03 0. -1.
         22    1    1    0    0    0  0.25607374510E+02 -0.50617731509E+02  0.26236554027E+02  0.62499993117E+02  0.00000000000E+00 0.  1.
</event>
<event>
 4    1  0.1977788E-002  0.9118800E+02  0.7818608E-02  0.1130116E+00
         25   -1    0    0    0    0  0.00000000000E+00  0.00000000000E+00  0.99999998245E-14  0.12500000000E+03  0.12500000000E+03 0.  0.
        -11    1    1    0    0    0  0.25408504751E+02  0.58399024438E+01  0.33237034676E+02  0.42242124101E+02  0.51100000000E-03 0.  1.
         11    1    1    0    0    0 -0.15807348716E+02 -0.11929383368E+02  0.20103344744E+02  0.28219265247E+02  0.51100000000E-03 0. -1.
         22    1    1    0    0    0 -0.96011560355E+01  0.60894809238E+01 -0.53340379420E+02  0.54538610652E+02  0.00000000000E+00 0.  1.
</event>
<event>
 4    1  0.1977788E-002  0.9118800E+02  0.7818608E-02  0.1130116E+00
         25   -1    0    0    0    0  0.00000000000E+00  0.00000000000E+00  0.99999998245E-14  0.12500000000E+03  0.12500000000E+03 0.  0.
        -11    1    1    0    0    0  0.13429568626E+02  0.39926690240E+00 -0.78289107334E+01  0.15550066594E+02  0.51100000000E-03 0. -1.
         11    1    1    0    0    0  0.40482882062E+02  0.12311401108E+01 -0.23746976452E+02  0.46949955664E+02  0.51100000000E-03 0.  1.
         22    1    1    0    0    0 -0.53912450688E+02 -0.16304070132E+01  0.31575887185E+02  0.62499977742E+02  0.00000000000E+00 0.  1.
</event>
<event>
 4    1  0.1977788E-002  0.9118800E+02  0.7818608E-02  0.1130116E+00
         25   -1    0    0    0    0  0.00000000000E+00  0.00000000000E+00  0.99999998245E-14  0.12500000000E+03  0.12500000000E+03 0.  0.
        -11    1    1    0    0    0 -0.73649261982E+00  0.83518087867E+01  0.20841038792E+01  0.86393645963E+01  0.51100000000E-03 0. -1.
         11    1    1    0    0    0  0.15421468357E+01  0.40625321457E+02  0.36008624231E+02  0.54308525846E+02  0.51100000000E-03 0.  1.
         22    1    1    0    0    0 -0.80565421585E+00 -0.48977130243E+02 -0.38092728111E+02  0.62052109557E+02  0.00000000000E+00 0.  1.
</event>
<event>
 4    1  0.1977788E-002  0.9118800E+02  0.7818608E-02  0.1130116E+00
         25   -1    0    0    0    0  0.00000000000E+00  0.00000000000E+00  0.99999998245E-14  0.12500000000E+03  0.12500000000E+03 0.  0.
        -11    1    1    0    0    0  0.48182930084E-02  0.25878504145E+01  0.42978105063E+01  0.50167886534E+01  0.51100000000E-03 0. -1.
         11    1    1    0    0    0  0.75926990509E-01  0.29606316410E+02  0.49272507377E+02  0.57483212503E+02  0.51100000000E-03 0.  1.
         22    1    1    0    0    0 -0.80745283518E-01 -0.32194166824E+02 -0.53570317883E+02  0.62499998843E+02  0.00000000000E+00 0.  1.
</event>
<event>
 4    1  0.1977788E-002  0.9118800E+02  0.7818608E-02  0.1130116E+00
         25   -1    0    0    0    0  0.00000000000E+00  0.00000000000E+00  0.99999998245E-14  0.12500000000E+03  0.12500000000E+03 0.  0.
        -11    1    1    0    0    0  0.33675335768E+02  0.89796920099E+01  0.92673498330E+00  0.34864336300E+02  0.51100000000E-03 0.  1.
         11    1    1    0    0    0  0.27922546340E+02 -0.54306367942E+00  0.79032510146E+00  0.27939007253E+02  0.51100000000E-03 0. -1.
         22    1    1    0    0    0 -0.61597882108E+02 -0.84366283305E+01 -0.17170600848E+01  0.62196656446E+02  0.00000000000E+00 0.  1.
</event>
<event>
 4    1  0.1977788E-002  0.9118800E+02  0.7818608E-02  0.1130116E+00
         25   -1    0    0    0    0  0.00000000000E+00  0.00000000000E+00  0.99999998245E-14  0.12500000000E+03  0.12500000000E+03 0.  0.
        -11    1    1    0    0    0  0.26034201612E+01 -0.49049625683E+01  0.14066546612E+01  0.57284493477E+01  0.51100000000E-03 0. -1.
         11    1    1    0    0    0 -0.22990630329E+02 -0.48941439546E+02  0.20273809958E+02  0.57748255023E+02  0.51100000000E-03 0.  1.
         22    1    1    0    0    0  0.20387210168E+02  0.53846402114E+02 -0.21680464619E+02  0.61523295630E+02  0.00000000000E+00 0.  1.
</event>
<event>
 4    1  0.1977788E-002  0.9118800E+02  0.7818608E-02  0.1130116E+00
         25   -1    0    0    0    0  0.00000000000E+00  0.00000000000E+00  0.99999998245E-14  0.12500000000E+03  0.12500000000E+03 0.  0.
        -11    1    1    0    0    0  0.57608336519E+01  0.55690009281E+01  0.39542899386E+00  0.80223026652E+01  0.51100000000E-03 0.  1.
         11    1    1    0    0    0  0.39125040741E+02  0.37812177354E+02  0.26999917917E+01  0.54477697503E+02  0.51100000000E-03 0.  1.
         22    1    1    0    0    0 -0.44885874393E+02 -0.43381178282E+02 -0.30954207855E+01  0.62499999832E+02  0.00000000000E+00 0.  1.
</event>
<event>
 4    1  0.1977788E-002  0.9118800E+02  0.7818608E-02  0.1130116E+00
         25   -1    0    0    0    0  0.00000000000E+00  0.00000000000E+00  0.99999998245E-14  0.12500000000E+03  0.12500000000E+03 0.  0.
        -11    1    1    0    0    0 -0.59376770641E+01 -0.55958132704E+01 -0.69451576014E+01  0.10714679157E+02  0.51100000000E-03 0. -1.
         11    1    1    0    0    0 -0.38269878573E+02 -0.18128365023E+02 -0.30070530911E+02  0.51937058580E+02  0.51100000000E-03 0.  1.
         22    1    1    0    0    0  0.44207555637E+02  0.23724178293E+02  0.37015688512E+02  0.62348262263E+02  0.00000000000E+00 0.  1.
</event>
<event>
 4    1  0.1977788E-002  0.9118800E+02  0.7818608E-02  0.1130116E+00
         25   -1    0    0    0    0  0.00000000000E+00  0.00000000000E+00  0.99999998245E-14  0.12500000000E+03  0.12500000000E+03 0.  0.
        -11    1    1    0    0    0 -0.14963249386E+02 -0.31406135148E+02 -0.37977838958E+01  0.34995247104E+02  0.51100000000E-03 0. -1.
         11    1    1    0    0    0  0.10070864550E+02 -0.16443893649E+02 -0.26786464703E+02  0.33005130550E+02  0.51100000000E-03 0.  1.
         22    1    1    0    0    0  0.48923848361E+01  0.47850028796E+02  0.30584248599E+02  0.56999622346E+02  0.00000000000E+00 0.  1.
</event>
<event>
 4    1  0.1977788E-002  0.9118800E+02  0.7818608E-02  0.1130116E+00
         25   -1    0    0    0    0  0.00000000000E+00  0.00000000000E+00  0.99999998245E-14  0.12500000000E+03  0.12500000000E+03 0.  0.
        -11    1    1    0    0    0 -0.12841318659E+00  0.38825015356E-01  0.38534084979E+00  0.40802593048E+00  0.51100000000E-03 0.  1.
         11    1    1    0    0    0 -0.71555687550E+00  0.10528027964E+02  0.61198937061E+02  0.62102023253E+02  0.51100000000E-03 0. -1.
         22    1    1    0    0    0  0.84397006209E+00 -0.10566852979E+02 -0.61584277910E+02  0.62489950817E+02  0.00000000000E+00 0. -1.
</event>
<event>
 4    1  0.1977788E-002  0.9118800E+02  0.7818608E-02  0.1130116E+00
         25   -1    0    0    0    0  0.00000000000E+00  0.00000000000E+00  0.99999998245E-14  0.12500000000E+03  0.12500000000E+03 0.  0.
        -11    1    1    0    0    0  0.22340438229E+02 -0.64015428629E+01 -0.23273364036E+02  0.32889578974E+02  0.51100000000E-03 0.  1.
         11    1    1    0    0    0  0.17987367541E+02 -0.67276453256E-01 -0.23771240524E+02  0.29809760037E+02  0.51100000000E-03 0. -1.
         22    1    1    0    0    0 -0.40327805769E+02  0.64688193162E+01  0.47044604559E+02  0.62300660989E+02  0.00000000000E+00 0. -1.
</event>
<event>
 4    1  0.1977788E-002  0.9118800E+02  0.7818608E-02  0.1130116E+00
         25   -1    0    0    0    0  0.00000000000E+00  0.00000000000E+00  0.99999998245E-14  0.12500000000E+03  0.12500000000E+03 0.  0.
        -11    1    1    0    0    0 -0.20035972260E+00 -0.73587525056E+01  0.38287976480E+01  0.82976547377E+01  0.51100000000E-03 0.  1.
         11    1    1    0    0    0 -0.36278214849E+02 -0.38125017585E+02 -0.19833832077E+02  0.56240614627E+02  0.51100000000E-03 0. -1.
         22    1    1    0    0    0  0.36478574571E+02  0.45483770090E+02  0.16005034429E+02  0.60461730636E+02  0.00000000000E+00 0. -1.
</event>
<event>
 4    1  0.1977788E-002  0.9118800E+02  0.7818608E-02  0.1130116E+00
         25   -1    0    0    0    0  0.00000000000E+00  0.00000000000E+00  0.99999998245E-14  0.12500000000E+03  0.12500000000E+03 0.  0.
        -11    1    1    0    0    0 -0.10162854650E+00  0.47527660381E+00 -0.93109394236E+00  0.10503106218E+01  0.51100000000E-03 0. -1.
         11    1    1    0    0    0 -0.55190304595E+01  0.29009638283E+02 -0.53889350458E+02  0.61449824276E+02  0.51100000000E-03 0.  1.
         22    1    1    0    0    0  0.56206590060E+01 -0.29484914887E+02  0.54820444400E+02  0.62499865102E+02  0.00000000000E+00 0.  1.
</event>
<event>
 4    1  0.1977788E-002  0.9118800E+02  0.7818608E-02  0.1130116E+00
         25   -1    0    0    0    0  0.00000000000E+00  0.00000000000E+00  0.99999998245E-14  0.12500000000E+03  0.12500000000E+03 0.  0.
        -11    1    1    0    0    0 -0.15402311781E+02 -0.68281794164E+01 -0.29370557182E+01  0.17102091653E+02  0.51100000000E-03 0. -1.
         11    1    1    0    0    0 -0.41084176750E+02 -0.17706756932E+02 -0.77176094220E+01  0.45398241329E+02  0.51100000000E-03 0.  1.
         22    1    1    0    0    0  0.56486488531E+02  0.24534936348E+02  0.10654665140E+02  0.62499667019E+02  0.00000000000E+00 0.  1.
</event>
<event>
 4    1  0.1977788E-002  0.9118800E+02  0.7818608E-02  0.1130116E+00
         25   -1    0    0    0    0  0.00000000000E+00  0.00000000000E+00  0.99999998245E-14  0.12500000000E+03  0.12500000000E+03 0.  0.
        -11    1    1    0    0    0 -0.37104371237E+02 -0.84019184670E+01  0.42316507747E+02  0.56903544942E+02  0.51100000000E-03 0.  1.
         11    1    1    0    0    0 -0.37320562085E+01 -0.61489003144E+00  0.41277092787E+01  0.55985995968E+01  0.51100000000E-03 0. -1.
         22    1    1    0    0    0  0.40836427445E+02  0.90168084985E+01 -0.46444217026E+02  0.62497855461E+02  0.00000000000E+00 0.  1.
</event>
<event>
 4    1  0.1977788E-002  0.9118800E+02  0.7818608E-02  0.1130116E+00
         25   -1    0    0    0    0  0.00000000000E+00  0.00000000000E+00  0.99999998245E-14  0.12500000000E+03  0.12500000000E+03 0.  0.
        -11    1    1    0    0    0  0.12649489517E+02 -0.72780424584E+01 -0.10134182779E+02  0.17767418156E+02  0.51100000000E-03 0. -1.
         11    1    1    0    0    0  0.31841814280E+02 -0.18321651185E+02 -0.25522928018E+02  0.44732582015E+02  0.51100000000E-03 0.  1.
         22    1    1    0    0    0 -0.44491303798E+02  0.25599693643E+02  0.35657110798E+02  0.62499999829E+02  0.00000000000E+00 0.  1.
</event>
<event>
 4    1  0.1977788E-002  0.9118800E+02  0.7818608E-02  0.1130116E+00
         25   -1    0    0    0    0  0.00000000000E+00  0.00000000000E+00  0.99999998245E-14  0.12500000000E+03  0.12500000000E+03 0.  0.
        -11    1    1    0    0    0 -0.45729606494E+00  0.59459873514E+02 -0.94518116837E+01  0.60208159101E+02  0.51100000000E-03 0.  1.
         11    1    1    0    0    0  0.26137400697E+01  0.13717687596E+01 -0.81483597305E+00  0.30622450271E+01  0.51100000000E-03 0. -1.
         22    1    1    0    0    0 -0.21564440047E+01 -0.60831642273E+02  0.10266647657E+02  0.61729595872E+02  0.00000000000E+00 0.  1.
</event>
<event>
 4    1  0.1977788E-002  0.9118800E+02  0.7818608E-02  0.1130116E+00
         25   -1    0    0    0    0  0.00000000000E+00  0.00000000000E+00  0.99999998245E-14  0.12500000000E+03  0.12500000000E+03 0.  0.
        -11    1    1    0    0    0 -0.25160524354E+02 -0.80497453767E+01 -0.12987337012E+02  0.29436734013E+02  0.51100000000E-03 0.  1.
         11    1    1    0    0    0 -0.25530918085E+02 -0.14166712950E+02 -0.15777896942E+02  0.33188334792E+02  0.51100000000E-03 0. -1.
         22    1    1    0    0    0  0.50691442440E+02  0.22216458327E+02  0.28765233954E+02  0.62374931195E+02  0.00000000000E+00 0. -1.
</event>
<event>
 4    1  0.1977788E-002  0.9118800E+02  0.7818608E-02  0.1130116E+00
         25   -1    0    0    0    0  0.00000000000E+00  0.00000000000E+00  0.99999998245E-14  0.12500000000E+03  0.12500000000E+03 0.  0.
        -11    1    1    0    0    0 -0.15500254666E+02 -0.68474498863E+00  0.56875891463E+02  0.58954166947E+02  0.51100000000E-03 0. -1.
         11    1    1    0    0    0 -0.78014514846E+00 -0.38721615757E+00  0.34470463448E+01  0.35553750251E+01  0.51100000000E-03 0.  1.
         22    1    1    0    0    0  0.16280399815E+02  0.10719611462E+01 -0.60322937808E+02  0.62490458028E+02  0.00000000000E+00 0. -1.
</event>
<event>
 4    1  0.1977788E-002  0.9118800E+02  0.7818608E-02  0.1130116E+00
         25   -1    0    0    0    0  0.00000000000E+00  0.00000000000E+00  0.99999998245E-14  0.12500000000E+03  0.12500000000E+03 0.  0.
        -11    1    1    0    0    0  0.15849095472E+02 -0.26561245453E+02  0.46398640897E+01  0.31276539552E+02  0.51100000000E-03 0. -1.
         11    1    1    0    0    0  0.15660115780E+02 -0.26720864087E+02  0.39732016559E+01  0.31225472542E+02  0.51100000000E-03 0.  1.
         22    1    1    0    0    0 -0.31509211252E+02  0.53282109540E+02 -0.86130657455E+01  0.62497987906E+02  0.00000000000E+00 0. -1.
</event>
<event>
 4    1  0.1977788E-002  0.9118800E+02  0.7818608E-02  0.1130116E+00
         25   -1    0    0    0    0  0.00000000000E+00  0.00000000000E+00  0.99999998245E-14  0.12500000000E+03  0.12500000000E+03 0.  0.
        -11    1    1    0    0    0  0.32939457124E+02  0.13634939878E+02  0.37947398054E+02  0.52066538588E+02  0.51100000000E-03 0. -1.
         11    1    1    0    0    0  0.52512532186E+01 -0.49295534721E+01  0.91701262477E+01  0.11660504854E+02  0.51100000000E-03 0.  1.
         22    1    1    0    0    0 -0.38190710343E+02 -0.87053864063E+01 -0.47117524302E+02  0.61272956558E+02  0.00000000000E+00 0. -1.
</event>
<event>
 4    1  0.1977788E-002  0.9118800E+02  0.7818608E-02  0.1130116E+00
         25   -1    0    0    0    0  0.00000000000E+00  0.00000000000E+00  0.99999998245E-14  0.12500000000E+03  0.12500000000E+03 0.  0.
        -11    1    1    0    0    0 -0.14014540313E+02 -0.34951748985E+00  0.35631449251E+02  0.38290072847E+02  0.51100000000E-03 0. -1.
         11    1    1    0    0    0 -0.10635553038E+02  0.10381243198E+01  0.21761417504E+02  0.24243596734E+02  0.51100000000E-03 0.  1.
         22    1    1    0    0    0  0.24650093351E+02 -0.68860682998E+00 -0.57392866755E+02  0.62466330419E+02  0.00000000000E+00 0. -1.
</event>
<event>
 4    1  0.1977788E-002  0.9118800E+02  0.7818608E-02  0.1130116E+00
         25   -1    0    0    0    0  0.00000000000E+00  0.00000000000E+00  0.99999998245E-14  0.12500000000E+03  0.12500000000E+03 0.  0.
        -11    1    1    0    0    0 -0.11105441111E+02 -0.20792883539E+02 -0.39556537922E+02  0.46047741755E+02  0.51100000000E-03 0. -1.
         11    1    1    0    0    0 -0.68439566170E+01 -0.11991402659E+02 -0.98792041453E+01  0.16977401295E+02  0.51100000000E-03 0.  1.
         22    1    1    0    0    0  0.17949397728E+02  0.32784286198E+02  0.49435742067E+02  0.61974856950E+02  0.00000000000E+00 0. -1.
</event>
<event>
 4    1  0.1977788E-002  0.9118800E+02  0.7818608E-02  0.1130116E+00
         25   -1    0    0    0    0  0.00000000000E+00  0.00000000000E+00  0.99999998245E-14  0.12500000000E+03  0.12500000000E+03 0.  0.
        -11    1    1    0    0    0  0.13566175709E+02  0.35693845548E+01  0.63011535027E+01  0.15378106684E+02  0.51100000000E-03 0.  1.
         11    1    1    0    0    0 -0.38641387282E+02  0.38126152020E+02  0.15283061831E+02  0.56394434638E+02  0.51100000000E-03 0. -1.
         22    1    1    0    0    0  0.25075211573E+02 -0.41695536575E+02 -0.21584215333E+02  0.53227458678E+02  0.00000000000E+00 0. -1.
</event>
<event>
 4    1  0.1977788E-002  0.9118800E+02  0.7818608E-02  0.1130116E+00
         25   -1    0    0    0    0  0.00000000000E+00  0.00000000000E+00  0.99999998245E-14  0.12500000000E+03  0.12500000000E+03 0.  0.
        -11    1    1    0    0    0  0.19281407558E+02 -0.29113060371E+01  0.28664037582E+02  0.34668075099E+02  0.51100000000E-03 0. -1.
         11    1    1    0    0    0  0.15737894064E+02 -0.31308448452E+01  0.22745229953E+02  0.27835750123E+02  0.51100000000E-03 0.  1.
         22    1    1    0    0    0 -0.35019301622E+02  0.60421508823E+01 -0.51409267536E+02  0.62496174778E+02  0.00000000000E+00 0. -1.
</event>
<event>
 4    1  0.1977788E-002  0.9118800E+02  0.7818608E-02  0.1130116E+00
         25   -1    0    0    0    0  0.00000000000E+00  0.00000000000E+00  0.99999998245E-14  0.12500000000E+03  0.12500000000E+03 0.  0.
        -11    1    1    0    0    0  0.17738075213E+02  0.17909385785E+02  0.11391007485E+02  0.27661172485E+02  0.51100000000E-03 0.  1.
         11    1    1    0    0    0  0.25695006653E+02  0.20099487340E+02  0.12416706177E+02  0.34905548997E+02  0.51100000000E-03 0. -1.
         22    1    1    0    0    0 -0.43433081866E+02 -0.38008873126E+02 -0.23807713662E+02  0.62433278518E+02  0.00000000000E+00 0. -1.
</event>
<event>
 4    1  0.1977788E-002  0.9118800E+02  0.7818608E-02  0.1130116E+00
         25   -1    0    0    0    0  0.00000000000E+00  0.00000000000E+00  0.99999998245E-14  0.12500000000E+03  0.12500000000E+03 0.  0.
        -11    1    1    0    0    0 -0.22420822576E+02  0.42894187952E+02 -0.39611272622E+01  0.48562281397E+02  0.51100000000E-03 0.  1.
         11    1    1    0    0    0 -0.64062771531E+01  0.12326668175E+02 -0.11284092943E+01  0.13937734502E+02  0.51100000000E-03 0. -1.
         22    1    1    0    0    0  0.28827099729E+02 -0.55220856127E+02  0.50895365565E+01  0.62499984101E+02  0.00000000000E+00 0.  1.
</event>
<event>
 4    1  0.1977788E-002  0.9118800E+02  0.7818608E-02  0.1130116E+00
         25   -1    0    0    0    0  0.00000000000E+00  0.00000000000E+00  0.99999998245E-14  0.12500000000E+03  0.12500000000E+03 0.  0.
        -11    1    1    0    0    0  0.28343211528E+01 -0.18920721161E+01 -0.88468677348E+00  0.35207931263E+01  0.51100000000E-03 0. -1.
         11    1    1    0    0    0  0.47881291507E+02 -0.31000206225E+02 -0.14997834177E+02  0.58979368364E+02  0.51100000000E-03 0.  1.
         22    1    1    0    0    0 -0.50715612660E+02  0.32892278341E+02  0.15882520951E+02  0.62499838509E+02  0.00000000000E+00 0.  1.
</event>
<event>
 4    1  0.1977788E-002  0.9118800E+02  0.7818608E-02  0.1130116E+00
         25   -1    0    0    0    0  0.00000000000E+00  0.00000000000E+00  0.99999998245E-14  0.12500000000E+03  0.12500000000E+03 0.  0.
        -11    1    1    0    0    0  0.41857312420E+01  0.35315003588E+02  0.50688100826E+02  0.61918925944E+02  0.51100000000E-03 0. -1.
         11    1    1    0    0    0  0.40221239805E-01  0.32999282041E+00  0.47658762421E+00  0.58107575610E+00  0.51100000000E-03 0.  1.
         22    1    1    0    0    0 -0.42259524818E+01 -0.35644996408E+02 -0.51164688450E+02  0.62499998300E+02  0.00000000000E+00 0. -1.
</event>
<event>
 4    1  0.1977788E-002  0.9118800E+02  0.7818608E-02  0.1130116E+00
         25   -1    0    0    0    0  0.00000000000E+00  0.00000000000E+00  0.99999998245E-14  0.12500000000E+03  0.12500000000E+03 0.  0.
        -11    1    1    0    0    0  0.26241915048E+02 -0.37565747324E+02 -0.25259117234E+02  0.52324434838E+02  0.51100000000E-03 0.  1.
         11    1    1    0    0    0  0.51018475080E+01 -0.73058674456E+01 -0.49130011578E+01  0.10175565231E+02  0.51100000000E-03 0. -1.
         22    1    1    0    0    0 -0.31343762556E+02  0.44871614770E+02  0.30172118392E+02  0.62499999931E+02  0.00000000000E+00 0.  1.
</event>
<event>
 4    1  0.1977788E-002  0.9118800E+02  0.7818608E-02  0.1130116E+00
         25   -1    0    0    0    0  0.00000000000E+00  0.00000000000E+00  0.99999998245E-14  0.12500000000E+03  0.12500000000E+03 0.  0.
        -11    1    1    0    0    0  0.12852836977E+02  0.20266889927E+02  0.52383633387E+01  0.24563849381E+02  0.51100000000E-03 0.  1.
         11    1    1    0    0    0  0.19860020396E+02  0.31281937747E+02  0.81346148587E+01  0.37936156876E+02  0.51100000000E-03 0. -1.
         22    1    1    0    0    0 -0.32712857373E+02 -0.51548827674E+02 -0.13372978197E+02  0.62499993744E+02  0.00000000000E+00 0. -1.
</event>
<event>
 4    1  0.1977788E-002  0.9118800E+02  0.7818608E-02  0.1130116E+00
         25   -1    0    0    0    0  0.00000000000E+00  0.00000000000E+00  0.99999998245E-14  0.12500000000E+03  0.12500000000E+03 0.  0.
        -11    1    1    0    0    0 -0.29239178522E+02  0.25516764082E+02  0.20004832184E+02  0.43660372431E+02  0.51100000000E-03 0. -1.
         11    1    1    0    0    0 -0.16915636370E+02  0.10287462752E+02 -0.67286527856E+00  0.19809679240E+02  0.51100000000E-03 0.  1.
         22    1    1    0    0    0  0.46154814892E+02 -0.35804226834E+02 -0.19331966905E+02  0.61529948328E+02  0.00000000000E+00 0. -1.
</event>
<event>
 4    1  0.1977788E-002  0.9118800E+02  0.7818608E-02  0.1130116E+00
         25   -1    0    0    0    0  0.00000000000E+00  0.00000000000E+00  0.99999998245E-14  0.12500000000E+03  0.12500000000E+03 0.  0.
        -11    1    1    0    0    0  0.19736340287E+02 -0.16114280393E+01  0.40734550515E+02  0.45292642164E+02  0.51100000000E-03 0. -1.
         11    1    1    0    0    0  0.74781003298E+01 -0.58104715848E+00  0.15486578176E+02  0.17207373541E+02  0.51100000000E-03 0.  1.
         22    1    1    0    0    0 -0.27214440617E+02  0.21924751978E+01 -0.56221128691E+02  0.62499984295E+02  0.00000000000E+00 0.  1.
</event>
<event>
 4    1  0.1977788E-002  0.9118800E+02  0.7818608E-02  0.1130116E+00
         25   -1    0    0    0    0  0.00000000000E+00  0.00000000000E+00  0.99999998245E-14  0.12500000000E+03  0.12500000000E+03 0.  0.
        -11    1    1    0    0    0  0.15972107269E+02 -0.22220836641E+02  0.15747406182E+02  0.31573004187E+02  0.51100000000E-03 0.  1.
         11    1    1    0    0    0  0.16709793663E+02 -0.22230044704E+02  0.13575422097E+02  0.30946472774E+02  0.51100000000E-03 0. -1.
         22    1    1    0    0    0 -0.32681900932E+02  0.44450881345E+02 -0.29322828280E+02  0.62480523039E+02  0.00000000000E+00 0.  1.
</event>
<event>
 4    1  0.1977788E-002  0.9118800E+02  0.7818608E-02  0.1130116E+00
         25   -1    0    0    0    0  0.00000000000E+00  0.00000000000E+00  0.99999998245E-14  0.12500000000E+03  0.12500000000E+03 0.  0.
        -11    1    1    0    0    0 -0.14220369189E+01 -0.24753121332E+02  0.25802931592E+01  0.24927838208E+02  0.51100000000E-03 0.  1.
         11    1    1    0    0    0 -0.21543108243E+01 -0.37321274633E+02  0.37619180949E+01  0.37572205463E+02  0.51100000000E-03 0. -1.
         22    1    1    0    0    0  0.35763477433E+01  0.62074395965E+02 -0.63422112541E+01  0.62499956329E+02  0.00000000000E+00 0. -1.
</event>
<event>
 4    1  0.1977788E-002  0.9118800E+02  0.7818608E-02  0.1130116E+00
         25   -1    0    0    0    0  0.00000000000E+00  0.00000000000E+00  0.99999998245E-14  0.12500000000E+03  0.12500000000E+03 0.  0.
        -11    1    1    0    0    0  0.80522434375E+01 -0.57703797872E+01  0.71689607341E+01  0.12228242128E+02  0.51100000000E-03 0. -1.
         11    1    1    0    0    0  0.33109302208E+02 -0.23730619997E+02  0.29459827674E+02  0.50271758125E+02  0.51100000000E-03 0. -1.
         22    1    1    0    0    0 -0.41161545645E+02  0.29500999785E+02 -0.36628788408E+02  0.62499999747E+02  0.00000000000E+00 0. -1.
</event>
<event>
 4    1  0.1977788E-002  0.9118800E+02  0.7818608E-02  0.1130116E+00
         25   -1    0    0    0    0  0.00000000000E+00  0.00000000000E+00  0.99999998245E-14  0.12500000000E+03  0.12500000000E+03 0.  0.
        -11    1    1    0    0    0 -0.58284351689E+00  0.12664997511E+01  0.79657084915E+00  0.16056941065E+01  0.51100000000E-03 0.  1.
         11    1    1    0    0    0 -0.16611690975E+02  0.52564588988E+02  0.25884821293E+02  0.60901627779E+02  0.51100000000E-03 0. -1.
         22    1    1    0    0    0  0.17194534491E+02 -0.53831088739E+02 -0.26681392142E+02  0.62492678114E+02  0.00000000000E+00 0. -1.
</event>
<event>
 4    1  0.1977788E-002  0.9118800E+02  0.7818608E-02  0.1130116E+00
         25   -1    0    0    0    0  0.00000000000E+00  0.00000000000E+00  0.99999998245E-14  0.12500000000E+03  0.12500000000E+03 0.  0.
        -11    1    1    0    0    0  0.12537204346E+01 -0.39264261600E+01 -0.83449142089E+01  0.93073213511E+01  0.51100000000E-03 0. -1.
         11    1    1    0    0    0  0.71819646544E+01 -0.22441672851E+02 -0.47689116030E+02  0.53192678863E+02  0.51100000000E-03 0.  1.
         22    1    1    0    0    0 -0.84356850890E+01  0.26368099011E+02  0.56034030239E+02  0.62499999786E+02  0.00000000000E+00 0.  1.
</event>
<event>
 4    1  0.1977788E-002  0.9118800E+02  0.7818608E-02  0.1130116E+00
         25   -1    0    0    0    0  0.00000000000E+00  0.00000000000E+00  0.99999998245E-14  0.12500000000E+03  0.12500000000E+03 0.  0.
        -11    1    1    0    0    0  0.38692905178E+02  0.17030804407E+02  0.47808769148E+01  0.42544635316E+02  0.51100000000E-03 0.  1.
         11    1    1    0    0    0  0.18148483125E+02  0.79890272714E+01  0.22415582989E+01  0.19955364701E+02  0.51100000000E-03 0.  1.
         22    1    1    0    0    0 -0.56841388303E+02 -0.25019831679E+02 -0.70224352137E+01  0.62499999982E+02  0.00000000000E+00 0.  1.
</event>
<event>
 4    1  0.1977788E-002  0.9118800E+02  0.7818608E-02  0.1130116E+00
         25   -1    0    0    0    0  0.00000000000E+00  0.00000000000E+00  0.99999998245E-14  0.12500000000E+03  0.12500000000E+03 0.  0.
        -11    1    1    0    0    0 -0.96841538742E+00 -0.43689924058E+02  0.19946052305E+02  0.48037405169E+02  0.51100000000E-03 0. -1.
         11    1    1    0    0    0 -0.32334266369E+00 -0.13156164718E+02  0.59981528755E+01  0.14462608988E+02  0.51100000000E-03 0.  1.
         22    1    1    0    0    0  0.12917580511E+01  0.56846088776E+02 -0.25944205180E+02  0.62499985843E+02  0.00000000000E+00 0. -1.
</event>
<event>
 4    1  0.1977788E-002  0.9118800E+02  0.7818608E-02  0.1130116E+00
         25   -1    0    0    0    0  0.00000000000E+00  0.00000000000E+00  0.99999998245E-14  0.12500000000E+03  0.12500000000E+03 0.  0.
        -11    1    1    0    0    0  0.94155226484E+01 -0.15644187321E+02  0.50945048384E+02  0.54118302068E+02  0.51100000000E-03 0.  1.
         11    1    1    0    0    0  0.13933891799E+01 -0.23546790362E+01  0.79228221840E+01  0.83819543301E+01  0.51100000000E-03 0. -1.
         22    1    1    0    0    0 -0.10808911828E+02  0.17998866358E+02 -0.58867870568E+02  0.62499743602E+02  0.00000000000E+00 0. -1.
</event>
<event>
 4    1  0.1977788E-002  0.9118800E+02  0.7818608E-02  0.1130116E+00
         25   -1    0    0    0    0  0.00000000000E+00  0.00000000000E+00  0.99999998245E-14  0.12500000000E+03  0.12500000000E+03 0.  0.
        -11    1    1    0    0    0  0.11961706663E+02 -0.69305654732E+01  0.50234486233E+02  0.52102003526E+02  0.51100000000E-03 0.  1.
         11    1    1    0    0    0  0.14250285315E+02 -0.31356900742E+01  0.83875417848E+00  0.14615289687E+02  0.51100000000E-03 0. -1.
         22    1    1    0    0    0 -0.26211991979E+02  0.10066255547E+02 -0.51073240412E+02  0.58282706787E+02  0.00000000000E+00 0.  1.
</event>
<event>
 4    1  0.1977788E-002  0.9118800E+02  0.7818608E-02  0.1130116E+00
         25   -1    0    0    0    0  0.00000000000E+00  0.00000000000E+00  0.99999998245E-14  0.12500000000E+03  0.12500000000E+03 0.  0.
        -11    1    1    0    0    0  0.16603754095E+02 -0.43592892957E+01  0.12022803857E+01  0.17208530779E+02  0.51100000000E-03 0.  1.
         11    1    1    0    0    0  0.42422295506E+02 -0.16001985548E+02 -0.10460345391E+01  0.45352054926E+02  0.51100000000E-03 0. -1.
         22    1    1    0    0    0 -0.59026049601E+02  0.20361274844E+02 -0.15624584663E+00  0.62439414295E+02  0.00000000000E+00 0. -1.
</event>
<event>
 4    1  0.1977788E-002  0.9118800E+02  0.7818608E-02  0.1130116E+00
         25   -1    0    0    0    0  0.00000000000E+00  0.00000000000E+00  0.99999998245E-14  0.12500000000E+03  0.12500000000E+03 0.  0.
        -11    1    1    0    0    0  0.45810965687E+02  0.35453447370E+02  0.12271792381E+02  0.59213076226E+02  0.51100000000E-03 0.  1.
         11    1    1    0    0    0  0.28792768488E+01  0.17070064979E+01 -0.16547572221E+00  0.33513413481E+01  0.51100000000E-03 0. -1.
         22    1    1    0    0    0 -0.48690242536E+02 -0.37160453868E+02 -0.12106316658E+02  0.62435582426E+02  0.00000000000E+00 0.  1.
</event>
<event>
 4    1  0.1977788E-002  0.9118800E+02  0.7818608E-02  0.1130116E+00
         25   -1    0    0    0    0  0.00000000000E+00  0.00000000000E+00  0.99999998245E-14  0.12500000000E+03  0.12500000000E+03 0.  0.
        -11    1    1    0    0    0  0.63705720102E+00  0.69235424930E+00  0.18105843683E+01  0.20404441428E+01  0.51100000000E-03 0. -1.
         11    1    1    0    0    0  0.18835598907E+02  0.20445112098E+02  0.53689623180E+02  0.60459556998E+02  0.51100000000E-03 0.  1.
         22    1    1    0    0    0 -0.19472656108E+02 -0.21137466347E+02 -0.55500207549E+02  0.62499998859E+02  0.00000000000E+00 0.  1.
</event>
<event>
 4    1  0.1977788E-002  0.9118800E+02  0.7818608E-02  0.1130116E+00
         25   -1    0    0    0    0  0.00000000000E+00  0.00000000000E+00  0.99999998245E-14  0.12500000000E+03  0.12500000000E+03 0.  0.
        -11    1    1    0    0    0  0.46165999773E+01  0.63573081978E+01 -0.36303876097E+02  0.37144310235E+02  0.51100000000E-03 0. -1.
         11    1    1    0    0    0  0.24376240026E+01  0.14367630246E+01 -0.25251290046E+02  0.25409327973E+02  0.51100000000E-03 0.  1.
         22    1    1    0    0    0 -0.70542239799E+01 -0.77940712225E+01  0.61555166143E+02  0.62446361793E+02  0.00000000000E+00 0. -1.
</event>
<event>
 4    1  0.1977788E-002  0.9118800E+02  0.7818608E-02  0.1130116E+00
         25   -1    0    0    0    0  0.00000000000E+00  0.00000000000E+00  0.99999998245E-14  0.12500000000E+03  0.12500000000E+03 0.  0.
        -11    1    1    0    0    0  0.60905351774E+00  0.57320003401E+00  0.35647375955E+00  0.90916349950E+00  0.51100000000E-03 0. -1.
         11    1    1    0    0    0  0.41361345913E+02  0.38860983027E+02  0.23926860482E+02  0.61590840149E+02  0.51100000000E-03 0.  1.
         22    1    1    0    0    0 -0.41970399431E+02 -0.39434183061E+02 -0.24283334241E+02  0.62499996351E+02  0.00000000000E+00 0.  1.
</event>
<event>
 4    1  0.1977788E-002  0.9118800E+02  0.7818608E-02  0.1130116E+00
         25   -1    0    0    0    0  0.00000000000E+00  0.00000000000E+00  0.99999998245E-14  0.12500000000E+03  0.12500000000E+03 0.  0.
        -11    1    1    0    0    0  0.41908032156E+01  0.34612374842E+01  0.97639994342E+01  0.11174913052E+02  0.51100000000E-03 0. -1.
         11    1    1    0    0    0  0.67977324461E+01 -0.42732431686E+02  0.33237635100E+02  0.54561985590E+02  0.51100000000E-03 0.  1.
         22    1    1    0    0    0 -0.10988535662E+02  0.39271194201E+02 -0.43001634534E+02  0.59263101358E+02  0.00000000000E+00 0.  1.
</event>
<event>
 4    1  0.1977788E-002  0.9118800E+02  0.7818608E-02  0.1130116E+00
         25   -1    0    0    0    0  0.00000000000E+00  0.00000000000E+00  0.99999998245E-14  0.12500000000E+03  0.12500000000E+03 0.  0.
        -11    1    1    0    0    0  0.23036132271E+02  0.12039960947E+01  0.13543007832E+02  0.26749318833E+02  0.51100000000E-03 0.  1.
         11    1    1    0    0    0  0.30785487537E+02  0.16094990703E+01  0.18104543048E+02  0.35750681243E+02  0.51100000000E-03 0. -1.
         22    1    1    0    0    0 -0.53821619808E+02 -0.28134951650E+01 -0.31647550880E+02  0.62499999924E+02  0.00000000000E+00 0. -1.
</event>
<event>
 4    1  0.1977788E-002  0.9118800E+02  0.7818608E-02  0.1130116E+00
         25   -1    0    0    0    0  0.00000000000E+00  0.00000000000E+00  0.99999998245E-14  0.12500000000E+03  0.12500000000E+03 0.  0.
        -11    1    1    0    0    0 -0.18284383962E+02 -0.33375062843E+02 -0.12815147174E+02  0.40155217768E+02  0.51100000000E-03 0. -1.
         11    1    1    0    0    0 -0.10158935475E+02 -0.18612854607E+02 -0.70462682529E+01  0.22344847799E+02  0.51100000000E-03 0.  1.
         22    1    1    0    0    0  0.28443319437E+02  0.51987917450E+02  0.19861415427E+02  0.62499934433E+02  0.00000000000E+00 0. -1.
</event>
<event>
 4    1  0.1977788E-002  0.9118800E+02  0.7818608E-02  0.1130116E+00
         25   -1    0    0    0    0  0.00000000000E+00  0.00000000000E+00  0.99999998245E-14  0.12500000000E+03  0.12500000000E+03 0.  0.
        -11    1    1    0    0    0 -0.14692952178E+01  0.16108695932E+01  0.12587636045E+01  0.25175812512E+01  0.51100000000E-03 0.  1.
         11    1    1    0    0    0 -0.36664150963E+02  0.36713225569E+02  0.30097859795E+02  0.59983348206E+02  0.51100000000E-03 0. -1.
         22    1    1    0    0    0  0.38133446181E+02 -0.38324095163E+02 -0.31356623400E+02  0.62499070542E+02  0.00000000000E+00 0. -1.
</event>
<event>
 4    1  0.1977788E-002  0.9118800E+02  0.7818608E-02  0.1130116E+00
         25   -1    0    0    0    0  0.00000000000E+00  0.00000000000E+00  0.99999998245E-14  0.12500000000E+03  0.12500000000E+03 0.  0.
        -11    1    1    0    0    0  0.58617360715E+01 -0.18244085154E+02 -0.16380686001E+02  0.25209789110E+02  0.51100000000E-03 0. -1.
         11    1    1    0    0    0  0.86703449826E+01 -0.26987013595E+02 -0.24229858511E+02  0.37290210895E+02  0.51100000000E-03 0. -1.
         22    1    1    0    0    0 -0.14532081054E+02  0.45231098748E+02  0.40610544512E+02  0.62499999994E+02  0.00000000000E+00 0. -1.
</event>
<event>
 4    1  0.1977788E-002  0.9118800E+02  0.7818608E-02  0.1130116E+00
         25   -1    0    0    0    0  0.00000000000E+00  0.00000000000E+00  0.99999998245E-14  0.12500000000E+03  0.12500000000E+03 0.  0.
        -11    1    1    0    0    0  0.47055160076E+01  0.23134291697E+02 -0.10485585636E+02  0.25831857068E+02  0.51100000000E-03 0.  1.
         11    1    1    0    0    0  0.66760074567E+01  0.32836677219E+02 -0.14890811673E+02  0.36668143107E+02  0.51100000000E-03 0. -1.
         22    1    1    0    0    0 -0.11381523464E+02 -0.55970968916E+02  0.25376397309E+02  0.62499999825E+02  0.00000000000E+00 0. -1.
</event>
<event>
 4    1  0.1977788E-002  0.9118800E+02  0.7818608E-02  0.1130116E+00
         25   -1    0    0    0    0  0.00000000000E+00  0.00000000000E+00  0.99999998245E-14  0.12500000000E+03  0.12500000000E+03 0.  0.
        -11    1    1    0    0    0 -0.29375010187E+02 -0.21058372698E+02  0.81126215186E+00  0.36152516244E+02  0.51100000000E-03 0.  1.
         11    1    1    0    0    0 -0.22100222656E+02 -0.14361342664E+02  0.10269074466E+00  0.26356755305E+02  0.51100000000E-03 0. -1.
         22    1    1    0    0    0  0.51475232843E+02  0.35419715362E+02 -0.91395289652E+00  0.62490728452E+02  0.00000000000E+00 0.  1.
</event>
<event>
 4    1  0.1977788E-002  0.9118800E+02  0.7818608E-02  0.1130116E+00
         25   -1    0    0    0    0  0.00000000000E+00  0.00000000000E+00  0.99999998245E-14  0.12500000000E+03  0.12500000000E+03 0.  0.
        -11    1    1    0    0    0  0.30567308515E+01 -0.39461464754E+01 -0.26731030496E+01  0.56622571187E+01  0.51100000000E-03 0.  1.
         11    1    1    0    0    0  0.33312249402E+02 -0.39067558976E+02 -0.24395581150E+02  0.56842981136E+02  0.51100000000E-03 0. -1.
         22    1    1    0    0    0 -0.36368980253E+02  0.43013705451E+02  0.27068684199E+02  0.62494761745E+02  0.00000000000E+00 0. -1.
</event>
<event>
 4    1  0.1977788E-002  0.9118800E+02  0.7818608E-02  0.1130116E+00
         25   -1    0    0    0    0  0.00000000000E+00  0.00000000000E+00  0.99999998245E-14  0.12500000000E+03  0.12500000000E+03 0.  0.
        -11    1    1    0    0    0  0.13408084350E+02  0.38425595731E+02  0.36445132747E+02  0.54631042773E+02  0.51100000000E-03 0.  1.
         11    1    1    0    0    0  0.19313530695E+01  0.55345674920E+01  0.52496595852E+01  0.78689572387E+01  0.51100000000E-03 0.  1.
         22    1    1    0    0    0 -0.15339437420E+02 -0.43960163223E+02 -0.41694792333E+02  0.62499999989E+02  0.00000000000E+00 0.  1.
</event>
<event>
 4    1  0.1977788E-002  0.9118800E+02  0.7818608E-02  0.1130116E+00
         25   -1    0    0    0    0  0.00000000000E+00  0.00000000000E+00  0.99999998245E-14  0.12500000000E+03  0.12500000000E+03 0.  0.
        -11    1    1    0    0    0  0.85983857487E+01  0.74026999227E+01 -0.12641975789E+02  0.16986811229E+02  0.51100000000E-03 0.  1.
         11    1    1    0    0    0  0.39990592396E+01  0.23134792141E+02 -0.39697724309E+02  0.46120715496E+02  0.51100000000E-03 0. -1.
         22    1    1    0    0    0 -0.12597444988E+02 -0.30537492064E+02  0.52339700098E+02  0.61892473275E+02  0.00000000000E+00 0. -1.
</event>
<event>
 4    1  0.1977788E-002  0.9118800E+02  0.7818608E-02  0.1130116E+00
         25   -1    0    0    0    0  0.00000000000E+00  0.00000000000E+00  0.99999998245E-14  0.12500000000E+03  0.12500000000E+03 0.  0.
        -11    1    1    0    0    0 -0.29894616142E+02  0.99022639789E+01  0.34866263589E+02  0.46982967586E+02  0.51100000000E-03 0.  1.
         11    1    1    0    0    0 -0.98675648247E+01  0.32720115996E+01  0.11519697045E+02  0.15517033084E+02  0.51100000000E-03 0. -1.
         22    1    1    0    0    0  0.39762180967E+02 -0.13174275579E+02 -0.46385960634E+02  0.62499999330E+02  0.00000000000E+00 0. -1.
</event>
<event>
 4    1  0.1977788E-002  0.9118800E+02  0.7818608E-02  0.1130116E+00
         25   -1    0    0    0    0  0.00000000000E+00  0.00000000000E+00  0.99999998245E-14  0.12500000000E+03  0.12500000000E+03 0.  0.
        -11    1    1    0    0    0 -0.22164819985E+02 -0.23090799303E+02 -0.99768280559E+01  0.33526129448E+02  0.51100000000E-03 0. -1.
         11    1    1    0    0    0 -0.19031383872E+02 -0.19995297080E+02 -0.88030113921E+01  0.28974100284E+02  0.51100000000E-03 0.  1.
         22    1    1    0    0    0  0.41196203858E+02  0.43086096384E+02  0.18779839448E+02  0.62499770268E+02  0.00000000000E+00 0. -1.
</event>
<event>
 4    1  0.1977788E-002  0.9118800E+02  0.7818608E-02  0.1130116E+00
         25   -1    0    0    0    0  0.00000000000E+00  0.00000000000E+00  0.99999998245E-14  0.12500000000E+03  0.12500000000E+03 0.  0.
        -11    1    1    0    0    0 -0.25244653824E+00  0.54947468866E+00 -0.19438595038E+02  0.19447998072E+02  0.51100000000E-03 0.  1.
         11    1    1    0    0    0 -0.55846300471E+00  0.12174952895E+01 -0.43031159579E+02  0.43052001936E+02  0.51100000000E-03 0.  1.
         22    1    1    0    0    0  0.81090954295E+00 -0.17669699781E+01  0.62469754617E+02  0.62499999993E+02  0.00000000000E+00 0.  1.
</event>
<event>
 4    1  0.1977788E-002  0.9118800E+02  0.7818608E-02  0.1130116E+00
         25   -1    0    0    0    0  0.00000000000E+00  0.00000000000E+00  0.99999998245E-14  0.12500000000E+03  0.12500000000E+03 0.  0.
        -11    1    1    0    0    0 -0.30554109403E+02 -0.23965757719E+02  0.26590310884E+02  0.47063316687E+02  0.51100000000E-03 0. -1.
         11    1    1    0    0    0 -0.10089836540E+02 -0.73336154802E+01  0.91030567691E+01  0.15441902739E+02  0.51100000000E-03 0.  1.
         22    1    1    0    0    0  0.40643945943E+02  0.31299373199E+02 -0.35693367653E+02  0.62494780573E+02  0.00000000000E+00 0. -1.
</event>
<event>
 4    1  0.1977788E-002  0.9118800E+02  0.7818608E-02  0.1130116E+00
         25   -1    0    0    0    0  0.00000000000E+00  0.00000000000E+00  0.99999998245E-14  0.12500000000E+03  0.12500000000E+03 0.  0.
        -11    1    1    0    0    0  0.11544800340E+02 -0.11547255997E+02  0.35297618433E+02  0.38891430975E+02  0.51100000000E-03 0. -1.
         11    1    1    0    0    0  0.70083674192E+01 -0.70095533575E+01  0.21426933501E+02  0.23608569030E+02  0.51100000000E-03 0. -1.
         22    1    1    0    0    0 -0.18553167760E+02  0.18556809355E+02 -0.56724551933E+02  0.62499999995E+02  0.00000000000E+00 0. -1.
</event>
<event>
 4    1  0.1977788E-002  0.9118800E+02  0.7818608E-02  0.1130116E+00
         25   -1    0    0    0    0  0.00000000000E+00  0.00000000000E+00  0.99999998245E-14  0.12500000000E+03  0.12500000000E+03 0.  0.
        -11    1    1    0    0    0 -0.11421045711E+02 -0.45905356917E+01  0.15974908475E+02  0.20167077233E+02  0.51100000000E-03 0.  1.
         11    1    1    0    0    0 -0.23975746165E+02 -0.96353480958E+01  0.33532074403E+02  0.42332922780E+02  0.51100000000E-03 0.  1.
         22    1    1    0    0    0  0.35396791876E+02  0.14225883788E+02 -0.49506982878E+02  0.62499999987E+02  0.00000000000E+00 0.  1.
</event>
<event>
 4    1  0.1977788E-002  0.9118800E+02  0.7818608E-02  0.1130116E+00
         25   -1    0    0    0    0  0.00000000000E+00  0.00000000000E+00  0.99999998245E-14  0.12500000000E+03  0.12500000000E+03 0.  0.
        -11    1    1    0    0    0  0.37409897161E+02 -0.19626969695E+02 -0.21194367438E+02  0.47264358203E+02  0.51100000000E-03 0.  1.
         11    1    1    0    0    0  0.12062143535E+02 -0.63171190925E+01 -0.68354607565E+01  0.15235643219E+02  0.51100000000E-03 0. -1.
         22    1    1    0    0    0 -0.49472040696E+02  0.25944088788E+02  0.28029828194E+02  0.62499998578E+02  0.00000000000E+00 0.  1.
</event>
<event>
 4    1  0.1977788E-002  0.9118800E+02  0.7818608E-02  0.1130116E+00
         25   -1    0    0    0    0  0.00000000000E+00  0.00000000000E+00  0.99999998245E-14  0.12500000000E+03  0.12500000000E+03 0.  0.
        -11    1    1    0    0    0  0.34206864369E+01  0.11138821039E+02  0.53880085992E+01  0.12837642570E+02  0.51100000000E-03 0.  1.
         11    1    1    0    0    0  0.12375024633E+02  0.48081988566E+02  0.53545812631E+01  0.49936864138E+02  0.51100000000E-03 0. -1.
         22    1    1    0    0    0 -0.15795711070E+02 -0.59220809605E+02 -0.10742589862E+02  0.62225493292E+02  0.00000000000E+00 0. -1.
</event>
<event>
 4    1  0.1977788E-002  0.9118800E+02  0.7818608E-02  0.1130116E+00
         25   -1    0    0    0    0  0.00000000000E+00  0.00000000000E+00  0.99999998245E-14  0.12500000000E+03  0.12500000000E+03 0.  0.
        -11    1    1    0    0    0 -0.13253013448E+02  0.18365568661E+02  0.28714981141E+02  0.36571664166E+02  0.51100000000E-03 0.  1.
         11    1    1    0    0    0 -0.10897287864E+02  0.12752179456E+02  0.19791017789E+02  0.25943271750E+02  0.51100000000E-03 0. -1.
         22    1    1    0    0    0  0.24150301312E+02 -0.31117748117E+02 -0.48505998931E+02  0.62485064084E+02  0.00000000000E+00 0.  1.
</event>
<event>
 4    1  0.1977788E-002  0.9118800E+02  0.7818608E-02  0.1130116E+00
         25   -1    0    0    0    0  0.00000000000E+00  0.00000000000E+00  0.99999998245E-14  0.12500000000E+03  0.12500000000E+03 0.  0.
        -11    1    1    0    0    0 -0.50477459066E+02 -0.10518960362E+02 -0.63356581317E+01  0.51949619489E+02  0.51100000000E-03 0. -1.
         11    1    1    0    0    0 -0.10251282780E+02 -0.21376465313E+01 -0.12853789309E+01  0.10550380590E+02  0.51100000000E-03 0.  1.
         22    1    1    0    0    0  0.60728741846E+02  0.12656606894E+02  0.76210370626E+01  0.62499999921E+02  0.00000000000E+00 0. -1.
</event>
<event>
 4    1  0.1977788E-002  0.9118800E+02  0.7818608E-02  0.1130116E+00
         25   -1    0    0    0    0  0.00000000000E+00  0.00000000000E+00  0.99999998245E-14  0.12500000000E+03  0.12500000000E+03 0.  0.
        -11    1    1    0    0    0  0.30343934384E+02  0.13746056780E+02  0.10372319797E+02  0.34889732717E+02  0.51100000000E-03 0. -1.
         11    1    1    0    0    0  0.23611498346E+02  0.11983311920E+02  0.78514807335E+01  0.27617899425E+02  0.51100000000E-03 0.  1.
         22    1    1    0    0    0 -0.53955432729E+02 -0.25729368699E+02 -0.18223800530E+02  0.62492367857E+02  0.00000000000E+00 0. -1.
</event>
<event>
 4    1  0.1977788E-002  0.9118800E+02  0.7818608E-02  0.1130116E+00
         25   -1    0    0    0    0  0.00000000000E+00  0.00000000000E+00  0.99999998245E-14  0.12500000000E+03  0.12500000000E+03 0.  0.
        -11    1    1    0    0    0 -0.24412671191E+02 -0.18089225976E+02  0.46370698559E+02  0.55438617373E+02  0.51100000000E-03 0. -1.
         11    1    1    0    0    0 -0.30310131425E+01 -0.24200187297E+01  0.59015505178E+01  0.70619990156E+01  0.51100000000E-03 0.  1.
         22    1    1    0    0    0  0.27443684334E+02  0.20509244705E+02 -0.52272249077E+02  0.62499383611E+02  0.00000000000E+00 0. -1.
</event>
<event>
 4    1  0.1977788E-002  0.9118800E+02  0.7818608E-02  0.1130116E+00
         25   -1    0    0    0    0  0.00000000000E+00  0.00000000000E+00  0.99999998245E-14  0.12500000000E+03  0.12500000000E+03 0.  0.
        -11    1    1    0    0    0 -0.11851093506E+02 -0.44791920038E+01 -0.60295543284E+01  0.14030933823E+02  0.51100000000E-03 0. -1.
         11    1    1    0    0    0  0.21371255667E+02  0.54949452155E+02 -0.19568311552E+01  0.58991542185E+02  0.51100000000E-03 0.  1.
         22    1    1    0    0    0 -0.95201621617E+01 -0.50470260151E+02  0.79863854837E+01  0.51977523992E+02  0.00000000000E+00 0.  1.
</event>
<event>
 4    1  0.1977788E-002  0.9118800E+02  0.7818608E-02  0.1130116E+00
         25   -1    0    0    0    0  0.00000000000E+00  0.00000000000E+00  0.99999998245E-14  0.12500000000E+03  0.12500000000E+03 0.  0.
        -11    1    1    0    0    0 -0.23242339286E+02 -0.23516075005E+02  0.41835916107E+02  0.53324065823E+02  0.51100000000E-03 0. -1.
         11    1    1    0    0    0 -0.48461737268E+01 -0.38721354158E+01  0.67903778803E+01  0.91971769847E+01  0.51100000000E-03 0.  1.
         22    1    1    0    0    0  0.28088513013E+02  0.27388210421E+02 -0.48626293987E+02  0.62478757192E+02  0.00000000000E+00 0. -1.
</event>
<event>
 4    1  0.1977788E-002  0.9118800E+02  0.7818608E-02  0.1130116E+00
         25   -1    0    0    0    0  0.00000000000E+00  0.00000000000E+00  0.99999998245E-14  0.12500000000E+03  0.12500000000E+03 0.  0.
        -11    1    1    0    0    0  0.15841837452E+02 -0.43028818493E+02  0.25318046633E+02  0.52377920160E+02  0.51100000000E-03 0. -1.
         11    1    1    0    0    0  0.30590545052E+01 -0.83161846769E+01  0.48928274874E+01  0.10122079980E+02  0.51100000000E-03 0.  1.
         22    1    1    0    0    0 -0.18900891957E+02  0.51345003170E+02 -0.30210874120E+02  0.62499999859E+02  0.00000000000E+00 0. -1.
</event>
<event>
 4    1  0.1977788E-002  0.9118800E+02  0.7818608E-02  0.1130116E+00
         25   -1    0    0    0    0  0.00000000000E+00  0.00000000000E+00  0.99999998245E-14  0.12500000000E+03  0.12500000000E+03 0.  0.
        -11    1    1    0    0    0 -0.42288143647E+01 -0.11069072393E+02 -0.53291328265E+01  0.12992570628E+02  0.51100000000E-03 0. -1.
         11    1    1    0    0    0 -0.16065143830E+02 -0.42182989955E+02 -0.20334512659E+02  0.49507432707E+02  0.51100000000E-03 0.  1.
         22    1    1    0    0    0  0.20293958195E+02  0.53252062348E+02  0.25663645486E+02  0.62499996666E+02  0.00000000000E+00 0. -1.
</event>
<event>
 4    1  0.1977788E-002  0.9118800E+02  0.7818608E-02  0.1130116E+00
         25   -1    0    0    0    0  0.00000000000E+00  0.00000000000E+00  0.99999998245E-14  0.12500000000E+03  0.12500000000E+03 0.  0.
        -11    1    1    0    0    0  0.10158384393E+02  0.59919451135E+01  0.44330605548E+02  0.45872636378E+02  0.51100000000E-03 0.  1.
         11    1    1    0    0    0 -0.96843768361E+01  0.27299426315E+01  0.15600092275E+02  0.18563475449E+02  0.51100000000E-03 0. -1.
         22    1    1    0    0    0 -0.47400755716E+00 -0.87218877450E+01 -0.59930697824E+02  0.60563888173E+02  0.00000000000E+00 0.  1.
</event>
<event>
 4    1  0.1977788E-002  0.9118800E+02  0.7818608E-02  0.1130116E+00
         25   -1    0    0    0    0  0.00000000000E+00  0.00000000000E+00  0.99999998245E-14  0.12500000000E+03  0.12500000000E+03 0.  0.
        -11    1    1    0    0    0 -0.57664052776E+01 -0.69888245191E+01  0.63951577151E+01  0.11090227250E+02  0.51100000000E-03 0. -1.
         11    1    1    0    0    0 -0.26732597451E+02 -0.32389952249E+02  0.29651711086E+02  0.51409772843E+02  0.51100000000E-03 0.  1.
         22    1    1    0    0    0  0.32499002729E+02  0.39378776768E+02 -0.36046868801E+02  0.62499999908E+02  0.00000000000E+00 0.  1.
</event>
<event>
 4    1  0.1977788E-002  0.9118800E+02  0.7818608E-02  0.1130116E+00
         25   -1    0    0    0    0  0.00000000000E+00  0.00000000000E+00  0.99999998245E-14  0.12500000000E+03  0.12500000000E+03 0.  0.
        -11    1    1    0    0    0 -0.80579844556E+01  0.47341454098E+02  0.28867620169E+02  0.56031097474E+02  0.51100000000E-03 0.  1.
         11    1    1    0    0    0 -0.56410804593E+00  0.55708536017E+01  0.32499595357E+01  0.64741690574E+01  0.51100000000E-03 0. -1.
         22    1    1    0    0    0  0.86220925016E+01 -0.52912307700E+02 -0.32117579705E+02  0.62494733469E+02  0.00000000000E+00 0.  1.
</event>
<event>
 4    1  0.1977788E-002  0.9118800E+02  0.7818608E-02  0.1130116E+00
         25   -1    0    0    0    0  0.00000000000E+00  0.00000000000E+00  0.99999998245E-14  0.12500000000E+03  0.12500000000E+03 0.  0.
        -11    1    1    0    0    0 -0.43794112650E+02  0.11877132124E+02  0.22914824761E+02  0.50833844675E+02  0.51100000000E-03 0.  1.
         11    1    1    0    0    0 -0.10050718857E+02  0.27253640547E+01  0.52587661368E+01  0.11666155335E+02  0.51100000000E-03 0.  1.
         22    1    1    0    0    0  0.53844831507E+02 -0.14602496179E+02 -0.28173590898E+02  0.62499999990E+02  0.00000000000E+00 0.  1.
</event>
<event>
 4    1  0.1977788E-002  0.9118800E+02  0.7818608E-02  0.1130116E+00
         25   -1    0    0    0    0  0.00000000000E+00  0.00000000000E+00  0.99999998245E-14  0.12500000000E+03  0.12500000000E+03 0.  0.
        -11    1    1    0    0    0  0.11903296617E+02  0.16091096671E+01 -0.25394644767E+02  0.28092092969E+02  0.51100000000E-03 0. -1.
         11    1    1    0    0    0  0.14553955431E+02  0.18945766943E+01 -0.31120709247E+02  0.34407929084E+02  0.51100000000E-03 0.  1.
         22    1    1    0    0    0 -0.26457252048E+02 -0.35036863614E+01  0.56515354014E+02  0.62499977947E+02  0.00000000000E+00 0.  1.
</event>
<event>
 4    1  0.1977788E-002  0.9118800E+02  0.7818608E-02  0.1130116E+00
         25   -1    0    0    0    0  0.00000000000E+00  0.00000000000E+00  0.99999998245E-14  0.12500000000E+03  0.12500000000E+03 0.  0.
        -11    1    1    0    0    0 -0.20252819295E+02 -0.15764959207E+02  0.19201391938E+02  0.32053144632E+02  0.51100000000E-03 0. -1.
         11    1    1    0    0    0 -0.19238550464E+02 -0.14976758256E+02  0.18236937578E+02  0.30446855409E+02  0.51100000000E-03 0.  1.
         22    1    1    0    0    0  0.39491369759E+02  0.30741717463E+02 -0.37438329515E+02  0.62499999959E+02  0.00000000000E+00 0. -1.
</event>
<event>
 4    1  0.1977788E-002  0.9118800E+02  0.7818608E-02  0.1130116E+00
         25   -1    0    0    0    0  0.00000000000E+00  0.00000000000E+00  0.99999998245E-14  0.12500000000E+03  0.12500000000E+03 0.  0.
        -11    1    1    0    0    0  0.15527180657E+02 -0.35136971731E+02  0.40682050353E+02  0.55952920771E+02  0.51100000000E-03 0.  1.
         11    1    1    0    0    0  0.18095270106E+01 -0.41135886954E+01  0.47611209644E+01  0.65470812623E+01  0.51100000000E-03 0. -1.
         22    1    1    0    0    0 -0.17336707667E+02  0.39250560427E+02 -0.45443171317E+02  0.62499997967E+02  0.00000000000E+00 0.  1.
</event>
<event>
 4    1  0.1977788E-002  0.9118800E+02  0.7818608E-02  0.1130116E+00
         25   -1    0    0    0    0  0.00000000000E+00  0.00000000000E+00  0.99999998245E-14  0.12500000000E+03  0.12500000000E+03 0.  0.
        -11    1    1    0    0    0 -0.86653583083E+01 -0.13385300075E+01  0.27952431150E+02  0.29295366607E+02  0.51100000000E-03 0.  1.
         11    1    1    0    0    0 -0.98186358369E+01 -0.15167846781E+01  0.31683456815E+02  0.33204633434E+02  0.51100000000E-03 0. -1.
         22    1    1    0    0    0  0.18483994145E+02  0.28553146856E+01 -0.59635887965E+02  0.62499999959E+02  0.00000000000E+00 0. -1.
</event>
<event>
 4    1  0.1977788E-002  0.9118800E+02  0.7818608E-02  0.1130116E+00
         25   -1    0    0    0    0  0.00000000000E+00  0.00000000000E+00  0.99999998245E-14  0.12500000000E+03  0.12500000000E+03 0.  0.
        -11    1    1    0    0    0 -0.66498216703E+01 -0.38447365878E+02 -0.79477493434E+01  0.39819427307E+02  0.51100000000E-03 0.  1.
         11    1    1    0    0    0 -0.37889899598E+01 -0.21898856428E+02 -0.45268112874E+01  0.22680572710E+02  0.51100000000E-03 0. -1.
         22    1    1    0    0    0  0.10438811630E+02  0.60346222306E+02  0.12474560631E+02  0.62499999982E+02  0.00000000000E+00 0.  1.
</event>
<event>
 4    1  0.1977788E-002  0.9118800E+02  0.7818608E-02  0.1130116E+00
         25   -1    0    0    0    0  0.00000000000E+00  0.00000000000E+00  0.99999998245E-14  0.12500000000E+03  0.12500000000E+03 0.  0.
        -11    1    1    0    0    0 -0.34848052983E+02 -0.34911657956E+02 -0.33338000283E+02  0.59536819877E+02  0.51100000000E-03 0. -1.
         11    1    1    0    0    0 -0.19813130235E+01 -0.17304907131E+01 -0.13872942673E+01  0.29740183339E+01  0.51100000000E-03 0.  1.
         22    1    1    0    0    0  0.36829366007E+02  0.36642148669E+02  0.34725294550E+02  0.62489161789E+02  0.00000000000E+00 0. -1.
</event>
<event>
 4    1  0.1977788E-002  0.9118800E+02  0.7818608E-02  0.1130116E+00
         25   -1    0    0    0    0  0.00000000000E+00  0.00000000000E+00  0.99999998245E-14  0.12500000000E+03  0.12500000000E+03 0.  0.
        -11    1    1    0    0    0 -0.85119557703E+00 -0.21885748924E+01  0.21322206164E+01  0.31718699514E+01  0.51100000000E-03 0. -1.
         11    1    1    0    0    0 -0.12129146789E+02 -0.43563003652E+02  0.38413152415E+02  0.59333142237E+02  0.51100000000E-03 0.  1.
         22    1    1    0    0    0  0.12980342366E+02  0.45751578545E+02 -0.40545373032E+02  0.62494987811E+02  0.00000000000E+00 0.  1.
</event>
<event>
 4    1  0.1977788E-002  0.9118800E+02  0.7818608E-02  0.1130116E+00
         25   -1    0    0    0    0  0.00000000000E+00  0.00000000000E+00  0.99999998245E-14  0.12500000000E+03  0.12500000000E+03 0.  0.
        -11    1    1    0    0    0 -0.78565636547E+01 -0.22662040959E+02  0.59475588818E+01  0.24711680433E+02  0.51100000000E-03 0. -1.
         11    1    1    0    0    0 -0.11994139016E+02 -0.34660427812E+02  0.90968431756E+01  0.37788320720E+02  0.51100000000E-03 0.  1.
         22    1    1    0    0    0  0.19850702671E+02  0.57322468771E+02 -0.15044402057E+02  0.62499998847E+02  0.00000000000E+00 0.  1.
</event>
<event>
 4    1  0.1977788E-002  0.9118800E+02  0.7818608E-02  0.1130116E+00
         25   -1    0    0    0    0  0.00000000000E+00  0.00000000000E+00  0.99999998245E-14  0.12500000000E+03  0.12500000000E+03 0.  0.
        -11    1    1    0    0    0 -0.28695037127E+01 -0.20935486426E+02  0.14429834517E+02  0.25588059088E+02  0.51100000000E-03 0.  1.
         11    1    1    0    0    0 -0.61631095750E+01 -0.36632116552E+02  0.60693392516E+01  0.37639510649E+02  0.51100000000E-03 0. -1.
         22    1    1    0    0    0  0.90326132878E+01  0.57567602978E+02 -0.20499173768E+02  0.61772430263E+02  0.00000000000E+00 0.  1.
</event>
<event>
 4    1  0.1977788E-002  0.9118800E+02  0.7818608E-02  0.1130116E+00
         25   -1    0    0    0    0  0.00000000000E+00  0.00000000000E+00  0.99999998245E-14  0.12500000000E+03  0.12500000000E+03 0.  0.
        -11    1    1    0    0    0 -0.35280145188E+01 -0.43166316587E+02  0.28225933128E+01  0.43402129065E+02  0.51100000000E-03 0.  1.
         11    1    1    0    0    0  0.81687948783E-01 -0.19143579537E+02 -0.59560858465E+00  0.19153017002E+02  0.51100000000E-03 0. -1.
         22    1    1    0    0    0  0.34463265700E+01  0.62309896124E+02 -0.22269847281E+01  0.62444853933E+02  0.00000000000E+00 0.  1.
</event>
<event>
 4    1  0.1977788E-002  0.9118800E+02  0.7818608E-02  0.1130116E+00
         25   -1    0    0    0    0  0.00000000000E+00  0.00000000000E+00  0.99999998245E-14  0.12500000000E+03  0.12500000000E+03 0.  0.
        -11    1    1    0    0    0  0.36116045008E+02 -0.90025204988E+01 -0.15212994712E+02  0.40210064545E+02  0.51100000000E-03 0.  1.
         11    1    1    0    0    0  0.20050570731E+02 -0.49068708415E+01 -0.84107759932E+01  0.22289995988E+02  0.51100000000E-03 0. -1.
         22    1    1    0    0    0 -0.56166615739E+02  0.13909391340E+02  0.23623770705E+02  0.62499939467E+02  0.00000000000E+00 0.  1.
</event>
<event>
 4    1  0.1977788E-002  0.9118800E+02  0.7818608E-02  0.1130116E+00
         25   -1    0    0    0    0  0.00000000000E+00  0.00000000000E+00  0.99999998245E-14  0.12500000000E+03  0.12500000000E+03 0.  0.
        -11    1    1    0    0    0  0.11500279269E+02  0.16658736443E+02 -0.14479932061E+02  0.24888518555E+02  0.51100000000E-03 0.  1.
         11    1    1    0    0    0 -0.37044038401E+02  0.40888372237E+01 -0.27827901808E+02  0.46512057471E+02  0.51100000000E-03 0. -1.
         22    1    1    0    0    0  0.25543759132E+02 -0.20747573667E+02  0.42307833868E+02  0.53599423973E+02  0.00000000000E+00 0. -1.
</event>
<event>
 4    1  0.1977788E-002  0.9118800E+02  0.7818608E-02  0.1130116E+00
         25   -1    0    0    0    0  0.00000000000E+00  0.00000000000E+00  0.99999998245E-14  0.12500000000E+03  0.12500000000E+03 0.  0.
        -11    1    1    0    0    0  0.16090024206E+02  0.38436128490E+02 -0.29849667936E+01  0.41774811541E+02  0.51100000000E-03 0. -1.
         11    1    1    0    0    0  0.79843015984E+01  0.19067796746E+02 -0.14844181960E+01  0.20725188597E+02  0.51100000000E-03 0.  1.
         22    1    1    0    0    0 -0.24074325804E+02 -0.57503925236E+02  0.44693849896E+01  0.62499999862E+02  0.00000000000E+00 0. -1.
</event>
<event>
 4    1  0.1977788E-002  0.9118800E+02  0.7818608E-02  0.1130116E+00
         25   -1    0    0    0    0  0.00000000000E+00  0.00000000000E+00  0.99999998245E-14  0.12500000000E+03  0.12500000000E+03 0.  0.
        -11    1    1    0    0    0 -0.43745061014E+01 -0.15503421961E+01 -0.55105881661E+01  0.72046128803E+01  0.51100000000E-03 0. -1.
         11    1    1    0    0    0 -0.33381160700E+02 -0.12318911706E+02 -0.42326525298E+02  0.55295499088E+02  0.51100000000E-03 0.  1.
         22    1    1    0    0    0  0.37755666801E+02  0.13869253902E+02  0.47837113465E+02  0.62499888032E+02  0.00000000000E+00 0.  1.
</event>
<event>
 4    1  0.1977788E-002  0.9118800E+02  0.7818608E-02  0.1130116E+00
         25   -1    0    0    0    0  0.00000000000E+00  0.00000000000E+00  0.99999998245E-14  0.12500000000E+03  0.12500000000E+03 0.  0.
        -11    1    1    0    0    0  0.10708832726E+02  0.31673881674E+02 -0.70686504197E+01  0.34174254895E+02  0.51100000000E-03 0.  1.
         11    1    1    0    0    0  0.92237669552E+01  0.26797258943E+02 -0.18949946164E+01  0.28403555561E+02  0.51100000000E-03 0. -1.
         22    1    1    0    0    0 -0.19932599681E+02 -0.58471140616E+02  0.89636450362E+01  0.62422189543E+02  0.00000000000E+00 0.  1.
</event>
<event>
 4    1  0.1977788E-002  0.9118800E+02  0.7818608E-02  0.1130116E+00
         25   -1    0    0    0    0  0.00000000000E+00  0.00000000000E+00  0.99999998245E-14  0.12500000000E+03  0.12500000000E+03 0.  0.
        -11    1    1    0    0    0  0.38869269089E-01  0.49070261434E+00 -0.66637612128E+01  0.66819169134E+01  0.51100000000E-03 0. -1.
         11    1    1    0    0    0  0.55003373585E+02 -0.21113414143E+02 -0.17368285186E+01  0.58942038784E+02  0.51100000000E-03 0.  1.
         22    1    1    0    0    0 -0.55042242854E+02  0.20622711529E+02  0.84005897314E+01  0.59376044302E+02  0.00000000000E+00 0.  1.
</event>
<event>
 4    1  0.1977788E-002  0.9118800E+02  0.7818608E-02  0.1130116E+00
         25   -1    0    0    0    0  0.00000000000E+00  0.00000000000E+00  0.99999998245E-14  0.12500000000E+03  0.12500000000E+03 0.  0.
        -11    1    1    0    0    0 -0.44512902394E+01 -0.48630682679E+01  0.68326579932E+01  0.94946634109E+01  0.51100000000E-03 0.  1.
         11    1    1    0    0    0 -0.25617008504E+02 -0.26024922795E+02  0.38421145577E+02  0.53006718054E+02  0.51100000000E-03 0. -1.
         22    1    1    0    0    0  0.30068298743E+02  0.30887991063E+02 -0.45253803570E+02  0.62498618535E+02  0.00000000000E+00 0. -1.
</event>
<event>
 4    1  0.1977788E-002  0.9118800E+02  0.7818608E-02  0.1130116E+00
         25   -1    0    0    0    0  0.00000000000E+00  0.00000000000E+00  0.99999998245E-14  0.12500000000E+03  0.12500000000E+03 0.  0.
        -11    1    1    0    0    0  0.66300667065E+01 -0.93250677756E+01 -0.58809147797E+01  0.12864673819E+02  0.51100000000E-03 0. -1.
         11    1    1    0    0    0  0.12439667536E+02  0.47673876446E+02 -0.28761078675E+02  0.57050359075E+02  0.51100000000E-03 0.  1.
         22    1    1    0    0    0 -0.19069734243E+02 -0.38348808670E+02  0.34641993455E+02  0.55084967106E+02  0.00000000000E+00 0.  1.
</event>
<event>
 4    1  0.1977788E-002  0.9118800E+02  0.7818608E-02  0.1130116E+00
         25   -1    0    0    0    0  0.00000000000E+00  0.00000000000E+00  0.99999998245E-14  0.12500000000E+03  0.12500000000E+03 0.  0.
        -11    1    1    0    0    0  0.50597105478E+01 -0.15091731688E+02 -0.42001367396E+01  0.16462143999E+02  0.51100000000E-03 0.  1.
         11    1    1    0    0    0  0.11300174387E+02 -0.24346999060E+02 -0.39295337219E+02  0.47587748758E+02  0.51100000000E-03 0. -1.
         22    1    1    0    0    0 -0.16359884935E+02  0.39438730748E+02  0.43495473959E+02  0.60950107243E+02  0.00000000000E+00 0. -1.
</event>
<event>
 4    1  0.1977788E-002  0.9118800E+02  0.7818608E-02  0.1130116E+00
         25   -1    0    0    0    0  0.00000000000E+00  0.00000000000E+00  0.99999998245E-14  0.12500000000E+03  0.12500000000E+03 0.  0.
        -11    1    1    0    0    0 -0.16797968222E+02 -0.32840563027E+02 -0.66081969895E+00  0.36893237852E+02  0.51100000000E-03 0. -1.
         11    1    1    0    0    0 -0.11643930643E+02 -0.22801972513E+02 -0.44200151981E+00  0.25606765452E+02  0.51100000000E-03 0.  1.
         22    1    1    0    0    0  0.28441898866E+02  0.55642535539E+02  0.11028212188E+01  0.62499996696E+02  0.00000000000E+00 0. -1.
</event>
<event>
 4    1  0.1977788E-002  0.9118800E+02  0.7818608E-02  0.1130116E+00
         25   -1    0    0    0    0  0.00000000000E+00  0.00000000000E+00  0.99999998245E-14  0.12500000000E+03  0.12500000000E+03 0.  0.
        -11    1    1    0    0    0 -0.15769102607E+02  0.64771607826E+01 -0.39586171109E+01  0.17501110208E+02  0.51100000000E-03 0. -1.
         11    1    1    0    0    0 -0.40539075671E+02  0.16688239898E+02 -0.10148220150E+02  0.44998893094E+02  0.51100000000E-03 0.  1.
         22    1    1    0    0    0  0.56308178278E+02 -0.23165400681E+02  0.14106837261E+02  0.62499996698E+02  0.00000000000E+00 0.  1.
</event>
<event>
 4    1  0.1977788E-002  0.9118800E+02  0.7818608E-02  0.1130116E+00
         25   -1    0    0    0    0  0.00000000000E+00  0.00000000000E+00  0.99999998245E-14  0.12500000000E+03  0.12500000000E+03 0.  0.
        -11    1    1    0    0    0 -0.27928121882E+01 -0.13302033228E+02  0.26381742361E+01  0.13845715997E+02  0.51100000000E-03 0.  1.
         11    1    1    0    0    0 -0.98206301064E+01 -0.46741477604E+02  0.92751741521E+01  0.48654284088E+02  0.51100000000E-03 0. -1.
         22    1    1    0    0    0  0.12613442295E+02  0.60043510832E+02 -0.11913348388E+02  0.62499999915E+02  0.00000000000E+00 0. -1.
</event>
<event>
 4    1  0.1977788E-002  0.9118800E+02  0.7818608E-02  0.1130116E+00
         25   -1    0    0    0    0  0.00000000000E+00  0.00000000000E+00  0.99999998245E-14  0.12500000000E+03  0.12500000000E+03 0.  0.
        -11    1    1    0    0    0 -0.31840172347E+01  0.25620311655E+01  0.18857441606E+00  0.40911526512E+01  0.51100000000E-03 0.  1.
         11    1    1    0    0    0 -0.45796142806E+02  0.36170234564E+02  0.24559918285E+01  0.58408941614E+02  0.51100000000E-03 0. -1.
         22    1    1    0    0    0  0.48980160041E+02 -0.38732265730E+02 -0.26445662446E+01  0.62499905735E+02  0.00000000000E+00 0. -1.
</event>
<event>
 4    1  0.1977788E-002  0.9118800E+02  0.7818608E-02  0.1130116E+00
         25   -1    0    0    0    0  0.00000000000E+00  0.00000000000E+00  0.99999998245E-14  0.12500000000E+03  0.12500000000E+03 0.  0.
        -11    1    1    0    0    0  0.10399256124E+02 -0.29332399592E+01  0.27720822751E+02  0.29752183766E+02  0.51100000000E-03 0. -1.
         11    1    1    0    0    0  0.83510920649E+01 -0.69357981374E+01  0.30986839015E+02  0.32833370629E+02  0.51100000000E-03 0.  1.
         22    1    1    0    0    0 -0.18750348189E+02  0.98690380966E+01 -0.58707661766E+02  0.62414445605E+02  0.00000000000E+00 0. -1.
</event>
<event>
 4    1  0.1977788E-002  0.9118800E+02  0.7818608E-02  0.1130116E+00
         25   -1    0    0    0    0  0.00000000000E+00  0.00000000000E+00  0.99999998245E-14  0.12500000000E+03  0.12500000000E+03 0.  0.
        -11    1    1    0    0    0 -0.50596386005E+01 -0.43586652776E+01  0.41636001902E+01  0.78697822444E+01  0.51100000000E-03 0.  1.
         11    1    1    0    0    0 -0.35133936837E+02 -0.30260092338E+02  0.28885879132E+02  0.54630218006E+02  0.51100000000E-03 0. -1.
         22    1    1    0    0    0  0.40193575437E+02  0.34618757615E+02 -0.33049479322E+02  0.62499999749E+02  0.00000000000E+00 0. -1.
</event>
<event>
 4    1  0.1977788E-002  0.9118800E+02  0.7818608E-02  0.1130116E+00
         25   -1    0    0    0    0  0.00000000000E+00  0.00000000000E+00  0.99999998245E-14  0.12500000000E+03  0.12500000000E+03 0.  0.
        -11    1    1    0    0    0  0.23789986672E+02 -0.96922211494E+01 -0.24540390321E+02  0.35526516492E+02  0.51100000000E-03 0. -1.
         11    1    1    0    0    0  0.18047841899E+02 -0.73747649046E+01 -0.18640204115E+02  0.26973486321E+02  0.51100000000E-03 0.  1.
         22    1    1    0    0    0 -0.41837828571E+02  0.17066986054E+02  0.43180594436E+02  0.62499997187E+02  0.00000000000E+00 0. -1.
</event>
<event>
 4    1  0.1977788E-002  0.9118800E+02  0.7818608E-02  0.1130116E+00
         25   -1    0    0    0    0  0.00000000000E+00  0.00000000000E+00  0.99999998245E-14  0.12500000000E+03  0.12500000000E+03 0.  0.
        -11    1    1    0    0    0  0.48403040006E+02  0.32186137746E+02  0.10699608624E+02  0.59104004685E+02  0.51100000000E-03 0.  1.
         11    1    1    0    0    0  0.27860863085E+01  0.18514377667E+01  0.58574525863E+00  0.33960560201E+01  0.51100000000E-03 0. -1.
         22    1    1    0    0    0 -0.51189126314E+02 -0.34037575513E+02 -0.11285353883E+02  0.62499939295E+02  0.00000000000E+00 0.  1.
</event>
<event>
 4    1  0.1977788E-002  0.9118800E+02  0.7818608E-02  0.1130116E+00
         25   -1    0    0    0    0  0.00000000000E+00  0.00000000000E+00  0.99999998245E-14  0.12500000000E+03  0.12500000000E+03 0.  0.
        -11    1    1    0    0    0 -0.19664793142E+02 -0.26827164250E+02 -0.23981564569E+02  0.41006295498E+02  0.51100000000E-03 0.  1.
         11    1    1    0    0    0 -0.10306851359E+02 -0.14059937071E+02 -0.12572442908E+02  0.21493704574E+02  0.51100000000E-03 0. -1.
         22    1    1    0    0    0  0.29971644501E+02  0.40887101321E+02  0.36554007477E+02  0.62499999929E+02  0.00000000000E+00 0.  1.
</event>
<event>
 4    1  0.1977788E-002  0.9118800E+02  0.7818608E-02  0.1130116E+00
         25   -1    0    0    0    0  0.00000000000E+00  0.00000000000E+00  0.99999998245E-14  0.12500000000E+03  0.12500000000E+03 0.  0.
        -11    1    1    0    0    0 -0.10822207725E+02  0.91059524454E+01  0.94920927543E+01  0.17033448714E+02  0.51100000000E-03 0.  1.
         11    1    1    0    0    0 -0.28861917310E+02  0.24331584676E+02  0.25341096675E+02  0.45466553252E+02  0.51100000000E-03 0. -1.
         22    1    1    0    0    0  0.39684125034E+02 -0.33437537122E+02 -0.34833189429E+02  0.62499998034E+02  0.00000000000E+00 0. -1.
</event>
<event>
 4    1  0.1977788E-002  0.9118800E+02  0.7818608E-02  0.1130116E+00
         25   -1    0    0    0    0  0.00000000000E+00  0.00000000000E+00  0.99999998245E-14  0.12500000000E+03  0.12500000000E+03 0.  0.
        -11    1    1    0    0    0  0.11077122681E+02  0.70077165917E+01  0.15534827700E+01  0.13199395732E+02  0.51100000000E-03 0. -1.
         11    1    1    0    0    0  0.41369839267E+02  0.26175391476E+02  0.58253685946E+01  0.49300604859E+02  0.51100000000E-03 0.  1.
         22    1    1    0    0    0 -0.52446961948E+02 -0.33183108068E+02 -0.73788513646E+01  0.62499999409E+02  0.00000000000E+00 0.  1.
</event>
<event>
 4    1  0.1977788E-002  0.9118800E+02  0.7818608E-02  0.1130116E+00
         25   -1    0    0    0    0  0.00000000000E+00  0.00000000000E+00  0.99999998245E-14  0.12500000000E+03  0.12500000000E+03 0.  0.
        -11    1    1    0    0    0 -0.18241654205E+01 -0.10902973295E+02  0.20666503736E+01  0.11246041534E+02  0.51100000000E-03 0.  1.
         11    1    1    0    0    0  0.36453754442E+01 -0.20273071172E+02  0.49417575102E+02  0.53538611358E+02  0.51100000000E-03 0. -1.
         22    1    1    0    0    0 -0.18212100237E+01  0.31176044467E+02 -0.51484225476E+02  0.60215347108E+02  0.00000000000E+00 0. -1.
</event>
<event>
 4    1  0.1977788E-002  0.9118800E+02  0.7818608E-02  0.1130116E+00
         25   -1    0    0    0    0  0.00000000000E+00  0.00000000000E+00  0.99999998245E-14  0.12500000000E+03  0.12500000000E+03 0.  0.
        -11    1    1    0    0    0 -0.31732268518E+02 -0.35499745078E+02 -0.40217596144E+02  0.62326750323E+02  0.51100000000E-03 0. -1.
         11    1    1    0    0    0 -0.85025989900E-01 -0.10075162827E+00 -0.11243844702E+00  0.17327139131E+00  0.51100000000E-03 0.  1.
         22    1    1    0    0    0  0.31817294508E+02  0.35600496707E+02  0.40330034591E+02  0.62499978286E+02  0.00000000000E+00 0. -1.
</event>
<event>
 4    1  0.1977788E-002  0.9118800E+02  0.7818608E-02  0.1130116E+00
         25   -1    0    0    0    0  0.00000000000E+00  0.00000000000E+00  0.99999998245E-14  0.12500000000E+03  0.12500000000E+03 0.  0.
        -11    1    1    0    0    0 -0.39699313649E+02  0.15855412469E+02  0.17168457753E+02  0.46067185182E+02  0.51100000000E-03 0. -1.
         11    1    1    0    0    0 -0.14163103435E+02  0.56475064767E+01  0.61277733233E+01  0.16432815781E+02  0.51100000000E-03 0.  1.
         22    1    1    0    0    0  0.53862417084E+02 -0.21502918945E+02 -0.23296231077E+02  0.62499999037E+02  0.00000000000E+00 0.  1.
</event>
<event>
 4    1  0.1977788E-002  0.9118800E+02  0.7818608E-02  0.1130116E+00
         25   -1    0    0    0    0  0.00000000000E+00  0.00000000000E+00  0.99999998245E-14  0.12500000000E+03  0.12500000000E+03 0.  0.
        -11    1    1    0    0    0 -0.86190738163E+01  0.13117239852E+02 -0.21403336597E+01  0.15840815737E+02  0.51100000000E-03 0. -1.
         11    1    1    0    0    0 -0.25279359649E+02  0.38698884416E+02 -0.63586271954E+01  0.46659209374E+02  0.51100000000E-03 0.  1.
         22    1    1    0    0    0  0.33898433465E+02 -0.51816124268E+02  0.84989608551E+01  0.62499974889E+02  0.00000000000E+00 0.  1.
</event>
<event>
 4    1  0.1977788E-002  0.9118800E+02  0.7818608E-02  0.1130116E+00
         25   -1    0    0    0    0  0.00000000000E+00  0.00000000000E+00  0.99999998245E-14  0.12500000000E+03  0.12500000000E+03 0.  0.
        -11    1    1    0    0    0  0.14517511843E+02  0.12209476970E+02 -0.32574765136E+02  0.37695421498E+02  0.51100000000E-03 0. -1.
         11    1    1    0    0    0  0.95967936108E+01  0.80336049118E+01 -0.21415661407E+02  0.24804592503E+02  0.51100000000E-03 0.  1.
         22    1    1    0    0    0 -0.24114305454E+02 -0.20243081881E+02  0.53990426543E+02  0.62499985999E+02  0.00000000000E+00 0. -1.
</event>
<event>
 4    1  0.1977788E-002  0.9118800E+02  0.7818608E-02  0.1130116E+00
         25   -1    0    0    0    0  0.00000000000E+00  0.00000000000E+00  0.99999998245E-14  0.12500000000E+03  0.12500000000E+03 0.  0.
        -11    1    1    0    0    0  0.14632560875E+02 -0.34937231802E+02  0.23209062449E+00  0.37878435423E+02  0.51100000000E-03 0. -1.
         11    1    1    0    0    0  0.94730197421E+01 -0.22725280012E+02  0.21634775662E+00  0.24621601517E+02  0.51100000000E-03 0.  1.
         22    1    1    0    0    0 -0.24105580617E+02  0.57662511814E+02 -0.44843838111E+00  0.62499963060E+02  0.00000000000E+00 0.  1.
</event>
<event>
 4    1  0.1977788E-002  0.9118800E+02  0.7818608E-02  0.1130116E+00
         25   -1    0    0    0    0  0.00000000000E+00  0.00000000000E+00  0.99999998245E-14  0.12500000000E+03  0.12500000000E+03 0.  0.
        -11    1    1    0    0    0  0.19837449092E+01 -0.27795570596E+01 -0.33490089617E+01  0.47829951494E+01  0.51100000000E-03 0.  1.
         11    1    1    0    0    0  0.24005499704E+02 -0.32920421457E+02 -0.40881019955E+02  0.57717206774E+02  0.51100000000E-03 0. -1.
         22    1    1    0    0    0 -0.25989244613E+02  0.35699978517E+02  0.44230028917E+02  0.62499798077E+02  0.00000000000E+00 0. -1.
</event>
<event>
 4    1  0.1977788E-002  0.9118800E+02  0.7818608E-02  0.1130116E+00
         25   -1    0    0    0    0  0.00000000000E+00  0.00000000000E+00  0.99999998245E-14  0.12500000000E+03  0.12500000000E+03 0.  0.
        -11    1    1    0    0    0 -0.27650747753E+01  0.10145783485E+02  0.27998847210E+01  0.10882183409E+02  0.51100000000E-03 0. -1.
         11    1    1    0    0    0 -0.21061897242E+02  0.16286783657E+02  0.46340892449E+02  0.53444748578E+02  0.51100000000E-03 0.  1.
         22    1    1    0    0    0  0.23826972017E+02 -0.26432567142E+02 -0.49140777170E+02  0.60673068013E+02  0.00000000000E+00 0.  1.
</event>
<event>
 4    1  0.1977788E-002  0.9118800E+02  0.7818608E-02  0.1130116E+00
         25   -1    0    0    0    0  0.00000000000E+00  0.00000000000E+00  0.99999998245E-14  0.12500000000E+03  0.12500000000E+03 0.  0.
        -11    1    1    0    0    0  0.23634364774E+02  0.61119274650E+01 -0.22790552072E+01  0.24518012736E+02  0.51100000000E-03 0.  1.
         11    1    1    0    0    0  0.36612684298E+02  0.94695251567E+01 -0.35314018314E+01  0.37981987275E+02  0.51100000000E-03 0.  1.
         22    1    1    0    0    0 -0.60247049072E+02 -0.15581452622E+02  0.58104570385E+01  0.62499999989E+02  0.00000000000E+00 0.  1.
</event>
<event>
 4    1  0.1977788E-002  0.9118800E+02  0.7818608E-02  0.1130116E+00
         25   -1    0    0    0    0  0.00000000000E+00  0.00000000000E+00  0.99999998245E-14  0.12500000000E+03  0.12500000000E+03 0.  0.
        -11    1    1    0    0    0  0.19778869633E+01 -0.47029655992E+01  0.17751800734E+01  0.54019613865E+01  0.51100000000E-03 0.  1.
         11    1    1    0    0    0  0.21033480243E+02 -0.49645852929E+02  0.18790128259E+02  0.57098046590E+02  0.51100000000E-03 0. -1.
         22    1    1    0    0    0 -0.23011367206E+02  0.54348818528E+02 -0.20565308332E+02  0.62499992023E+02  0.00000000000E+00 0. -1.
</event>
<event>
 4    1  0.1977788E-002  0.9118800E+02  0.7818608E-02  0.1130116E+00
         25   -1    0    0    0    0  0.00000000000E+00  0.00000000000E+00  0.99999998245E-14  0.12500000000E+03  0.12500000000E+03 0.  0.
        -11    1    1    0    0    0 -0.45044543762E+02  0.10839202797E+02 -0.80061003379E+01  0.47016985047E+02  0.51100000000E-03 0.  1.
         11    1    1    0    0    0 -0.14841495801E+02  0.36092488921E+01 -0.25360384390E+01  0.15483157507E+02  0.51100000000E-03 0. -1.
         22    1    1    0    0    0  0.59886039563E+02 -0.14448451689E+02  0.10542138777E+02  0.62499857446E+02  0.00000000000E+00 0.  1.
</event>
<event>
 4    1  0.1977788E-002  0.9118800E+02  0.7818608E-02  0.1130116E+00
         25   -1    0    0    0    0  0.00000000000E+00  0.00000000000E+00  0.99999998245E-14  0.12500000000E+03  0.12500000000E+03 0.  0.
        -11    1    1    0    0    0 -0.24355187708E+02 -0.44691731976E+02  0.33506070541E+02  0.60935891219E+02  0.51100000000E-03 0.  1.
         11    1    1    0    0    0 -0.14649272512E+01 -0.53697176855E+00  0.74678552655E+00  0.17297512582E+01  0.51100000000E-03 0. -1.
         22    1    1    0    0    0  0.25820114959E+02  0.45228703745E+02 -0.34252856068E+02  0.62334357522E+02  0.00000000000E+00 0.  1.
</event>
<event>
 4    1  0.1977788E-002  0.9118800E+02  0.7818608E-02  0.1130116E+00
         25   -1    0    0    0    0  0.00000000000E+00  0.00000000000E+00  0.99999998245E-14  0.12500000000E+03  0.12500000000E+03 0.  0.
        -11    1    1    0    0    0  0.40004766452E+02 -0.19306465188E+02 -0.27766268637E+02  0.52384030116E+02  0.51100000000E-03 0. -1.
         11    1    1    0    0    0  0.77390913920E+01 -0.38592209204E+01 -0.52495980969E+01  0.10116590440E+02  0.51100000000E-03 0.  1.
         22    1    1    0    0    0 -0.47743857844E+02  0.23165686108E+02  0.33015866734E+02  0.62499379444E+02  0.00000000000E+00 0. -1.
</event>
<event>
 4    1  0.1977788E-002  0.9118800E+02  0.7818608E-02  0.1130116E+00
         25   -1    0    0    0    0  0.00000000000E+00  0.00000000000E+00  0.99999998245E-14  0.12500000000E+03  0.12500000000E+03 0.  0.
        -11    1    1    0    0    0  0.14215950450E+02  0.12147126792E+02  0.30476678129E+01  0.18945559265E+02  0.51100000000E-03 0.  1.
         11    1    1    0    0    0  0.10019563313E+02  0.43793562490E+02 -0.37929889224E+01  0.45084970110E+02  0.51100000000E-03 0. -1.
         22    1    1    0    0    0 -0.24235513763E+02 -0.55940689283E+02  0.74532110949E+00  0.60969470625E+02  0.00000000000E+00 0. -1.
</event>
<event>
 4    1  0.1977788E-002  0.9118800E+02  0.7818608E-02  0.1130116E+00
         25   -1    0    0    0    0  0.00000000000E+00  0.00000000000E+00  0.99999998245E-14  0.12500000000E+03  0.12500000000E+03 0.  0.
        -11    1    1    0    0    0 -0.30929791859E+02 -0.57602683164E+01  0.31514985929E+02  0.44531191921E+02  0.51100000000E-03 0.  1.
         11    1    1    0    0    0 -0.12476301608E+02 -0.23196567107E+01  0.12721602788E+02  0.17968808720E+02  0.51100000000E-03 0. -1.
         22    1    1    0    0    0  0.43406093467E+02  0.80799250271E+01 -0.44236588717E+02  0.62499999359E+02  0.00000000000E+00 0.  1.
</event>
<event>
 4    1  0.1977788E-002  0.9118800E+02  0.7818608E-02  0.1130116E+00
         25   -1    0    0    0    0  0.00000000000E+00  0.00000000000E+00  0.99999998245E-14  0.12500000000E+03  0.12500000000E+03 0.  0.
        -11    1    1    0    0    0  0.10428251949E+02  0.23982339803E+02  0.16676981666E+02  0.31016492047E+02  0.51100000000E-03 0. -1.
         11    1    1    0    0    0  0.10041683163E+02  0.24027508554E+02  0.17700304209E+02  0.31487415540E+02  0.51100000000E-03 0.  1.
         22    1    1    0    0    0 -0.20469935112E+02 -0.48009848357E+02 -0.34377285875E+02  0.62496092413E+02  0.00000000000E+00 0. -1.
</event>
<event>
 4    1  0.1977788E-002  0.9118800E+02  0.7818608E-02  0.1130116E+00
         25   -1    0    0    0    0  0.00000000000E+00  0.00000000000E+00  0.99999998245E-14  0.12500000000E+03  0.12500000000E+03 0.  0.
        -11    1    1    0    0    0  0.23905905507E+02  0.12545988361E+02 -0.22121166380E+02  0.34903297041E+02  0.51100000000E-03 0.  1.
         11    1    1    0    0    0  0.18900278280E+02  0.99216842139E+01 -0.17490502539E+02  0.27596702992E+02  0.51100000000E-03 0. -1.
         22    1    1    0    0    0 -0.42806183787E+02 -0.22467672575E+02  0.39611668919E+02  0.62499999967E+02  0.00000000000E+00 0.  1.
</event>
<event>
 4    1  0.1977788E-002  0.9118800E+02  0.7818608E-02  0.1130116E+00
         25   -1    0    0    0    0  0.00000000000E+00  0.00000000000E+00  0.99999998245E-14  0.12500000000E+03  0.12500000000E+03 0.  0.
        -11    1    1    0    0    0  0.63527615390E+01  0.51159692129E+01  0.11874359054E+02  0.14405940558E+02  0.51100000000E-03 0. -1.
         11    1    1    0    0    0  0.21829784158E+02  0.15899146289E+02  0.39798543957E+02  0.48096220542E+02  0.51100000000E-03 0.  1.
         22    1    1    0    0    0 -0.28182545697E+02 -0.21015115502E+02 -0.51672903011E+02  0.62497838900E+02  0.00000000000E+00 0.  1.
</event>
<event>
 4    1  0.1977788E-002  0.9118800E+02  0.7818608E-02  0.1130116E+00
         25   -1    0    0    0    0  0.00000000000E+00  0.00000000000E+00  0.99999998245E-14  0.12500000000E+03  0.12500000000E+03 0.  0.
        -11    1    1    0    0    0  0.27712102044E+01 -0.11921331007E+02  0.51626090341E+00  0.12250072022E+02  0.51100000000E-03 0. -1.
         11    1    1    0    0    0  0.11366205593E+02 -0.48901707177E+02  0.21184116750E+01  0.50249927986E+02  0.51100000000E-03 0.  1.
         22    1    1    0    0    0 -0.14137415797E+02  0.60823038184E+02 -0.26346725784E+01  0.62499999991E+02  0.00000000000E+00 0.  1.
</event>
<event>
 4    1  0.1977788E-002  0.9118800E+02  0.7818608E-02  0.1130116E+00
         25   -1    0    0    0    0  0.00000000000E+00  0.00000000000E+00  0.99999998245E-14  0.12500000000E+03  0.12500000000E+03 0.  0.
        -11    1    1    0    0    0  0.11947671071E+02 -0.87519020580E+01 -0.80998893812E+01  0.16880487016E+02  0.51100000000E-03 0. -1.
         11    1    1    0    0    0 -0.38694135860E+01 -0.48759881474E+02  0.10363709155E+02  0.49999048697E+02  0.51100000000E-03 0.  1.
         22    1    1    0    0    0 -0.80782574847E+01  0.57511783532E+02 -0.22638197738E+01  0.58120464287E+02  0.00000000000E+00 0.  1.
</event>
<event>
 4    1  0.1977788E-002  0.9118800E+02  0.7818608E-02  0.1130116E+00
         25   -1    0    0    0    0  0.00000000000E+00  0.00000000000E+00  0.99999998245E-14  0.12500000000E+03  0.12500000000E+03 0.  0.
        -11    1    1    0    0    0  0.91442323987E+01  0.32495594256E+01  0.65249206373E+01  0.11694067394E+02  0.51100000000E-03 0.  1.
         11    1    1    0    0    0  0.37669883966E+02 -0.36364921467E+01  0.34385933212E+02  0.51133517738E+02  0.51100000000E-03 0. -1.
         22    1    1    0    0    0 -0.46814116365E+02  0.38693272115E+00 -0.40910853849E+02  0.62172414869E+02  0.00000000000E+00 0.  1.
</event>
<event>
 4    1  0.1977788E-002  0.9118800E+02  0.7818608E-02  0.1130116E+00
         25   -1    0    0    0    0  0.00000000000E+00  0.00000000000E+00  0.99999998245E-14  0.12500000000E+03  0.12500000000E+03 0.  0.
        -11    1    1    0    0    0  0.24899655327E+02 -0.66073008856E-01 -0.49565794718E+02  0.55468596587E+02  0.51100000000E-03 0. -1.
         11    1    1    0    0    0  0.31559281491E+01 -0.75102498496E-02 -0.62833665655E+01  0.70314034547E+01  0.51100000000E-03 0. -1.
         22    1    1    0    0    0 -0.28055583476E+02  0.73583258706E-01  0.55849161284E+02  0.62499999958E+02  0.00000000000E+00 0. -1.
</event>
<event>
 4    1  0.1977788E-002  0.9118800E+02  0.7818608E-02  0.1130116E+00
         25   -1    0    0    0    0  0.00000000000E+00  0.00000000000E+00  0.99999998245E-14  0.12500000000E+03  0.12500000000E+03 0.  0.
        -11    1    1    0    0    0  0.56076610370E+02 -0.12381500099E+02 -0.84154320815E+01  0.58040565750E+02  0.51100000000E-03 0.  1.
         11    1    1    0    0    0 -0.41116334568E+00  0.40386358986E+01 -0.74454794463E+01  0.84802594102E+01  0.51100000000E-03 0. -1.
         22    1    1    0    0    0 -0.55665447024E+02  0.83428642000E+01  0.15860911528E+02  0.58479174840E+02  0.00000000000E+00 0.  1.
</event>
<event>
 4    1  0.1977788E-002  0.9118800E+02  0.7818608E-02  0.1130116E+00
         25   -1    0    0    0    0  0.00000000000E+00  0.00000000000E+00  0.99999998245E-14  0.12500000000E+03  0.12500000000E+03 0.  0.
        -11    1    1    0    0    0 -0.30841957225E+01 -0.44940113081E+02  0.10812631734E+02  0.46325360573E+02  0.51100000000E-03 0. -1.
         11    1    1    0    0    0 -0.15400348105E+02 -0.91105259956E+01  0.64163656884E+01  0.19009001935E+02  0.51100000000E-03 0.  1.
         22    1    1    0    0    0  0.18484543828E+02  0.54050639076E+02 -0.17228997422E+02  0.59665637491E+02  0.00000000000E+00 0. -1.
</event>
<event>
 4    1  0.1977788E-002  0.9118800E+02  0.7818608E-02  0.1130116E+00
         25   -1    0    0    0    0  0.00000000000E+00  0.00000000000E+00  0.99999998245E-14  0.12500000000E+03  0.12500000000E+03 0.  0.
        -11    1    1    0    0    0  0.40204581693E+02 -0.19219413308E+02  0.11740679304E+02  0.46082944652E+02  0.51100000000E-03 0. -1.
         11    1    1    0    0    0  0.11860409977E+02 -0.10820367877E+02  0.44601057214E+01  0.16662599711E+02  0.51100000000E-03 0.  1.
         22    1    1    0    0    0 -0.52064991670E+02  0.30039781185E+02 -0.16200785026E+02  0.62254455637E+02  0.00000000000E+00 0. -1.
</event>
<event>
 4    1  0.1977788E-002  0.9118800E+02  0.7818608E-02  0.1130116E+00
         25   -1    0    0    0    0  0.00000000000E+00  0.00000000000E+00  0.99999998245E-14  0.12500000000E+03  0.12500000000E+03 0.  0.
        -11    1    1    0    0    0  0.21332173497E+00 -0.31394772147E+01  0.11636460163E+01  0.33549807237E+01  0.51100000000E-03 0. -1.
         11    1    1    0    0    0  0.36048092871E+01 -0.55316137541E+02  0.20621943983E+02  0.59145027656E+02  0.51100000000E-03 0.  1.
         22    1    1    0    0    0 -0.38181310221E+01  0.58455614756E+02 -0.21785590000E+02  0.62499991621E+02  0.00000000000E+00 0.  1.
</event>
<event>
 4    1  0.1977788E-002  0.9118800E+02  0.7818608E-02  0.1130116E+00
         25   -1    0    0    0    0  0.00000000000E+00  0.00000000000E+00  0.99999998245E-14  0.12500000000E+03  0.12500000000E+03 0.  0.
        -11    1    1    0    0    0 -0.75741857299E+01 -0.24892182300E+02  0.15108334558E+02  0.30087386104E+02  0.51100000000E-03 0.  1.
         11    1    1    0    0    0 -0.82043173205E+01 -0.26894189625E+02  0.16123796413E+02  0.32412730051E+02  0.51100000000E-03 0. -1.
         22    1    1    0    0    0  0.15778503050E+02  0.51786371926E+02 -0.31232130971E+02  0.62499883846E+02  0.00000000000E+00 0.  1.
</event>
<event>
 4    1  0.1977788E-002  0.9118800E+02  0.7818608E-02  0.1130116E+00
         25   -1    0    0    0    0  0.00000000000E+00  0.00000000000E+00  0.99999998245E-14  0.12500000000E+03  0.12500000000E+03 0.  0.
        -11    1    1    0    0    0  0.10773755157E+01 -0.11917331462E+02  0.28668004494E+02  0.31065060906E+02  0.51100000000E-03 0.  1.
         11    1    1    0    0    0  0.33421451277E+00 -0.13484729743E+02  0.28406744801E+02  0.31446665738E+02  0.51100000000E-03 0. -1.
         22    1    1    0    0    0 -0.14115900285E+01  0.25402061205E+02 -0.57074749295E+02  0.62488273356E+02  0.00000000000E+00 0.  1.
</event>
<event>
 4    1  0.1977788E-002  0.9118800E+02  0.7818608E-02  0.1130116E+00
         25   -1    0    0    0    0  0.00000000000E+00  0.00000000000E+00  0.99999998245E-14  0.12500000000E+03  0.12500000000E+03 0.  0.
        -11    1    1    0    0    0  0.31380112403E+02  0.12285403044E+02  0.26728925721E+02  0.43012533671E+02  0.51100000000E-03 0.  1.
         11    1    1    0    0    0  0.14186779643E+02  0.56319233744E+01  0.12115274932E+02  0.19487513040E+02  0.51100000000E-03 0. -1.
         22    1    1    0    0    0 -0.45566892046E+02 -0.17917326419E+02 -0.38844200653E+02  0.62499953289E+02  0.00000000000E+00 0.  1.
</event>
<event>
 4    1  0.1977788E-002  0.9118800E+02  0.7818608E-02  0.1130116E+00
         25   -1    0    0    0    0  0.00000000000E+00  0.00000000000E+00  0.99999998245E-14  0.12500000000E+03  0.12500000000E+03 0.  0.
        -11    1    1    0    0    0  0.14876889514E+02  0.62681105485E+01 -0.14960524076E+02  0.22009732674E+02  0.51100000000E-03 0. -1.
         11    1    1    0    0    0  0.30737354735E+02  0.30479695943E+02  0.76974088726E+01  0.43966429745E+02  0.51100000000E-03 0.  1.
         22    1    1    0    0    0 -0.45614244249E+02 -0.36747806492E+02  0.72631152039E+01  0.59023837581E+02  0.00000000000E+00 0.  1.
</event>
<event>
 4    1  0.1977788E-002  0.9118800E+02  0.7818608E-02  0.1130116E+00
         25   -1    0    0    0    0  0.00000000000E+00  0.00000000000E+00  0.99999998245E-14  0.12500000000E+03  0.12500000000E+03 0.  0.
        -11    1    1    0    0    0 -0.64702065016E+01 -0.52753803426E+01 -0.30583691543E+01  0.88908285372E+01  0.51100000000E-03 0.  1.
         11    1    1    0    0    0 -0.41432876735E+02 -0.29172883668E+02 -0.17526353123E+02  0.53618219572E+02  0.51100000000E-03 0. -1.
         22    1    1    0    0    0  0.47903083237E+02  0.34448264011E+02  0.20584722277E+02  0.62490951890E+02  0.00000000000E+00 0. -1.
</event>
<event>
 4    1  0.1977788E-002  0.9118800E+02  0.7818608E-02  0.1130116E+00
         25   -1    0    0    0    0  0.00000000000E+00  0.00000000000E+00  0.99999998245E-14  0.12500000000E+03  0.12500000000E+03 0.  0.
        -11    1    1    0    0    0 -0.28342534480E+01  0.54019759610E+00  0.11289194315E+01  0.30982681282E+01  0.51100000000E-03 0. -1.
         11    1    1    0    0    0 -0.54423485966E+02  0.10323754254E+02  0.21449269643E+02  0.59401741516E+02  0.51100000000E-03 0.  1.
         22    1    1    0    0    0  0.57257739414E+02 -0.10863951850E+02 -0.22578189075E+02  0.62499990356E+02  0.00000000000E+00 0.  1.
</event>
<event>
 4    1  0.1977788E-002  0.9118800E+02  0.7818608E-02  0.1130116E+00
         25   -1    0    0    0    0  0.00000000000E+00  0.00000000000E+00  0.99999998245E-14  0.12500000000E+03  0.12500000000E+03 0.  0.
        -11    1    1    0    0    0 -0.17625655863E+02  0.87228596219E+01 -0.54378510062E+01  0.20403976289E+02  0.51100000000E-03 0. -1.
         11    1    1    0    0    0 -0.41928920164E+02 -0.10400126821E+02  0.11517333937E+02  0.44708455187E+02  0.51100000000E-03 0.  1.
         22    1    1    0    0    0  0.59554576026E+02  0.16772671990E+01 -0.60794829306E+01  0.59887568523E+02  0.00000000000E+00 0.  1.
</event>
<event>
 4    1  0.1977788E-002  0.9118800E+02  0.7818608E-02  0.1130116E+00
         25   -1    0    0    0    0  0.00000000000E+00  0.00000000000E+00  0.99999998245E-14  0.12500000000E+03  0.12500000000E+03 0.  0.
        -11    1    1    0    0    0 -0.10383634706E+02  0.17367954486E+02  0.43932018520E+02  0.48368253682E+02  0.51100000000E-03 0. -1.
         11    1    1    0    0    0 -0.30335726966E+01  0.50751395034E+01  0.12835367150E+02  0.14131746333E+02  0.51100000000E-03 0. -1.
         22    1    1    0    0    0  0.13417207402E+02 -0.22443093989E+02 -0.56767385670E+02  0.62499999985E+02  0.00000000000E+00 0. -1.
</event>
<event>
 4    1  0.1977788E-002  0.9118800E+02  0.7818608E-02  0.1130116E+00
         25   -1    0    0    0    0  0.00000000000E+00  0.00000000000E+00  0.99999998245E-14  0.12500000000E+03  0.12500000000E+03 0.  0.
        -11    1    1    0    0    0  0.35990866039E+01  0.32966306345E+01 -0.11931977206E+01  0.50244322052E+01  0.51100000000E-03 0. -1.
         11    1    1    0    0    0  0.41159667143E+02  0.37723568341E+02 -0.13647530860E+02  0.57475567909E+02  0.51100000000E-03 0.  1.
         22    1    1    0    0    0 -0.44758753747E+02 -0.41020198975E+02  0.14840728580E+02  0.62499999886E+02  0.00000000000E+00 0.  1.
</event>
<event>
 4    1  0.1977788E-002  0.9118800E+02  0.7818608E-02  0.1130116E+00
         25   -1    0    0    0    0  0.00000000000E+00  0.00000000000E+00  0.99999998245E-14  0.12500000000E+03  0.12500000000E+03 0.  0.
        -11    1    1    0    0    0  0.31156498977E+02 -0.38112186981E+02  0.35947516649E+01  0.49357759924E+02  0.51100000000E-03 0. -1.
         11    1    1    0    0    0  0.82955282485E+01 -0.10148225886E+02  0.95718161159E+00  0.13142240085E+02  0.51100000000E-03 0. -1.
         22    1    1    0    0    0 -0.39452027225E+02  0.48260412867E+02 -0.45519332765E+01  0.62499999991E+02  0.00000000000E+00 0. -1.
</event>
<event>
 4    1  0.1977788E-002  0.9118800E+02  0.7818608E-02  0.1130116E+00
         25   -1    0    0    0    0  0.00000000000E+00  0.00000000000E+00  0.99999998245E-14  0.12500000000E+03  0.12500000000E+03 0.  0.
        -11    1    1    0    0    0 -0.43375657008E+02 -0.24559668098E+02 -0.11743408367E+01  0.49859843508E+02  0.51100000000E-03 0. -1.
         11    1    1    0    0    0 -0.11111270270E+02 -0.59930320621E+01 -0.69843715989E+00  0.12643756366E+02  0.51100000000E-03 0.  1.
         22    1    1    0    0    0  0.54486927278E+02  0.30552700160E+02  0.18727779966E+01  0.62496400126E+02  0.00000000000E+00 0. -1.
</event>
<event>
 4    1  0.1977788E-002  0.9118800E+02  0.7818608E-02  0.1130116E+00
         25   -1    0    0    0    0  0.00000000000E+00  0.00000000000E+00  0.99999998245E-14  0.12500000000E+03  0.12500000000E+03 0.  0.
        -11    1    1    0    0    0  0.30813013412E+02 -0.40367549797E+02 -0.14820094310E+02  0.52901947675E+02  0.51100000000E-03 0. -1.
         11    1    1    0    0    0  0.56859008353E+01 -0.73144043732E+01 -0.25119252283E+01  0.95989451638E+01  0.51100000000E-03 0.  1.
         22    1    1    0    0    0 -0.36498914248E+02  0.47681954170E+02  0.17332019538E+02  0.62499107162E+02  0.00000000000E+00 0. -1.
</event>
<event>
 4    1  0.1977788E-002  0.9118800E+02  0.7818608E-02  0.1130116E+00
         25   -1    0    0    0    0  0.00000000000E+00  0.00000000000E+00  0.99999998245E-14  0.12500000000E+03  0.12500000000E+03 0.  0.
        -11    1    1    0    0    0  0.21597892872E+02  0.41313397052E+02 -0.28672772882E+02  0.54730189635E+02  0.51100000000E-03 0.  1.
         11    1    1    0    0    0  0.30658867493E+01  0.58649529779E+01 -0.40709480607E+01  0.77698103816E+01  0.51100000000E-03 0.  1.
         22    1    1    0    0    0 -0.24663779621E+02 -0.47178350030E+02  0.32743720943E+02  0.62499999983E+02  0.00000000000E+00 0.  1.
</event>
<event>
 4    1  0.1977788E-002  0.9118800E+02  0.7818608E-02  0.1130116E+00
         25   -1    0    0    0    0  0.00000000000E+00  0.00000000000E+00  0.99999998245E-14  0.12500000000E+03  0.12500000000E+03 0.  0.
        -11    1    1    0    0    0  0.26360920996E+02  0.35585869911E+02  0.26457437151E+02  0.51587287910E+02  0.51100000000E-03 0.  1.
         11    1    1    0    0    0  0.55890109303E+01  0.75242507847E+01  0.55889165978E+01  0.10912716529E+02  0.51100000000E-03 0. -1.
         22    1    1    0    0    0 -0.31949931926E+02 -0.43110120695E+02 -0.32046353749E+02  0.62499995561E+02  0.00000000000E+00 0.  1.
</event>
<event>
 4    1  0.1977788E-002  0.9118800E+02  0.7818608E-02  0.1130116E+00
         25   -1    0    0    0    0  0.00000000000E+00  0.00000000000E+00  0.99999998245E-14  0.12500000000E+03  0.12500000000E+03 0.  0.
        -11    1    1    0    0    0 -0.44886579106E+01 -0.13845200563E+02  0.11370373262E+02  0.18469515880E+02  0.51100000000E-03 0. -1.
         11    1    1    0    0    0 -0.10696611233E+02 -0.33007104946E+02  0.27107140497E+02  0.44030484156E+02  0.51100000000E-03 0.  1.
         22    1    1    0    0    0  0.15185269143E+02  0.46852305509E+02 -0.38477513760E+02  0.62499999964E+02  0.00000000000E+00 0.  1.
</event>
<event>
 4    1  0.1977788E-002  0.9118800E+02  0.7818608E-02  0.1130116E+00
         25   -1    0    0    0    0  0.00000000000E+00  0.00000000000E+00  0.99999998245E-14  0.12500000000E+03  0.12500000000E+03 0.  0.
        -11    1    1    0    0    0  0.34804221584E+02  0.24637611743E+02 -0.18957457831E+02  0.46666165046E+02  0.51100000000E-03 0.  1.
         11    1    1    0    0    0  0.10895553383E+02  0.96341464155E+01 -0.63326747169E+01  0.15862932579E+02  0.51100000000E-03 0. -1.
         22    1    1    0    0    0 -0.45699774966E+02 -0.34271758158E+02  0.25290132548E+02  0.62470902375E+02  0.00000000000E+00 0.  1.
</event>
<event>
 4    1  0.1977788E-002  0.9118800E+02  0.7818608E-02  0.1130116E+00
         25   -1    0    0    0    0  0.00000000000E+00  0.00000000000E+00  0.99999998245E-14  0.12500000000E+03  0.12500000000E+03 0.  0.
        -11    1    1    0    0    0  0.94113097653E+01 -0.18610809710E+02  0.35173771530E+02  0.40891676335E+02  0.51100000000E-03 0.  1.
         11    1    1    0    0    0  0.49733199918E+01 -0.98349851651E+01  0.18586522180E+02  0.21608323673E+02  0.51100000000E-03 0.  1.
         22    1    1    0    0    0 -0.14384629757E+02  0.28445794875E+02 -0.53760293710E+02  0.62499999993E+02  0.00000000000E+00 0.  1.
</event>
<event>
 4    1  0.1977788E-002  0.9118800E+02  0.7818608E-02  0.1130116E+00
         25   -1    0    0    0    0  0.00000000000E+00  0.00000000000E+00  0.99999998245E-14  0.12500000000E+03  0.12500000000E+03 0.  0.
        -11    1    1    0    0    0 -0.48405879982E+02  0.45440657298E+01  0.13610772173E+02  0.50487927959E+02  0.51100000000E-03 0. -1.
         11    1    1    0    0    0 -0.11486331594E+02  0.12540015733E+01  0.32855576107E+01  0.12012627627E+02  0.51100000000E-03 0.  1.
         22    1    1    0    0    0  0.59892211576E+02 -0.57980673031E+01 -0.16896329783E+02  0.62499444414E+02  0.00000000000E+00 0. -1.
</event>
<event>
 4    1  0.1977788E-002  0.9118800E+02  0.7818608E-02  0.1130116E+00
         25   -1    0    0    0    0  0.00000000000E+00  0.00000000000E+00  0.99999998245E-14  0.12500000000E+03  0.12500000000E+03 0.  0.
        -11    1    1    0    0    0  0.27731061442E+01  0.31520056345E+02 -0.46055942805E+02  0.55878027324E+02  0.51100000000E-03 0.  1.
         11    1    1    0    0    0 -0.37198853463E+01  0.68665730243E+01 -0.15484387999E+01  0.79614719158E+01  0.51100000000E-03 0. -1.
         22    1    1    0    0    0  0.94677920210E+00 -0.38386629370E+02  0.47604381605E+02  0.61160500760E+02  0.00000000000E+00 0.  1.
</event>
<event>
 4    1  0.1977788E-002  0.9118800E+02  0.7818608E-02  0.1130116E+00
         25   -1    0    0    0    0  0.00000000000E+00  0.00000000000E+00  0.99999998245E-14  0.12500000000E+03  0.12500000000E+03 0.  0.
        -11    1    1    0    0    0 -0.37196081879E+02  0.24925295579E+02 -0.86097133754E+01  0.45595460646E+02  0.51100000000E-03 0. -1.
         11    1    1    0    0    0 -0.13828279655E+02  0.92530753896E+01 -0.29896890303E+01  0.16904998170E+02  0.51100000000E-03 0.  1.
         22    1    1    0    0    0  0.51024361534E+02 -0.34178370969E+02  0.11599402406E+02  0.62499541184E+02  0.00000000000E+00 0. -1.
</event>
<event>
 4    1  0.1977788E-002  0.9118800E+02  0.7818608E-02  0.1130116E+00
         25   -1    0    0    0    0  0.00000000000E+00  0.00000000000E+00  0.99999998245E-14  0.12500000000E+03  0.12500000000E+03 0.  0.
        -11    1    1    0    0    0  0.22497155578E+01 -0.80808368608E+01 -0.45282520052E+01  0.95323769830E+01  0.51100000000E-03 0. -1.
         11    1    1    0    0    0  0.53549246384E+02 -0.17803974379E+01  0.19234343155E+02  0.56926720969E+02  0.51100000000E-03 0.  1.
         22    1    1    0    0    0 -0.55798961942E+02  0.98612342987E+01 -0.14706091150E+02  0.58540902048E+02  0.00000000000E+00 0.  1.
</event>
<event>
 4    1  0.1977788E-002  0.9118800E+02  0.7818608E-02  0.1130116E+00
         25   -1    0    0    0    0  0.00000000000E+00  0.00000000000E+00  0.99999998245E-14  0.12500000000E+03  0.12500000000E+03 0.  0.
        -11    1    1    0    0    0  0.93392000946E+00  0.26176638645E+00  0.10957947851E+00  0.97608203978E+00  0.51100000000E-03 0. -1.
         11    1    1    0    0    0  0.58474169363E+02  0.18407296921E+02 -0.53228822214E+01  0.61533650453E+02  0.51100000000E-03 0.  1.
         22    1    1    0    0    0 -0.59408089372E+02 -0.18669063308E+02  0.52133027428E+01  0.62490267507E+02  0.00000000000E+00 0.  1.
</event>
<event>
 4    1  0.1977788E-002  0.9118800E+02  0.7818608E-02  0.1130116E+00
         25   -1    0    0    0    0  0.00000000000E+00  0.00000000000E+00  0.99999998245E-14  0.12500000000E+03  0.12500000000E+03 0.  0.
        -11    1    1    0    0    0 -0.29569657190E+01  0.53648439035E+01  0.16701787881E+02  0.17789741850E+02  0.51100000000E-03 0.  1.
         11    1    1    0    0    0 -0.80520732199E+01  0.14057802039E+02  0.41673304474E+02  0.44711541993E+02  0.51100000000E-03 0. -1.
         22    1    1    0    0    0  0.11009038939E+02 -0.19422645943E+02 -0.58375092356E+02  0.62498716158E+02  0.00000000000E+00 0.  1.
</event>
<event>
 4    1  0.1977788E-002  0.9118800E+02  0.7818608E-02  0.1130116E+00
         25   -1    0    0    0    0  0.00000000000E+00  0.00000000000E+00  0.99999998245E-14  0.12500000000E+03  0.12500000000E+03 0.  0.
        -11    1    1    0    0    0 -0.19960707948E+01 -0.16177358313E+02  0.25717426392E+02  0.30447943134E+02  0.51100000000E-03 0. -1.
         11    1    1    0    0    0 -0.22307386175E+01  0.42044176258E+02 -0.45292299131E+02  0.61839156793E+02  0.51100000000E-03 0.  1.
         22    1    1    0    0    0  0.42268094123E+01 -0.25866817945E+02  0.19574872739E+02  0.32712900073E+02  0.00000000000E+00 0.  1.
</event>
<event>
 4    1  0.1977788E-002  0.9118800E+02  0.7818608E-02  0.1130116E+00
         25   -1    0    0    0    0  0.00000000000E+00  0.00000000000E+00  0.99999998245E-14  0.12500000000E+03  0.12500000000E+03 0.  0.
        -11    1    1    0    0    0 -0.79343054986E+01  0.70320531907E+01 -0.41145147557E+01  0.11372431919E+02  0.51100000000E-03 0. -1.
         11    1    1    0    0    0  0.81369449300E+01  0.41065043352E+02 -0.32648450486E+02  0.53089254824E+02  0.51100000000E-03 0.  1.
         22    1    1    0    0    0 -0.20263943141E+00 -0.48097096543E+02  0.36762965242E+02  0.60538313257E+02  0.00000000000E+00 0.  1.
</event>
<event>
 4    1  0.1977788E-002  0.9118800E+02  0.7818608E-02  0.1130116E+00
         25   -1    0    0    0    0  0.00000000000E+00  0.00000000000E+00  0.99999998245E-14  0.12500000000E+03  0.12500000000E+03 0.  0.
        -11    1    1    0    0    0 -0.32053053935E+02 -0.14917020630E+02  0.39341406774E+02  0.52892930135E+02  0.51100000000E-03 0.  1.
         11    1    1    0    0    0 -0.58226365501E+01 -0.27098620567E+01  0.71448823028E+01  0.96070699041E+01  0.51100000000E-03 0. -1.
         22    1    1    0    0    0  0.37875690485E+02  0.17626882686E+02 -0.46486289077E+02  0.62499999961E+02  0.00000000000E+00 0. -1.
</event>
<event>
 4    1  0.1977788E-002  0.9118800E+02  0.7818608E-02  0.1130116E+00
         25   -1    0    0    0    0  0.00000000000E+00  0.00000000000E+00  0.99999998245E-14  0.12500000000E+03  0.12500000000E+03 0.  0.
        -11    1    1    0    0    0 -0.30194211472E+02  0.42098287004E+02  0.23747781343E+02  0.56990466695E+02  0.51100000000E-03 0.  1.
         11    1    1    0    0    0 -0.29082409976E+01  0.40713217061E+01  0.23068464327E+01  0.55095432533E+01  0.51100000000E-03 0. -1.
         22    1    1    0    0    0  0.33102452469E+02 -0.46169608710E+02 -0.26054627776E+02  0.62499990052E+02  0.00000000000E+00 0.  1.
</event>
<event>
 4    1  0.1977788E-002  0.9118800E+02  0.7818608E-02  0.1130116E+00
         25   -1    0    0    0    0  0.00000000000E+00  0.00000000000E+00  0.99999998245E-14  0.12500000000E+03  0.12500000000E+03 0.  0.
        -11    1    1    0    0    0 -0.22588523214E+01  0.11432879481E+02 -0.47077482215E+02  0.48498479141E+02  0.51100000000E-03 0.  1.
         11    1    1    0    0    0 -0.29365254130E+00  0.32223829636E+01 -0.13624436448E+02  0.14003401464E+02  0.51100000000E-03 0. -1.
         22    1    1    0    0    0  0.25525048627E+01 -0.14655262445E+02  0.60701918663E+02  0.62498119394E+02  0.00000000000E+00 0.  1.
</event>
<event>
 4    1  0.1977788E-002  0.9118800E+02  0.7818608E-02  0.1130116E+00
         25   -1    0    0    0    0  0.00000000000E+00  0.00000000000E+00  0.99999998245E-14  0.12500000000E+03  0.12500000000E+03 0.  0.
        -11    1    1    0    0    0 -0.24070675427E+00 -0.22710494375E+02  0.31334609969E+01  0.22926907175E+02  0.51100000000E-03 0. -1.
         11    1    1    0    0    0 -0.10026759251E+00 -0.39136344722E+02  0.58671699178E+01  0.39573819816E+02  0.51100000000E-03 0.  1.
         22    1    1    0    0    0  0.34097434678E+00  0.61846839097E+02 -0.90006309147E+01  0.62499273009E+02  0.00000000000E+00 0.  1.
</event>
<event>
 4    1  0.1977788E-002  0.9118800E+02  0.7818608E-02  0.1130116E+00
         25   -1    0    0    0    0  0.00000000000E+00  0.00000000000E+00  0.99999998245E-14  0.12500000000E+03  0.12500000000E+03 0.  0.
        -11    1    1    0    0    0 -0.95070152514E+01  0.10983779133E+02 -0.39625945706E+01  0.15057519683E+02  0.51100000000E-03 0. -1.
         11    1    1    0    0    0 -0.31538340533E+02  0.33439739818E+02 -0.11765824359E+02  0.47448053129E+02  0.51100000000E-03 0.  1.
         22    1    1    0    0    0  0.41045355784E+02 -0.44423518951E+02  0.15728418930E+02  0.62494427187E+02  0.00000000000E+00 0.  1.
</event>
<event>
 4    1  0.1977788E-002  0.9118800E+02  0.7818608E-02  0.1130116E+00
         25   -1    0    0    0    0  0.00000000000E+00  0.00000000000E+00  0.99999998245E-14  0.12500000000E+03  0.12500000000E+03 0.  0.
        -11    1    1    0    0    0 -0.87248021102E+00 -0.78405876416E+01  0.89379188313E+01  0.11921511212E+02  0.51100000000E-03 0. -1.
         11    1    1    0    0    0 -0.37019233300E+01 -0.33261561298E+02  0.37922919637E+02  0.50578488811E+02  0.51100000000E-03 0.  1.
         22    1    1    0    0    0  0.45744035410E+01  0.41102148940E+02 -0.46860838468E+02  0.62499999977E+02  0.00000000000E+00 0.  1.
</event>
<event>
 4    1  0.1977788E-002  0.9118800E+02  0.7818608E-02  0.1130116E+00
         25   -1    0    0    0    0  0.00000000000E+00  0.00000000000E+00  0.99999998245E-14  0.12500000000E+03  0.12500000000E+03 0.  0.
        -11    1    1    0    0    0  0.81264721604E+01 -0.90752924970E+01 -0.43708584505E+01  0.12942367926E+02  0.51100000000E-03 0.  1.
         11    1    1    0    0    0  0.23370688546E+02 -0.44074982855E+02 -0.21384051074E+01  0.49933615666E+02  0.51100000000E-03 0. -1.
         22    1    1    0    0    0 -0.31497160707E+02  0.53150275352E+02  0.65092635579E+01  0.62124016408E+02  0.00000000000E+00 0. -1.
</event>
<event>
 4    1  0.1977788E-002  0.9118800E+02  0.7818608E-02  0.1130116E+00
         25   -1    0    0    0    0  0.00000000000E+00  0.00000000000E+00  0.99999998245E-14  0.12500000000E+03  0.12500000000E+03 0.  0.
        -11    1    1    0    0    0  0.86533801622E+01 -0.16712664043E+02 -0.23452825209E+02  0.30070403027E+02  0.51100000000E-03 0. -1.
         11    1    1    0    0    0  0.10434983354E+02 -0.18302210510E+02 -0.24662234517E+02  0.32435869015E+02  0.51100000000E-03 0.  1.
         22    1    1    0    0    0 -0.19088363516E+02  0.35014874553E+02  0.48115059726E+02  0.62493727958E+02  0.00000000000E+00 0. -1.
</event>
<event>
 4    1  0.1977788E-002  0.9118800E+02  0.7818608E-02  0.1130116E+00
         25   -1    0    0    0    0  0.00000000000E+00  0.00000000000E+00  0.99999998245E-14  0.12500000000E+03  0.12500000000E+03 0.  0.
        -11    1    1    0    0    0  0.32909563647E+00 -0.26276723149E+02  0.48273574867E+02  0.54962828476E+02  0.51100000000E-03 0. -1.
         11    1    1    0    0    0  0.20824441625E+01 -0.25927259330E+01  0.69340362113E+01  0.76902314591E+01  0.51100000000E-03 0.  1.
         22    1    1    0    0    0 -0.24115397990E+01  0.28869449082E+02 -0.55207611078E+02  0.62346940065E+02  0.00000000000E+00 0.  1.
</event>
<event>
 4    1  0.1977788E-002  0.9118800E+02  0.7818608E-02  0.1130116E+00
         25   -1    0    0    0    0  0.00000000000E+00  0.00000000000E+00  0.99999998245E-14  0.12500000000E+03  0.12500000000E+03 0.  0.
        -11    1    1    0    0    0  0.13241868723E+02 -0.71819750781E+01 -0.17053376505E+02  0.22754021706E+02  0.51100000000E-03 0.  1.
         11    1    1    0    0    0  0.22775912514E+02 -0.12128901613E+02 -0.30232112728E+02  0.39747114177E+02  0.51100000000E-03 0. -1.
         22    1    1    0    0    0 -0.36017781237E+02  0.19310876691E+02  0.47285489233E+02  0.62498864117E+02  0.00000000000E+00 0. -1.
</event>
<event>
 4    1  0.1977788E-002  0.9118800E+02  0.7818608E-02  0.1130116E+00
         25   -1    0    0    0    0  0.00000000000E+00  0.00000000000E+00  0.99999998245E-14  0.12500000000E+03  0.12500000000E+03 0.  0.
        -11    1    1    0    0    0 -0.15748363878E+02 -0.50246017894E+02  0.21482950493E+02  0.56869943214E+02  0.51100000000E-03 0.  1.
         11    1    1    0    0    0  0.10585085105E+02 -0.48864012128E+00 -0.12434086916E+02  0.16336747337E+02  0.51100000000E-03 0. -1.
         22    1    1    0    0    0  0.51632787727E+01  0.50734658016E+02 -0.90488635774E+01  0.51793309449E+02  0.00000000000E+00 0.  1.
</event>
<event>
 4    1  0.1977788E-002  0.9118800E+02  0.7818608E-02  0.1130116E+00
         25   -1    0    0    0    0  0.00000000000E+00  0.00000000000E+00  0.99999998245E-14  0.12500000000E+03  0.12500000000E+03 0.  0.
        -11    1    1    0    0    0 -0.43911046067E+02  0.23390825951E+02  0.20300064252E+02  0.53734563498E+02  0.51100000000E-03 0.  1.
         11    1    1    0    0    0 -0.71628714325E+01  0.38157884198E+01  0.33114813248E+01  0.87654365121E+01  0.51100000000E-03 0.  1.
         22    1    1    0    0    0  0.51073917500E+02 -0.27206614371E+02 -0.23611545577E+02  0.62499999990E+02  0.00000000000E+00 0.  1.
</event>
<event>
 4    1  0.1977788E-002  0.9118800E+02  0.7818608E-02  0.1130116E+00
         25   -1    0    0    0    0  0.00000000000E+00  0.00000000000E+00  0.99999998245E-14  0.12500000000E+03  0.12500000000E+03 0.  0.
        -11    1    1    0    0    0 -0.17517036862E+02 -0.18530712967E+02  0.18478635906E+02  0.31491171600E+02  0.51100000000E-03 0. -1.
         11    1    1    0    0    0 -0.17234553752E+02 -0.18188286761E+02  0.18267622801E+02  0.31008864239E+02  0.51100000000E-03 0.  1.
         22    1    1    0    0    0  0.34751590615E+02  0.36718999728E+02 -0.36746258707E+02  0.62499964162E+02  0.00000000000E+00 0. -1.
</event>
<event>
 4    1  0.1977788E-002  0.9118800E+02  0.7818608E-02  0.1130116E+00
         25   -1    0    0    0    0  0.00000000000E+00  0.00000000000E+00  0.99999998245E-14  0.12500000000E+03  0.12500000000E+03 0.  0.
        -11    1    1    0    0    0  0.15000384897E+01 -0.25958603903E+02  0.41513499107E+02  0.48984383639E+02  0.51100000000E-03 0.  1.
         11    1    1    0    0    0  0.27144186934E+02  0.61580328084E+01 -0.11770455721E+02  0.30220388491E+02  0.51100000000E-03 0. -1.
         22    1    1    0    0    0 -0.28644225424E+02  0.19800571095E+02 -0.29743043387E+02  0.45795227870E+02  0.00000000000E+00 0. -1.
</event>
<event>
 4    1  0.1977788E-002  0.9118800E+02  0.7818608E-02  0.1130116E+00
         25   -1    0    0    0    0  0.00000000000E+00  0.00000000000E+00  0.99999998245E-14  0.12500000000E+03  0.12500000000E+03 0.  0.
        -11    1    1    0    0    0 -0.44771052363E+02 -0.17167450301E+02  0.13066228967E+01  0.47967444618E+02  0.51100000000E-03 0. -1.
         11    1    1    0    0    0 -0.13596958990E+02 -0.51101857261E+01  0.45705647169E+00  0.14532728333E+02  0.51100000000E-03 0.  1.
         22    1    1    0    0    0  0.58368011353E+02  0.22277636027E+02 -0.17636793684E+01  0.62499827049E+02  0.00000000000E+00 0. -1.
</event>
<event>
 4    1  0.1977788E-002  0.9118800E+02  0.7818608E-02  0.1130116E+00
         25   -1    0    0    0    0  0.00000000000E+00  0.00000000000E+00  0.99999998245E-14  0.12500000000E+03  0.12500000000E+03 0.  0.
        -11    1    1    0    0    0  0.11169603497E+02 -0.39058514898E+02 -0.63445110429E+01  0.41116668749E+02  0.51100000000E-03 0.  1.
         11    1    1    0    0    0  0.58690074778E+01 -0.20296196418E+02 -0.32965589038E+01  0.21383361258E+02  0.51100000000E-03 0. -1.
         22    1    1    0    0    0 -0.17038610975E+02  0.59354711317E+02  0.96410699467E+01  0.62499969993E+02  0.00000000000E+00 0.  1.
</event>
<event>
 4    1  0.1977788E-002  0.9118800E+02  0.7818608E-02  0.1130116E+00
         25   -1    0    0    0    0  0.00000000000E+00  0.00000000000E+00  0.99999998245E-14  0.12500000000E+03  0.12500000000E+03 0.  0.
        -11    1    1    0    0    0 -0.29144208009E+02 -0.18135995301E+02  0.47538386146E+02  0.58636143663E+02  0.51100000000E-03 0.  1.
         11    1    1    0    0    0  0.39726534738E+01 -0.41859578777E+01  0.23169925495E+01  0.62187357004E+01  0.51100000000E-03 0. -1.
         22    1    1    0    0    0  0.25171554535E+02  0.22321953179E+02 -0.49855378696E+02  0.60145120636E+02  0.00000000000E+00 0.  1.
</event>
<event>
 4    1  0.1977788E-002  0.9118800E+02  0.7818608E-02  0.1130116E+00
         25   -1    0    0    0    0  0.00000000000E+00  0.00000000000E+00  0.99999998245E-14  0.12500000000E+03  0.12500000000E+03 0.  0.
        -11    1    1    0    0    0 -0.26059214346E+02 -0.52960031713E+00 -0.16110906794E+02  0.30641874075E+02  0.51100000000E-03 0. -1.
         11    1    1    0    0    0 -0.27292538254E+02 -0.17700382337E+00 -0.16434554728E+02  0.31859199049E+02  0.51100000000E-03 0.  1.
         22    1    1    0    0    0  0.53351752600E+02  0.70660414049E+00  0.32545461522E+02  0.62498926876E+02  0.00000000000E+00 0. -1.
</event>
<event>
 4    1  0.1977788E-002  0.9118800E+02  0.7818608E-02  0.1130116E+00
         25   -1    0    0    0    0  0.00000000000E+00  0.00000000000E+00  0.99999998245E-14  0.12500000000E+03  0.12500000000E+03 0.  0.
        -11    1    1    0    0    0 -0.24556220386E+01  0.19356548500E+01  0.10593018634E+02  0.11044857778E+02  0.51100000000E-03 0. -1.
         11    1    1    0    0    0 -0.11439976957E+02  0.90071257359E+01  0.49352105173E+02  0.51455142329E+02  0.51100000000E-03 0.  1.
         22    1    1    0    0    0  0.13895598996E+02 -0.10942780586E+02 -0.59945123807E+02  0.62499999893E+02  0.00000000000E+00 0.  1.
</event>
<event>
 4    1  0.1977788E-002  0.9118800E+02  0.7818608E-02  0.1130116E+00
         25   -1    0    0    0    0  0.00000000000E+00  0.00000000000E+00  0.99999998245E-14  0.12500000000E+03  0.12500000000E+03 0.  0.
        -11    1    1    0    0    0  0.84308762820E-01  0.37131487391E+02 -0.15248928411E+00  0.37131896223E+02  0.51100000000E-03 0. -1.
         11    1    1    0    0    0  0.57142438753E-01  0.25367826110E+02 -0.10403097432E+00  0.25368103783E+02  0.51100000000E-03 0. -1.
         22    1    1    0    0    0 -0.14145120157E+00 -0.62499313502E+02  0.25652025843E+00  0.62499999994E+02  0.00000000000E+00 0. -1.
</event>
<event>
 4    1  0.1977788E-002  0.9118800E+02  0.7818608E-02  0.1130116E+00
         25   -1    0    0    0    0  0.00000000000E+00  0.00000000000E+00  0.99999998245E-14  0.12500000000E+03  0.12500000000E+03 0.  0.
        -11    1    1    0    0    0  0.47158642855E+02 -0.13169086661E+02 -0.75247302467E+01  0.49537702863E+02  0.51100000000E-03 0. -1.
         11    1    1    0    0    0 -0.93071584700E+01 -0.13753828582E+02 -0.16290613661E+02  0.23263170316E+02  0.51100000000E-03 0.  1.
         22    1    1    0    0    0 -0.37851484385E+02  0.26922915243E+02  0.23815343908E+02  0.52199126820E+02  0.00000000000E+00 0. -1.
</event>
<event>
 4    1  0.1977788E-002  0.9118800E+02  0.7818608E-02  0.1130116E+00
         25   -1    0    0    0    0  0.00000000000E+00  0.00000000000E+00  0.99999998245E-14  0.12500000000E+03  0.12500000000E+03 0.  0.
        -11    1    1    0    0    0 -0.12831844908E+02 -0.59383263286E+02 -0.27544936146E+01  0.60816243205E+02  0.51100000000E-03 0.  1.
         11    1    1    0    0    0 -0.36093469836E+00 -0.16413771858E+01 -0.10521941490E+00  0.16838836982E+01  0.51100000000E-03 0. -1.
         22    1    1    0    0    0  0.13192779607E+02  0.61024640472E+02  0.28597130295E+01  0.62499873097E+02  0.00000000000E+00 0.  1.
</event>
<event>
 4    1  0.1977788E-002  0.9118800E+02  0.7818608E-02  0.1130116E+00
         25   -1    0    0    0    0  0.00000000000E+00  0.00000000000E+00  0.99999998245E-14  0.12500000000E+03  0.12500000000E+03 0.  0.
        -11    1    1    0    0    0  0.50534720072E+01 -0.31510306366E+01 -0.11400764209E+02  0.12862503575E+02  0.51100000000E-03 0.  1.
         11    1    1    0    0    0  0.20113736796E+02 -0.11386651697E+02 -0.43929072010E+02  0.49638509372E+02  0.51100000000E-03 0. -1.
         22    1    1    0    0    0 -0.25167208803E+02  0.14537682333E+02  0.55329836220E+02  0.62498987053E+02  0.00000000000E+00 0.  1.
</event>
<event>
 4    1  0.1977788E-002  0.9118800E+02  0.7818608E-02  0.1130116E+00
         25   -1    0    0    0    0  0.00000000000E+00  0.00000000000E+00  0.99999998245E-14  0.12500000000E+03  0.12500000000E+03 0.  0.
        -11    1    1    0    0    0 -0.76306923901E+01 -0.12193506294E+02 -0.32304430904E+01  0.14742619337E+02  0.51100000000E-03 0. -1.
         11    1    1    0    0    0 -0.24016498510E+02 -0.40158001375E+02 -0.95663277146E+01  0.47759521578E+02  0.51100000000E-03 0.  1.
         22    1    1    0    0    0  0.31647190900E+02  0.52351507670E+02  0.12796770805E+02  0.62497859085E+02  0.00000000000E+00 0.  1.
</event>
<event>
 4    1  0.1977788E-002  0.9118800E+02  0.7818608E-02  0.1130116E+00
         25   -1    0    0    0    0  0.00000000000E+00  0.00000000000E+00  0.99999998245E-14  0.12500000000E+03  0.12500000000E+03 0.  0.
        -11    1    1    0    0    0  0.25376658923E+02 -0.26121098899E+01 -0.52213109932E+02  0.58112019284E+02  0.51100000000E-03 0.  1.
         11    1    1    0    0    0  0.19003835171E+01 -0.21211718240E+00 -0.39494511315E+01  0.43880081714E+01  0.51100000000E-03 0. -1.
         22    1    1    0    0    0 -0.27277042440E+02  0.28242270723E+01  0.56162561064E+02  0.62499972545E+02  0.00000000000E+00 0.  1.
</event>
<event>
 4    1  0.1977788E-002  0.9118800E+02  0.7818608E-02  0.1130116E+00
         25   -1    0    0    0    0  0.00000000000E+00  0.00000000000E+00  0.99999998245E-14  0.12500000000E+03  0.12500000000E+03 0.  0.
        -11    1    1    0    0    0  0.19395863914E+02  0.30799967343E+02 -0.33240992597E+02  0.49293012835E+02  0.51100000000E-03 0.  1.
         11    1    1    0    0    0  0.51639687443E+01  0.82873879383E+01 -0.88925880472E+01  0.13207024437E+02  0.51100000000E-03 0. -1.
         22    1    1    0    0    0 -0.24559832658E+02 -0.39087355282E+02  0.42133580644E+02  0.62499962728E+02  0.00000000000E+00 0.  1.
</event>
<event>
 4    1  0.1977788E-002  0.9118800E+02  0.7818608E-02  0.1130116E+00
         25   -1    0    0    0    0  0.00000000000E+00  0.00000000000E+00  0.99999998245E-14  0.12500000000E+03  0.12500000000E+03 0.  0.
        -11    1    1    0    0    0  0.23916386058E+02  0.35022489385E+01 -0.73909385659E+01  0.25276179357E+02  0.51100000000E-03 0. -1.
         11    1    1    0    0    0  0.35221863813E+02  0.51537369978E+01 -0.10884490392E+02  0.37223820691E+02  0.51100000000E-03 0.  1.
         22    1    1    0    0    0 -0.59138249871E+02 -0.86559859363E+01  0.18275428958E+02  0.62499999952E+02  0.00000000000E+00 0.  1.
</event>
<event>
 4    1  0.1977788E-002  0.9118800E+02  0.7818608E-02  0.1130116E+00
         25   -1    0    0    0    0  0.00000000000E+00  0.00000000000E+00  0.99999998245E-14  0.12500000000E+03  0.12500000000E+03 0.  0.
        -11    1    1    0    0    0 -0.50019976742E+01 -0.25251873592E+01 -0.35641352525E+01  0.66407538948E+01  0.51100000000E-03 0. -1.
         11    1    1    0    0    0 -0.42083023364E+02 -0.21252950767E+02 -0.29959750299E+02  0.55859246414E+02  0.51100000000E-03 0.  1.
         22    1    1    0    0    0  0.47085021038E+02  0.23778138127E+02  0.33523885551E+02  0.62499999691E+02  0.00000000000E+00 0.  1.
</event>
<event>
 4    1  0.1977788E-002  0.9118800E+02  0.7818608E-02  0.1130116E+00
         25   -1    0    0    0    0  0.00000000000E+00  0.00000000000E+00  0.99999998245E-14  0.12500000000E+03  0.12500000000E+03 0.  0.
        -11    1    1    0    0    0 -0.24508928636E+01  0.23249011403E+01  0.59430102626E+01  0.68360377693E+01  0.51100000000E-03 0. -1.
         11    1    1    0    0    0 -0.20139373624E+02  0.19430494768E+02  0.48118164635E+02  0.55664138051E+02  0.51100000000E-03 0.  1.
         22    1    1    0    0    0  0.22590266488E+02 -0.21755395909E+02 -0.54061174897E+02  0.62499824179E+02  0.00000000000E+00 0.  1.
</event>
<event>
 4    1  0.1977788E-002  0.9118800E+02  0.7818608E-02  0.1130116E+00
         25   -1    0    0    0    0  0.00000000000E+00  0.00000000000E+00  0.99999998245E-14  0.12500000000E+03  0.12500000000E+03 0.  0.
        -11    1    1    0    0    0  0.36300508512E+01 -0.36971628392E+00 -0.23268249357E+01  0.43275944652E+01  0.51100000000E-03 0.  1.
         11    1    1    0    0    0  0.41333965069E+02  0.93055270158E+01 -0.40007124449E+02  0.58272287653E+02  0.51100000000E-03 0. -1.
         22    1    1    0    0    0 -0.44964015920E+02 -0.89358107319E+01  0.42333949385E+02  0.62400117882E+02  0.00000000000E+00 0. -1.
</event>
<event>
 4    1  0.1977788E-002  0.9118800E+02  0.7818608E-02  0.1130116E+00
         25   -1    0    0    0    0  0.00000000000E+00  0.00000000000E+00  0.99999998245E-14  0.12500000000E+03  0.12500000000E+03 0.  0.
        -11    1    1    0    0    0  0.35533229872E+02  0.19089554161E+01  0.10495825763E+02  0.37100092920E+02  0.51100000000E-03 0.  1.
         11    1    1    0    0    0  0.24293303600E+02  0.11612751470E+01  0.73249234838E+01  0.25400150867E+02  0.51100000000E-03 0. -1.
         22    1    1    0    0    0 -0.59826533472E+02 -0.30702305631E+01 -0.17820749247E+02  0.62499756213E+02  0.00000000000E+00 0. -1.
</event>
<event>
 4    1  0.1977788E-002  0.9118800E+02  0.7818608E-02  0.1130116E+00
         25   -1    0    0    0    0  0.00000000000E+00  0.00000000000E+00  0.99999998245E-14  0.12500000000E+03  0.12500000000E+03 0.  0.
        -11    1    1    0    0    0 -0.62274432442E+01 -0.14952808542E+02 -0.36794353592E+02  0.40201890368E+02  0.51100000000E-03 0.  1.
         11    1    1    0    0    0 -0.34537824858E+01 -0.82943128794E+01 -0.20407877246E+02  0.22298109641E+02  0.51100000000E-03 0. -1.
         22    1    1    0    0    0  0.96812257300E+01  0.23247121421E+02  0.57202230838E+02  0.62499999991E+02  0.00000000000E+00 0.  1.
</event>
<event>
 4    1  0.1977788E-002  0.9118800E+02  0.7818608E-02  0.1130116E+00
         25   -1    0    0    0    0  0.00000000000E+00  0.00000000000E+00  0.99999998245E-14  0.12500000000E+03  0.12500000000E+03 0.  0.
        -11    1    1    0    0    0 -0.30653598198E+02 -0.40023320344E+02  0.25772439990E+02  0.56619147972E+02  0.51100000000E-03 0.  1.
         11    1    1    0    0    0 -0.31515287135E+01 -0.41667709726E+01  0.27001980548E+01  0.58809168815E+01  0.51100000000E-03 0. -1.
         22    1    1    0    0    0  0.33805126911E+02  0.44190091316E+02 -0.28472638045E+02  0.62499935146E+02  0.00000000000E+00 0.  1.
</event>
<event>
 4    1  0.1977788E-002  0.9118800E+02  0.7818608E-02  0.1130116E+00
         25   -1    0    0    0    0  0.00000000000E+00  0.00000000000E+00  0.99999998245E-14  0.12500000000E+03  0.12500000000E+03 0.  0.
        -11    1    1    0    0    0 -0.80306711598E+01 -0.11747702624E+02 -0.38104963637E+01  0.14731601373E+02  0.51100000000E-03 0.  1.
         11    1    1    0    0    0  0.34015579181E+02 -0.39425480057E+02  0.81788927550E+01  0.52709794078E+02  0.51100000000E-03 0. -1.
         22    1    1    0    0    0 -0.25984908022E+02  0.51173182681E+02 -0.43683963913E+01  0.57558604549E+02  0.00000000000E+00 0. -1.
</event>
<event>
 4    1  0.1977788E-002  0.9118800E+02  0.7818608E-02  0.1130116E+00
         25   -1    0    0    0    0  0.00000000000E+00  0.00000000000E+00  0.99999998245E-14  0.12500000000E+03  0.12500000000E+03 0.  0.
        -11    1    1    0    0    0  0.40485593394E+01  0.10697708282E+02 -0.32506520143E+01  0.11891111554E+02  0.51100000000E-03 0.  1.
         11    1    1    0    0    0  0.17234069536E+02  0.45526813441E+02 -0.13840364882E+02  0.50608888499E+02  0.51100000000E-03 0.  1.
         22    1    1    0    0    0 -0.21282628875E+02 -0.56224521723E+02  0.17091016896E+02  0.62499999947E+02  0.00000000000E+00 0.  1.
</event>
<event>
 4    1  0.1977788E-002  0.9118800E+02  0.7818608E-02  0.1130116E+00
         25   -1    0    0    0    0  0.00000000000E+00  0.00000000000E+00  0.99999998245E-14  0.12500000000E+03  0.12500000000E+03 0.  0.
        -11    1    1    0    0    0  0.16980059737E+02  0.30941536533E+01  0.14829176620E+02  0.22755234452E+02  0.51100000000E-03 0. -1.
         11    1    1    0    0    0  0.29658319279E+02  0.54039528461E+01  0.25900343238E+02  0.39744765554E+02  0.51100000000E-03 0.  1.
         22    1    1    0    0    0 -0.46638379016E+02 -0.84981064995E+01 -0.40729519859E+02  0.62499999994E+02  0.00000000000E+00 0.  1.
</event>
<event>
 4    1  0.1977788E-002  0.9118800E+02  0.7818608E-02  0.1130116E+00
         25   -1    0    0    0    0  0.00000000000E+00  0.00000000000E+00  0.99999998245E-14  0.12500000000E+03  0.12500000000E+03 0.  0.
        -11    1    1    0    0    0 -0.31822011447E+02  0.31047957988E+01 -0.22082282286E+02  0.38857526436E+02  0.51100000000E-03 0. -1.
         11    1    1    0    0    0 -0.19410006010E+02  0.19318579233E+01 -0.13359985913E+02  0.23642538616E+02  0.51100000000E-03 0.  1.
         22    1    1    0    0    0  0.51232017457E+02 -0.50366537221E+01  0.35442268200E+02  0.62499934948E+02  0.00000000000E+00 0.  1.
</event>
<event>
 4    1  0.1977788E-002  0.9118800E+02  0.7818608E-02  0.1130116E+00
         25   -1    0    0    0    0  0.00000000000E+00  0.00000000000E+00  0.99999998245E-14  0.12500000000E+03  0.12500000000E+03 0.  0.
        -11    1    1    0    0    0  0.20777525350E+01 -0.30867835197E+01  0.47474120862E+01  0.60318496227E+01  0.51100000000E-03 0.  1.
         11    1    1    0    0    0  0.15645794102E+02 -0.25170093371E+02  0.48086770289E+02  0.56485944716E+02  0.51100000000E-03 0. -1.
         22    1    1    0    0    0 -0.17723546637E+02  0.28256876891E+02 -0.52834182375E+02  0.62482205661E+02  0.00000000000E+00 0. -1.
</event>
<event>
 4    1  0.1977788E-002  0.9118800E+02  0.7818608E-02  0.1130116E+00
         25   -1    0    0    0    0  0.00000000000E+00  0.00000000000E+00  0.99999998245E-14  0.12500000000E+03  0.12500000000E+03 0.  0.
        -11    1    1    0    0    0  0.10496019312E+02  0.29478060321E+01 -0.75510838615E+01  0.13261781538E+02  0.51100000000E-03 0. -1.
         11    1    1    0    0    0  0.38969466962E+02  0.10944364023E+02 -0.28035757499E+02  0.49238218469E+02  0.51100000000E-03 0. -1.
         22    1    1    0    0    0 -0.49465486274E+02 -0.13892170055E+02  0.35586841361E+02  0.62499999994E+02  0.00000000000E+00 0. -1.
</event>
<event>
 4    1  0.1977788E-002  0.9118800E+02  0.7818608E-02  0.1130116E+00
         25   -1    0    0    0    0  0.00000000000E+00  0.00000000000E+00  0.99999998245E-14  0.12500000000E+03  0.12500000000E+03 0.  0.
        -11    1    1    0    0    0 -0.29433144626E+01  0.91287928034E+01  0.45785753406E+01  0.10628325855E+02  0.51100000000E-03 0. -1.
         11    1    1    0    0    0 -0.14375939251E+02  0.44546855480E+02  0.22351300475E+02  0.51871674310E+02  0.51100000000E-03 0.  1.
         22    1    1    0    0    0  0.17319253714E+02 -0.53675648284E+02 -0.26929875816E+02  0.62499999835E+02  0.00000000000E+00 0.  1.
</event>
<event>
 4    1  0.1977788E-002  0.9118800E+02  0.7818608E-02  0.1130116E+00
         25   -1    0    0    0    0  0.00000000000E+00  0.00000000000E+00  0.99999998245E-14  0.12500000000E+03  0.12500000000E+03 0.  0.
        -11    1    1    0    0    0  0.60186679344E+01 -0.21045145568E+02  0.34369106248E+02  0.40747490478E+02  0.51100000000E-03 0.  1.
         11    1    1    0    0    0  0.32175745098E+01 -0.11231120120E+02  0.18348864738E+02  0.21752509793E+02  0.51100000000E-03 0. -1.
         22    1    1    0    0    0 -0.92362424441E+01  0.32276265688E+02 -0.52717970986E+02  0.62499999729E+02  0.00000000000E+00 0. -1.
</event>
<event>
 4    1  0.1977788E-002  0.9118800E+02  0.7818608E-02  0.1130116E+00
         25   -1    0    0    0    0  0.00000000000E+00  0.00000000000E+00  0.99999998245E-14  0.12500000000E+03  0.12500000000E+03 0.  0.
        -11    1    1    0    0    0 -0.81754396673E+00  0.18752228347E+02 -0.21188704944E+02  0.28306813024E+02  0.51100000000E-03 0. -1.
         11    1    1    0    0    0 -0.98777790754E+00  0.22653770374E+02 -0.25593065856E+02  0.34193187005E+02  0.51100000000E-03 0.  1.
         22    1    1    0    0    0  0.18053218743E+01 -0.41405998721E+02  0.46781770800E+02  0.62499999971E+02  0.00000000000E+00 0. -1.
</event>
<event>
 4    1  0.1977788E-002  0.9118800E+02  0.7818608E-02  0.1130116E+00
         25   -1    0    0    0    0  0.00000000000E+00  0.00000000000E+00  0.99999998245E-14  0.12500000000E+03  0.12500000000E+03 0.  0.
        -11    1    1    0    0    0  0.14921183645E+02  0.35452621965E+02  0.34414850017E+02  0.51613099379E+02  0.51100000000E-03 0. -1.
         11    1    1    0    0    0  0.31474371414E+01  0.74781052233E+01  0.72592139204E+01  0.10886900628E+02  0.51100000000E-03 0. -1.
         22    1    1    0    0    0 -0.18068620786E+02 -0.42930727188E+02 -0.41674063938E+02  0.62499999993E+02  0.00000000000E+00 0. -1.
</event>
<event>
 4    1  0.1977788E-002  0.9118800E+02  0.7818608E-02  0.1130116E+00
         25   -1    0    0    0    0  0.00000000000E+00  0.00000000000E+00  0.99999998245E-14  0.12500000000E+03  0.12500000000E+03 0.  0.
        -11    1    1    0    0    0  0.31920221053E+02  0.16381932977E+02 -0.22900394635E+02  0.42564026065E+02  0.51100000000E-03 0.  1.
         11    1    1    0    0    0  0.14954252563E+02  0.76775504736E+01 -0.10717678898E+02  0.19935974825E+02  0.51100000000E-03 0. -1.
         22    1    1    0    0    0 -0.46874473616E+02 -0.24059483451E+02  0.33618073533E+02  0.62499999110E+02  0.00000000000E+00 0.  1.
</event>
<event>
 4    1  0.1977788E-002  0.9118800E+02  0.7818608E-02  0.1130116E+00
         25   -1    0    0    0    0  0.00000000000E+00  0.00000000000E+00  0.99999998245E-14  0.12500000000E+03  0.12500000000E+03 0.  0.
        -11    1    1    0    0    0 -0.14000394409E+02  0.49219669590E+01 -0.14528308454E+02  0.20767969307E+02  0.51100000000E-03 0.  1.
         11    1    1    0    0    0 -0.28130122400E+02  0.98902577359E+01 -0.29196599189E+02  0.41732030730E+02  0.51100000000E-03 0. -1.
         22    1    1    0    0    0  0.42130516809E+02 -0.14812224695E+02  0.43724907643E+02  0.62499999963E+02  0.00000000000E+00 0. -1.
</event>
<event>
 4    1  0.1977788E-002  0.9118800E+02  0.7818608E-02  0.1130116E+00
         25   -1    0    0    0    0  0.00000000000E+00  0.00000000000E+00  0.99999998245E-14  0.12500000000E+03  0.12500000000E+03 0.  0.
        -11    1    1    0    0    0  0.19905625904E+01  0.98069252024E+01 -0.24323817325E+01  0.10298281532E+02  0.51100000000E-03 0. -1.
         11    1    1    0    0    0  0.10092666639E+02  0.49710213819E+02 -0.12330942156E+02  0.52201718483E+02  0.51100000000E-03 0. -1.
         22    1    1    0    0    0 -0.12083229230E+02 -0.59517139022E+02  0.14763323888E+02  0.62499999985E+02  0.00000000000E+00 0. -1.
</event>
<event>
 4    1  0.1977788E-002  0.9118800E+02  0.7818608E-02  0.1130116E+00
         25   -1    0    0    0    0  0.00000000000E+00  0.00000000000E+00  0.99999998245E-14  0.12500000000E+03  0.12500000000E+03 0.  0.
        -11    1    1    0    0    0  0.20006081044E+02  0.39852234256E+02 -0.32377928922E+01  0.44709363191E+02  0.51100000000E-03 0. -1.
         11    1    1    0    0    0  0.82137273428E+01  0.15731109524E+02 -0.12658801115E+01  0.17791446721E+02  0.51100000000E-03 0.  1.
         22    1    1    0    0    0 -0.28219808387E+02 -0.55583343779E+02  0.45036730037E+01  0.62499190088E+02  0.00000000000E+00 0. -1.
</event>
<event>
 4    1  0.1977788E-002  0.9118800E+02  0.7818608E-02  0.1130116E+00
         25   -1    0    0    0    0  0.00000000000E+00  0.00000000000E+00  0.99999998245E-14  0.12500000000E+03  0.12500000000E+03 0.  0.
        -11    1    1    0    0    0  0.19331616099E+02  0.37941040988E+02  0.19188027635E+02  0.46705613978E+02  0.51100000000E-03 0. -1.
         11    1    1    0    0    0  0.64043273408E+01  0.12761252919E+02  0.67551879429E+01  0.15795491418E+02  0.51100000000E-03 0.  1.
         22    1    1    0    0    0 -0.25735943440E+02 -0.50702293907E+02 -0.25943215578E+02  0.62498894604E+02  0.00000000000E+00 0. -1.
</event>
<event>
 4    1  0.1977788E-002  0.9118800E+02  0.7818608E-02  0.1130116E+00
         25   -1    0    0    0    0  0.00000000000E+00  0.00000000000E+00  0.99999998245E-14  0.12500000000E+03  0.12500000000E+03 0.  0.
        -11    1    1    0    0    0  0.41090769856E+01 -0.73529754544E+01  0.10161496004E+01  0.84842985554E+01  0.51100000000E-03 0. -1.
         11    1    1    0    0    0  0.26145867736E+02 -0.46822024028E+02  0.64643399824E+01  0.54015701657E+02  0.51100000000E-03 0.  1.
         22    1    1    0    0    0 -0.30254944722E+02  0.54174999483E+02 -0.74804895828E+01  0.62499999788E+02  0.00000000000E+00 0.  1.
</event>
<event>
 4    1  0.1977788E-002  0.9118800E+02  0.7818608E-02  0.1130116E+00
         25   -1    0    0    0    0  0.00000000000E+00  0.00000000000E+00  0.99999998245E-14  0.12500000000E+03  0.12500000000E+03 0.  0.
        -11    1    1    0    0    0  0.31118182814E+00  0.22487283557E+00  0.97460727002E+00  0.10475025128E+01  0.51100000000E-03 0.  1.
         11    1    1    0    0    0  0.18311765078E+02  0.13219577593E+02  0.57151828671E+02  0.61452497855E+02  0.51100000000E-03 0. -1.
         22    1    1    0    0    0 -0.18622946906E+02 -0.13444450429E+02 -0.58126435941E+02  0.62499999632E+02  0.00000000000E+00 0. -1.
</event>
<event>
 4    1  0.1977788E-002  0.9118800E+02  0.7818608E-02  0.1130116E+00
         25   -1    0    0    0    0  0.00000000000E+00  0.00000000000E+00  0.99999998245E-14  0.12500000000E+03  0.12500000000E+03 0.  0.
        -11    1    1    0    0    0 -0.18657508528E+02 -0.24256267676E+02 -0.37747608481E+02  0.48593735114E+02  0.51100000000E-03 0. -1.
         11    1    1    0    0    0 -0.53459317488E+01 -0.69647506248E+01 -0.10784146781E+02  0.13906277704E+02  0.51100000000E-03 0.  1.
         22    1    1    0    0    0  0.24003440277E+02  0.31221018301E+02  0.48531755262E+02  0.62499987182E+02  0.00000000000E+00 0. -1.
</event>
<event>
 4    1  0.1977788E-002  0.9118800E+02  0.7818608E-02  0.1130116E+00
         25   -1    0    0    0    0  0.00000000000E+00  0.00000000000E+00  0.99999998245E-14  0.12500000000E+03  0.12500000000E+03 0.  0.
        -11    1    1    0    0    0  0.11899251752E+02  0.49912749779E+02 -0.14282067478E+02  0.53262108806E+02  0.51100000000E-03 0. -1.
         11    1    1    0    0    0  0.12826004461E+01  0.75559271701E+01 -0.56251522934E+01  0.95068100796E+01  0.51100000000E-03 0.  1.
         22    1    1    0    0    0 -0.13181852199E+02 -0.57468676949E+02  0.19907219771E+02  0.62231081114E+02  0.00000000000E+00 0. -1.
</event>
<event>
 4    1  0.1977788E-002  0.9118800E+02  0.7818608E-02  0.1130116E+00
         25   -1    0    0    0    0  0.00000000000E+00  0.00000000000E+00  0.99999998245E-14  0.12500000000E+03  0.12500000000E+03 0.  0.
        -11    1    1    0    0    0 -0.28859114288E+02 -0.48944742742E+02  0.14774575824E+01  0.56838536229E+02  0.51100000000E-03 0.  1.
         11    1    1    0    0    0 -0.28926921710E+01 -0.48637764822E+01  0.16914803674E+00  0.56615016545E+01  0.51100000000E-03 0. -1.
         22    1    1    0    0    0  0.31751806459E+02  0.53808519224E+02 -0.16466056191E+01  0.62499962116E+02  0.00000000000E+00 0.  1.
</event>
<event>
 4    1  0.1977788E-002  0.9118800E+02  0.7818608E-02  0.1130116E+00
         25   -1    0    0    0    0  0.00000000000E+00  0.00000000000E+00  0.99999998245E-14  0.12500000000E+03  0.12500000000E+03 0.  0.
        -11    1    1    0    0    0 -0.12734529368E+02 -0.74966264921E+01 -0.42785952307E+02  0.45265940419E+02  0.51100000000E-03 0. -1.
         11    1    1    0    0    0 -0.48477910906E+01 -0.28592956756E+01 -0.16289142676E+02  0.17234059870E+02  0.51100000000E-03 0.  1.
         22    1    1    0    0    0  0.17582320458E+02  0.10355922168E+02  0.59075094983E+02  0.62499999711E+02  0.00000000000E+00 0. -1.
</event>
<event>
 4    1  0.1977788E-002  0.9118800E+02  0.7818608E-02  0.1130116E+00
         25   -1    0    0    0    0  0.00000000000E+00  0.00000000000E+00  0.99999998245E-14  0.12500000000E+03  0.12500000000E+03 0.  0.
        -11    1    1    0    0    0 -0.72582193776E+00  0.11558219200E+01 -0.14701734214E+02  0.14764949406E+02  0.51100000000E-03 0. -1.
         11    1    1    0    0    0 -0.26112863319E+01  0.35908379888E+01 -0.47528232814E+02  0.47735163648E+02  0.51100000000E-03 0.  1.
         22    1    1    0    0    0  0.33371082696E+01 -0.47466599088E+01  0.62229967029E+02  0.62499886946E+02  0.00000000000E+00 0.  1.
</event>
<event>
 4    1  0.1977788E-002  0.9118800E+02  0.7818608E-02  0.1130116E+00
         25   -1    0    0    0    0  0.00000000000E+00  0.00000000000E+00  0.99999998245E-14  0.12500000000E+03  0.12500000000E+03 0.  0.
        -11    1    1    0    0    0  0.40028543725E+01  0.50638306096E+01  0.78587389061E+01  0.10169808308E+02  0.51100000000E-03 0. -1.
         11    1    1    0    0    0  0.20492015713E+02  0.26081935071E+02  0.40475424438E+02  0.52330201879E+02  0.51100000000E-03 0.  1.
         22    1    1    0    0    0 -0.24494870085E+02 -0.31145765681E+02 -0.48334163344E+02  0.62499989812E+02  0.00000000000E+00 0.  1.
</event>
<event>
 4    1  0.1977788E-002  0.9118800E+02  0.7818608E-02  0.1130116E+00
         25   -1    0    0    0    0  0.00000000000E+00  0.00000000000E+00  0.99999998245E-14  0.12500000000E+03  0.12500000000E+03 0.  0.
        -11    1    1    0    0    0  0.15856050854E+01 -0.10573569834E+02  0.94497855102E+01  0.14269301629E+02  0.51100000000E-03 0.  1.
         11    1    1    0    0    0  0.53636934871E+01 -0.35740462722E+02  0.31938227647E+02  0.48230698408E+02  0.51100000000E-03 0. -1.
         22    1    1    0    0    0 -0.69492985725E+01  0.46314032557E+02 -0.41388013157E+02  0.62499999963E+02  0.00000000000E+00 0. -1.
</event>
<event>
 4    1  0.1977788E-002  0.9118800E+02  0.7818608E-02  0.1130116E+00
         25   -1    0    0    0    0  0.00000000000E+00  0.00000000000E+00  0.99999998245E-14  0.12500000000E+03  0.12500000000E+03 0.  0.
        -11    1    1    0    0    0 -0.47071391270E+02  0.13739885550E+02 -0.33553179315E+02  0.59416463825E+02  0.51100000000E-03 0. -1.
         11    1    1    0    0    0 -0.18808957018E+01  0.24775504679E+01 -0.12682470077E+01  0.33592373682E+01  0.51100000000E-03 0.  1.
         22    1    1    0    0    0  0.48952286972E+02 -0.16217436018E+02  0.34821426323E+02  0.62224298807E+02  0.00000000000E+00 0. -1.
</event>
<event>
 4    1  0.1977788E-002  0.9118800E+02  0.7818608E-02  0.1130116E+00
         25   -1    0    0    0    0  0.00000000000E+00  0.00000000000E+00  0.99999998245E-14  0.12500000000E+03  0.12500000000E+03 0.  0.
        -11    1    1    0    0    0 -0.14531167110E+02 -0.30760259612E+01  0.17245064725E+02  0.22759811311E+02  0.51100000000E-03 0. -1.
         11    1    1    0    0    0 -0.27653277576E+02 -0.32574235065E+01  0.28394816510E+02  0.39769085651E+02  0.51100000000E-03 0.  1.
         22    1    1    0    0    0  0.42184444686E+02  0.63334494677E+01 -0.45639881235E+02  0.62471103038E+02  0.00000000000E+00 0.  1.
</event>
<event>
 4    1  0.1977788E-002  0.9118800E+02  0.7818608E-02  0.1130116E+00
         25   -1    0    0    0    0  0.00000000000E+00  0.00000000000E+00  0.99999998245E-14  0.12500000000E+03  0.12500000000E+03 0.  0.
        -11    1    1    0    0    0  0.26011371175E+02 -0.80333768692E+01  0.75919857993E+01  0.28262427761E+02  0.51100000000E-03 0.  1.
         11    1    1    0    0    0  0.31510327873E+02 -0.97314313086E+01  0.91983604650E+01  0.34237572249E+02  0.51100000000E-03 0. -1.
         22    1    1    0    0    0 -0.57521699049E+02  0.17764808178E+02 -0.16790346264E+02  0.62499999990E+02  0.00000000000E+00 0. -1.
</event>
<event>
 4    1  0.1977788E-002  0.9118800E+02  0.7818608E-02  0.1130116E+00
         25   -1    0    0    0    0  0.00000000000E+00  0.00000000000E+00  0.99999998245E-14  0.12500000000E+03  0.12500000000E+03 0.  0.
        -11    1    1    0    0    0 -0.47787294886E+02  0.35230027666E+02 -0.17997880271E+02  0.62037924662E+02  0.51100000000E-03 0.  1.
         11    1    1    0    0    0 -0.35190775667E+00  0.26583259433E+00 -0.13794508916E+00  0.46209863249E+00  0.51100000000E-03 0. -1.
         22    1    1    0    0    0  0.48139202643E+02 -0.35495860260E+02  0.18135825360E+02  0.62499976705E+02  0.00000000000E+00 0.  1.
</event>
<event>
 4    1  0.1977788E-002  0.9118800E+02  0.7818608E-02  0.1130116E+00
         25   -1    0    0    0    0  0.00000000000E+00  0.00000000000E+00  0.99999998245E-14  0.12500000000E+03  0.12500000000E+03 0.  0.
        -11    1    1    0    0    0 -0.36893845400E+01 -0.28336620678E+01  0.68758041088E+01  0.83016794326E+01  0.51100000000E-03 0. -1.
         11    1    1    0    0    0 -0.23012491886E+02 -0.23689862400E+02  0.42997409332E+02  0.54217723789E+02  0.51100000000E-03 0.  1.
         22    1    1    0    0    0  0.26701876426E+02  0.26523524468E+02 -0.49873213441E+02  0.62480596778E+02  0.00000000000E+00 0.  1.
</event>
<event>
 4    1  0.1977788E-002  0.9118800E+02  0.7818608E-02  0.1130116E+00
         25   -1    0    0    0    0  0.00000000000E+00  0.00000000000E+00  0.99999998245E-14  0.12500000000E+03  0.12500000000E+03 0.  0.
        -11    1    1    0    0    0 -0.16983060819E+02 -0.35039159959E+02  0.11973237354E+02  0.40737274067E+02  0.51100000000E-03 0.  1.
         11    1    1    0    0    0 -0.90268518832E+01 -0.18802925634E+02  0.62125822917E+01  0.21763047726E+02  0.51100000000E-03 0. -1.
         22    1    1    0    0    0  0.26009912702E+02  0.53842085593E+02 -0.18185819646E+02  0.62499678207E+02  0.00000000000E+00 0.  1.
</event>
<event>
 4    1  0.1977788E-002  0.9118800E+02  0.7818608E-02  0.1130116E+00
         25   -1    0    0    0    0  0.00000000000E+00  0.00000000000E+00  0.99999998245E-14  0.12500000000E+03  0.12500000000E+03 0.  0.
        -11    1    1    0    0    0 -0.34632131104E+02  0.11722175022E+02 -0.95892691322E+01  0.37798782716E+02  0.51100000000E-03 0.  1.
         11    1    1    0    0    0 -0.22764786446E+02  0.72700190180E+01 -0.62540324609E+01  0.24702259021E+02  0.51100000000E-03 0. -1.
         22    1    1    0    0    0  0.57396917550E+02 -0.18992194040E+02  0.15843301593E+02  0.62498958264E+02  0.00000000000E+00 0. -1.
</event>
<event>
 4    1  0.1977788E-002  0.9118800E+02  0.7818608E-02  0.1130116E+00
         25   -1    0    0    0    0  0.00000000000E+00  0.00000000000E+00  0.99999998245E-14  0.12500000000E+03  0.12500000000E+03 0.  0.
        -11    1    1    0    0    0  0.10046632714E+01  0.15795204147E+01  0.30166183760E+00  0.18961100060E+01  0.51100000000E-03 0.  1.
         11    1    1    0    0    0  0.32092205418E+02  0.50500886347E+02  0.96219712782E+01  0.60603890156E+02  0.51100000000E-03 0. -1.
         22    1    1    0    0    0 -0.33096868690E+02 -0.52080406762E+02 -0.99236331158E+01  0.62499999838E+02  0.00000000000E+00 0. -1.
</event>
<event>
 4    1  0.1977788E-002  0.9118800E+02  0.7818608E-02  0.1130116E+00
         25   -1    0    0    0    0  0.00000000000E+00  0.00000000000E+00  0.99999998245E-14  0.12500000000E+03  0.12500000000E+03 0.  0.
        -11    1    1    0    0    0  0.40991104191E+01 -0.53682217172E+01 -0.68818269450E+00  0.67892640481E+01  0.51100000000E-03 0.  1.
         11    1    1    0    0    0  0.27918523107E+02 -0.48234115676E+02 -0.12254115941E+01  0.55744735010E+02  0.51100000000E-03 0. -1.
         22    1    1    0    0    0 -0.32017633526E+02  0.53602337393E+02  0.19135942886E+01  0.62466000942E+02  0.00000000000E+00 0. -1.
</event>
<event>
 4    1  0.1977788E-002  0.9118800E+02  0.7818608E-02  0.1130116E+00
         25   -1    0    0    0    0  0.00000000000E+00  0.00000000000E+00  0.99999998245E-14  0.12500000000E+03  0.12500000000E+03 0.  0.
        -11    1    1    0    0    0  0.91401633744E+01  0.18020245690E+02 -0.44460181312E+02  0.48836252556E+02  0.51100000000E-03 0. -1.
         11    1    1    0    0    0  0.26689404260E+01  0.55644534692E+01 -0.12196159881E+02  0.13668675924E+02  0.51100000000E-03 0.  1.
         22    1    1    0    0    0 -0.11809103800E+02 -0.23584699159E+02  0.56656341192E+02  0.62495071520E+02  0.00000000000E+00 0. -1.
</event>
<event>
 4    1  0.1977788E-002  0.9118800E+02  0.7818608E-02  0.1130116E+00
         25   -1    0    0    0    0  0.00000000000E+00  0.00000000000E+00  0.99999998245E-14  0.12500000000E+03  0.12500000000E+03 0.  0.
        -11    1    1    0    0    0 -0.45397827993E+01  0.27466666295E+02  0.33037636571E+02  0.43203157474E+02  0.51100000000E-03 0. -1.
         11    1    1    0    0    0 -0.20409474097E+01  0.12109783889E+02  0.14885236305E+02  0.19297217216E+02  0.51100000000E-03 0.  1.
         22    1    1    0    0    0  0.65807302090E+01 -0.39576450184E+02 -0.47922872876E+02  0.62499625310E+02  0.00000000000E+00 0. -1.
</event>
<event>
 4    1  0.1977788E-002  0.9118800E+02  0.7818608E-02  0.1130116E+00
         25   -1    0    0    0    0  0.00000000000E+00  0.00000000000E+00  0.99999998245E-14  0.12500000000E+03  0.12500000000E+03 0.  0.
        -11    1    1    0    0    0  0.18639647406E+02 -0.17034560931E+02 -0.41103238288E+02  0.48239910028E+02  0.51100000000E-03 0. -1.
         11    1    1    0    0    0  0.86801550127E+01 -0.73737342063E+00 -0.11773512488E+02  0.14645968973E+02  0.51100000000E-03 0.  1.
         22    1    1    0    0    0 -0.27319802419E+02  0.17771934352E+02  0.52876750776E+02  0.62114120998E+02  0.00000000000E+00 0. -1.
</event>
<event>
 4    1  0.1977788E-002  0.9118800E+02  0.7818608E-02  0.1130116E+00
         25   -1    0    0    0    0  0.00000000000E+00  0.00000000000E+00  0.99999998245E-14  0.12500000000E+03  0.12500000000E+03 0.  0.
        -11    1    1    0    0    0  0.37062379793E+02 -0.50892741546E+01  0.29286345828E+02  0.47510112182E+02  0.51100000000E-03 0. -1.
         11    1    1    0    0    0  0.11694096822E+02 -0.16061018930E+01  0.92393329492E+01  0.14989887837E+02  0.51100000000E-03 0. -1.
         22    1    1    0    0    0 -0.48756476615E+02  0.66953760476E+01 -0.38525678777E+02  0.62499999980E+02  0.00000000000E+00 0. -1.
</event>
<event>
 4    1  0.1977788E-002  0.9118800E+02  0.7818608E-02  0.1130116E+00
         25   -1    0    0    0    0  0.00000000000E+00  0.00000000000E+00  0.99999998245E-14  0.12500000000E+03  0.12500000000E+03 0.  0.
        -11    1    1    0    0    0 -0.23736991875E+02  0.22220967182E+02 -0.10848116311E+02  0.34276782135E+02  0.51100000000E-03 0. -1.
         11    1    1    0    0    0 -0.19760269667E+02  0.18232796550E+02 -0.85845150323E+01  0.28224050488E+02  0.51100000000E-03 0.  1.
         22    1    1    0    0    0  0.43497261543E+02 -0.40453763733E+02  0.19432631343E+02  0.62499167376E+02  0.00000000000E+00 0.  1.
</event>
<event>
 4    1  0.1977788E-002  0.9118800E+02  0.7818608E-02  0.1130116E+00
         25   -1    0    0    0    0  0.00000000000E+00  0.00000000000E+00  0.99999998245E-14  0.12500000000E+03  0.12500000000E+03 0.  0.
        -11    1    1    0    0    0 -0.17950643290E+02  0.14671432128E+02  0.10770502541E+02  0.25563259582E+02  0.51100000000E-03 0.  1.
         11    1    1    0    0    0 -0.25563110914E+02  0.21969506347E+02  0.15112326705E+02  0.36939332255E+02  0.51100000000E-03 0. -1.
         22    1    1    0    0    0  0.43513754204E+02 -0.36640938476E+02 -0.25882829246E+02  0.62497408163E+02  0.00000000000E+00 0. -1.
</event>
<event>
 4    1  0.1977788E-002  0.9118800E+02  0.7818608E-02  0.1130116E+00
         25   -1    0    0    0    0  0.00000000000E+00  0.00000000000E+00  0.99999998245E-14  0.12500000000E+03  0.12500000000E+03 0.  0.
        -11    1    1    0    0    0  0.54039767085E+02  0.19418903381E+02 -0.22465496352E+02  0.61661079797E+02  0.51100000000E-03 0.  1.
         11    1    1    0    0    0  0.74239708390E+00  0.24195605259E+00 -0.30718304710E+00  0.83908154974E+00  0.51100000000E-03 0. -1.
         22    1    1    0    0    0 -0.54782164169E+02 -0.19660859433E+02  0.22772679400E+02  0.62499838653E+02  0.00000000000E+00 0.  1.
</event>
<event>
 4    1  0.1977788E-002  0.9118800E+02  0.7818608E-02  0.1130116E+00
         25   -1    0    0    0    0  0.00000000000E+00  0.00000000000E+00  0.99999998245E-14  0.12500000000E+03  0.12500000000E+03 0.  0.
        -11    1    1    0    0    0  0.20611579177E+02  0.60911453036E+01  0.33242526870E+02  0.39585411963E+02  0.51100000000E-03 0.  1.
         11    1    1    0    0    0 -0.28100270450E+01  0.16242412548E+02  0.19440473794E+02  0.25488119565E+02  0.51100000000E-03 0. -1.
         22    1    1    0    0    0 -0.17801552132E+02 -0.22333557851E+02 -0.52683000664E+02  0.59926468472E+02  0.00000000000E+00 0.  1.
</event>
<event>
 4    1  0.1977788E-002  0.9118800E+02  0.7818608E-02  0.1130116E+00
         25   -1    0    0    0    0  0.00000000000E+00  0.00000000000E+00  0.99999998245E-14  0.12500000000E+03  0.12500000000E+03 0.  0.
        -11    1    1    0    0    0  0.14870339449E+01 -0.80385939724E+00 -0.87155654773E+00  0.19018598689E+01  0.51100000000E-03 0.  1.
         11    1    1    0    0    0  0.47572531337E+02 -0.25160122043E+02 -0.27856074843E+02  0.60598171465E+02  0.51100000000E-03 0. -1.
         22    1    1    0    0    0 -0.49059565282E+02  0.25963981440E+02  0.28727631391E+02  0.62499968666E+02  0.00000000000E+00 0. -1.
</event>
<event>
 4    1  0.1977788E-002  0.9118800E+02  0.7818608E-02  0.1130116E+00
         25   -1    0    0    0    0  0.00000000000E+00  0.00000000000E+00  0.99999998245E-14  0.12500000000E+03  0.12500000000E+03 0.  0.
        -11    1    1    0    0    0 -0.30982158778E+01 -0.55507373573E+01 -0.26306887851E+01  0.68796911690E+01  0.51100000000E-03 0.  1.
         11    1    1    0    0    0 -0.24921119625E+02 -0.44899510880E+02 -0.21368012074E+02  0.55620322014E+02  0.51100000000E-03 0. -1.
         22    1    1    0    0    0  0.28019335503E+02  0.50450248237E+02  0.23998700859E+02  0.62499986817E+02  0.00000000000E+00 0. -1.
</event>
<event>
 4    1  0.1977788E-002  0.9118800E+02  0.7818608E-02  0.1130116E+00
         25   -1    0    0    0    0  0.00000000000E+00  0.00000000000E+00  0.99999998245E-14  0.12500000000E+03  0.12500000000E+03 0.  0.
        -11    1    1    0    0    0  0.30681822015E+02 -0.16410509275E+02  0.28335281727E+02  0.44872789167E+02  0.51100000000E-03 0.  1.
         11    1    1    0    0    0  0.12050135441E+02 -0.64476322876E+01  0.11132872028E+02  0.17627210957E+02  0.51100000000E-03 0. -1.
         22    1    1    0    0    0 -0.42731957456E+02  0.22858141562E+02 -0.39468153755E+02  0.62499999876E+02  0.00000000000E+00 0.  1.
</event>
<event>
 4    1  0.1977788E-002  0.9118800E+02  0.7818608E-02  0.1130116E+00
         25   -1    0    0    0    0  0.00000000000E+00  0.00000000000E+00  0.99999998245E-14  0.12500000000E+03  0.12500000000E+03 0.  0.
        -11    1    1    0    0    0 -0.79167872979E+01  0.45922144275E+02  0.10878245260E+02  0.47852430201E+02  0.51100000000E-03 0. -1.
         11    1    1    0    0    0  0.18705953776E+01 -0.12724810106E+01  0.21528283210E+02  0.21646831482E+02  0.51100000000E-03 0.  1.
         22    1    1    0    0    0  0.60461919203E+01 -0.44649663264E+02 -0.32406528469E+02  0.55500738317E+02  0.00000000000E+00 0. -1.
</event>
<event>
 4    1  0.1977788E-002  0.9118800E+02  0.7818608E-02  0.1130116E+00
         25   -1    0    0    0    0  0.00000000000E+00  0.00000000000E+00  0.99999998245E-14  0.12500000000E+03  0.12500000000E+03 0.  0.
        -11    1    1    0    0    0  0.25378213646E+01  0.70549374457E+01 -0.77640897700E+00  0.75376051105E+01  0.51100000000E-03 0.  1.
         11    1    1    0    0    0  0.18994675092E+02  0.51261163347E+02 -0.56900608858E+01  0.54962544907E+02  0.51100000000E-03 0. -1.
         22    1    1    0    0    0 -0.21532496456E+02 -0.58316100793E+02  0.64664698628E+01  0.62499849982E+02  0.00000000000E+00 0. -1.
</event>
<event>
 4    1  0.1977788E-002  0.9118800E+02  0.7818608E-02  0.1130116E+00
         25   -1    0    0    0    0  0.00000000000E+00  0.00000000000E+00  0.99999998245E-14  0.12500000000E+03  0.12500000000E+03 0.  0.
        -11    1    1    0    0    0 -0.20340805012E+02  0.46635757332E+01  0.19165656910E+02  0.28334072990E+02  0.51100000000E-03 0.  1.
         11    1    1    0    0    0 -0.23954342389E+02  0.43014038901E+01  0.23992604746E+02  0.34175395791E+02  0.51100000000E-03 0. -1.
         22    1    1    0    0    0  0.44295147401E+02 -0.89649796233E+01 -0.43158261656E+02  0.62490531219E+02  0.00000000000E+00 0.  1.
</event>
<event>
 4    1  0.1977788E-002  0.9118800E+02  0.7818608E-02  0.1130116E+00
         25   -1    0    0    0    0  0.00000000000E+00  0.00000000000E+00  0.99999998245E-14  0.12500000000E+03  0.12500000000E+03 0.  0.
        -11    1    1    0    0    0  0.79686267399E+01 -0.19741170825E+02  0.48923630684E+02  0.53354798071E+02  0.51100000000E-03 0.  1.
         11    1    1    0    0    0  0.30704466055E+01 -0.34881657025E+01  0.79602091625E+01  0.92173679810E+01  0.51100000000E-03 0. -1.
         22    1    1    0    0    0 -0.11039073345E+02  0.23229336528E+02 -0.56883839846E+02  0.62427833948E+02  0.00000000000E+00 0.  1.
</event>
<event>
 4    1  0.1977788E-002  0.9118800E+02  0.7818608E-02  0.1130116E+00
         25   -1    0    0    0    0  0.00000000000E+00  0.00000000000E+00  0.99999998245E-14  0.12500000000E+03  0.12500000000E+03 0.  0.
        -11    1    1    0    0    0 -0.51985756263E+01  0.72169523616E+01  0.81610725825E+00  0.89317199491E+01  0.51100000000E-03 0. -1.
         11    1    1    0    0    0 -0.31294545181E+02  0.43222371621E+02  0.46949697282E+01  0.53568318134E+02  0.51100000000E-03 0.  1.
         22    1    1    0    0    0  0.36493120807E+02 -0.50439323983E+02 -0.55110769865E+01  0.62499961917E+02  0.00000000000E+00 0.  1.
</event>
<event>
 4    1  0.1977788E-002  0.9118800E+02  0.7818608E-02  0.1130116E+00
         25   -1    0    0    0    0  0.00000000000E+00  0.00000000000E+00  0.99999998245E-14  0.12500000000E+03  0.12500000000E+03 0.  0.
        -11    1    1    0    0    0  0.50944224200E+02 -0.26364015526E+02 -0.21330985362E+02  0.61199560708E+02  0.51100000000E-03 0.  1.
         11    1    1    0    0    0  0.10853465688E+01 -0.55969095032E+00 -0.44713924611E+00  0.13004479616E+01  0.51100000000E-03 0. -1.
         22    1    1    0    0    0 -0.52029570769E+02  0.26923706477E+02  0.21778124608E+02  0.62499991331E+02  0.00000000000E+00 0.  1.
</event>
<event>
 4    1  0.1977788E-002  0.9118800E+02  0.7818608E-02  0.1130116E+00
         25   -1    0    0    0    0  0.00000000000E+00  0.00000000000E+00  0.99999998245E-14  0.12500000000E+03  0.12500000000E+03 0.  0.
        -11    1    1    0    0    0 -0.30151610080E+00  0.31558937930E+01 -0.11145802107E+02  0.11587902419E+02  0.51100000000E-03 0. -1.
         11    1    1    0    0    0 -0.13475309240E+01  0.13845993295E+02 -0.48974630134E+02  0.50912098434E+02  0.51100000000E-03 0.  1.
         22    1    1    0    0    0  0.16490470248E+01 -0.17001887088E+02  0.60120432241E+02  0.62499999148E+02  0.00000000000E+00 0.  1.
</event>
<event>
 4    1  0.1977788E-002  0.9118800E+02  0.7818608E-02  0.1130116E+00
         25   -1    0    0    0    0  0.00000000000E+00  0.00000000000E+00  0.99999998245E-14  0.12500000000E+03  0.12500000000E+03 0.  0.
        -11    1    1    0    0    0 -0.99116368438E+01  0.22783646119E+02 -0.10731489657E+02  0.27064736206E+02  0.51100000000E-03 0.  1.
         11    1    1    0    0    0 -0.19921913538E+02  0.26923075336E+02 -0.12125383945E+02  0.35619651327E+02  0.51100000000E-03 0. -1.
         22    1    1    0    0    0  0.29833550382E+02 -0.49706721455E+02  0.22856873602E+02  0.62315612467E+02  0.00000000000E+00 0. -1.
</event>
<event>
 4    1  0.1977788E-002  0.9118800E+02  0.7818608E-02  0.1130116E+00
         25   -1    0    0    0    0  0.00000000000E+00  0.00000000000E+00  0.99999998245E-14  0.12500000000E+03  0.12500000000E+03 0.  0.
        -11    1    1    0    0    0 -0.71107865346E+01 -0.30034236966E+02 -0.49720131366E+01  0.31262430970E+02  0.51100000000E-03 0. -1.
         11    1    1    0    0    0 -0.23532033091E+02  0.18813967666E+02  0.37202135636E+02  0.47871921383E+02  0.51100000000E-03 0.  1.
         22    1    1    0    0    0  0.30642819626E+02  0.11220269300E+02 -0.32230122500E+02  0.45865647647E+02  0.00000000000E+00 0.  1.
</event>
<event>
 4    1  0.1977788E-002  0.9118800E+02  0.7818608E-02  0.1130116E+00
         25   -1    0    0    0    0  0.00000000000E+00  0.00000000000E+00  0.99999998245E-14  0.12500000000E+03  0.12500000000E+03 0.  0.
        -11    1    1    0    0    0  0.20686813105E+02  0.52980579100E+02 -0.79871983639E+01  0.57434147823E+02  0.51100000000E-03 0.  1.
         11    1    1    0    0    0  0.45199035913E+01  0.14849181693E+01 -0.41757418863E+01  0.63301920197E+01  0.51100000000E-03 0. -1.
         22    1    1    0    0    0 -0.25206716696E+02 -0.54465497269E+02  0.12162940250E+02  0.61235660157E+02  0.00000000000E+00 0.  1.
</event>
<event>
 4    1  0.1977788E-002  0.9118800E+02  0.7818608E-02  0.1130116E+00
         25   -1    0    0    0    0  0.00000000000E+00  0.00000000000E+00  0.99999998245E-14  0.12500000000E+03  0.12500000000E+03 0.  0.
        -11    1    1    0    0    0 -0.16651770961E+02 -0.53194583185E+01 -0.26155433112E+01  0.17675383447E+02  0.51100000000E-03 0.  1.
         11    1    1    0    0    0 -0.42210387638E+02 -0.13528053767E+02 -0.66724551380E+01  0.44824621818E+02  0.51100000000E-03 0. -1.
         22    1    1    0    0    0  0.58862158599E+02  0.18847512085E+02  0.92879984493E+01  0.62499994735E+02  0.00000000000E+00 0. -1.
</event>
<event>
 4    1  0.1977788E-002  0.9118800E+02  0.7818608E-02  0.1130116E+00
         25   -1    0    0    0    0  0.00000000000E+00  0.00000000000E+00  0.99999998245E-14  0.12500000000E+03  0.12500000000E+03 0.  0.
        -11    1    1    0    0    0  0.11523435175E+02 -0.27225317043E+02  0.24450391363E+02  0.38364424724E+02  0.51100000000E-03 0. -1.
         11    1    1    0    0    0  0.76478947496E+01 -0.17315301759E+02  0.14977508182E+02  0.24137848303E+02  0.51100000000E-03 0.  1.
         22    1    1    0    0    0 -0.19171329925E+02  0.44540618802E+02 -0.39427899544E+02  0.62497726973E+02  0.00000000000E+00 0.  1.
</event>
<event>
 4    1  0.1977788E-002  0.9118800E+02  0.7818608E-02  0.1130116E+00
         25   -1    0    0    0    0  0.00000000000E+00  0.00000000000E+00  0.99999998245E-14  0.12500000000E+03  0.12500000000E+03 0.  0.
        -11    1    1    0    0    0  0.40242682838E+01 -0.88285119672E+01  0.57218362302E+00  0.97192979754E+01  0.51100000000E-03 0. -1.
         11    1    1    0    0    0  0.21853292596E+02 -0.47943328845E+02  0.31101976568E+01  0.52780702039E+02  0.51100000000E-03 0. -1.
         22    1    1    0    0    0 -0.25877560880E+02  0.56771840812E+02 -0.36823812799E+01  0.62499999985E+02  0.00000000000E+00 0. -1.
</event>
<event>
 4    1  0.1977788E-002  0.9118800E+02  0.7818608E-02  0.1130116E+00
         25   -1    0    0    0    0  0.00000000000E+00  0.00000000000E+00  0.99999998245E-14  0.12500000000E+03  0.12500000000E+03 0.  0.
        -11    1    1    0    0    0 -0.20394562288E+01 -0.26267984137E+02  0.11882494284E+02  0.28902595783E+02  0.51100000000E-03 0.  1.
         11    1    1    0    0    0 -0.20219896375E+01 -0.30639526492E+02  0.13636508838E+02  0.33597967190E+02  0.51100000000E-03 0. -1.
         22    1    1    0    0    0  0.40614458663E+01  0.56907510628E+02 -0.25519003122E+02  0.62499437028E+02  0.00000000000E+00 0. -1.
</event>
<event>
 4    1  0.1977788E-002  0.9118800E+02  0.7818608E-02  0.1130116E+00
         25   -1    0    0    0    0  0.00000000000E+00  0.00000000000E+00  0.99999998245E-14  0.12500000000E+03  0.12500000000E+03 0.  0.
        -11    1    1    0    0    0 -0.73455484232E+01  0.33078717648E+02  0.60065790061E+01  0.34412753951E+02  0.51100000000E-03 0.  1.
         11    1    1    0    0    0 -0.59677037220E+01  0.27082641702E+02  0.44572591162E+01  0.28088256058E+02  0.51100000000E-03 0. -1.
         22    1    1    0    0    0  0.13313252145E+02 -0.60161359351E+02 -0.10463838122E+02  0.62498989991E+02  0.00000000000E+00 0.  1.
</event>
<event>
 4    1  0.1977788E-002  0.9118800E+02  0.7818608E-02  0.1130116E+00
         25   -1    0    0    0    0  0.00000000000E+00  0.00000000000E+00  0.99999998245E-14  0.12500000000E+03  0.12500000000E+03 0.  0.
        -11    1    1    0    0    0 -0.28924193171E+02 -0.33169269179E+02  0.10717432898E+02  0.45295394210E+02  0.51100000000E-03 0.  1.
         11    1    1    0    0    0 -0.10985134770E+02 -0.12600392144E+02  0.40688321599E+01  0.17204605880E+02  0.51100000000E-03 0. -1.
         22    1    1    0    0    0  0.39909327941E+02  0.45769661323E+02 -0.14786265058E+02  0.62499999909E+02  0.00000000000E+00 0.  1.
</event>
<event>
 4    1  0.1977788E-002  0.9118800E+02  0.7818608E-02  0.1130116E+00
         25   -1    0    0    0    0  0.00000000000E+00  0.00000000000E+00  0.99999998245E-14  0.12500000000E+03  0.12500000000E+03 0.  0.
        -11    1    1    0    0    0 -0.38614583001E+01  0.12419868741E+01 -0.33771858532E+02  0.34014582470E+02  0.51100000000E-03 0.  1.
         11    1    1    0    0    0 -0.30034732511E+02 -0.25033321695E+02  0.26622582528E+01  0.39189794225E+02  0.51100000000E-03 0. -1.
         22    1    1    0    0    0  0.33896190811E+02  0.23791334821E+02  0.31109600280E+02  0.51795623306E+02  0.00000000000E+00 0. -1.
</event>
<event>
 4    1  0.1977788E-002  0.9118800E+02  0.7818608E-02  0.1130116E+00
         25   -1    0    0    0    0  0.00000000000E+00  0.00000000000E+00  0.99999998245E-14  0.12500000000E+03  0.12500000000E+03 0.  0.
        -11    1    1    0    0    0  0.17601071031E+02 -0.89132564454E+00 -0.48039579220E+02  0.51170238760E+02  0.51100000000E-03 0. -1.
         11    1    1    0    0    0  0.38174857793E+01 -0.28264877355E+00 -0.10663783473E+02  0.11330020575E+02  0.51100000000E-03 0.  1.
         22    1    1    0    0    0 -0.21418556811E+02  0.11739744181E+01  0.58703362693E+02  0.62499740665E+02  0.00000000000E+00 0. -1.
</event>
<event>
 4    1  0.1977788E-002  0.9118800E+02  0.7818608E-02  0.1130116E+00
         25   -1    0    0    0    0  0.00000000000E+00  0.00000000000E+00  0.99999998245E-14  0.12500000000E+03  0.12500000000E+03 0.  0.
        -11    1    1    0    0    0  0.14346090182E+02  0.39595625638E+01 -0.16778810818E+02  0.22428038968E+02  0.51100000000E-03 0. -1.
         11    1    1    0    0    0  0.25689561587E+02  0.70763080241E+01 -0.29928838754E+02  0.40071973987E+02  0.51100000000E-03 0.  1.
         22    1    1    0    0    0 -0.40035651769E+02 -0.11035870588E+02  0.46707649572E+02  0.62499987046E+02  0.00000000000E+00 0. -1.
</event>
<event>
 4    1  0.1977788E-002  0.9118800E+02  0.7818608E-02  0.1130116E+00
         25   -1    0    0    0    0  0.00000000000E+00  0.00000000000E+00  0.99999998245E-14  0.12500000000E+03  0.12500000000E+03 0.  0.
        -11    1    1    0    0    0  0.19209191599E+01 -0.11879184843E+01  0.29513251031E+01  0.37163693128E+01  0.51100000000E-03 0. -1.
         11    1    1    0    0    0  0.30398871183E+02 -0.18832154687E+02  0.46655909594E+02  0.58783631392E+02  0.51100000000E-03 0.  1.
         22    1    1    0    0    0 -0.32319790343E+02  0.20020073171E+02 -0.49607234697E+02  0.62499999295E+02  0.00000000000E+00 0.  1.
</event>
<event>
 4    1  0.1977788E-002  0.9118800E+02  0.7818608E-02  0.1130116E+00
         25   -1    0    0    0    0  0.00000000000E+00  0.00000000000E+00  0.99999998245E-14  0.12500000000E+03  0.12500000000E+03 0.  0.
        -11    1    1    0    0    0  0.44991287274E+01  0.12610545406E+01  0.11854773540E+01  0.48205575070E+01  0.51100000000E-03 0.  1.
         11    1    1    0    0    0  0.52695633009E+02  0.14708713590E+02 -0.19429607387E+02  0.58057606196E+02  0.51100000000E-03 0. -1.
         22    1    1    0    0    0 -0.57194761737E+02 -0.15969768130E+02  0.18244130033E+02  0.62121836297E+02  0.00000000000E+00 0. -1.
</event>
<event>
 4    1  0.1977788E-002  0.9118800E+02  0.7818608E-02  0.1130116E+00
         25   -1    0    0    0    0  0.00000000000E+00  0.00000000000E+00  0.99999998245E-14  0.12500000000E+03  0.12500000000E+03 0.  0.
        -11    1    1    0    0    0  0.10719075267E+02 -0.33733980215E+02  0.28780558260E+02  0.45620176784E+02  0.51100000000E-03 0. -1.
         11    1    1    0    0    0  0.39702973067E+01 -0.12481168204E+02  0.10648268308E+02  0.16879823420E+02  0.51100000000E-03 0.  1.
         22    1    1    0    0    0 -0.14689372574E+02  0.46215148420E+02 -0.39428826568E+02  0.62499999797E+02  0.00000000000E+00 0.  1.
</event>
<event>
 4    1  0.1977788E-002  0.9118800E+02  0.7818608E-02  0.1130116E+00
         25   -1    0    0    0    0  0.00000000000E+00  0.00000000000E+00  0.99999998245E-14  0.12500000000E+03  0.12500000000E+03 0.  0.
        -11    1    1    0    0    0 -0.66851294811E+01  0.72232420166E+01  0.96714823361E+01  0.13798686613E+02  0.51100000000E-03 0. -1.
         11    1    1    0    0    0 -0.43286550264E+02  0.26257805788E+02 -0.42031327499E+01  0.50802205895E+02  0.51100000000E-03 0.  1.
         22    1    1    0    0    0  0.49971679745E+02 -0.33481047805E+02 -0.54683495863E+01  0.60399107492E+02  0.00000000000E+00 0.  1.
</event>
<event>
 4    1  0.1977788E-002  0.9118800E+02  0.7818608E-02  0.1130116E+00
         25   -1    0    0    0    0  0.00000000000E+00  0.00000000000E+00  0.99999998245E-14  0.12500000000E+03  0.12500000000E+03 0.  0.
        -11    1    1    0    0    0 -0.39968735144E+01  0.10585732033E+01  0.11163502460E+02  0.11904594178E+02  0.51100000000E-03 0.  1.
         11    1    1    0    0    0 -0.16575850163E+02  0.42262334830E+01  0.47616186185E+02  0.50595662315E+02  0.51100000000E-03 0. -1.
         22    1    1    0    0    0  0.20572723678E+02 -0.52848066863E+01 -0.58779688645E+02  0.62499743506E+02  0.00000000000E+00 0. -1.
</event>
<event>
 4    1  0.1977788E-002  0.9118800E+02  0.7818608E-02  0.1130116E+00
         25   -1    0    0    0    0  0.00000000000E+00  0.00000000000E+00  0.99999998245E-14  0.12500000000E+03  0.12500000000E+03 0.  0.
        -11    1    1    0    0    0 -0.18736167165E+02 -0.79919682444E+01 -0.15302191764E+02  0.25476903059E+02  0.51100000000E-03 0. -1.
         11    1    1    0    0    0 -0.25503719635E+02 -0.14054501274E+02 -0.22905284471E+02  0.37048897126E+02  0.51100000000E-03 0.  1.
         22    1    1    0    0    0  0.44239886800E+02  0.22046469518E+02  0.38207476234E+02  0.62474199815E+02  0.00000000000E+00 0.  1.
</event>
<event>
 4    1  0.1977788E-002  0.9118800E+02  0.7818608E-02  0.1130116E+00
         25   -1    0    0    0    0  0.00000000000E+00  0.00000000000E+00  0.99999998245E-14  0.12500000000E+03  0.12500000000E+03 0.  0.
        -11    1    1    0    0    0 -0.23669345407E+01  0.27447312870E+01 -0.31089076496E+01  0.47750639779E+01  0.51100000000E-03 0.  1.
         11    1    1    0    0    0 -0.49040571914E+02  0.31449915755E+02 -0.18195953566E+01  0.58287098248E+02  0.51100000000E-03 0. -1.
         22    1    1    0    0    0  0.51407506455E+02 -0.34194647042E+02  0.49285030062E+01  0.61937837774E+02  0.00000000000E+00 0. -1.
</event>
