<event>
 5    1  0.8962782E-005  0.9118800E+02  0.7818608E-02  0.1130116E+00
         25   -1    0    0    0    0  0.00000000000E+00  0.00000000000E+00  0.99999998245E-14  0.12500000000E+03  0.12500000000E+03 0.  0.
        -11    1    3    3    0    0  0.58823233894E+02  0.76876169280E+01  0.94396779973E+01  0.60069791250E+02  0.51100000000E-03 0.  1.
         23    2    1    0    0    0  0.24145306780E+02  0.15099615930E+02  0.73307307228E+01  0.95593642632E+02  0.90958290760E+02 0.  0.
         11    1    3    3    0    0 -0.34677927114E+02  0.74119990021E+01 -0.21089472745E+01  0.35523851382E+02  0.51100000000E-03 0. -1.
         22    1    1    0    0    0 -0.24145306780E+02 -0.15099615930E+02 -0.73307307228E+01  0.29406357368E+02  0.00000000000E+00 0.  1.
</event>
<event>
 5    1  0.8962782E-005  0.9118800E+02  0.7818608E-02  0.1130116E+00
         25   -1    0    0    0    0  0.00000000000E+00  0.00000000000E+00  0.99999998245E-14  0.12500000000E+03  0.12500000000E+03 0.  0.
        -11    1    3    3    0    0 -0.19824967614E+02 -0.19408474614E+01 -0.26894271710E+02  0.33467866392E+02  0.51100000000E-03 0.  1.
         23    2    1    0    0    0  0.27211853967E+02 -0.22338227736E+01  0.12639714486E+02  0.94912837575E+02  0.90017828200E+02 0.  0.
         11    1    3    3    0    0  0.47036821581E+02 -0.29297531224E+00  0.39533986196E+02  0.61444971183E+02  0.51100000000E-03 0. -1.
         22    1    1    0    0    0 -0.27211853967E+02  0.22338227736E+01 -0.12639714486E+02  0.30087162425E+02  0.00000000000E+00 0. -1.
</event>
<event>
 5    1  0.8962782E-005  0.9118800E+02  0.7818608E-02  0.1130116E+00
         25   -1    0    0    0    0  0.00000000000E+00  0.00000000000E+00  0.99999998245E-14  0.12500000000E+03  0.12500000000E+03 0.  0.
        -11    1    3    3    0    0 -0.49132434501E+02  0.28284357200E+02  0.12041383606E+02  0.57956845167E+02  0.51100000000E-03 0. -1.
         23    2    1    0    0    0 -0.28727438833E+02 -0.15324977180E+01 -0.57290499838E+00  0.96226009813E+02  0.91823213041E+02 0.  0.
         11    1    3    3    0    0  0.20404995668E+02 -0.29816854919E+02 -0.12614288604E+02  0.38269164646E+02  0.51100000000E-03 0.  1.
         22    1    1    0    0    0  0.28727438833E+02  0.15324977180E+01  0.57290499838E+00  0.28773990187E+02  0.00000000000E+00 0. -1.
</event>
<event>
 5    1  0.8962782E-005  0.9118800E+02  0.7818608E-02  0.1130116E+00
         25   -1    0    0    0    0  0.00000000000E+00  0.00000000000E+00  0.99999998245E-14  0.12500000000E+03  0.12500000000E+03 0.  0.
        -11    1    3    3    0    0  0.55111791444E+02  0.12064711018E+02  0.18429352200E+02  0.59350718874E+02  0.51100000000E-03 0.  1.
         23    2    1    0    0    0  0.18382905026E+02  0.15487474300E+02  0.15593884630E+02  0.96347560396E+02  0.91988532432E+02 0.  0.
         11    1    3    3    0    0 -0.36728886418E+02  0.34227632816E+01 -0.28354675692E+01  0.36996841522E+02  0.51100000000E-03 0. -1.
         22    1    1    0    0    0 -0.18382905026E+02 -0.15487474300E+02 -0.15593884630E+02  0.28652439604E+02  0.00000000000E+00 0.  1.
</event>
<event>
 5    1  0.8962782E-005  0.9118800E+02  0.7818608E-02  0.1130116E+00
         25   -1    0    0    0    0  0.00000000000E+00  0.00000000000E+00  0.99999998245E-14  0.12500000000E+03  0.12500000000E+03 0.  0.
        -11    1    3    3    0    0  0.31006852124E+02  0.13403767480E+02 -0.48618168116E+02  0.59201453804E+02  0.51100000000E-03 0.  1.
         23    2    1    0    0    0  0.14448834009E+02  0.17688504304E+02 -0.12984015223E+02  0.98727644946E+02  0.95167805673E+02 0.  0.
         11    1    3    3    0    0 -0.16558018115E+02  0.42847368241E+01  0.35634152893E+02  0.39526191142E+02  0.51100000000E-03 0. -1.
         22    1    1    0    0    0 -0.14448834009E+02 -0.17688504304E+02  0.12984015223E+02  0.26272355054E+02  0.00000000000E+00 0.  1.
</event>
<event>
 5    1  0.8962782E-005  0.9118800E+02  0.7818608E-02  0.1130116E+00
         25   -1    0    0    0    0  0.00000000000E+00  0.00000000000E+00  0.99999998245E-14  0.12500000000E+03  0.12500000000E+03 0.  0.
        -11    1    3    3    0    0  0.23233498516E+02 -0.38569109123E+02 -0.50729503620E+01  0.45311217788E+02  0.51100000000E-03 0.  1.
         23    2    1    0    0    0 -0.14889482054E+02 -0.15930536843E+02  0.19276709870E+02  0.95895529152E+02  0.91372218359E+02 0.  0.
         11    1    3    3    0    0 -0.38122980570E+02  0.22638572280E+02  0.24349660232E+02  0.50584311363E+02  0.51100000000E-03 0. -1.
         22    1    1    0    0    0  0.14889482054E+02  0.15930536843E+02 -0.19276709870E+02  0.29104470848E+02  0.00000000000E+00 0. -1.
</event>
<event>
 5    1  0.8962782E-005  0.9118800E+02  0.7818608E-02  0.1130116E+00
         25   -1    0    0    0    0  0.00000000000E+00  0.00000000000E+00  0.99999998245E-14  0.12500000000E+03  0.12500000000E+03 0.  0.
        -11    1    3    3    0    0  0.19713275345E+02 -0.26659899918E+02  0.15631584671E+02  0.36656649166E+02  0.51100000000E-03 0. -1.
         23    2    1    0    0    0  0.69071334309E+01  0.26998714033E+02 -0.69710283655E+01  0.96273108623E+02  0.91887306827E+02 0.  0.
         11    1    3    3    0    0 -0.12806141914E+02  0.53658613952E+02 -0.22602613037E+02  0.59616459458E+02  0.51100000000E-03 0.  1.
         22    1    1    0    0    0 -0.69071334309E+01 -0.26998714033E+02  0.69710283655E+01  0.28726891377E+02  0.00000000000E+00 0.  1.
</event>
<event>
 5    1  0.8962782E-005  0.9118800E+02  0.7818608E-02  0.1130116E+00
         25   -1    0    0    0    0  0.00000000000E+00  0.00000000000E+00  0.99999998245E-14  0.12500000000E+03  0.12500000000E+03 0.  0.
        -11    1    3    3    0    0 -0.22896414416E+02  0.20622819102E+02 -0.52933894457E+02  0.61249846069E+02  0.51100000000E-03 0. -1.
         23    2    1    0    0    0 -0.12935307789E+02  0.16441482777E+02 -0.19443092620E+02  0.96439916069E+02  0.92113945835E+02 0.  0.
         11    1    3    3    0    0  0.99611066266E+01 -0.41813363254E+01  0.33490801837E+02  0.35190070000E+02  0.51100000000E-03 0.  1.
         22    1    1    0    0    0  0.12935307789E+02 -0.16441482777E+02  0.19443092620E+02  0.28560083931E+02  0.00000000000E+00 0. -1.
</event>
<event>
 5    1  0.8962782E-005  0.9118800E+02  0.7818608E-02  0.1130116E+00
         25   -1    0    0    0    0  0.00000000000E+00  0.00000000000E+00  0.99999998245E-14  0.12500000000E+03  0.12500000000E+03 0.  0.
        -11    1    3    3    0    0  0.54302444452E+01 -0.40215485056E+02  0.52622311280E+01  0.40920213462E+02  0.51100000000E-03 0.  1.
         23    2    1    0    0    0  0.33692127490E+00  0.95432069515E+01  0.27669872600E+02  0.95728714334E+02  0.91143724871E+02 0.  0.
         11    1    3    3    0    0 -0.50933231703E+01  0.49758692008E+02  0.22407641472E+02  0.54808500872E+02  0.51100000000E-03 0. -1.
         22    1    1    0    0    0 -0.33692127490E+00 -0.95432069515E+01 -0.27669872600E+02  0.29271285666E+02  0.00000000000E+00 0. -1.
</event>
<event>
 5    1  0.8962782E-005  0.9118800E+02  0.7818608E-02  0.1130116E+00
         25   -1    0    0    0    0  0.00000000000E+00  0.00000000000E+00  0.99999998245E-14  0.12500000000E+03  0.12500000000E+03 0.  0.
        -11    1    3    3    0    0  0.71706928991E+00 -0.16465898176E+02  0.33601809148E+02  0.37426215002E+02  0.51100000000E-03 0.  1.
         23    2    1    0    0    0 -0.72982531947E+01 -0.12403864844E+02 -0.24698202355E+02  0.96414661759E+02  0.92079668982E+02 0.  0.
         11    1    3    3    0    0 -0.80153224846E+01  0.40620333317E+01 -0.58300011503E+02  0.58988446757E+02  0.51100000000E-03 0. -1.
         22    1    1    0    0    0  0.72982531947E+01  0.12403864844E+02  0.24698202355E+02  0.28585338241E+02  0.00000000000E+00 0. -1.
</event>
<event>
 5    1  0.8962782E-005  0.9118800E+02  0.7818608E-02  0.1130116E+00
         25   -1    0    0    0    0  0.00000000000E+00  0.00000000000E+00  0.99999998245E-14  0.12500000000E+03  0.12500000000E+03 0.  0.
        -11    1    3    3    0    0 -0.12531687336E+02  0.24489722058E+02 -0.27705977127E+02  0.39043704266E+02  0.51100000000E-03 0.  1.
         23    2    1    0    0    0 -0.12767869575E+02 -0.24080521829E+02  0.45740315026E+01  0.97362854901E+02  0.93357986938E+02 0.  0.
         11    1    3    3    0    0 -0.23618223820E+00 -0.48570243888E+02  0.32280008630E+02  0.58319150635E+02  0.51100000000E-03 0. -1.
         22    1    1    0    0    0  0.12767869575E+02  0.24080521829E+02 -0.45740315026E+01  0.27637145099E+02  0.00000000000E+00 0. -1.
</event>
<event>
 5    1  0.8962782E-005  0.9118800E+02  0.7818608E-02  0.1130116E+00
         25   -1    0    0    0    0  0.00000000000E+00  0.00000000000E+00  0.99999998245E-14  0.12500000000E+03  0.12500000000E+03 0.  0.
        -11    1    3    3    0    0  0.10703007167E+02  0.36746797475E+01  0.34528313968E+02  0.36335411095E+02  0.51100000000E-03 0.  1.
         23    2    1    0    0    0 -0.16400514294E+02  0.20332692693E+02 -0.14757513592E+02  0.94997009005E+02  0.90134634027E+02 0.  0.
         11    1    3    3    0    0 -0.27103521461E+02  0.16658012945E+02 -0.49285827560E+02  0.58661597910E+02  0.51100000000E-03 0. -1.
         22    1    1    0    0    0  0.16400514294E+02 -0.20332692693E+02  0.14757513592E+02  0.30002990995E+02  0.00000000000E+00 0.  1.
</event>
<event>
 5    1  0.8962782E-005  0.9118800E+02  0.7818608E-02  0.1130116E+00
         25   -1    0    0    0    0  0.00000000000E+00  0.00000000000E+00  0.99999998245E-14  0.12500000000E+03  0.12500000000E+03 0.  0.
        -11    1    3    3    0    0 -0.50536949653E+02 -0.44219236906E+01 -0.62260547210E+01  0.51110668623E+02  0.51100000000E-03 0. -1.
         23    2    1    0    0    0 -0.16373641276E+02  0.19440231957E+02  0.12357415652E+02  0.96738286167E+02  0.92517952538E+02 0.  0.
         11    1    3    3    0    0  0.34163308377E+02  0.23862155647E+02  0.18583470373E+02  0.45627617544E+02  0.51100000000E-03 0.  1.
         22    1    1    0    0    0  0.16373641276E+02 -0.19440231957E+02 -0.12357415652E+02  0.28261713833E+02  0.00000000000E+00 0.  1.
</event>
<event>
 5    1  0.8962782E-005  0.9118800E+02  0.7818608E-02  0.1130116E+00
         25   -1    0    0    0    0  0.00000000000E+00  0.00000000000E+00  0.99999998245E-14  0.12500000000E+03  0.12500000000E+03 0.  0.
        -11    1    3    3    0    0  0.20984728027E+02 -0.37377882440E+02  0.42643316856E+02  0.60464182611E+02  0.51100000000E-03 0.  1.
         23    2    1    0    0    0  0.42864023391E+00 -0.23537609193E+02  0.18534963896E+02  0.95037562422E+02  0.90190856552E+02 0.  0.
         11    1    3    3    0    0 -0.20556087793E+02  0.13840273247E+02 -0.24108352960E+02  0.34573379812E+02  0.51100000000E-03 0. -1.
         22    1    1    0    0    0 -0.42864023391E+00  0.23537609193E+02 -0.18534963896E+02  0.29962437578E+02  0.00000000000E+00 0.  1.
</event>
<event>
 5    1  0.8962782E-005  0.9118800E+02  0.7818608E-02  0.1130116E+00
         25   -1    0    0    0    0  0.00000000000E+00  0.00000000000E+00  0.99999998245E-14  0.12500000000E+03  0.12500000000E+03 0.  0.
        -11    1    3    3    0    0  0.46626403979E+02 -0.16656327333E+02  0.25355366186E+02  0.55626876444E+02  0.51100000000E-03 0.  1.
         23    2    1    0    0    0  0.65908572586E+01 -0.17881148727E+02  0.22107166630E+02  0.95812644936E+02  0.91258759766E+02 0.  0.
         11    1    3    3    0    0 -0.40035546721E+02 -0.12248213938E+01 -0.32481995562E+01  0.40185768492E+02  0.51100000000E-03 0. -1.
         22    1    1    0    0    0 -0.65908572586E+01  0.17881148727E+02 -0.22107166630E+02  0.29187355064E+02  0.00000000000E+00 0. -1.
</event>
<event>
 5    1  0.8962782E-005  0.9118800E+02  0.7818608E-02  0.1130116E+00
         25   -1    0    0    0    0  0.00000000000E+00  0.00000000000E+00  0.99999998245E-14  0.12500000000E+03  0.12500000000E+03 0.  0.
        -11    1    3    3    0    0 -0.21498414204E+02  0.80405131534E+01 -0.16494098894E+01  0.23012001614E+02  0.51100000000E-03 0. -1.
         23    2    1    0    0    0  0.36142753781E+02  0.22464659763E+02 -0.49272584396E+00  0.82441776730E+02  0.70607677929E+02 0.  0.
         11    1    3    3    0    0  0.57641167985E+02  0.14424146610E+02  0.11566840454E+01  0.59429775116E+02  0.51100000000E-03 0.  1.
         22    1    1    0    0    0 -0.36142753781E+02 -0.22464659763E+02  0.49272584396E+00  0.42558223270E+02  0.00000000000E+00 0.  1.
</event>
<event>
 5    1  0.8962782E-005  0.9118800E+02  0.7818608E-02  0.1130116E+00
         25   -1    0    0    0    0  0.00000000000E+00  0.00000000000E+00  0.99999998245E-14  0.12500000000E+03  0.12500000000E+03 0.  0.
        -11    1    3    3    0    0 -0.35431989966E+01  0.31095878866E+02  0.22423779973E+02  0.38501088948E+02  0.51100000000E-03 0.  1.
         23    2    1    0    0    0  0.22190227387E+02 -0.17694122110E+02  0.77208158077E+01  0.95587432185E+02  0.90949755614E+02 0.  0.
         11    1    3    3    0    0  0.25733426384E+02 -0.48790000976E+02 -0.14702964166E+02  0.57086343237E+02  0.51100000000E-03 0. -1.
         22    1    1    0    0    0 -0.22190227387E+02  0.17694122110E+02 -0.77208158077E+01  0.29412567815E+02  0.00000000000E+00 0. -1.
</event>
<event>
 5    1  0.8962782E-005  0.9118800E+02  0.7818608E-02  0.1130116E+00
         25   -1    0    0    0    0  0.00000000000E+00  0.00000000000E+00  0.99999998245E-14  0.12500000000E+03  0.12500000000E+03 0.  0.
        -11    1    3    3    0    0 -0.38229145300E+00 -0.49264144285E+02 -0.34485735426E+02  0.60136245369E+02  0.51100000000E-03 0. -1.
         23    2    1    0    0    0 -0.11827207236E+02 -0.19602666674E+02 -0.17509326972E+02  0.96177718641E+02  0.91757450162E+02 0.  0.
         11    1    3    3    0    0 -0.11444915783E+02  0.29661477611E+02  0.16976408454E+02  0.36041473272E+02  0.51100000000E-03 0.  1.
         22    1    1    0    0    0  0.11827207236E+02  0.19602666674E+02  0.17509326972E+02  0.28822281359E+02  0.00000000000E+00 0. -1.
</event>
<event>
 5    1  0.8962782E-005  0.9118800E+02  0.7818608E-02  0.1130116E+00
         25   -1    0    0    0    0  0.00000000000E+00  0.00000000000E+00  0.99999998245E-14  0.12500000000E+03  0.12500000000E+03 0.  0.
        -11    1    3    3    0    0 -0.31057156262E+02 -0.22787187293E+02 -0.32816902325E+02  0.50603872760E+02  0.51100000000E-03 0.  1.
         23    2    1    0    0    0 -0.27711496051E+02 -0.52010653677E+01  0.84328234016E+01  0.95570582661E+02  0.90926594929E+02 0.  0.
         11    1    3    3    0    0  0.33456602103E+01  0.17586121925E+02  0.41249725727E+02  0.44966709902E+02  0.51100000000E-03 0. -1.
         22    1    1    0    0    0  0.27711496051E+02  0.52010653677E+01 -0.84328234016E+01  0.29429417339E+02  0.00000000000E+00 0.  1.
</event>
<event>
 5    1  0.8962782E-005  0.9118800E+02  0.7818608E-02  0.1130116E+00
         25   -1    0    0    0    0  0.00000000000E+00  0.00000000000E+00  0.99999998245E-14  0.12500000000E+03  0.12500000000E+03 0.  0.
        -11    1    3    3    0    0  0.42388940730E+02  0.78464897415E+01  0.35350397266E+02  0.55749800759E+02  0.51100000000E-03 0.  1.
         23    2    1    0    0    0  0.28587207892E+02  0.66106578756E+01 -0.20024926133E+01  0.95590150812E+02  0.90953491978E+02 0.  0.
         11    1    3    3    0    0 -0.13801732838E+02 -0.12358318659E+01 -0.37352889879E+02  0.39840350053E+02  0.51100000000E-03 0. -1.
         22    1    1    0    0    0 -0.28587207892E+02 -0.66106578756E+01  0.20024926133E+01  0.29409849188E+02  0.00000000000E+00 0.  1.
</event>
<event>
 5    1  0.8962782E-005  0.9118800E+02  0.7818608E-02  0.1130116E+00
         25   -1    0    0    0    0  0.00000000000E+00  0.00000000000E+00  0.99999998245E-14  0.12500000000E+03  0.12500000000E+03 0.  0.
        -11    1    3    3    0    0 -0.67942651738E+01  0.19537022269E+02  0.56268122894E+02  0.59949636635E+02  0.51100000000E-03 0. -1.
         23    2    1    0    0    0 -0.13521959345E+02  0.14403665241E+02  0.21211618897E+02  0.96013076515E+02  0.91532885504E+02 0.  0.
         11    1    3    3    0    0 -0.67276941709E+01 -0.51333570279E+01 -0.35056503997E+02  0.36063439880E+02  0.51100000000E-03 0.  1.
         22    1    1    0    0    0  0.13521959345E+02 -0.14403665241E+02 -0.21211618897E+02  0.28986923485E+02  0.00000000000E+00 0. -1.
</event>
<event>
 5    1  0.8962782E-005  0.9118800E+02  0.7818608E-02  0.1130116E+00
         25   -1    0    0    0    0  0.00000000000E+00  0.00000000000E+00  0.99999998245E-14  0.12500000000E+03  0.12500000000E+03 0.  0.
        -11    1    3    3    0    0  0.43853135801E+02  0.36203044853E+01 -0.38714448145E+02  0.58608980708E+02  0.51100000000E-03 0.  1.
         23    2    1    0    0    0  0.12303016601E+02  0.15386671799E+02 -0.19008629492E+02  0.97624063821E+02  0.93707075268E+02 0.  0.
         11    1    3    3    0    0 -0.31550119200E+02  0.11766367313E+02  0.19705818653E+02  0.39015083113E+02  0.51100000000E-03 0. -1.
         22    1    1    0    0    0 -0.12303016601E+02 -0.15386671799E+02  0.19008629492E+02  0.27375936179E+02  0.00000000000E+00 0.  1.
</event>
<event>
 5    1  0.8962782E-005  0.9118800E+02  0.7818608E-02  0.1130116E+00
         25   -1    0    0    0    0  0.00000000000E+00  0.00000000000E+00  0.99999998245E-14  0.12500000000E+03  0.12500000000E+03 0.  0.
        -11    1    3    3    0    0 -0.19255024960E+02  0.24160062626E+01  0.30759452015E+02  0.36369450931E+02  0.51100000000E-03 0. -1.
         23    2    1    0    0    0  0.18431965564E+01  0.16361251574E+02 -0.23542145688E+02  0.96271607246E+02  0.91885264388E+02 0.  0.
         11    1    3    3    0    0  0.21098221516E+02  0.13945245311E+02 -0.54301597703E+02  0.59902156316E+02  0.51100000000E-03 0.  1.
         22    1    1    0    0    0 -0.18431965564E+01 -0.16361251574E+02  0.23542145688E+02  0.28728392754E+02  0.00000000000E+00 0.  1.
</event>
<event>
 5    1  0.8962782E-005  0.9118800E+02  0.7818608E-02  0.1130116E+00
         25   -1    0    0    0    0  0.00000000000E+00  0.00000000000E+00  0.99999998245E-14  0.12500000000E+03  0.12500000000E+03 0.  0.
        -11    1    3    3    0    0  0.36520990417E+02  0.45986882443E+01  0.11934717226E+02  0.38695841509E+02  0.51100000000E-03 0. -1.
         23    2    1    0    0    0 -0.14256264200E+02 -0.19232867342E+02  0.17905430935E+02  0.95104369682E+02  0.90283400581E+02 0.  0.
         11    1    3    3    0    0 -0.50777254617E+02 -0.23831555587E+02  0.59707137091E+01  0.56408528172E+02  0.51100000000E-03 0.  1.
         22    1    1    0    0    0  0.14256264200E+02  0.19232867342E+02 -0.17905430935E+02  0.29895630318E+02  0.00000000000E+00 0.  1.
</event>
<event>
 5    1  0.8962782E-005  0.9118800E+02  0.7818608E-02  0.1130116E+00
         25   -1    0    0    0    0  0.00000000000E+00  0.00000000000E+00  0.99999998245E-14  0.12500000000E+03  0.12500000000E+03 0.  0.
        -11    1    3    3    0    0  0.44507435676E+00 -0.16420280927E+02  0.36011178573E+02  0.39580660674E+02  0.51100000000E-03 0. -1.
         23    2    1    0    0    0  0.26488390751E+02 -0.27763695271E+02 -0.14570181395E+01  0.86599732793E+02  0.77620443173E+02 0.  0.
         11    1    3    3    0    0  0.26043316394E+02 -0.11343414344E+02 -0.37468196713E+02  0.47019072119E+02  0.51100000000E-03 0.  1.
         22    1    1    0    0    0 -0.26488390751E+02  0.27763695271E+02  0.14570181395E+01  0.38400267207E+02  0.00000000000E+00 0. -1.
</event>
<event>
 5    1  0.8962782E-005  0.9118800E+02  0.7818608E-02  0.1130116E+00
         25   -1    0    0    0    0  0.00000000000E+00  0.00000000000E+00  0.99999998245E-14  0.12500000000E+03  0.12500000000E+03 0.  0.
        -11    1    3    3    0    0  0.28682869951E+02 -0.23642641885E+02  0.28869176154E+02  0.47064964421E+02  0.51100000000E-03 0. -1.
         23    2    1    0    0    0  0.20847908570E+02 -0.12573206021E+02 -0.17266664648E+02  0.95152747037E+02  0.90350355612E+02 0.  0.
         11    1    3    3    0    0 -0.78349613812E+01  0.11069435863E+02 -0.46135840801E+02  0.48087782616E+02  0.51100000000E-03 0.  1.
         22    1    1    0    0    0 -0.20847908570E+02  0.12573206021E+02  0.17266664648E+02  0.29847252963E+02  0.00000000000E+00 0.  1.
</event>
<event>
 5    1  0.8962782E-005  0.9118800E+02  0.7818608E-02  0.1130116E+00
         25   -1    0    0    0    0  0.00000000000E+00  0.00000000000E+00  0.99999998245E-14  0.12500000000E+03  0.12500000000E+03 0.  0.
        -11    1    3    3    0    0  0.63209070878E+01  0.38508646361E+02 -0.23335170244E+00  0.39024660976E+02  0.51100000000E-03 0. -1.
         23    2    1    0    0    0  0.10514818711E+01 -0.19473442816E+02 -0.16477176280E+02  0.99469274836E+02  0.96136978884E+02 0.  0.
         11    1    3    3    0    0 -0.52694252166E+01 -0.57982089178E+02 -0.16243824578E+02  0.60444613860E+02  0.51100000000E-03 0.  1.
         22    1    1    0    0    0 -0.10514818711E+01  0.19473442816E+02  0.16477176280E+02  0.25530725164E+02  0.00000000000E+00 0.  1.
</event>
<event>
 5    1  0.8962782E-005  0.9118800E+02  0.7818608E-02  0.1130116E+00
         25   -1    0    0    0    0  0.00000000000E+00  0.00000000000E+00  0.99999998245E-14  0.12500000000E+03  0.12500000000E+03 0.  0.
        -11    1    3    3    0    0  0.29291565138E+02 -0.85249685723E+01 -0.23089880407E+02  0.38259815144E+02  0.51100000000E-03 0.  1.
         23    2    1    0    0    0  0.21685678632E+01  0.28426444382E+02  0.99945040607E+01  0.94789810689E+02  0.89846828950E+02 0.  0.
         11    1    3    3    0    0 -0.27122997275E+02  0.36951412954E+02  0.33084384467E+02  0.56529995545E+02  0.51100000000E-03 0. -1.
         22    1    1    0    0    0 -0.21685678632E+01 -0.28426444382E+02 -0.99945040607E+01  0.30210189311E+02  0.00000000000E+00 0. -1.
</event>
<event>
 5    1  0.8962782E-005  0.9118800E+02  0.7818608E-02  0.1130116E+00
         25   -1    0    0    0    0  0.00000000000E+00  0.00000000000E+00  0.99999998245E-14  0.12500000000E+03  0.12500000000E+03 0.  0.
        -11    1    3    3    0    0 -0.48213703042E+02  0.15668903890E+02 -0.33681554219E+02  0.60864791177E+02  0.51100000000E-03 0. -1.
         23    2    1    0    0    0 -0.24738502159E+02 -0.25415087527E+01 -0.15303885464E+02  0.95799629007E+02  0.91240929695E+02 0.  0.
         11    1    3    3    0    0  0.23475200883E+02 -0.18210412643E+02  0.18377668754E+02  0.34934837830E+02  0.51100000000E-03 0.  1.
         22    1    1    0    0    0  0.24738502159E+02  0.25415087527E+01  0.15303885464E+02  0.29200370993E+02  0.00000000000E+00 0. -1.
</event>
<event>
 5    1  0.8962782E-005  0.9118800E+02  0.7818608E-02  0.1130116E+00
         25   -1    0    0    0    0  0.00000000000E+00  0.00000000000E+00  0.99999998245E-14  0.12500000000E+03  0.12500000000E+03 0.  0.
        -11    1    3    3    0    0 -0.31172175864E+02  0.88667124915E+01  0.24914072327E+02  0.40878284439E+02  0.51100000000E-03 0. -1.
         23    2    1    0    0    0  0.21429992319E+02  0.16437132708E+02  0.56404152093E+01  0.97409454768E+02  0.93420360158E+02 0.  0.
         11    1    3    3    0    0  0.52602168183E+02  0.75704202164E+01 -0.19273657118E+02  0.56531170329E+02  0.51100000000E-03 0.  1.
         22    1    1    0    0    0 -0.21429992319E+02 -0.16437132708E+02 -0.56404152093E+01  0.27590545232E+02  0.00000000000E+00 0.  1.
</event>
<event>
 5    1  0.8962782E-005  0.9118800E+02  0.7818608E-02  0.1130116E+00
         25   -1    0    0    0    0  0.00000000000E+00  0.00000000000E+00  0.99999998245E-14  0.12500000000E+03  0.12500000000E+03 0.  0.
        -11    1    3    3    0    0 -0.18094811619E+02 -0.34745744868E+02  0.18433329820E+02  0.43295226555E+02  0.51100000000E-03 0.  1.
         23    2    1    0    0    0  0.15064369272E+02  0.71976809286E+01  0.22573923560E+02  0.96922894430E+02  0.92767039445E+02 0.  0.
         11    1    3    3    0    0  0.33159180891E+02  0.41943425796E+02  0.41405937401E+01  0.53627667875E+02  0.51100000000E-03 0. -1.
         22    1    1    0    0    0 -0.15064369272E+02 -0.71976809286E+01 -0.22573923560E+02  0.28077105570E+02  0.00000000000E+00 0. -1.
</event>
<event>
 5    1  0.8962782E-005  0.9118800E+02  0.7818608E-02  0.1130116E+00
         25   -1    0    0    0    0  0.00000000000E+00  0.00000000000E+00  0.99999998245E-14  0.12500000000E+03  0.12500000000E+03 0.  0.
        -11    1    3    3    0    0  0.15382695334E+02 -0.69909115341E+01 -0.34745449859E+02  0.38636077001E+02  0.51100000000E-03 0.  1.
         23    2    1    0    0    0  0.11604885777E+02  0.15784973068E+02  0.19356968181E+02  0.97458559119E+02  0.93486040561E+02 0.  0.
         11    1    3    3    0    0 -0.37778095573E+01  0.22775884602E+02  0.54102418040E+02  0.58822482118E+02  0.51100000000E-03 0. -1.
         22    1    1    0    0    0 -0.11604885777E+02 -0.15784973068E+02 -0.19356968181E+02  0.27541440881E+02  0.00000000000E+00 0. -1.
</event>
<event>
 5    1  0.8962782E-005  0.9118800E+02  0.7818608E-02  0.1130116E+00
         25   -1    0    0    0    0  0.00000000000E+00  0.00000000000E+00  0.99999998245E-14  0.12500000000E+03  0.12500000000E+03 0.  0.
        -11    1    3    3    0    0 -0.25287202840E+02 -0.27843062062E+02 -0.31256207014E+02  0.48904286209E+02  0.51100000000E-03 0. -1.
         23    2    1    0    0    0  0.32164529412E+01 -0.26262485017E+02  0.79227640987E+01  0.97380552508E+02  0.93381679826E+02 0.  0.
         11    1    3    3    0    0  0.28503655781E+02  0.15805770451E+01  0.39178971112E+02  0.48476266300E+02  0.51100000000E-03 0.  1.
         22    1    1    0    0    0 -0.32164529412E+01  0.26262485017E+02 -0.79227640987E+01  0.27619447492E+02  0.00000000000E+00 0. -1.
</event>
<event>
 5    1  0.8962782E-005  0.9118800E+02  0.7818608E-02  0.1130116E+00
         25   -1    0    0    0    0  0.00000000000E+00  0.00000000000E+00  0.99999998245E-14  0.12500000000E+03  0.12500000000E+03 0.  0.
        -11    1    3    3    0    0  0.24750047549E+02  0.17827908647E+02 -0.24151711951E+02  0.38906353862E+02  0.51100000000E-03 0. -1.
         23    2    1    0    0    0 -0.78954739652E+01 -0.25835744839E+02 -0.15000991344E+01  0.97943124387E+02  0.94131722054E+02 0.  0.
         11    1    3    3    0    0 -0.32645521514E+02 -0.43663653486E+02  0.22651612816E+02  0.59036770526E+02  0.51100000000E-03 0.  1.
         22    1    1    0    0    0  0.78954739652E+01  0.25835744839E+02  0.15000991344E+01  0.27056875613E+02  0.00000000000E+00 0.  1.
</event>
<event>
 5    1  0.8962782E-005  0.9118800E+02  0.7818608E-02  0.1130116E+00
         25   -1    0    0    0    0  0.00000000000E+00  0.00000000000E+00  0.99999998245E-14  0.12500000000E+03  0.12500000000E+03 0.  0.
        -11    1    3    3    0    0  0.14511740677E+02 -0.48647086171E+02 -0.34525737327E+02  0.61393453630E+02  0.51100000000E-03 0.  1.
         23    2    1    0    0    0  0.15071620633E+02 -0.23003146734E+02 -0.21047864082E+02  0.90368928827E+02  0.83469947926E+02 0.  0.
         11    1    3    3    0    0  0.55987995603E+00  0.25643939437E+02  0.13477873244E+02  0.28975475197E+02  0.51100000000E-03 0. -1.
         22    1    1    0    0    0 -0.15071620633E+02  0.23003146734E+02  0.21047864082E+02  0.34631071173E+02  0.00000000000E+00 0.  1.
</event>
<event>
 5    1  0.8962782E-005  0.9118800E+02  0.7818608E-02  0.1130116E+00
         25   -1    0    0    0    0  0.00000000000E+00  0.00000000000E+00  0.99999998245E-14  0.12500000000E+03  0.12500000000E+03 0.  0.
        -11    1    3    3    0    0 -0.47587587402E+02  0.16587512029E+02  0.17224555385E+02  0.53257950941E+02  0.51100000000E-03 0.  1.
         23    2    1    0    0    0 -0.22930851063E+02  0.15457879200E+02 -0.14755356100E+02  0.93655295607E+02  0.88254313785E+02 0.  0.
         11    1    3    3    0    0  0.24656736338E+02 -0.11296328290E+01 -0.31979911485E+02  0.40397344666E+02  0.51100000000E-03 0. -1.
         22    1    1    0    0    0  0.22930851063E+02 -0.15457879200E+02  0.14755356100E+02  0.31344704393E+02  0.00000000000E+00 0.  1.
</event>
<event>
 5    1  0.8962782E-005  0.9118800E+02  0.7818608E-02  0.1130116E+00
         25   -1    0    0    0    0  0.00000000000E+00  0.00000000000E+00  0.99999998245E-14  0.12500000000E+03  0.12500000000E+03 0.  0.
        -11    1    3    3    0    0  0.23243596609E+02  0.12187039672E+02  0.27843938045E+02  0.38263214782E+02  0.51100000000E-03 0.  1.
         23    2    1    0    0    0 -0.14262653103E+02 -0.25345599260E+02  0.10187120908E+02  0.94184417776E+02  0.89000586762E+02 0.  0.
         11    1    3    3    0    0 -0.37506249712E+02 -0.37532638932E+02 -0.17656817137E+02  0.55921202995E+02  0.51100000000E-03 0. -1.
         22    1    1    0    0    0  0.14262653103E+02  0.25345599260E+02 -0.10187120908E+02  0.30815582224E+02  0.00000000000E+00 0. -1.
</event>
<event>
 5    1  0.8962782E-005  0.9118800E+02  0.7818608E-02  0.1130116E+00
         25   -1    0    0    0    0  0.00000000000E+00  0.00000000000E+00  0.99999998245E-14  0.12500000000E+03  0.12500000000E+03 0.  0.
        -11    1    3    3    0    0  0.55525807616E+02 -0.80574705305E+01 -0.13156038360E+02  0.57629154847E+02  0.51100000000E-03 0. -1.
         23    2    1    0    0    0  0.18858644155E+02 -0.10824477286E+02 -0.20487513928E+02  0.95124324362E+02  0.90311024192E+02 0.  0.
         11    1    3    3    0    0 -0.36667163462E+02 -0.27670067557E+01 -0.73314755675E+01  0.37495169515E+02  0.51100000000E-03 0.  1.
         22    1    1    0    0    0 -0.18858644155E+02  0.10824477286E+02  0.20487513928E+02  0.29875675638E+02  0.00000000000E+00 0. -1.
</event>
<event>
 5    1  0.8962782E-005  0.9118800E+02  0.7818608E-02  0.1130116E+00
         25   -1    0    0    0    0  0.00000000000E+00  0.00000000000E+00  0.99999998245E-14  0.12500000000E+03  0.12500000000E+03 0.  0.
        -11    1    3    3    0    0  0.30939800849E+02  0.29166281852E+01  0.26908184120E+02  0.41107522054E+02  0.51100000000E-03 0.  1.
         23    2    1    0    0    0  0.90285590722E+01 -0.20513461668E+02 -0.17970705344E+02  0.96272604729E+02  0.91886621345E+02 0.  0.
         11    1    3    3    0    0 -0.21911241777E+02 -0.23430089853E+02 -0.44878889464E+02  0.55165082675E+02  0.51100000000E-03 0. -1.
         22    1    1    0    0    0 -0.90285590722E+01  0.20513461668E+02  0.17970705344E+02  0.28727395271E+02  0.00000000000E+00 0. -1.
</event>
<event>
 5    1  0.8962782E-005  0.9118800E+02  0.7818608E-02  0.1130116E+00
         25   -1    0    0    0    0  0.00000000000E+00  0.00000000000E+00  0.99999998245E-14  0.12500000000E+03  0.12500000000E+03 0.  0.
        -11    1    3    3    0    0 -0.28764903674E+02  0.21399128543E+02 -0.10489946348E+02  0.37354803713E+02  0.51100000000E-03 0.  1.
         23    2    1    0    0    0  0.55740760372E+01 -0.24927718768E+02 -0.15306931367E+02  0.95221423229E+02  0.90445319433E+02 0.  0.
         11    1    3    3    0    0  0.34338979711E+02 -0.46326847311E+02 -0.48169850184E+01  0.57866619517E+02  0.51100000000E-03 0. -1.
         22    1    1    0    0    0 -0.55740760372E+01  0.24927718768E+02  0.15306931367E+02  0.29778576771E+02  0.00000000000E+00 0. -1.
</event>
<event>
 5    1  0.8962782E-005  0.9118800E+02  0.7818608E-02  0.1130116E+00
         25   -1    0    0    0    0  0.00000000000E+00  0.00000000000E+00  0.99999998245E-14  0.12500000000E+03  0.12500000000E+03 0.  0.
        -11    1    3    3    0    0  0.21192791476E+02  0.41050235218E+01 -0.14677666577E+02  0.26104013581E+02  0.51100000000E-03 0.  1.
         23    2    1    0    0    0 -0.20903838985E+02 -0.24835228081E+02  0.19090540899E+02  0.87340900303E+02  0.78804981288E+02 0.  0.
         11    1    3    3    0    0 -0.42096630461E+02 -0.28940251603E+02  0.33768207476E+02  0.61236886722E+02  0.51100000000E-03 0. -1.
         22    1    1    0    0    0  0.20903838985E+02  0.24835228081E+02 -0.19090540899E+02  0.37659099697E+02  0.00000000000E+00 0. -1.
</event>
<event>
 5    1  0.8962782E-005  0.9118800E+02  0.7818608E-02  0.1130116E+00
         25   -1    0    0    0    0  0.00000000000E+00  0.00000000000E+00  0.99999998245E-14  0.12500000000E+03  0.12500000000E+03 0.  0.
        -11    1    3    3    0    0 -0.30430770546E+02  0.24221911478E+02 -0.36655039377E+01  0.39066209325E+02  0.51100000000E-03 0.  1.
         23    2    1    0    0    0 -0.54571355980E+01 -0.27473148909E+02  0.28472145638E+01  0.96845766381E+02  0.92663054100E+02 0.  0.
         11    1    3    3    0    0  0.24973634948E+02 -0.51695060387E+02  0.65127185015E+01  0.57779557055E+02  0.51100000000E-03 0. -1.
         22    1    1    0    0    0  0.54571355980E+01  0.27473148909E+02 -0.28472145638E+01  0.28154233619E+02  0.00000000000E+00 0. -1.
</event>
<event>
 5    1  0.8962782E-005  0.9118800E+02  0.7818608E-02  0.1130116E+00
         25   -1    0    0    0    0  0.00000000000E+00  0.00000000000E+00  0.99999998245E-14  0.12500000000E+03  0.12500000000E+03 0.  0.
        -11    1    3    3    0    0 -0.40692155367E+01  0.39039600458E+02  0.43212293806E+02  0.58377660584E+02  0.51100000000E-03 0.  1.
         23    2    1    0    0    0 -0.16157109919E+02  0.17859984148E+02  0.31268072364E+02  0.85531992905E+02  0.75881474856E+02 0.  0.
         11    1    3    3    0    0 -0.12087894383E+02 -0.21179616310E+02 -0.11944221443E+02  0.27154332321E+02  0.51100000000E-03 0. -1.
         22    1    1    0    0    0  0.16157109919E+02 -0.17859984148E+02 -0.31268072364E+02  0.39468007095E+02  0.00000000000E+00 0.  1.
</event>
<event>
 5    1  0.8962782E-005  0.9118800E+02  0.7818608E-02  0.1130116E+00
         25   -1    0    0    0    0  0.00000000000E+00  0.00000000000E+00  0.99999998245E-14  0.12500000000E+03  0.12500000000E+03 0.  0.
        -11    1    3    3    0    0  0.41974668142E+02 -0.12262343643E+02  0.41885066899E+02  0.60552429073E+02  0.51100000000E-03 0. -1.
         23    2    1    0    0    0  0.23376119273E+02 -0.13294528707E+02  0.12498376603E+02  0.95345373657E+02  0.90616463263E+02 0.  0.
         11    1    3    3    0    0 -0.18598548868E+02 -0.10321850636E+01 -0.29386690296E+02  0.34792944584E+02  0.51100000000E-03 0.  1.
         22    1    1    0    0    0 -0.23376119273E+02  0.13294528707E+02 -0.12498376603E+02  0.29654626343E+02  0.00000000000E+00 0. -1.
</event>
<event>
 5    1  0.8962782E-005  0.9118800E+02  0.7818608E-02  0.1130116E+00
         25   -1    0    0    0    0  0.00000000000E+00  0.00000000000E+00  0.99999998245E-14  0.12500000000E+03  0.12500000000E+03 0.  0.
        -11    1    3    3    0    0 -0.28835380230E+02 -0.21226837643E+02  0.19572765217E+02  0.40806260890E+02  0.51100000000E-03 0. -1.
         23    2    1    0    0    0  0.24558663703E+02 -0.10865307628E+02  0.11476511366E+02  0.95795664947E+02  0.91235498775E+02 0.  0.
         11    1    3    3    0    0  0.53394043934E+02  0.10361530014E+02 -0.80962538513E+01  0.54989404057E+02  0.51100000000E-03 0.  1.
         22    1    1    0    0    0 -0.24558663703E+02  0.10865307628E+02 -0.11476511366E+02  0.29204335053E+02  0.00000000000E+00 0.  1.
</event>
<event>
 5    1  0.8962782E-005  0.9118800E+02  0.7818608E-02  0.1130116E+00
         25   -1    0    0    0    0  0.00000000000E+00  0.00000000000E+00  0.99999998245E-14  0.12500000000E+03  0.12500000000E+03 0.  0.
        -11    1    3    3    0    0  0.31794770685E+02 -0.11430062427E+02  0.27919063705E+00  0.33788041045E+02  0.51100000000E-03 0. -1.
         23    2    1    0    0    0 -0.17503991973E+02  0.20170817445E+02  0.15272735313E+02  0.94234628958E+02  0.89071079704E+02 0.  0.
         11    1    3    3    0    0 -0.49298762657E+02  0.31600879872E+02  0.14993544676E+02  0.60446587914E+02  0.51100000000E-03 0.  1.
         22    1    1    0    0    0  0.17503991973E+02 -0.20170817445E+02 -0.15272735313E+02  0.30765371042E+02  0.00000000000E+00 0.  1.
</event>
<event>
 5    1  0.8962782E-005  0.9118800E+02  0.7818608E-02  0.1130116E+00
         25   -1    0    0    0    0  0.00000000000E+00  0.00000000000E+00  0.99999998245E-14  0.12500000000E+03  0.12500000000E+03 0.  0.
        -11    1    3    3    0    0  0.64176930705E+01 -0.13369874663E+02  0.48754975271E+02  0.50960650965E+02  0.51100000000E-03 0.  1.
         23    2    1    0    0    0 -0.22815657764E+02  0.16012451848E+01  0.19535497926E+02  0.94920872610E+02  0.90028985068E+02 0.  0.
         11    1    3    3    0    0 -0.29233350835E+02  0.14971119848E+02 -0.29219477345E+02  0.43960221645E+02  0.51100000000E-03 0. -1.
         22    1    1    0    0    0  0.22815657764E+02 -0.16012451848E+01 -0.19535497926E+02  0.30079127390E+02  0.00000000000E+00 0.  1.
</event>
<event>
 5    1  0.8962782E-005  0.9118800E+02  0.7818608E-02  0.1130116E+00
         25   -1    0    0    0    0  0.00000000000E+00  0.00000000000E+00  0.99999998245E-14  0.12500000000E+03  0.12500000000E+03 0.  0.
        -11    1    3    3    0    0  0.85938431846E+01 -0.35663193985E+02 -0.23596981859E+02  0.43618059322E+02  0.51100000000E-03 0. -1.
         23    2    1    0    0    0  0.34405424668E+02 -0.69716550151E+00 -0.97092689976E+01  0.89244032795E+02  0.81768014521E+02 0.  0.
         11    1    3    3    0    0  0.25811581483E+02  0.34966028483E+02  0.13887712862E+02  0.45625973473E+02  0.51100000000E-03 0.  1.
         22    1    1    0    0    0 -0.34405424668E+02  0.69716550151E+00  0.97092689976E+01  0.35755967205E+02  0.00000000000E+00 0.  1.
</event>
<event>
 5    1  0.8962782E-005  0.9118800E+02  0.7818608E-02  0.1130116E+00
         25   -1    0    0    0    0  0.00000000000E+00  0.00000000000E+00  0.99999998245E-14  0.12500000000E+03  0.12500000000E+03 0.  0.
        -11    1    3    3    0    0 -0.18738204527E+02 -0.98776222898E+01  0.27984993859E+02  0.35097686712E+02  0.51100000000E-03 0. -1.
         23    2    1    0    0    0  0.45962037004E+01  0.31146219477E+01 -0.27643079189E+02  0.96804862380E+02  0.92607859251E+02 0.  0.
         11    1    3    3    0    0  0.23334408227E+02  0.12992244237E+02 -0.55628073048E+02  0.61707175668E+02  0.51100000000E-03 0.  1.
         22    1    1    0    0    0 -0.45962037004E+01 -0.31146219477E+01  0.27643079189E+02  0.28195137620E+02  0.00000000000E+00 0.  1.
</event>
<event>
 5    1  0.8962782E-005  0.9118800E+02  0.7818608E-02  0.1130116E+00
         25   -1    0    0    0    0  0.00000000000E+00  0.00000000000E+00  0.99999998245E-14  0.12500000000E+03  0.12500000000E+03 0.  0.
        -11    1    3    3    0    0  0.20761681042E+02  0.50349466828E+02 -0.36962171240E+00  0.54463316370E+02  0.51100000000E-03 0. -1.
         23    2    1    0    0    0  0.17700927952E+02  0.12970236369E+02  0.18363458279E+02  0.96385904142E+02  0.92040621659E+02 0.  0.
         11    1    3    3    0    0 -0.30607530894E+01 -0.37379230460E+02  0.18733079991E+02  0.41922587771E+02  0.51100000000E-03 0.  1.
         22    1    1    0    0    0 -0.17700927952E+02 -0.12970236369E+02 -0.18363458279E+02  0.28614095858E+02  0.00000000000E+00 0. -1.
</event>
<event>
 5    1  0.8962782E-005  0.9118800E+02  0.7818608E-02  0.1130116E+00
         25   -1    0    0    0    0  0.00000000000E+00  0.00000000000E+00  0.99999998245E-14  0.12500000000E+03  0.12500000000E+03 0.  0.
        -11    1    3    3    0    0  0.30822449486E+02  0.24931256438E+02  0.10593925973E+02  0.41034402733E+02  0.51100000000E-03 0.  1.
         23    2    1    0    0    0  0.12568134142E+02 -0.21694486669E+02 -0.13414963020E+02  0.96564635039E+02  0.92283036142E+02 0.  0.
         11    1    3    3    0    0 -0.18254315344E+02 -0.46625743107E+02 -0.24008888993E+02  0.55530232305E+02  0.51100000000E-03 0. -1.
         22    1    1    0    0    0 -0.12568134142E+02  0.21694486669E+02  0.13414963020E+02  0.28435364961E+02  0.00000000000E+00 0. -1.
</event>
<event>
 5    1  0.8962782E-005  0.9118800E+02  0.7818608E-02  0.1130116E+00
         25   -1    0    0    0    0  0.00000000000E+00  0.00000000000E+00  0.99999998245E-14  0.12500000000E+03  0.12500000000E+03 0.  0.
        -11    1    3    3    0    0 -0.40078699122E+02  0.15831179413E+02 -0.36677390652E+01  0.43247897926E+02  0.51100000000E-03 0.  1.
         23    2    1    0    0    0  0.11887518375E+02  0.22297443755E+02 -0.13225239405E+02  0.96479900974E+02  0.92168189976E+02 0.  0.
         11    1    3    3    0    0  0.51966217497E+02  0.64662643421E+01 -0.95575003400E+01  0.53232003048E+02  0.51100000000E-03 0. -1.
         22    1    1    0    0    0 -0.11887518375E+02 -0.22297443755E+02  0.13225239405E+02  0.28520099026E+02  0.00000000000E+00 0. -1.
</event>
<event>
 5    1  0.8962782E-005  0.9118800E+02  0.7818608E-02  0.1130116E+00
         25   -1    0    0    0    0  0.00000000000E+00  0.00000000000E+00  0.99999998245E-14  0.12500000000E+03  0.12500000000E+03 0.  0.
        -11    1    3    3    0    0 -0.53295005000E+01  0.41439192984E+02  0.30890200469E+01  0.41894538258E+02  0.51100000000E-03 0.  1.
         23    2    1    0    0    0 -0.22471592132E+02 -0.61696908178E+01  0.18994324401E+02  0.94936369195E+02  0.90050498604E+02 0.  0.
         11    1    3    3    0    0 -0.17142091632E+02 -0.47608883801E+02  0.15905304354E+02  0.53041830937E+02  0.51100000000E-03 0. -1.
         22    1    1    0    0    0  0.22471592132E+02  0.61696908178E+01 -0.18994324401E+02  0.30063630805E+02  0.00000000000E+00 0. -1.
</event>
<event>
 5    1  0.8962782E-005  0.9118800E+02  0.7818608E-02  0.1130116E+00
         25   -1    0    0    0    0  0.00000000000E+00  0.00000000000E+00  0.99999998245E-14  0.12500000000E+03  0.12500000000E+03 0.  0.
        -11    1    3    3    0    0 -0.51895428315E+02  0.18757549494E+02  0.60729991340E+00  0.55184689512E+02  0.51100000000E-03 0.  1.
         23    2    1    0    0    0 -0.12277374449E+02  0.14960586198E+02 -0.17498194077E+02  0.98909008093E+02  0.95405723220E+02 0.  0.
         11    1    3    3    0    0  0.39618053867E+02 -0.37969632968E+01 -0.18105493991E+02  0.43724318581E+02  0.51100000000E-03 0. -1.
         22    1    1    0    0    0  0.12277374449E+02 -0.14960586198E+02  0.17498194077E+02  0.26090991907E+02  0.00000000000E+00 0.  1.
</event>
<event>
 5    1  0.8962782E-005  0.9118800E+02  0.7818608E-02  0.1130116E+00
         25   -1    0    0    0    0  0.00000000000E+00  0.00000000000E+00  0.99999998245E-14  0.12500000000E+03  0.12500000000E+03 0.  0.
        -11    1    3    3    0    0  0.85338086766E+01 -0.17677910419E+02 -0.27580286305E+02  0.33852719244E+02  0.51100000000E-03 0. -1.
         23    2    1    0    0    0  0.12251827374E+01  0.10952459245E+02  0.26955244507E+02  0.95878828274E+02  0.91349368189E+02 0.  0.
         11    1    3    3    0    0 -0.73086259393E+01  0.28630369664E+02  0.54535530812E+02  0.62026109030E+02  0.51100000000E-03 0.  1.
         22    1    1    0    0    0 -0.12251827374E+01 -0.10952459245E+02 -0.26955244507E+02  0.29121171726E+02  0.00000000000E+00 0.  1.
</event>
<event>
 5    1  0.8962782E-005  0.9118800E+02  0.7818608E-02  0.1130116E+00
         25   -1    0    0    0    0  0.00000000000E+00  0.00000000000E+00  0.99999998245E-14  0.12500000000E+03  0.12500000000E+03 0.  0.
        -11    1    3    3    0    0  0.11167087881E+02  0.20872779618E+02 -0.55980353082E+02  0.60779739323E+02  0.51100000000E-03 0. -1.
         23    2    1    0    0    0  0.65032532637E+00  0.18230653821E+02 -0.22152395736E+02  0.96303165704E+02  0.91928186243E+02 0.  0.
         11    1    3    3    0    0 -0.10516762554E+02 -0.26421257972E+01  0.33827957346E+02  0.35523426380E+02  0.51100000000E-03 0.  1.
         22    1    1    0    0    0 -0.65032532637E+00 -0.18230653821E+02  0.22152395736E+02  0.28696834296E+02  0.00000000000E+00 0. -1.
</event>
<event>
 5    1  0.8962782E-005  0.9118800E+02  0.7818608E-02  0.1130116E+00
         25   -1    0    0    0    0  0.00000000000E+00  0.00000000000E+00  0.99999998245E-14  0.12500000000E+03  0.12500000000E+03 0.  0.
        -11    1    3    3    0    0  0.29003870288E+02 -0.21872908566E+02  0.70224236106E-01  0.36327036110E+02  0.51100000000E-03 0. -1.
         23    2    1    0    0    0 -0.27917008460E+02 -0.45066620270E+01  0.58655251868E+01  0.96119665000E+02  0.91678330319E+02 0.  0.
         11    1    3    3    0    0 -0.56920878748E+02  0.17366246539E+02  0.57953009507E+01  0.59792628891E+02  0.51100000000E-03 0.  1.
         22    1    1    0    0    0  0.27917008460E+02  0.45066620270E+01 -0.58655251868E+01  0.28880335000E+02  0.00000000000E+00 0.  1.
</event>
<event>
 5    1  0.8962782E-005  0.9118800E+02  0.7818608E-02  0.1130116E+00
         25   -1    0    0    0    0  0.00000000000E+00  0.00000000000E+00  0.99999998245E-14  0.12500000000E+03  0.12500000000E+03 0.  0.
        -11    1    3    3    0    0  0.31551771773E+02  0.36370226383E+02  0.22625279754E+01  0.48201936707E+02  0.51100000000E-03 0. -1.
         23    2    1    0    0    0  0.19465978415E+01  0.52588674745E+01  0.26770080714E+02  0.97648909497E+02  0.93740212152E+02 0.  0.
         11    1    3    3    0    0 -0.29605173931E+02 -0.31111358909E+02  0.24507552738E+02  0.49446972790E+02  0.51100000000E-03 0.  1.
         22    1    1    0    0    0 -0.19465978415E+01 -0.52588674745E+01 -0.26770080714E+02  0.27351090503E+02  0.00000000000E+00 0.  1.
</event>
<event>
 5    1  0.8962782E-005  0.9118800E+02  0.7818608E-02  0.1130116E+00
         25   -1    0    0    0    0  0.00000000000E+00  0.00000000000E+00  0.99999998245E-14  0.12500000000E+03  0.12500000000E+03 0.  0.
        -11    1    3    3    0    0  0.46827374540E+02  0.27904266092E+01  0.10478593825E+01  0.46922142923E+02  0.51100000000E-03 0.  1.
         23    2    1    0    0    0  0.44634852366E+01  0.16944634240E+02 -0.21749893993E+02  0.97069707866E+02  0.92964654394E+02 0.  0.
         11    1    3    3    0    0 -0.42363889303E+02  0.14154207630E+02 -0.22797753375E+02  0.50147564943E+02  0.51100000000E-03 0. -1.
         22    1    1    0    0    0 -0.44634852366E+01 -0.16944634240E+02  0.21749893993E+02  0.27930292134E+02  0.00000000000E+00 0.  1.
</event>
<event>
 5    1  0.8962782E-005  0.9118800E+02  0.7818608E-02  0.1130116E+00
         25   -1    0    0    0    0  0.00000000000E+00  0.00000000000E+00  0.99999998245E-14  0.12500000000E+03  0.12500000000E+03 0.  0.
        -11    1    3    3    0    0 -0.37639054491E+02  0.64977091467E+01 -0.63258048331E+01  0.38716074881E+02  0.51100000000E-03 0.  1.
         23    2    1    0    0    0  0.18690442498E+02  0.17841532361E+02  0.80289023411E+01  0.97942354305E+02  0.94130699436E+02 0.  0.
         11    1    3    3    0    0  0.56329496989E+02  0.11343823214E+02  0.14354707174E+02  0.59226279424E+02  0.51100000000E-03 0. -1.
         22    1    1    0    0    0 -0.18690442498E+02 -0.17841532361E+02 -0.80289023411E+01  0.27057645695E+02  0.00000000000E+00 0. -1.
</event>
<event>
 5    1  0.8962782E-005  0.9118800E+02  0.7818608E-02  0.1130116E+00
         25   -1    0    0    0    0  0.00000000000E+00  0.00000000000E+00  0.99999998245E-14  0.12500000000E+03  0.12500000000E+03 0.  0.
        -11    1    3    3    0    0 -0.22907870429E+02  0.78224330928E+01  0.50052192764E+02  0.55598408141E+02  0.51100000000E-03 0. -1.
         23    2    1    0    0    0  0.89470430183E+01 -0.25561047943E+01  0.27458108723E+02  0.96008087591E+02  0.91526072229E+02 0.  0.
         11    1    3    3    0    0  0.31854913447E+02 -0.10378537887E+02 -0.22594084040E+02  0.40409679450E+02  0.51100000000E-03 0.  1.
         22    1    1    0    0    0 -0.89470430183E+01  0.25561047943E+01 -0.27458108723E+02  0.28991912409E+02  0.00000000000E+00 0. -1.
</event>
<event>
 5    1  0.8962782E-005  0.9118800E+02  0.7818608E-02  0.1130116E+00
         25   -1    0    0    0    0  0.00000000000E+00  0.00000000000E+00  0.99999998245E-14  0.12500000000E+03  0.12500000000E+03 0.  0.
        -11    1    3    3    0    0  0.19164515929E+02 -0.37437522993E+02 -0.17826731986E+02  0.45679745755E+02  0.51100000000E-03 0.  1.
         23    2    1    0    0    0 -0.55725423791E+01  0.48823865119E+01 -0.28249666148E+02  0.95794956530E+02  0.91234528182E+02 0.  0.
         11    1    3    3    0    0 -0.24737058308E+02  0.42319909505E+02 -0.10422934161E+02  0.50115210775E+02  0.51100000000E-03 0. -1.
         22    1    1    0    0    0  0.55725423791E+01 -0.48823865119E+01  0.28249666148E+02  0.29205043470E+02  0.00000000000E+00 0. -1.
</event>
<event>
 5    1  0.8962782E-005  0.9118800E+02  0.7818608E-02  0.1130116E+00
         25   -1    0    0    0    0  0.00000000000E+00  0.00000000000E+00  0.99999998245E-14  0.12500000000E+03  0.12500000000E+03 0.  0.
        -11    1    3    3    0    0  0.13983633362E+02 -0.87930205240E+01 -0.29162693187E+02  0.33515994482E+02  0.51100000000E-03 0.  1.
         23    2    1    0    0    0 -0.28743546181E+01  0.15047052916E+02  0.25364316387E+02  0.95368525826E+02  0.90648394672E+02 0.  0.
         11    1    3    3    0    0 -0.16857987980E+02  0.23840073440E+02  0.54527009574E+02  0.61852531344E+02  0.51100000000E-03 0. -1.
         22    1    1    0    0    0  0.28743546181E+01 -0.15047052916E+02 -0.25364316387E+02  0.29631474174E+02  0.00000000000E+00 0. -1.
</event>
<event>
 5    1  0.8962782E-005  0.9118800E+02  0.7818608E-02  0.1130116E+00
         25   -1    0    0    0    0  0.00000000000E+00  0.00000000000E+00  0.99999998245E-14  0.12500000000E+03  0.12500000000E+03 0.  0.
        -11    1    3    3    0    0 -0.32202148280E+02  0.22993105721E+02  0.10895080574E+02  0.41041004441E+02  0.51100000000E-03 0.  1.
         23    2    1    0    0    0  0.73735497403E+01  0.12704799719E+02 -0.25361825406E+02  0.95691240906E+02  0.91092317056E+02 0.  0.
         11    1    3    3    0    0  0.39575698020E+02 -0.10288306001E+02 -0.36256905981E+02  0.54650236465E+02  0.51100000000E-03 0. -1.
         22    1    1    0    0    0 -0.73735497403E+01 -0.12704799719E+02  0.25361825406E+02  0.29308759094E+02  0.00000000000E+00 0. -1.
</event>
<event>
 5    1  0.8962782E-005  0.9118800E+02  0.7818608E-02  0.1130116E+00
         25   -1    0    0    0    0  0.00000000000E+00  0.00000000000E+00  0.99999998245E-14  0.12500000000E+03  0.12500000000E+03 0.  0.
        -11    1    3    3    0    0 -0.40731836162E+02  0.89807154171E+01 -0.41439340093E+02  0.58795872595E+02  0.51100000000E-03 0. -1.
         23    2    1    0    0    0 -0.22260307631E+02 -0.10449416418E+02 -0.16707958669E+02  0.95270091117E+02  0.90512555920E+02 0.  0.
         11    1    3    3    0    0  0.18471528531E+02 -0.19430131835E+02  0.24731381424E+02  0.36474218522E+02  0.51100000000E-03 0.  1.
         22    1    1    0    0    0  0.22260307631E+02  0.10449416418E+02  0.16707958669E+02  0.29729908883E+02  0.00000000000E+00 0. -1.
</event>
<event>
 5    1  0.8962782E-005  0.9118800E+02  0.7818608E-02  0.1130116E+00
         25   -1    0    0    0    0  0.00000000000E+00  0.00000000000E+00  0.99999998245E-14  0.12500000000E+03  0.12500000000E+03 0.  0.
        -11    1    3    3    0    0  0.52319368257E+02  0.22548947451E+02 -0.19089979502E+02  0.60084928590E+02  0.51100000000E-03 0.  1.
         23    2    1    0    0    0  0.16912416348E+02  0.20396483763E+02 -0.97567838840E+01  0.96764539877E+02  0.92553416843E+02 0.  0.
         11    1    3    3    0    0 -0.35406951910E+02 -0.21524636883E+01  0.93331956178E+01  0.36679611287E+02  0.51100000000E-03 0. -1.
         22    1    1    0    0    0 -0.16912416348E+02 -0.20396483763E+02  0.97567838840E+01  0.28235460123E+02  0.00000000000E+00 0.  1.
</event>
<event>
 5    1  0.8962782E-005  0.9118800E+02  0.7818608E-02  0.1130116E+00
         25   -1    0    0    0    0  0.00000000000E+00  0.00000000000E+00  0.99999998245E-14  0.12500000000E+03  0.12500000000E+03 0.  0.
        -11    1    3    3    0    0  0.59629964226E+01 -0.42019717499E+02  0.55290771477E+01  0.42799353727E+02  0.51100000000E-03 0.  1.
         23    2    1    0    0    0 -0.20561745741E+02 -0.50607947915E+01 -0.20763837415E+02  0.95343061924E+02  0.90613274309E+02 0.  0.
         11    1    3    3    0    0 -0.26524742164E+02  0.36958922708E+02 -0.26292914563E+02  0.52543708197E+02  0.51100000000E-03 0. -1.
         22    1    1    0    0    0  0.20561745741E+02  0.50607947915E+01  0.20763837415E+02  0.29656938076E+02  0.00000000000E+00 0. -1.
</event>
<event>
 5    1  0.8962782E-005  0.9118800E+02  0.7818608E-02  0.1130116E+00
         25   -1    0    0    0    0  0.00000000000E+00  0.00000000000E+00  0.99999998245E-14  0.12500000000E+03  0.12500000000E+03 0.  0.
        -11    1    3    3    0    0  0.17434364823E+02  0.44368198846E+00  0.46566503945E+02  0.49725176927E+02  0.51100000000E-03 0.  1.
         23    2    1    0    0    0  0.22078484158E+02 -0.18062721207E+02  0.42304235765E+01  0.96162214999E+02  0.91736327318E+02 0.  0.
         11    1    3    3    0    0  0.46441193352E+01 -0.18506403195E+02 -0.42336080369E+02  0.46437038072E+02  0.51100000000E-03 0. -1.
         22    1    1    0    0    0 -0.22078484158E+02  0.18062721207E+02 -0.42304235765E+01  0.28837785001E+02  0.00000000000E+00 0.  1.
</event>
<event>
 5    1  0.8962782E-005  0.9118800E+02  0.7818608E-02  0.1130116E+00
         25   -1    0    0    0    0  0.00000000000E+00  0.00000000000E+00  0.99999998245E-14  0.12500000000E+03  0.12500000000E+03 0.  0.
        -11    1    3    3    0    0 -0.45235631733E+02 -0.15624425177E+02 -0.14318009997E+02  0.49953883242E+02  0.51100000000E-03 0. -1.
         23    2    1    0    0    0 -0.78122595027E+01 -0.31296913237E+02 -0.75329234441E+00  0.92733986518E+02  0.86939614845E+02 0.  0.
         11    1    3    3    0    0  0.37423372230E+02 -0.15672488060E+02  0.13564717653E+02  0.42780103276E+02  0.51100000000E-03 0.  1.
         22    1    1    0    0    0  0.78122595027E+01  0.31296913237E+02  0.75329234441E+00  0.32266013482E+02  0.00000000000E+00 0. -1.
</event>
<event>
 5    1  0.8962782E-005  0.9118800E+02  0.7818608E-02  0.1130116E+00
         25   -1    0    0    0    0  0.00000000000E+00  0.00000000000E+00  0.99999998245E-14  0.12500000000E+03  0.12500000000E+03 0.  0.
        -11    1    3    3    0    0  0.24692641344E+02 -0.13279160015E+02 -0.37298836605E+02  0.46661181292E+02  0.51100000000E-03 0.  1.
         23    2    1    0    0    0  0.12103640091E+02 -0.20387507255E+02  0.12275805207E+02  0.98300862392E+02  0.94605579106E+02 0.  0.
         11    1    3    3    0    0 -0.12589001253E+02 -0.71083472402E+01  0.49574641812E+02  0.51639681100E+02  0.51100000000E-03 0. -1.
         22    1    1    0    0    0 -0.12103640091E+02  0.20387507255E+02 -0.12275805207E+02  0.26699137608E+02  0.00000000000E+00 0. -1.
</event>
<event>
 5    1  0.8962782E-005  0.9118800E+02  0.7818608E-02  0.1130116E+00
         25   -1    0    0    0    0  0.00000000000E+00  0.00000000000E+00  0.99999998245E-14  0.12500000000E+03  0.12500000000E+03 0.  0.
        -11    1    3    3    0    0 -0.13276642436E+02 -0.13660008897E+01  0.43816078295E+02  0.45803754325E+02  0.51100000000E-03 0.  1.
         23    2    1    0    0    0 -0.18911609955E+02  0.24680338334E+02  0.40913529801E+01  0.93639080680E+02  0.88231344601E+02 0.  0.
         11    1    3    3    0    0 -0.56349675190E+01  0.26046339223E+02 -0.39724725315E+02  0.47835326355E+02  0.51100000000E-03 0. -1.
         22    1    1    0    0    0  0.18911609955E+02 -0.24680338334E+02 -0.40913529801E+01  0.31360919320E+02  0.00000000000E+00 0.  1.
</event>
<event>
 5    1  0.8962782E-005  0.9118800E+02  0.7818608E-02  0.1130116E+00
         25   -1    0    0    0    0  0.00000000000E+00  0.00000000000E+00  0.99999998245E-14  0.12500000000E+03  0.12500000000E+03 0.  0.
        -11    1    3    3    0    0 -0.63908453222E+01  0.19219388121E+02 -0.37951719531E+02  0.43018145001E+02  0.51100000000E-03 0. -1.
         23    2    1    0    0    0  0.19557183793E+02  0.16921145073E+02  0.97439782321E+01  0.97363905843E+02  0.93359394067E+02 0.  0.
         11    1    3    3    0    0  0.25948029115E+02 -0.22982430484E+01  0.47695697763E+02  0.54345760842E+02  0.51100000000E-03 0.  1.
         22    1    1    0    0    0 -0.19557183793E+02 -0.16921145073E+02 -0.97439782321E+01  0.27636094157E+02  0.00000000000E+00 0. -1.
</event>
<event>
 5    1  0.8962782E-005  0.9118800E+02  0.7818608E-02  0.1130116E+00
         25   -1    0    0    0    0  0.00000000000E+00  0.00000000000E+00  0.99999998245E-14  0.12500000000E+03  0.12500000000E+03 0.  0.
        -11    1    3    3    0    0  0.18147380762E+02 -0.16641515314E+02 -0.40460568955E+02  0.47363753028E+02  0.51100000000E-03 0.  1.
         23    2    1    0    0    0 -0.22912111127E+02 -0.51758282480E+01 -0.16811366811E+02  0.96114431139E+02  0.91671193866E+02 0.  0.
         11    1    3    3    0    0 -0.41059491889E+02  0.11465687066E+02  0.23649202143E+02  0.48750678112E+02  0.51100000000E-03 0. -1.
         22    1    1    0    0    0  0.22912111127E+02  0.51758282480E+01  0.16811366811E+02  0.28885568861E+02  0.00000000000E+00 0.  1.
</event>
<event>
 5    1  0.8962782E-005  0.9118800E+02  0.7818608E-02  0.1130116E+00
         25   -1    0    0    0    0  0.00000000000E+00  0.00000000000E+00  0.99999998245E-14  0.12500000000E+03  0.12500000000E+03 0.  0.
        -11    1    3    3    0    0 -0.49808132760E+01 -0.81409859211E+01  0.19837301924E+02  0.22013693478E+02  0.51100000000E-03 0. -1.
         23    2    1    0    0    0  0.11806115021E+02  0.29490684137E+02 -0.26217829140E+02  0.83811902598E+02  0.72992983564E+02 0.  0.
         11    1    3    3    0    0  0.16786928297E+02  0.37631670058E+02 -0.46055131063E+02  0.61798209121E+02  0.51100000000E-03 0.  1.
         22    1    1    0    0    0 -0.11806115021E+02 -0.29490684137E+02  0.26217829140E+02  0.41188097402E+02  0.00000000000E+00 0.  1.
</event>
<event>
 5    1  0.8962782E-005  0.9118800E+02  0.7818608E-02  0.1130116E+00
         25   -1    0    0    0    0  0.00000000000E+00  0.00000000000E+00  0.99999998245E-14  0.12500000000E+03  0.12500000000E+03 0.  0.
        -11    1    3    3    0    0  0.15794042900E+02 -0.16772082148E+02 -0.34064541829E+02  0.41123564303E+02  0.51100000000E-03 0.  1.
         23    2    1    0    0    0  0.13390807669E+02  0.26436819113E+02 -0.14196520438E+01  0.95331253030E+02  0.90596982607E+02 0.  0.
         11    1    3    3    0    0 -0.24032352310E+01  0.43208901261E+02  0.32644889785E+02  0.54207688727E+02  0.51100000000E-03 0. -1.
         22    1    1    0    0    0 -0.13390807669E+02 -0.26436819113E+02  0.14196520438E+01  0.29668746970E+02  0.00000000000E+00 0.  1.
</event>
<event>
 5    1  0.8962782E-005  0.9118800E+02  0.7818608E-02  0.1130116E+00
         25   -1    0    0    0    0  0.00000000000E+00  0.00000000000E+00  0.99999998245E-14  0.12500000000E+03  0.12500000000E+03 0.  0.
        -11    1    3    3    0    0 -0.25969874116E+02 -0.44340408278E+02 -0.28892610923E+02  0.58951582965E+02  0.51100000000E-03 0.  1.
         23    2    1    0    0    0 -0.37317353893E+01 -0.26700993082E+02 -0.21430251116E+01  0.97954456241E+02  0.94146768720E+02 0.  0.
         11    1    3    3    0    0  0.22238138727E+02  0.17639415196E+02  0.26749585811E+02  0.39002873277E+02  0.51100000000E-03 0. -1.
         22    1    1    0    0    0  0.37317353893E+01  0.26700993082E+02  0.21430251116E+01  0.27045543759E+02  0.00000000000E+00 0.  1.
</event>
<event>
 5    1  0.8962782E-005  0.9118800E+02  0.7818608E-02  0.1130116E+00
         25   -1    0    0    0    0  0.00000000000E+00  0.00000000000E+00  0.99999998245E-14  0.12500000000E+03  0.12500000000E+03 0.  0.
        -11    1    3    3    0    0 -0.22541955971E+02  0.38541379392E+02  0.36954322955E+02  0.57958603242E+02  0.51100000000E-03 0.  1.
         23    2    1    0    0    0  0.82634446703E+01  0.15006103181E+02  0.12487759432E+02  0.10380066543E+03  0.10161282575E+03 0.  0.
         11    1    3    3    0    0  0.30805400641E+02 -0.23535276211E+02 -0.24466563522E+02  0.45842062190E+02  0.51100000000E-03 0. -1.
         22    1    1    0    0    0 -0.82634446703E+01 -0.15006103181E+02 -0.12487759432E+02  0.21199334568E+02  0.00000000000E+00 0.  1.
</event>
<event>
 5    1  0.8962782E-005  0.9118800E+02  0.7818608E-02  0.1130116E+00
         25   -1    0    0    0    0  0.00000000000E+00  0.00000000000E+00  0.99999998245E-14  0.12500000000E+03  0.12500000000E+03 0.  0.
        -11    1    3    3    0    0 -0.48437298291E+02 -0.71024208964E+01 -0.61209670416E+01  0.49336421496E+02  0.51100000000E-03 0.  1.
         23    2    1    0    0    0 -0.16669705896E+02  0.24917050208E+02  0.10245480033E+01  0.95003530468E+02  0.90143677632E+02 0.  0.
         11    1    3    3    0    0  0.31767592394E+02  0.32019471105E+02  0.71455150450E+01  0.45667108972E+02  0.51100000000E-03 0. -1.
         22    1    1    0    0    0  0.16669705896E+02 -0.24917050208E+02 -0.10245480033E+01  0.29996469532E+02  0.00000000000E+00 0. -1.
</event>
<event>
 5    1  0.8962782E-005  0.9118800E+02  0.7818608E-02  0.1130116E+00
         25   -1    0    0    0    0  0.00000000000E+00  0.00000000000E+00  0.99999998245E-14  0.12500000000E+03  0.12500000000E+03 0.  0.
        -11    1    3    3    0    0 -0.33475011668E+02  0.37093019220E+02 -0.86580524942E+01  0.50709272863E+02  0.51100000000E-03 0.  1.
         23    2    1    0    0    0  0.47684939097E+01  0.24479503724E+02  0.13466752745E+02  0.96656780948E+02  0.92407766107E+02 0.  0.
         11    1    3    3    0    0  0.38243505578E+02 -0.12613515496E+02  0.22124805240E+02  0.45947508085E+02  0.51100000000E-03 0. -1.
         22    1    1    0    0    0 -0.47684939097E+01 -0.24479503724E+02 -0.13466752745E+02  0.28343219052E+02  0.00000000000E+00 0.  1.
</event>
<event>
 5    1  0.8962782E-005  0.9118800E+02  0.7818608E-02  0.1130116E+00
         25   -1    0    0    0    0  0.00000000000E+00  0.00000000000E+00  0.99999998245E-14  0.12500000000E+03  0.12500000000E+03 0.  0.
        -11    1    3    3    0    0  0.13763283595E+01 -0.24413488905E+02 -0.30685302932E+02  0.39236469472E+02  0.51100000000E-03 0.  1.
         23    2    1    0    0    0  0.11558938074E+02  0.26103314054E+02 -0.10468112479E+02  0.94593200877E+02  0.89572876583E+02 0.  0.
         11    1    3    3    0    0  0.10182609714E+02  0.50516802960E+02  0.20217190453E+02  0.55356731406E+02  0.51100000000E-03 0. -1.
         22    1    1    0    0    0 -0.11558938074E+02 -0.26103314054E+02  0.10468112479E+02  0.30406799123E+02  0.00000000000E+00 0. -1.
</event>
<event>
 5    1  0.8962782E-005  0.9118800E+02  0.7818608E-02  0.1130116E+00
         25   -1    0    0    0    0  0.00000000000E+00  0.00000000000E+00  0.99999998245E-14  0.12500000000E+03  0.12500000000E+03 0.  0.
        -11    1    3    3    0    0  0.26974048179E+02 -0.44332728519E+01  0.31171364160E+02  0.41459704861E+02  0.51100000000E-03 0.  1.
         23    2    1    0    0    0 -0.39151696622E+01 -0.28859216621E+02 -0.56052835375E+01  0.95341912722E+02  0.90611688984E+02 0.  0.
         11    1    3    3    0    0 -0.30889217842E+02 -0.24425943769E+02 -0.36776647697E+02  0.53882207861E+02  0.51100000000E-03 0. -1.
         22    1    1    0    0    0  0.39151696622E+01  0.28859216621E+02  0.56052835375E+01  0.29658087278E+02  0.00000000000E+00 0.  1.
</event>
<event>
 5    1  0.8962782E-005  0.9118800E+02  0.7818608E-02  0.1130116E+00
         25   -1    0    0    0    0  0.00000000000E+00  0.00000000000E+00  0.99999998245E-14  0.12500000000E+03  0.12500000000E+03 0.  0.
        -11    1    3    3    0    0 -0.23036229011E+02  0.12938812256E+01 -0.50263208145E+02  0.55305805021E+02  0.51100000000E-03 0.  1.
         23    2    1    0    0    0 -0.11172577033E+02  0.20915004784E+02 -0.16525859257E+02  0.96097267831E+02  0.91647787522E+02 0.  0.
         11    1    3    3    0    0  0.11863651978E+02  0.19621123558E+02  0.33737348888E+02  0.40791462810E+02  0.51100000000E-03 0. -1.
         22    1    1    0    0    0  0.11172577033E+02 -0.20915004784E+02  0.16525859257E+02  0.28902732169E+02  0.00000000000E+00 0.  1.
</event>
<event>
 5    1  0.8962782E-005  0.9118800E+02  0.7818608E-02  0.1130116E+00
         25   -1    0    0    0    0  0.00000000000E+00  0.00000000000E+00  0.99999998245E-14  0.12500000000E+03  0.12500000000E+03 0.  0.
        -11    1    3    3    0    0 -0.17356450894E+02 -0.20917771661E+02 -0.29349896769E+02  0.40002699903E+02  0.51100000000E-03 0. -1.
         23    2    1    0    0    0 -0.16493715321E+02  0.22235952711E+02  0.70124271180E+01  0.96440336624E+02  0.92114516532E+02 0.  0.
         11    1    3    3    0    0  0.86273557301E+00  0.43153724372E+02  0.36362323887E+02  0.56437636721E+02  0.51100000000E-03 0.  1.
         22    1    1    0    0    0  0.16493715321E+02 -0.22235952711E+02 -0.70124271180E+01  0.28559663376E+02  0.00000000000E+00 0.  1.
</event>
<event>
 5    1  0.8962782E-005  0.9118800E+02  0.7818608E-02  0.1130116E+00
         25   -1    0    0    0    0  0.00000000000E+00  0.00000000000E+00  0.99999998245E-14  0.12500000000E+03  0.12500000000E+03 0.  0.
        -11    1    3    3    0    0  0.19226028073E+02 -0.13712181517E+02  0.53474413152E+02  0.58456624429E+02  0.51100000000E-03 0. -1.
         23    2    1    0    0    0  0.17594648433E+02  0.65682567431E+01  0.30841670689E+02  0.88890135683E+02  0.81225204959E+02 0.  0.
         11    1    3    3    0    0 -0.16313796407E+01  0.20280438260E+02 -0.22632742463E+02  0.30433511253E+02  0.51100000000E-03 0.  1.
         22    1    1    0    0    0 -0.17594648433E+02 -0.65682567431E+01 -0.30841670689E+02  0.36109864317E+02  0.00000000000E+00 0. -1.
</event>
<event>
 5    1  0.8962782E-005  0.9118800E+02  0.7818608E-02  0.1130116E+00
         25   -1    0    0    0    0  0.00000000000E+00  0.00000000000E+00  0.99999998245E-14  0.12500000000E+03  0.12500000000E+03 0.  0.
        -11    1    3    3    0    0 -0.27087001938E+02  0.52632556638E+02  0.13731904488E+02  0.60765589714E+02  0.51100000000E-03 0. -1.
         23    2    1    0    0    0 -0.20222239141E+02  0.18942608731E+02  0.10758537985E+02  0.95276145590E+02  0.90520916906E+02 0.  0.
         11    1    3    3    0    0  0.68647627968E+01 -0.33689947907E+02 -0.29733665024E+01  0.34510555876E+02  0.51100000000E-03 0.  1.
         22    1    1    0    0    0  0.20222239141E+02 -0.18942608731E+02 -0.10758537985E+02  0.29723854410E+02  0.00000000000E+00 0. -1.
</event>
<event>
 5    1  0.8962782E-005  0.9118800E+02  0.7818608E-02  0.1130116E+00
         25   -1    0    0    0    0  0.00000000000E+00  0.00000000000E+00  0.99999998245E-14  0.12500000000E+03  0.12500000000E+03 0.  0.
        -11    1    3    3    0    0  0.18784945571E+02  0.26872122231E+02 -0.13713830259E+02  0.35539474869E+02  0.51100000000E-03 0.  1.
         23    2    1    0    0    0 -0.10561617607E+02 -0.19735150841E+02  0.15392959110E+02  0.97834449475E+02  0.93987298975E+02 0.  0.
         11    1    3    3    0    0 -0.29346563177E+02 -0.46607273072E+02  0.29106789370E+02  0.62294974606E+02  0.51100000000E-03 0. -1.
         22    1    1    0    0    0  0.10561617607E+02  0.19735150841E+02 -0.15392959110E+02  0.27165550525E+02  0.00000000000E+00 0. -1.
</event>
<event>
 5    1  0.8962782E-005  0.9118800E+02  0.7818608E-02  0.1130116E+00
         25   -1    0    0    0    0  0.00000000000E+00  0.00000000000E+00  0.99999998245E-14  0.12500000000E+03  0.12500000000E+03 0.  0.
        -11    1    3    3    0    0  0.95407858829E+01  0.21809829369E+02 -0.51732266876E+01  0.24360983703E+02  0.51100000000E-03 0.  1.
         23    2    1    0    0    0  0.26770072911E+02 -0.30304612025E+02 -0.18017182048E+02  0.80732346316E+02  0.67513602919E+02 0.  0.
         11    1    3    3    0    0  0.17229287028E+02 -0.52114441394E+02 -0.12843955360E+02  0.56371362613E+02  0.51100000000E-03 0. -1.
         22    1    1    0    0    0 -0.26770072911E+02  0.30304612025E+02  0.18017182048E+02  0.44267653684E+02  0.00000000000E+00 0. -1.
</event>
<event>
 5    1  0.8962782E-005  0.9118800E+02  0.7818608E-02  0.1130116E+00
         25   -1    0    0    0    0  0.00000000000E+00  0.00000000000E+00  0.99999998245E-14  0.12500000000E+03  0.12500000000E+03 0.  0.
        -11    1    3    3    0    0 -0.20811431072E+02 -0.45267667312E+02 -0.22470594116E+02  0.54655328810E+02  0.51100000000E-03 0.  1.
         23    2    1    0    0    0 -0.31382211506E+02 -0.25878092743E+02 -0.28025087247E+01  0.84227792086E+02  0.73701750464E+02 0.  0.
         11    1    3    3    0    0 -0.10570780434E+02  0.19389574569E+02  0.19668085392E+02  0.29572463275E+02  0.51100000000E-03 0. -1.
         22    1    1    0    0    0  0.31382211506E+02  0.25878092743E+02  0.28025087247E+01  0.40772207914E+02  0.00000000000E+00 0.  1.
</event>
<event>
 5    1  0.8962782E-005  0.9118800E+02  0.7818608E-02  0.1130116E+00
         25   -1    0    0    0    0  0.00000000000E+00  0.00000000000E+00  0.99999998245E-14  0.12500000000E+03  0.12500000000E+03 0.  0.
        -11    1    3    3    0    0 -0.30397295289E+02 -0.72014029438E+01  0.53634929993E+02  0.62069005799E+02  0.51100000000E-03 0. -1.
         23    2    1    0    0    0 -0.17981158182E+02 -0.40981160206E+01  0.21410700291E+02  0.96741643865E+02  0.92522488976E+02 0.  0.
         11    1    3    3    0    0  0.12416137107E+02  0.31032869232E+01 -0.32224229701E+02  0.34672638067E+02  0.51100000000E-03 0.  1.
         22    1    1    0    0    0  0.17981158182E+02  0.40981160206E+01 -0.21410700291E+02  0.28258356135E+02  0.00000000000E+00 0. -1.
</event>
<event>
 5    1  0.8962782E-005  0.9118800E+02  0.7818608E-02  0.1130116E+00
         25   -1    0    0    0    0  0.00000000000E+00  0.00000000000E+00  0.99999998245E-14  0.12500000000E+03  0.12500000000E+03 0.  0.
        -11    1    3    3    0    0 -0.56181488199E+02 -0.18697540886E+02 -0.18788991366E+02  0.62120719960E+02  0.51100000000E-03 0.  1.
         23    2    1    0    0    0 -0.27690085994E+02 -0.41700782345E+01 -0.96363798008E+01  0.95385979156E+02  0.90672458823E+02 0.  0.
         11    1    3    3    0    0  0.28491402205E+02  0.14527462652E+02  0.91526115653E+01  0.33265259197E+02  0.51100000000E-03 0. -1.
         22    1    1    0    0    0  0.27690085994E+02  0.41700782345E+01  0.96363798008E+01  0.29614020844E+02  0.00000000000E+00 0.  1.
</event>
<event>
 5    1  0.8962782E-005  0.9118800E+02  0.7818608E-02  0.1130116E+00
         25   -1    0    0    0    0  0.00000000000E+00  0.00000000000E+00  0.99999998245E-14  0.12500000000E+03  0.12500000000E+03 0.  0.
        -11    1    3    3    0    0 -0.20844611288E+02 -0.14622338572E+02 -0.26437447712E+02  0.36704894045E+02  0.51100000000E-03 0.  1.
         23    2    1    0    0    0  0.20977937250E+02  0.79795140089E+01  0.13513093463E+02  0.98801713987E+02  0.95265043414E+02 0.  0.
         11    1    3    3    0    0  0.41822548538E+02  0.22601852581E+02  0.39950541176E+02  0.62096819941E+02  0.51100000000E-03 0. -1.
         22    1    1    0    0    0 -0.20977937250E+02 -0.79795140089E+01 -0.13513093463E+02  0.26198286013E+02  0.00000000000E+00 0. -1.
</event>
<event>
 5    1  0.8962782E-005  0.9118800E+02  0.7818608E-02  0.1130116E+00
         25   -1    0    0    0    0  0.00000000000E+00  0.00000000000E+00  0.99999998245E-14  0.12500000000E+03  0.12500000000E+03 0.  0.
        -11    1    3    3    0    0  0.59519936710E+01  0.33881203134E+02 -0.42721108915E+02  0.54849387432E+02  0.51100000000E-03 0.  1.
         23    2    1    0    0    0  0.96936996935E+01  0.29698218243E+02 -0.45508415148E+01  0.93430043727E+02  0.87934696973E+02 0.  0.
         11    1    3    3    0    0  0.37417060225E+01 -0.41829848905E+01  0.38170267400E+02  0.38580656296E+02  0.51100000000E-03 0. -1.
         22    1    1    0    0    0 -0.96936996935E+01 -0.29698218243E+02  0.45508415148E+01  0.31569956273E+02  0.00000000000E+00 0.  1.
</event>
<event>
 5    1  0.8962782E-005  0.9118800E+02  0.7818608E-02  0.1130116E+00
         25   -1    0    0    0    0  0.00000000000E+00  0.00000000000E+00  0.99999998245E-14  0.12500000000E+03  0.12500000000E+03 0.  0.
        -11    1    3    3    0    0 -0.37929986824E+01 -0.30813012657E+02 -0.36448264149E+02  0.47878017375E+02  0.51100000000E-03 0.  1.
         23    2    1    0    0    0  0.23397092815E+02  0.38994055821E+01 -0.15233264555E+02  0.96809901293E+02  0.92614660412E+02 0.  0.
         11    1    3    3    0    0  0.27190091498E+02  0.34712418240E+02  0.21214999594E+02  0.48931883918E+02  0.51100000000E-03 0. -1.
         22    1    1    0    0    0 -0.23397092815E+02 -0.38994055821E+01  0.15233264555E+02  0.28190098707E+02  0.00000000000E+00 0. -1.
</event>
<event>
 5    1  0.8962782E-005  0.9118800E+02  0.7818608E-02  0.1130116E+00
         25   -1    0    0    0    0  0.00000000000E+00  0.00000000000E+00  0.99999998245E-14  0.12500000000E+03  0.12500000000E+03 0.  0.
        -11    1    3    3    0    0 -0.39494996013E+02  0.40823301865E+02 -0.47663471781E+01  0.57001006578E+02  0.51100000000E-03 0. -1.
         23    2    1    0    0    0 -0.25242174698E+02  0.33121319881E+01  0.65855447211E+01  0.98703479297E+02  0.95136059538E+02 0.  0.
         11    1    3    3    0    0  0.14252821315E+02 -0.37511169877E+02  0.11351891899E+02  0.41702472719E+02  0.51100000000E-03 0.  1.
         22    1    1    0    0    0  0.25242174698E+02 -0.33121319881E+01 -0.65855447211E+01  0.26296520703E+02  0.00000000000E+00 0. -1.
</event>
<event>
 5    1  0.8962782E-005  0.9118800E+02  0.7818608E-02  0.1130116E+00
         25   -1    0    0    0    0  0.00000000000E+00  0.00000000000E+00  0.99999998245E-14  0.12500000000E+03  0.12500000000E+03 0.  0.
        -11    1    3    3    0    0  0.32452584276E+02 -0.44380602174E+02 -0.12326043717E+02  0.56344826111E+02  0.51100000000E-03 0.  1.
         23    2    1    0    0    0  0.28161038649E+02 -0.73962239737E+01  0.93615457210E+00  0.95868837780E+02  0.91335696445E+02 0.  0.
         11    1    3    3    0    0 -0.42915456268E+01  0.36984378200E+02  0.13262198289E+02  0.39524011669E+02  0.51100000000E-03 0. -1.
         22    1    1    0    0    0 -0.28161038649E+02  0.73962239737E+01 -0.93615457210E+00  0.29131162220E+02  0.00000000000E+00 0.  1.
</event>
<event>
 5    1  0.8962782E-005  0.9118800E+02  0.7818608E-02  0.1130116E+00
         25   -1    0    0    0    0  0.00000000000E+00  0.00000000000E+00  0.99999998245E-14  0.12500000000E+03  0.12500000000E+03 0.  0.
        -11    1    3    3    0    0  0.59986690223E+00  0.37550332549E+02  0.88154085783E+01  0.38575882926E+02  0.51100000000E-03 0.  1.
         23    2    1    0    0    0 -0.12075902371E+00 -0.84676815587E+01 -0.26878643248E+02  0.96818841816E+02  0.92626726456E+02 0.  0.
         11    1    3    3    0    0 -0.72062592594E+00 -0.46018014108E+02 -0.35694051827E+02  0.58242958890E+02  0.51100000000E-03 0. -1.
         22    1    1    0    0    0  0.12075902371E+00  0.84676815587E+01  0.26878643248E+02  0.28181158184E+02  0.00000000000E+00 0. -1.
</event>
<event>
 5    1  0.8962782E-005  0.9118800E+02  0.7818608E-02  0.1130116E+00
         25   -1    0    0    0    0  0.00000000000E+00  0.00000000000E+00  0.99999998245E-14  0.12500000000E+03  0.12500000000E+03 0.  0.
        -11    1    3    3    0    0  0.21068740048E+02  0.28968831538E+02  0.29166998798E+01  0.35938727668E+02  0.51100000000E-03 0.  1.
         23    2    1    0    0    0 -0.23743797257E+02 -0.93737824503E+01 -0.12029540914E+02  0.96780404677E+02  0.92574840909E+02 0.  0.
         11    1    3    3    0    0 -0.44812537305E+02 -0.38342613989E+02 -0.14946240794E+02  0.60841677009E+02  0.51100000000E-03 0. -1.
         22    1    1    0    0    0  0.23743797257E+02  0.93737824503E+01  0.12029540914E+02  0.28219595323E+02  0.00000000000E+00 0. -1.
</event>
<event>
 5    1  0.8962782E-005  0.9118800E+02  0.7818608E-02  0.1130116E+00
         25   -1    0    0    0    0  0.00000000000E+00  0.00000000000E+00  0.99999998245E-14  0.12500000000E+03  0.12500000000E+03 0.  0.
        -11    1    3    3    0    0  0.34660423422E+02  0.13629885120E+02 -0.10741969661E+02  0.38762206240E+02  0.51100000000E-03 0.  1.
         23    2    1    0    0    0 -0.12298666048E+02  0.12923066467E+02  0.22488918931E+02  0.96294350588E+02  0.91916199046E+02 0.  0.
         11    1    3    3    0    0 -0.46959089470E+02 -0.70681865298E+00  0.33230888592E+02  0.57532144348E+02  0.51100000000E-03 0. -1.
         22    1    1    0    0    0  0.12298666048E+02 -0.12923066467E+02 -0.22488918931E+02  0.28705649412E+02  0.00000000000E+00 0. -1.
</event>
<event>
 5    1  0.8962782E-005  0.9118800E+02  0.7818608E-02  0.1130116E+00
         25   -1    0    0    0    0  0.00000000000E+00  0.00000000000E+00  0.99999998245E-14  0.12500000000E+03  0.12500000000E+03 0.  0.
        -11    1    3    3    0    0 -0.33330288509E+02 -0.11675380279E+02  0.17731140523E+02  0.39517287119E+02  0.51100000000E-03 0.  1.
         23    2    1    0    0    0  0.11874165905E+02 -0.25766893730E+02 -0.10620186962E+02  0.94706155749E+02  0.89730367976E+02 0.  0.
         11    1    3    3    0    0  0.45204454414E+02 -0.14091513451E+02 -0.28351327485E+02  0.55188868629E+02  0.51100000000E-03 0. -1.
         22    1    1    0    0    0 -0.11874165905E+02  0.25766893730E+02  0.10620186962E+02  0.30293844251E+02  0.00000000000E+00 0. -1.
</event>
<event>
 5    1  0.8962782E-005  0.9118800E+02  0.7818608E-02  0.1130116E+00
         25   -1    0    0    0    0  0.00000000000E+00  0.00000000000E+00  0.99999998245E-14  0.12500000000E+03  0.12500000000E+03 0.  0.
        -11    1    3    3    0    0  0.11743292604E+02 -0.36954841257E+02  0.42765779580E+02  0.57727611390E+02  0.51100000000E-03 0.  1.
         23    2    1    0    0    0  0.19786088790E+02 -0.71359195904E+01  0.18016378245E+02  0.97305225347E+02  0.93280792968E+02 0.  0.
         11    1    3    3    0    0  0.80427961859E+01  0.29818921666E+02 -0.24749401335E+02  0.39577613957E+02  0.51100000000E-03 0. -1.
         22    1    1    0    0    0 -0.19786088790E+02  0.71359195904E+01 -0.18016378245E+02  0.27694774653E+02  0.00000000000E+00 0.  1.
</event>
<event>
 5    1  0.8962782E-005  0.9118800E+02  0.7818608E-02  0.1130116E+00
         25   -1    0    0    0    0  0.00000000000E+00  0.00000000000E+00  0.99999998245E-14  0.12500000000E+03  0.12500000000E+03 0.  0.
        -11    1    3    3    0    0 -0.17158813682E+02 -0.31850604054E+02  0.43811394138E+02  0.56818343184E+02  0.51100000000E-03 0. -1.
         23    2    1    0    0    0 -0.15884161619E+02  0.19693636907E+01  0.24355057867E+02  0.95856324401E+02  0.91318569307E+02 0.  0.
         11    1    3    3    0    0  0.12746520628E+01  0.33819967745E+02 -0.19456336271E+02  0.39037981217E+02  0.51100000000E-03 0.  1.
         22    1    1    0    0    0  0.15884161619E+02 -0.19693636907E+01 -0.24355057867E+02  0.29143675599E+02  0.00000000000E+00 0. -1.
</event>
<event>
 5    1  0.8962782E-005  0.9118800E+02  0.7818608E-02  0.1130116E+00
         25   -1    0    0    0    0  0.00000000000E+00  0.00000000000E+00  0.99999998245E-14  0.12500000000E+03  0.12500000000E+03 0.  0.
        -11    1    3    3    0    0  0.30234209742E+02  0.16073826441E+02 -0.28473738648E+02  0.44533460769E+02  0.51100000000E-03 0. -1.
         23    2    1    0    0    0 -0.18383873497E+02  0.19047624025E+02 -0.82729062480E+01  0.97265188597E+02  0.93227126682E+02 0.  0.
         11    1    3    3    0    0 -0.48618083238E+02  0.29737975842E+01  0.20200832400E+02  0.52731727829E+02  0.51100000000E-03 0.  1.
         22    1    1    0    0    0  0.18383873497E+02 -0.19047624025E+02  0.82729062480E+01  0.27734811403E+02  0.00000000000E+00 0. -1.
</event>
<event>
 5    1  0.8962782E-005  0.9118800E+02  0.7818608E-02  0.1130116E+00
         25   -1    0    0    0    0  0.00000000000E+00  0.00000000000E+00  0.99999998245E-14  0.12500000000E+03  0.12500000000E+03 0.  0.
        -11    1    3    3    0    0 -0.31684857163E+01 -0.26648456068E+02  0.33398969166E+02  0.42844727262E+02  0.51100000000E-03 0.  1.
         23    2    1    0    0    0 -0.22058834306E+02  0.16474505139E+02  0.80445984096E+01  0.96316955286E+02  0.91946934813E+02 0.  0.
         11    1    3    3    0    0 -0.18890348590E+02  0.43122961207E+02 -0.25354370756E+02  0.53472228024E+02  0.51100000000E-03 0. -1.
         22    1    1    0    0    0  0.22058834306E+02 -0.16474505139E+02 -0.80445984096E+01  0.28683044714E+02  0.00000000000E+00 0. -1.
</event>
<event>
 5    1  0.8962782E-005  0.9118800E+02  0.7818608E-02  0.1130116E+00
         25   -1    0    0    0    0  0.00000000000E+00  0.00000000000E+00  0.99999998245E-14  0.12500000000E+03  0.12500000000E+03 0.  0.
        -11    1    3    3    0    0  0.29535839585E+02 -0.21277647779E+02 -0.39608580210E+02  0.53795387735E+02  0.51100000000E-03 0. -1.
         23    2    1    0    0    0  0.27111336672E+02 -0.75632666918E+01  0.11117554648E+01  0.96831514428E+02  0.92643826600E+02 0.  0.
         11    1    3    3    0    0 -0.24245029130E+01  0.13714381087E+02  0.40720335675E+02  0.43036126693E+02  0.51100000000E-03 0.  1.
         22    1    1    0    0    0 -0.27111336672E+02  0.75632666918E+01 -0.11117554648E+01  0.28168485572E+02  0.00000000000E+00 0. -1.
</event>
<event>
 5    1  0.8962782E-005  0.9118800E+02  0.7818608E-02  0.1130116E+00
         25   -1    0    0    0    0  0.00000000000E+00  0.00000000000E+00  0.99999998245E-14  0.12500000000E+03  0.12500000000E+03 0.  0.
        -11    1    3    3    0    0 -0.10097857140E+01  0.19165170182E+02  0.31753976199E+02  0.37103078309E+02  0.51100000000E-03 0.  1.
         23    2    1    0    0    0 -0.14136244848E+02 -0.24927463355E+02 -0.49033377550E+01  0.95926737905E+02  0.91414902922E+02 0.  0.
         11    1    3    3    0    0 -0.13126459134E+02 -0.44092633537E+02 -0.36657313954E+02  0.58823659596E+02  0.51100000000E-03 0. -1.
         22    1    1    0    0    0  0.14136244848E+02  0.24927463355E+02  0.49033377550E+01  0.29073262095E+02  0.00000000000E+00 0. -1.
</event>
<event>
 5    1  0.8962782E-005  0.9118800E+02  0.7818608E-02  0.1130116E+00
         25   -1    0    0    0    0  0.00000000000E+00  0.00000000000E+00  0.99999998245E-14  0.12500000000E+03  0.12500000000E+03 0.  0.
        -11    1    3    3    0    0  0.22215955645E+02  0.25982444057E+02 -0.49385244213E+02  0.60062787403E+02  0.51100000000E-03 0. -1.
         23    2    1    0    0    0  0.63381586703E+01  0.22289901863E+02 -0.17200208353E+02  0.96140700843E+02  0.91707007425E+02 0.  0.
         11    1    3    3    0    0 -0.15877796975E+02 -0.36925421938E+01  0.32185035860E+02  0.36077913440E+02  0.51100000000E-03 0.  1.
         22    1    1    0    0    0 -0.63381586703E+01 -0.22289901863E+02  0.17200208353E+02  0.28859299157E+02  0.00000000000E+00 0. -1.
</event>
<event>
 5    1  0.8962782E-005  0.9118800E+02  0.7818608E-02  0.1130116E+00
         25   -1    0    0    0    0  0.00000000000E+00  0.00000000000E+00  0.99999998245E-14  0.12500000000E+03  0.12500000000E+03 0.  0.
        -11    1    3    3    0    0  0.10930048472E+02  0.34044944657E+02  0.62441638768E+01  0.36297572909E+02  0.51100000000E-03 0.  1.
         23    2    1    0    0    0 -0.26828278639E+02 -0.93228023454E+01 -0.79127213820E+01  0.95516405613E+02  0.90852085300E+02 0.  0.
         11    1    3    3    0    0 -0.37758327111E+02 -0.43367747003E+02 -0.14156885259E+02  0.59218832704E+02  0.51100000000E-03 0. -1.
         22    1    1    0    0    0  0.26828278639E+02  0.93228023454E+01  0.79127213820E+01  0.29483594387E+02  0.00000000000E+00 0. -1.
</event>
<event>
 5    1  0.8962782E-005  0.9118800E+02  0.7818608E-02  0.1130116E+00
         25   -1    0    0    0    0  0.00000000000E+00  0.00000000000E+00  0.99999998245E-14  0.12500000000E+03  0.12500000000E+03 0.  0.
        -11    1    3    3    0    0  0.17585319337E+02 -0.39121743468E+02  0.31385110923E+02  0.53148654321E+02  0.51100000000E-03 0.  1.
         23    2    1    0    0    0  0.44571255149E+01 -0.29927667230E+02 -0.62936958983E+01  0.94094630859E+02  0.88874392907E+02 0.  0.
         11    1    3    3    0    0 -0.13128193822E+02  0.91940762377E+01 -0.37678806821E+02  0.40945976538E+02  0.51100000000E-03 0. -1.
         22    1    1    0    0    0 -0.44571255149E+01  0.29927667230E+02  0.62936958983E+01  0.30905369141E+02  0.00000000000E+00 0.  1.
</event>
<event>
 5    1  0.8962782E-005  0.9118800E+02  0.7818608E-02  0.1130116E+00
         25   -1    0    0    0    0  0.00000000000E+00  0.00000000000E+00  0.99999998245E-14  0.12500000000E+03  0.12500000000E+03 0.  0.
        -11    1    3    3    0    0  0.23721823707E+02 -0.17465697673E+02  0.50229660523E+01  0.29883201024E+02  0.51100000000E-03 0.  1.
         23    2    1    0    0    0 -0.26487943835E+02  0.15768742425E+02 -0.11131951076E+02  0.92225242319E+02  0.86205049619E+02 0.  0.
         11    1    3    3    0    0 -0.50209767542E+02  0.33234440098E+02 -0.16154917128E+02  0.62342041296E+02  0.51100000000E-03 0. -1.
         22    1    1    0    0    0  0.26487943835E+02 -0.15768742425E+02  0.11131951076E+02  0.32774757681E+02  0.00000000000E+00 0. -1.
</event>
<event>
 5    1  0.8962782E-005  0.9118800E+02  0.7818608E-02  0.1130116E+00
         25   -1    0    0    0    0  0.00000000000E+00  0.00000000000E+00  0.99999998245E-14  0.12500000000E+03  0.12500000000E+03 0.  0.
        -11    1    3    3    0    0  0.10355581750E+02  0.64198170138E+01 -0.35712381962E+02  0.37733623594E+02  0.51100000000E-03 0. -1.
         23    2    1    0    0    0 -0.23686111616E+02  0.21653207042E+02  0.45181970155E+01  0.92591554142E+02  0.86734586731E+02 0.  0.
         11    1    3    3    0    0 -0.34041693365E+02  0.15233390028E+02  0.40230578977E+02  0.54857930548E+02  0.51100000000E-03 0.  1.
         22    1    1    0    0    0  0.23686111616E+02 -0.21653207042E+02 -0.45181970155E+01  0.32408445858E+02  0.00000000000E+00 0.  1.
</event>
<event>
 5    1  0.8962782E-005  0.9118800E+02  0.7818608E-02  0.1130116E+00
         25   -1    0    0    0    0  0.00000000000E+00  0.00000000000E+00  0.99999998245E-14  0.12500000000E+03  0.12500000000E+03 0.  0.
        -11    1    3    3    0    0  0.35355078865E+02 -0.46467166908E+02  0.15953164865E+02  0.60528362538E+02  0.51100000000E-03 0. -1.
         23    2    1    0    0    0  0.24697750326E+02 -0.14376498578E+02  0.88859267969E+01  0.95073050981E+02  0.90240028508E+02 0.  0.
         11    1    3    3    0    0 -0.10657328539E+02  0.32090668330E+02 -0.70672380677E+01  0.34544688443E+02  0.51100000000E-03 0.  1.
         22    1    1    0    0    0 -0.24697750326E+02  0.14376498578E+02 -0.88859267969E+01  0.29926949019E+02  0.00000000000E+00 0. -1.
</event>
<event>
 5    1  0.8962782E-005  0.9118800E+02  0.7818608E-02  0.1130116E+00
         25   -1    0    0    0    0  0.00000000000E+00  0.00000000000E+00  0.99999998245E-14  0.12500000000E+03  0.12500000000E+03 0.  0.
        -11    1    3    3    0    0  0.35197888293E+02  0.23003927020E+01 -0.54734475281E+01  0.35695122566E+02  0.51100000000E-03 0. -1.
         23    2    1    0    0    0 -0.16450394458E+02  0.90115751029E+00  0.24536561900E+02  0.95445466802E+02  0.90754430749E+02 0.  0.
         11    1    3    3    0    0 -0.51648282751E+02 -0.13992351917E+01  0.30010009428E+02  0.59750344236E+02  0.51100000000E-03 0.  1.
         22    1    1    0    0    0  0.16450394458E+02 -0.90115751029E+00 -0.24536561900E+02  0.29554533198E+02  0.00000000000E+00 0.  1.
</event>
<event>
 5    1  0.8962782E-005  0.9118800E+02  0.7818608E-02  0.1130116E+00
         25   -1    0    0    0    0  0.00000000000E+00  0.00000000000E+00  0.99999998245E-14  0.12500000000E+03  0.12500000000E+03 0.  0.
        -11    1    3    3    0    0 -0.45498605676E+02  0.30246231860E+02 -0.23277707476E+02  0.59386945753E+02  0.51100000000E-03 0. -1.
         23    2    1    0    0    0 -0.12663394504E+02  0.24781454537E+02 -0.77882038662E+01  0.96101242781E+02  0.91653208865E+02 0.  0.
         11    1    3    3    0    0  0.32835211173E+02 -0.54647773222E+01  0.15489503610E+02  0.36714297028E+02  0.51100000000E-03 0.  1.
         22    1    1    0    0    0  0.12663394504E+02 -0.24781454537E+02  0.77882038662E+01  0.28898757219E+02  0.00000000000E+00 0. -1.
</event>
<event>
 5    1  0.8962782E-005  0.9118800E+02  0.7818608E-02  0.1130116E+00
         25   -1    0    0    0    0  0.00000000000E+00  0.00000000000E+00  0.99999998245E-14  0.12500000000E+03  0.12500000000E+03 0.  0.
        -11    1    3    3    0    0  0.59877042602E+01 -0.35610408692E+02 -0.14578868479E+02  0.38942229211E+02  0.51100000000E-03 0.  1.
         23    2    1    0    0    0 -0.69397307458E+01  0.17864099216E+02 -0.23500400293E+02  0.94675839376E+02  0.89688125434E+02 0.  0.
         11    1    3    3    0    0 -0.12927435006E+02  0.53474507908E+02 -0.89215318146E+01  0.55733610165E+02  0.51100000000E-03 0. -1.
         22    1    1    0    0    0  0.69397307458E+01 -0.17864099216E+02  0.23500400293E+02  0.30324160624E+02  0.00000000000E+00 0. -1.
</event>
<event>
 5    1  0.8962782E-005  0.9118800E+02  0.7818608E-02  0.1130116E+00
         25   -1    0    0    0    0  0.00000000000E+00  0.00000000000E+00  0.99999998245E-14  0.12500000000E+03  0.12500000000E+03 0.  0.
        -11    1    3    3    0    0  0.46524006180E+02 -0.24086763167E+02 -0.21099834241E+01  0.52431930550E+02  0.51100000000E-03 0.  1.
         23    2    1    0    0    0  0.16588996143E+02 -0.25649833006E+01  0.22624131111E+02  0.96828645029E+02  0.92639954973E+02 0.  0.
         11    1    3    3    0    0 -0.29935010037E+02  0.21521779866E+02  0.24734114535E+02  0.44396714480E+02  0.51100000000E-03 0. -1.
         22    1    1    0    0    0 -0.16588996143E+02  0.25649833006E+01 -0.22624131111E+02  0.28171354971E+02  0.00000000000E+00 0.  1.
</event>
<event>
 5    1  0.8962782E-005  0.9118800E+02  0.7818608E-02  0.1130116E+00
         25   -1    0    0    0    0  0.00000000000E+00  0.00000000000E+00  0.99999998245E-14  0.12500000000E+03  0.12500000000E+03 0.  0.
        -11    1    3    3    0    0  0.47714172696E+02  0.24074170201E+02  0.26268388212E+02  0.59550282673E+02  0.51100000000E-03 0.  1.
         23    2    1    0    0    0  0.28848917547E+02  0.20372360785E+01  0.46977943491E+01  0.95700176686E+02  0.91104578214E+02 0.  0.
         11    1    3    3    0    0 -0.18865255149E+02 -0.22036934122E+02 -0.21570593862E+02  0.36149894013E+02  0.51100000000E-03 0. -1.
         22    1    1    0    0    0 -0.28848917547E+02 -0.20372360785E+01 -0.46977943491E+01  0.29299823314E+02  0.00000000000E+00 0.  1.
</event>
<event>
 5    1  0.8962782E-005  0.9118800E+02  0.7818608E-02  0.1130116E+00
         25   -1    0    0    0    0  0.00000000000E+00  0.00000000000E+00  0.99999998245E-14  0.12500000000E+03  0.12500000000E+03 0.  0.
        -11    1    3    3    0    0 -0.38281270556E+02  0.25216204556E+02  0.14539289928E+01  0.45863128517E+02  0.51100000000E-03 0.  1.
         23    2    1    0    0    0 -0.23945294190E+01  0.97160308988E+01  0.29417987876E+02  0.93926650676E+02  0.88637817375E+02 0.  0.
         11    1    3    3    0    0  0.35886741137E+02 -0.15500173658E+02  0.27964058883E+02  0.48063522159E+02  0.51100000000E-03 0. -1.
         22    1    1    0    0    0  0.23945294190E+01 -0.97160308988E+01 -0.29417987876E+02  0.31073349324E+02  0.00000000000E+00 0. -1.
</event>
<event>
 5    1  0.8962782E-005  0.9118800E+02  0.7818608E-02  0.1130116E+00
         25   -1    0    0    0    0  0.00000000000E+00  0.00000000000E+00  0.99999998245E-14  0.12500000000E+03  0.12500000000E+03 0.  0.
        -11    1    3    3    0    0  0.41981554894E+02 -0.31610391779E+02  0.17042732399E+02  0.55246018387E+02  0.51100000000E-03 0.  1.
         23    2    1    0    0    0  0.80697935118E+01 -0.11716133940E+02  0.25810645781E+02  0.95528339079E+02  0.90868502627E+02 0.  0.
         11    1    3    3    0    0 -0.33911761382E+02  0.19894257839E+02  0.87679133819E+01  0.40282320692E+02  0.51100000000E-03 0. -1.
         22    1    1    0    0    0 -0.80697935118E+01  0.11716133940E+02 -0.25810645781E+02  0.29471660921E+02  0.00000000000E+00 0.  1.
</event>
<event>
 5    1  0.8962782E-005  0.9118800E+02  0.7818608E-02  0.1130116E+00
         25   -1    0    0    0    0  0.00000000000E+00  0.00000000000E+00  0.99999998245E-14  0.12500000000E+03  0.12500000000E+03 0.  0.
        -11    1    3    3    0    0  0.49045441624E+02 -0.42304677521E+01  0.38215882537E+02  0.62320188381E+02  0.51100000000E-03 0.  1.
         23    2    1    0    0    0  0.25847001883E+02 -0.15540074614E+01  0.15939142676E+02  0.94593771777E+02  0.89573673276E+02 0.  0.
         11    1    3    3    0    0 -0.23198439741E+02  0.26764602907E+01 -0.22276739862E+02  0.32273583396E+02  0.51100000000E-03 0. -1.
         22    1    1    0    0    0 -0.25847001883E+02  0.15540074614E+01 -0.15939142676E+02  0.30406228223E+02  0.00000000000E+00 0.  1.
</event>
<event>
 5    1  0.8962782E-005  0.9118800E+02  0.7818608E-02  0.1130116E+00
         25   -1    0    0    0    0  0.00000000000E+00  0.00000000000E+00  0.99999998245E-14  0.12500000000E+03  0.12500000000E+03 0.  0.
        -11    1    3    3    0    0  0.45632095990E+02  0.18984448207E+02  0.29728167203E+02  0.57675483385E+02  0.51100000000E-03 0. -1.
         23    2    1    0    0    0  0.27253774215E+02  0.11273982528E+02 -0.23199464935E+01  0.95415324190E+02  0.90712904526E+02 0.  0.
         11    1    3    3    0    0 -0.18378321775E+02 -0.77104656786E+01 -0.32048113696E+02  0.37739840805E+02  0.51100000000E-03 0.  1.
         22    1    1    0    0    0 -0.27253774215E+02 -0.11273982528E+02  0.23199464935E+01  0.29584675810E+02  0.00000000000E+00 0.  1.
</event>
<event>
 5    1  0.8962782E-005  0.9118800E+02  0.7818608E-02  0.1130116E+00
         25   -1    0    0    0    0  0.00000000000E+00  0.00000000000E+00  0.99999998245E-14  0.12500000000E+03  0.12500000000E+03 0.  0.
        -11    1    3    3    0    0 -0.38674298633E+02 -0.18807524195E+02  0.99707266344E+01  0.44145664917E+02  0.51100000000E-03 0.  1.
         23    2    1    0    0    0 -0.68016786187E+01  0.20076048991E+02  0.20497907584E+02  0.95513142072E+02  0.90847595005E+02 0.  0.
         11    1    3    3    0    0  0.31872620014E+02  0.38883573186E+02  0.10527180950E+02  0.51367477155E+02  0.51100000000E-03 0. -1.
         22    1    1    0    0    0  0.68016786187E+01 -0.20076048991E+02 -0.20497907584E+02  0.29486857928E+02  0.00000000000E+00 0. -1.
</event>
<event>
 5    1  0.8962782E-005  0.9118800E+02  0.7818608E-02  0.1130116E+00
         25   -1    0    0    0    0  0.00000000000E+00  0.00000000000E+00  0.99999998245E-14  0.12500000000E+03  0.12500000000E+03 0.  0.
        -11    1    3    3    0    0 -0.31367117242E+02 -0.52302843258E+00  0.21902033912E+02  0.38260537014E+02  0.51100000000E-03 0. -1.
         23    2    1    0    0    0 -0.81144239428E+01 -0.38461720019E+02  0.12615983088E+02  0.83716700568E+02  0.72829768241E+02 0.  0.
         11    1    3    3    0    0  0.23252693299E+02 -0.37938691586E+02 -0.92860508249E+01  0.45456163555E+02  0.51100000000E-03 0.  1.
         22    1    1    0    0    0  0.81144239428E+01  0.38461720019E+02 -0.12615983088E+02  0.41283299432E+02  0.00000000000E+00 0. -1.
</event>
<event>
 5    1  0.8962782E-005  0.9118800E+02  0.7818608E-02  0.1130116E+00
         25   -1    0    0    0    0  0.00000000000E+00  0.00000000000E+00  0.99999998245E-14  0.12500000000E+03  0.12500000000E+03 0.  0.
        -11    1    3    3    0    0  0.79984636152E+01  0.30675901118E+00  0.33454957863E+02  0.34399182071E+02  0.51100000000E-03 0.  1.
         23    2    1    0    0    0 -0.65543737843E+01  0.23965029560E+02 -0.18978715089E+02  0.93735418059E+02  0.88367723263E+02 0.  0.
         11    1    3    3    0    0 -0.14552837399E+02  0.23658270549E+02 -0.52433672952E+02  0.59336235988E+02  0.51100000000E-03 0. -1.
         22    1    1    0    0    0  0.65543737843E+01 -0.23965029560E+02  0.18978715089E+02  0.31264581941E+02  0.00000000000E+00 0. -1.
</event>
<event>
 5    1  0.8962782E-005  0.9118800E+02  0.7818608E-02  0.1130116E+00
         25   -1    0    0    0    0  0.00000000000E+00  0.00000000000E+00  0.99999998245E-14  0.12500000000E+03  0.12500000000E+03 0.  0.
        -11    1    3    3    0    0  0.10155541524E+02 -0.54785428923E+02 -0.20889151232E+02  0.59505755061E+02  0.51100000000E-03 0.  1.
         23    2    1    0    0    0  0.11008476015E+02 -0.26661418557E+02  0.24345197993E+01  0.96052726030E+02  0.91587016042E+02 0.  0.
         11    1    3    3    0    0  0.85293449112E+00  0.28124010366E+02  0.23323671032E+02  0.36546970968E+02  0.51100000000E-03 0. -1.
         22    1    1    0    0    0 -0.11008476015E+02  0.26661418557E+02 -0.24345197993E+01  0.28947273970E+02  0.00000000000E+00 0.  1.
</event>
<event>
 5    1  0.8962782E-005  0.9118800E+02  0.7818608E-02  0.1130116E+00
         25   -1    0    0    0    0  0.00000000000E+00  0.00000000000E+00  0.99999998245E-14  0.12500000000E+03  0.12500000000E+03 0.  0.
        -11    1    3    3    0    0  0.11142946245E+02 -0.26958623804E+02  0.23224153922E+02  0.37286646055E+02  0.51100000000E-03 0. -1.
         23    2    1    0    0    0 -0.24458118403E+02 -0.69262669029E+01 -0.16842949661E+02  0.94506432116E+02  0.89451707804E+02 0.  0.
         11    1    3    3    0    0 -0.35601064647E+02  0.20032356901E+02 -0.40067103583E+02  0.57219786061E+02  0.51100000000E-03 0.  1.
         22    1    1    0    0    0  0.24458118403E+02  0.69262669029E+01  0.16842949661E+02  0.30493567884E+02  0.00000000000E+00 0.  1.
</event>
<event>
 5    1  0.8962782E-005  0.9118800E+02  0.7818608E-02  0.1130116E+00
         25   -1    0    0    0    0  0.00000000000E+00  0.00000000000E+00  0.99999998245E-14  0.12500000000E+03  0.12500000000E+03 0.  0.
        -11    1    3    3    0    0  0.20970631270E+01  0.42832855752E+02  0.33111383857E+01  0.43011798885E+02  0.51100000000E-03 0. -1.
         23    2    1    0    0    0 -0.26812673738E+02 -0.79636178269E+00  0.11181420634E+02  0.95938378702E+02  0.91430819069E+02 0.  0.
         11    1    3    3    0    0 -0.28909736865E+02 -0.43629217535E+02  0.78702822486E+01  0.52926579818E+02  0.51100000000E-03 0.  1.
         22    1    1    0    0    0  0.26812673738E+02  0.79636178269E+00 -0.11181420634E+02  0.29061621298E+02  0.00000000000E+00 0.  1.
</event>
<event>
 5    1  0.8962782E-005  0.9118800E+02  0.7818608E-02  0.1130116E+00
         25   -1    0    0    0    0  0.00000000000E+00  0.00000000000E+00  0.99999998245E-14  0.12500000000E+03  0.12500000000E+03 0.  0.
        -11    1    3    3    0    0 -0.30608936378E+02 -0.20975666847E+02  0.13086694023E+02  0.39346501072E+02  0.51100000000E-03 0.  1.
         23    2    1    0    0    0  0.63521110654E+01  0.19348722460E+02 -0.13901654447E+02  0.10034278255E+03  0.97266107347E+02 0.  0.
         11    1    3    3    0    0  0.36961047444E+02  0.40324389307E+02 -0.26988348471E+02  0.60996281482E+02  0.51100000000E-03 0. -1.
         22    1    1    0    0    0 -0.63521110654E+01 -0.19348722460E+02  0.13901654447E+02  0.24657217446E+02  0.00000000000E+00 0. -1.
</event>
<event>
 5    1  0.8962782E-005  0.9118800E+02  0.7818608E-02  0.1130116E+00
         25   -1    0    0    0    0  0.00000000000E+00  0.00000000000E+00  0.99999998245E-14  0.12500000000E+03  0.12500000000E+03 0.  0.
        -11    1    3    3    0    0 -0.42316364398E+02  0.27059219117E+02 -0.14477378595E+02  0.52273038235E+02  0.51100000000E-03 0. -1.
         23    2    1    0    0    0 -0.14608286087E+02 -0.43049349514E+01 -0.25272767807E+02  0.95493267209E+02  0.90820244452E+02 0.  0.
         11    1    3    3    0    0  0.27708078311E+02 -0.31364154068E+02 -0.10795389213E+02  0.43220228974E+02  0.51100000000E-03 0.  1.
         22    1    1    0    0    0  0.14608286087E+02  0.43049349514E+01  0.25272767807E+02  0.29506732791E+02  0.00000000000E+00 0. -1.
</event>
<event>
 5    1  0.8962782E-005  0.9118800E+02  0.7818608E-02  0.1130116E+00
         25   -1    0    0    0    0  0.00000000000E+00  0.00000000000E+00  0.99999998245E-14  0.12500000000E+03  0.12500000000E+03 0.  0.
        -11    1    3    3    0    0 -0.35056027087E+02 -0.42312596073E+02 -0.26006470541E+02  0.60791589318E+02  0.51100000000E-03 0. -1.
         23    2    1    0    0    0 -0.59917017151E+00 -0.11074598911E+02 -0.10252639026E+02  0.10989628016E+03  0.10885343376E+03 0.  0.
         11    1    3    3    0    0  0.34456856916E+02  0.31237997162E+02  0.15753831515E+02  0.49104690844E+02  0.51100000000E-03 0.  1.
         22    1    1    0    0    0  0.59917017151E+00  0.11074598911E+02  0.10252639026E+02  0.15103719838E+02  0.00000000000E+00 0. -1.
</event>
<event>
 5    1  0.8962782E-005  0.9118800E+02  0.7818608E-02  0.1130116E+00
         25   -1    0    0    0    0  0.00000000000E+00  0.00000000000E+00  0.99999998245E-14  0.12500000000E+03  0.12500000000E+03 0.  0.
        -11    1    3    3    0    0 -0.70720888435E+01  0.44494096155E+02 -0.10029229056E+02  0.46155438130E+02  0.51100000000E-03 0. -1.
         23    2    1    0    0    0  0.13078758899E+02  0.44857102175E+02  0.12746239220E+02  0.76567777626E+02  0.59303831296E+02 0.  0.
         11    1    3    3    0    0  0.20150847743E+02  0.36300602023E+00  0.22775468277E+02  0.30412339496E+02  0.51100000000E-03 0.  1.
         22    1    1    0    0    0 -0.13078758899E+02 -0.44857102175E+02 -0.12746239220E+02  0.48432222374E+02  0.00000000000E+00 0. -1.
</event>
<event>
 5    1  0.8962782E-005  0.9118800E+02  0.7818608E-02  0.1130116E+00
         25   -1    0    0    0    0  0.00000000000E+00  0.00000000000E+00  0.99999998245E-14  0.12500000000E+03  0.12500000000E+03 0.  0.
        -11    1    3    3    0    0 -0.39996095063E+02 -0.29525863937E+01 -0.40407646205E+02  0.56931390803E+02  0.51100000000E-03 0.  1.
         23    2    1    0    0    0 -0.57303903918E+01  0.10615624720E+02 -0.25695400566E+02  0.96613692165E+02  0.92349461511E+02 0.  0.
         11    1    3    3    0    0  0.34265704671E+02  0.13568211114E+02  0.14712245639E+02  0.39682301362E+02  0.51100000000E-03 0. -1.
         22    1    1    0    0    0  0.57303903918E+01 -0.10615624720E+02  0.25695400566E+02  0.28386307835E+02  0.00000000000E+00 0.  1.
</event>
<event>
 5    1  0.8962782E-005  0.9118800E+02  0.7818608E-02  0.1130116E+00
         25   -1    0    0    0    0  0.00000000000E+00  0.00000000000E+00  0.99999998245E-14  0.12500000000E+03  0.12500000000E+03 0.  0.
        -11    1    3    3    0    0 -0.11939915612E+02  0.13178879251E+02  0.51142776019E+02  0.54146357055E+02  0.51100000000E-03 0. -1.
         23    2    1    0    0    0 -0.19201141355E+02 -0.11697625295E+02  0.18119228365E+02  0.96123977015E+02  0.91684209403E+02 0.  0.
         11    1    3    3    0    0 -0.72612257426E+01 -0.24876504545E+02 -0.33023547653E+02  0.41977619961E+02  0.51100000000E-03 0.  1.
         22    1    1    0    0    0  0.19201141355E+02  0.11697625295E+02 -0.18119228365E+02  0.28876022985E+02  0.00000000000E+00 0. -1.
</event>
<event>
 5    1  0.8962782E-005  0.9118800E+02  0.7818608E-02  0.1130116E+00
         25   -1    0    0    0    0  0.00000000000E+00  0.00000000000E+00  0.99999998245E-14  0.12500000000E+03  0.12500000000E+03 0.  0.
        -11    1    3    3    0    0 -0.38972761500E+01 -0.35214860083E+02 -0.61968771853E+01  0.35967713566E+02  0.51100000000E-03 0.  1.
         23    2    1    0    0    0  0.59487357649E+00  0.14930515996E+02  0.25488343234E+02  0.95454614179E+02  0.90767028952E+02 0.  0.
         11    1    3    3    0    0  0.44921497265E+01  0.50145376079E+02  0.31685220419E+02  0.59486900613E+02  0.51100000000E-03 0. -1.
         22    1    1    0    0    0 -0.59487357649E+00 -0.14930515996E+02 -0.25488343234E+02  0.29545385821E+02  0.00000000000E+00 0. -1.
</event>
<event>
 5    1  0.8962782E-005  0.9118800E+02  0.7818608E-02  0.1130116E+00
         25   -1    0    0    0    0  0.00000000000E+00  0.00000000000E+00  0.99999998245E-14  0.12500000000E+03  0.12500000000E+03 0.  0.
        -11    1    3    3    0    0 -0.57202005366E+01  0.43911048661E+02 -0.93078909079E+01  0.45249726210E+02  0.51100000000E-03 0. -1.
         23    2    1    0    0    0  0.18826825120E+02  0.10832424610E+02  0.19736776436E+02  0.95651556922E+02  0.91037845045E+02 0.  0.
         11    1    3    3    0    0  0.24547025656E+02 -0.33078624051E+02  0.29044667344E+02  0.50401830712E+02  0.51100000000E-03 0.  1.
         22    1    1    0    0    0 -0.18826825120E+02 -0.10832424610E+02 -0.19736776436E+02  0.29348443078E+02  0.00000000000E+00 0. -1.
</event>
<event>
 5    1  0.8962782E-005  0.9118800E+02  0.7818608E-02  0.1130116E+00
         25   -1    0    0    0    0  0.00000000000E+00  0.00000000000E+00  0.99999998245E-14  0.12500000000E+03  0.12500000000E+03 0.  0.
        -11    1    3    3    0    0 -0.29513416524E+02  0.68469023773E+01 -0.35375826834E+02  0.46576506434E+02  0.51100000000E-03 0.  1.
         23    2    1    0    0    0  0.68434109748E+01  0.26814722922E+02 -0.83105630740E+01  0.96104894917E+02  0.91658189646E+02 0.  0.
         11    1    3    3    0    0  0.36356827499E+02  0.19967820545E+02  0.27065263760E+02  0.49528388483E+02  0.51100000000E-03 0. -1.
         22    1    1    0    0    0 -0.68434109748E+01 -0.26814722922E+02  0.83105630740E+01  0.28895105083E+02  0.00000000000E+00 0.  1.
</event>
<event>
 5    1  0.8962782E-005  0.9118800E+02  0.7818608E-02  0.1130116E+00
         25   -1    0    0    0    0  0.00000000000E+00  0.00000000000E+00  0.99999998245E-14  0.12500000000E+03  0.12500000000E+03 0.  0.
        -11    1    3    3    0    0 -0.11552552457E+02 -0.12026248243E+02  0.35931105233E+02  0.39612326851E+02  0.51100000000E-03 0.  1.
         23    2    1    0    0    0  0.29316426042E+02 -0.47560528146E+01 -0.11567937047E+01  0.95277768491E+02  0.90523157936E+02 0.  0.
         11    1    3    3    0    0  0.40868978498E+02  0.72701954283E+01 -0.37087898937E+02  0.55665441639E+02  0.51100000000E-03 0. -1.
         22    1    1    0    0    0 -0.29316426042E+02  0.47560528146E+01  0.11567937047E+01  0.29722231509E+02  0.00000000000E+00 0. -1.
</event>
<event>
 5    1  0.8962782E-005  0.9118800E+02  0.7818608E-02  0.1130116E+00
         25   -1    0    0    0    0  0.00000000000E+00  0.00000000000E+00  0.99999998245E-14  0.12500000000E+03  0.12500000000E+03 0.  0.
        -11    1    3    3    0    0  0.38713383472E+02 -0.40076274737E+02 -0.14752791427E+02  0.57640946486E+02  0.51100000000E-03 0. -1.
         23    2    1    0    0    0  0.17704538875E+02 -0.89306067275E+01 -0.21435053844E+02  0.95799521124E+02  0.91240781895E+02 0.  0.
         11    1    3    3    0    0 -0.21008844597E+02  0.31145668010E+02 -0.66822624176E+01  0.38158574637E+02  0.51100000000E-03 0.  1.
         22    1    1    0    0    0 -0.17704538875E+02  0.89306067275E+01  0.21435053844E+02  0.29200478876E+02  0.00000000000E+00 0. -1.
</event>
<event>
 5    1  0.8962782E-005  0.9118800E+02  0.7818608E-02  0.1130116E+00
         25   -1    0    0    0    0  0.00000000000E+00  0.00000000000E+00  0.99999998245E-14  0.12500000000E+03  0.12500000000E+03 0.  0.
        -11    1    3    3    0    0 -0.90930252129E+01  0.13303864448E+02 -0.50060990791E+02  0.52590671378E+02  0.51100000000E-03 0.  1.
         23    2    1    0    0    0 -0.25857985506E+02 -0.11838734372E+01 -0.12372513737E+02  0.96310000576E+02  0.91937479540E+02 0.  0.
         11    1    3    3    0    0 -0.16764960293E+02 -0.14487737885E+02  0.37688477054E+02  0.43719329198E+02  0.51100000000E-03 0. -1.
         22    1    1    0    0    0  0.25857985506E+02  0.11838734372E+01  0.12372513737E+02  0.28689999424E+02  0.00000000000E+00 0. -1.
</event>
<event>
 5    1  0.8962782E-005  0.9118800E+02  0.7818608E-02  0.1130116E+00
         25   -1    0    0    0    0  0.00000000000E+00  0.00000000000E+00  0.99999998245E-14  0.12500000000E+03  0.12500000000E+03 0.  0.
        -11    1    3    3    0    0  0.25767989596E+02 -0.26699712907E+02  0.55722602466E+00  0.37110301242E+02  0.51100000000E-03 0. -1.
         23    2    1    0    0    0 -0.13920406098E+02  0.12154683407E+02 -0.21302726627E+02  0.96798578114E+02  0.92599376501E+02 0.  0.
         11    1    3    3    0    0 -0.39688395694E+02  0.38854396314E+02 -0.21859952652E+02  0.59688276872E+02  0.51100000000E-03 0.  1.
         22    1    1    0    0    0  0.13920406098E+02 -0.12154683407E+02  0.21302726627E+02  0.28201421886E+02  0.00000000000E+00 0.  1.
</event>
<event>
 5    1  0.8962782E-005  0.9118800E+02  0.7818608E-02  0.1130116E+00
         25   -1    0    0    0    0  0.00000000000E+00  0.00000000000E+00  0.99999998245E-14  0.12500000000E+03  0.12500000000E+03 0.  0.
        -11    1    3    3    0    0 -0.12742009731E+02  0.47079132477E+02  0.10505096480E+01  0.48784291504E+02  0.51100000000E-03 0. -1.
         23    2    1    0    0    0 -0.23494090142E+01  0.69315290776E+01  0.26544717452E+02  0.97464789039E+02  0.93494370203E+02 0.  0.
         11    1    3    3    0    0  0.10392600717E+02 -0.40147603400E+02  0.25494207804E+02  0.48680497534E+02  0.51100000000E-03 0.  1.
         22    1    1    0    0    0  0.23494090142E+01 -0.69315290776E+01 -0.26544717452E+02  0.27535210961E+02  0.00000000000E+00 0.  1.
</event>
<event>
 5    1  0.8962782E-005  0.9118800E+02  0.7818608E-02  0.1130116E+00
         25   -1    0    0    0    0  0.00000000000E+00  0.00000000000E+00  0.99999998245E-14  0.12500000000E+03  0.12500000000E+03 0.  0.
        -11    1    3    3    0    0 -0.79193557501E+01  0.38224491081E+02 -0.35320400606E+02  0.52643694904E+02  0.51100000000E-03 0.  1.
         23    2    1    0    0    0 -0.25506896879E+02  0.65224632544E+01 -0.10126418412E+02  0.96792046066E+02  0.92590558463E+02 0.  0.
         11    1    3    3    0    0 -0.17587541129E+02 -0.31702027827E+02  0.25193982194E+02  0.44148351162E+02  0.51100000000E-03 0. -1.
         22    1    1    0    0    0  0.25506896879E+02 -0.65224632544E+01  0.10126418412E+02  0.28207953934E+02  0.00000000000E+00 0.  1.
</event>
<event>
 5    1  0.8962782E-005  0.9118800E+02  0.7818608E-02  0.1130116E+00
         25   -1    0    0    0    0  0.00000000000E+00  0.00000000000E+00  0.99999998245E-14  0.12500000000E+03  0.12500000000E+03 0.  0.
        -11    1    3    3    0    0 -0.26363951834E+02  0.31226515715E+02  0.11014841913E+02  0.42325878404E+02  0.51100000000E-03 0.  1.
         23    2    1    0    0    0  0.14155114020E+02 -0.93240001535E+01  0.18235217645E+02  0.10010366705E+03  0.96958324875E+02 0.  0.
         11    1    3    3    0    0  0.40519065854E+02 -0.40550515869E+02  0.72203757328E+01  0.57777788646E+02  0.51100000000E-03 0. -1.
         22    1    1    0    0    0 -0.14155114020E+02  0.93240001535E+01 -0.18235217645E+02  0.24896332950E+02  0.00000000000E+00 0. -1.
</event>
<event>
 5    1  0.8962782E-005  0.9118800E+02  0.7818608E-02  0.1130116E+00
         25   -1    0    0    0    0  0.00000000000E+00  0.00000000000E+00  0.99999998245E-14  0.12500000000E+03  0.12500000000E+03 0.  0.
        -11    1    3    3    0    0 -0.52514346602E+02 -0.18905891153E+02  0.25219281014E+02  0.61247052618E+02  0.51100000000E-03 0. -1.
         23    2    1    0    0    0 -0.23842626457E+02 -0.81056383926E+00  0.15622557962E+02  0.96483475538E+02  0.92173037731E+02 0.  0.
         11    1    3    3    0    0  0.28671720144E+02  0.18095327313E+02 -0.95967230524E+01  0.35236422920E+02  0.51100000000E-03 0.  1.
         22    1    1    0    0    0  0.23842626457E+02  0.81056383926E+00 -0.15622557962E+02  0.28516524462E+02  0.00000000000E+00 0. -1.
</event>
<event>
 5    1  0.8962782E-005  0.9118800E+02  0.7818608E-02  0.1130116E+00
         25   -1    0    0    0    0  0.00000000000E+00  0.00000000000E+00  0.99999998245E-14  0.12500000000E+03  0.12500000000E+03 0.  0.
        -11    1    3    3    0    0 -0.43281403855E+02 -0.10340622616E+02  0.13716953321E+02  0.46565686985E+02  0.51100000000E-03 0.  1.
         23    2    1    0    0    0 -0.99181557602E+01  0.25682951126E+02  0.29570265974E+00  0.97466906598E+02  0.93497201293E+02 0.  0.
         11    1    3    3    0    0  0.33363248095E+02  0.36023573741E+02 -0.13421250661E+02  0.50901219613E+02  0.51100000000E-03 0. -1.
         22    1    1    0    0    0  0.99181557602E+01 -0.25682951126E+02 -0.29570265974E+00  0.27533093402E+02  0.00000000000E+00 0. -1.
</event>
<event>
 5    1  0.8962782E-005  0.9118800E+02  0.7818608E-02  0.1130116E+00
         25   -1    0    0    0    0  0.00000000000E+00  0.00000000000E+00  0.99999998245E-14  0.12500000000E+03  0.12500000000E+03 0.  0.
        -11    1    3    3    0    0  0.20457939932E+02 -0.38414662874E+02  0.25399535073E+02  0.50391963766E+02  0.51100000000E-03 0.  1.
         23    2    1    0    0    0 -0.15670105409E+02 -0.23848290400E+02  0.82010267076E+00  0.96452395426E+02  0.92130878952E+02 0.  0.
         11    1    3    3    0    0 -0.36128045341E+02  0.14566372473E+02 -0.24579432403E+02  0.46060431660E+02  0.51100000000E-03 0. -1.
         22    1    1    0    0    0  0.15670105409E+02  0.23848290400E+02 -0.82010267076E+00  0.28547604574E+02  0.00000000000E+00 0.  1.
</event>
<event>
 5    1  0.8962782E-005  0.9118800E+02  0.7818608E-02  0.1130116E+00
         25   -1    0    0    0    0  0.00000000000E+00  0.00000000000E+00  0.99999998245E-14  0.12500000000E+03  0.12500000000E+03 0.  0.
        -11    1    3    3    0    0  0.41161672914E+02  0.75624080346E+01  0.28782009145E+02  0.50792493373E+02  0.51100000000E-03 0. -1.
         23    2    1    0    0    0  0.12950713412E+02  0.26696162992E+02  0.12083555633E+00  0.95328116042E+02  0.90592654286E+02 0.  0.
         11    1    3    3    0    0 -0.28210959502E+02  0.19133754957E+02 -0.28661173589E+02  0.44535622669E+02  0.51100000000E-03 0.  1.
         22    1    1    0    0    0 -0.12950713412E+02 -0.26696162992E+02 -0.12083555633E+00  0.29671883958E+02  0.00000000000E+00 0.  1.
</event>
<event>
 5    1  0.8962782E-005  0.9118800E+02  0.7818608E-02  0.1130116E+00
         25   -1    0    0    0    0  0.00000000000E+00  0.00000000000E+00  0.99999998245E-14  0.12500000000E+03  0.12500000000E+03 0.  0.
        -11    1    3    3    0    0  0.41239785998E+02 -0.14943398280E+02  0.40948789986E+02  0.60006903793E+02  0.51100000000E-03 0.  1.
         23    2    1    0    0    0  0.25530645062E+02  0.28308470255E+01  0.14627735241E+02  0.95439922692E+02  0.90746794286E+02 0.  0.
         11    1    3    3    0    0 -0.15709140936E+02  0.17774245306E+02 -0.26321054745E+02  0.35433018899E+02  0.51100000000E-03 0. -1.
         22    1    1    0    0    0 -0.25530645062E+02 -0.28308470255E+01 -0.14627735241E+02  0.29560077308E+02  0.00000000000E+00 0.  1.
</event>
<event>
 5    1  0.8962782E-005  0.9118800E+02  0.7818608E-02  0.1130116E+00
         25   -1    0    0    0    0  0.00000000000E+00  0.00000000000E+00  0.99999998245E-14  0.12500000000E+03  0.12500000000E+03 0.  0.
        -11    1    3    3    0    0 -0.10094090637E+02 -0.24963515507E+02  0.32566189031E+02  0.42256649660E+02  0.51100000000E-03 0. -1.
         23    2    1    0    0    0 -0.25855078230E+02  0.12139495335E+02 -0.33417639766E+01  0.96242047991E+02  0.91845043403E+02 0.  0.
         11    1    3    3    0    0 -0.15760987593E+02  0.37103010842E+02 -0.35907953008E+02  0.53985398331E+02  0.51100000000E-03 0.  1.
         22    1    1    0    0    0  0.25855078230E+02 -0.12139495335E+02  0.33417639766E+01  0.28757952009E+02  0.00000000000E+00 0.  1.
</event>
<event>
 5    1  0.8962782E-005  0.9118800E+02  0.7818608E-02  0.1130116E+00
         25   -1    0    0    0    0  0.00000000000E+00  0.00000000000E+00  0.99999998245E-14  0.12500000000E+03  0.12500000000E+03 0.  0.
        -11    1    3    3    0    0 -0.13322105935E+01  0.10725793858E+02 -0.29528085541E+02  0.31444002209E+02  0.51100000000E-03 0.  1.
         23    2    1    0    0    0  0.19448661264E+02 -0.11948320226E+02  0.23179152192E+02  0.92468693886E+02  0.86557342100E+02 0.  0.
         11    1    3    3    0    0  0.20780871857E+02 -0.22674114084E+02  0.52707237732E+02  0.61024691677E+02  0.51100000000E-03 0. -1.
         22    1    1    0    0    0 -0.19448661264E+02  0.11948320226E+02 -0.23179152192E+02  0.32531306114E+02  0.00000000000E+00 0. -1.
</event>
<event>
 5    1  0.8962782E-005  0.9118800E+02  0.7818608E-02  0.1130116E+00
         25   -1    0    0    0    0  0.00000000000E+00  0.00000000000E+00  0.99999998245E-14  0.12500000000E+03  0.12500000000E+03 0.  0.
        -11    1    3    3    0    0  0.21749997952E+02 -0.16506832593E+01 -0.37637719615E+02  0.43501552895E+02  0.51100000000E-03 0. -1.
         23    2    1    0    0    0 -0.13730677721E+01 -0.29176548954E+02  0.33143803910E+00  0.95789279791E+02  0.91226750176E+02 0.  0.
         11    1    3    3    0    0 -0.23123065724E+02 -0.27525865695E+02  0.37969157654E+02  0.52287726896E+02  0.51100000000E-03 0.  1.
         22    1    1    0    0    0  0.13730677721E+01  0.29176548954E+02 -0.33143803910E+00  0.29210720209E+02  0.00000000000E+00 0.  1.
</event>
<event>
 5    1  0.8962782E-005  0.9118800E+02  0.7818608E-02  0.1130116E+00
         25   -1    0    0    0    0  0.00000000000E+00  0.00000000000E+00  0.99999998245E-14  0.12500000000E+03  0.12500000000E+03 0.  0.
        -11    1    3    3    0    0  0.44097477162E+02  0.98451899909E+01  0.41349146503E+02  0.61247589134E+02  0.51100000000E-03 0. -1.
         23    2    1    0    0    0  0.25601710201E+02  0.69632689699E+01  0.35138443822E+02  0.80969954415E+02  0.67952105220E+02 0.  0.
         11    1    3    3    0    0 -0.18495766960E+02 -0.28819210211E+01 -0.62107026813E+01  0.19722365281E+02  0.51100000000E-03 0.  1.
         22    1    1    0    0    0 -0.25601710201E+02 -0.69632689699E+01 -0.35138443822E+02  0.44030045585E+02  0.00000000000E+00 0. -1.
</event>
<event>
 5    1  0.8962782E-005  0.9118800E+02  0.7818608E-02  0.1130116E+00
         25   -1    0    0    0    0  0.00000000000E+00  0.00000000000E+00  0.99999998245E-14  0.12500000000E+03  0.12500000000E+03 0.  0.
        -11    1    3    3    0    0  0.40015968589E+02 -0.37207184198E+01 -0.19959864391E+02  0.44872237235E+02  0.51100000000E-03 0.  1.
         23    2    1    0    0    0 -0.25557203847E+01 -0.28318639283E+02 -0.75181026831E+01  0.95589136267E+02  0.90952097650E+02 0.  0.
         11    1    3    3    0    0 -0.42571688973E+02 -0.24597920863E+02  0.12441761708E+02  0.50716899033E+02  0.51100000000E-03 0. -1.
         22    1    1    0    0    0  0.25557203847E+01  0.28318639283E+02  0.75181026831E+01  0.29410863733E+02  0.00000000000E+00 0. -1.
</event>
<event>
 5    1  0.8962782E-005  0.9118800E+02  0.7818608E-02  0.1130116E+00
         25   -1    0    0    0    0  0.00000000000E+00  0.00000000000E+00  0.99999998245E-14  0.12500000000E+03  0.12500000000E+03 0.  0.
        -11    1    3    3    0    0 -0.24030644844E+02  0.16709646306E+02  0.50249324029E+02  0.58152203199E+02  0.51100000000E-03 0. -1.
         23    2    1    0    0    0 -0.10836070710E+02 -0.77634506202E+01  0.28789537353E+02  0.93274157931E+02  0.87712823935E+02 0.  0.
         11    1    3    3    0    0  0.13194574134E+02 -0.24473096926E+02 -0.21459786676E+02  0.35121954732E+02  0.51100000000E-03 0.  1.
         22    1    1    0    0    0  0.10836070710E+02  0.77634506202E+01 -0.28789537353E+02  0.31725842069E+02  0.00000000000E+00 0. -1.
</event>
<event>
 5    1  0.8962782E-005  0.9118800E+02  0.7818608E-02  0.1130116E+00
         25   -1    0    0    0    0  0.00000000000E+00  0.00000000000E+00  0.99999998245E-14  0.12500000000E+03  0.12500000000E+03 0.  0.
        -11    1    3    3    0    0  0.51900296414E+02 -0.12556049944E+02  0.21384959406E+00  0.53397948369E+02  0.51100000000E-03 0.  1.
         23    2    1    0    0    0  0.14426982378E+02 -0.99522200594E+01 -0.21870964727E+02  0.96972806014E+02  0.92834269014E+02 0.  0.
         11    1    3    3    0    0 -0.37473314036E+02  0.26038298842E+01 -0.22084814321E+02  0.43574857645E+02  0.51100000000E-03 0. -1.
         22    1    1    0    0    0 -0.14426982378E+02  0.99522200594E+01  0.21870964727E+02  0.28027193986E+02  0.00000000000E+00 0. -1.
</event>
<event>
 5    1  0.8962782E-005  0.9118800E+02  0.7818608E-02  0.1130116E+00
         25   -1    0    0    0    0  0.00000000000E+00  0.00000000000E+00  0.99999998245E-14  0.12500000000E+03  0.12500000000E+03 0.  0.
        -11    1    3    3    0    0  0.20028372378E+02 -0.33993369995E+02  0.31943465814E+02  0.50764849179E+02  0.51100000000E-03 0.  1.
         23    2    1    0    0    0  0.29035146252E+02  0.84583032632E+00  0.54614764861E+01  0.95443564622E+02  0.90751810756E+02 0.  0.
         11    1    3    3    0    0  0.90067738746E+01  0.34839200321E+02 -0.26481989328E+02  0.44678715443E+02  0.51100000000E-03 0. -1.
         22    1    1    0    0    0 -0.29035146252E+02 -0.84583032632E+00 -0.54614764861E+01  0.29556435378E+02  0.00000000000E+00 0.  1.
</event>
<event>
 5    1  0.8962782E-005  0.9118800E+02  0.7818608E-02  0.1130116E+00
         25   -1    0    0    0    0  0.00000000000E+00  0.00000000000E+00  0.99999998245E-14  0.12500000000E+03  0.12500000000E+03 0.  0.
        -11    1    3    3    0    0 -0.27929199904E+02 -0.38804854726E+02 -0.29702958493E+02  0.56286079106E+02  0.51100000000E-03 0. -1.
         23    2    1    0    0    0 -0.30111915281E+02 -0.85157610191E+01 -0.11685439301E+02  0.91596480436E+02  0.85288452378E+02 0.  0.
         11    1    3    3    0    0 -0.21827153771E+01  0.30289093707E+02  0.18017519192E+02  0.35310401330E+02  0.51100000000E-03 0.  1.
         22    1    1    0    0    0  0.30111915281E+02  0.85157610191E+01  0.11685439301E+02  0.33403519564E+02  0.00000000000E+00 0. -1.
</event>
<event>
 5    1  0.8962782E-005  0.9118800E+02  0.7818608E-02  0.1130116E+00
         25   -1    0    0    0    0  0.00000000000E+00  0.00000000000E+00  0.99999998245E-14  0.12500000000E+03  0.12500000000E+03 0.  0.
        -11    1    3    3    0    0  0.19997566678E+02  0.31869161176E+02 -0.29794626981E+02  0.47992352560E+02  0.51100000000E-03 0.  1.
         23    2    1    0    0    0  0.24515180788E+02 -0.95360875408E+01 -0.90852212736E+00  0.98679732769E+02  0.95104853674E+02 0.  0.
         11    1    3    3    0    0  0.45176141102E+01 -0.41405248717E+02  0.28886104854E+02  0.50687380209E+02  0.51100000000E-03 0. -1.
         22    1    1    0    0    0 -0.24515180788E+02  0.95360875408E+01  0.90852212736E+00  0.26320267231E+02  0.00000000000E+00 0. -1.
</event>
<event>
 5    1  0.8962782E-005  0.9118800E+02  0.7818608E-02  0.1130116E+00
         25   -1    0    0    0    0  0.00000000000E+00  0.00000000000E+00  0.99999998245E-14  0.12500000000E+03  0.12500000000E+03 0.  0.
        -11    1    3    3    0    0  0.45137771978E+01 -0.34646141396E+01  0.48346266145E+02  0.48679966990E+02  0.51100000000E-03 0.  1.
         23    2    1    0    0    0 -0.72691899264E+01 -0.26241805697E+02  0.77658157871E+01  0.96684255559E+02  0.92444923548E+02 0.  0.
         11    1    3    3    0    0 -0.11782967124E+02 -0.22777191557E+02 -0.40580450358E+02  0.48004288569E+02  0.51100000000E-03 0. -1.
         22    1    1    0    0    0  0.72691899264E+01  0.26241805697E+02 -0.77658157871E+01  0.28315744441E+02  0.00000000000E+00 0.  1.
</event>
<event>
 5    1  0.8962782E-005  0.9118800E+02  0.7818608E-02  0.1130116E+00
         25   -1    0    0    0    0  0.00000000000E+00  0.00000000000E+00  0.99999998245E-14  0.12500000000E+03  0.12500000000E+03 0.  0.
        -11    1    3    3    0    0  0.56167728188E+02 -0.66508745581E+01 -0.25962012008E+02  0.62234025179E+02  0.51100000000E-03 0.  1.
         23    2    1    0    0    0  0.23605526899E+02  0.64356585377E+00 -0.13093660165E+02  0.97998536823E+02  0.94205276953E+02 0.  0.
         11    1    3    3    0    0 -0.32562201290E+02  0.72944404119E+01  0.12868351843E+02  0.35764511644E+02  0.51100000000E-03 0. -1.
         22    1    1    0    0    0 -0.23605526899E+02 -0.64356585377E+00  0.13093660165E+02  0.27001463177E+02  0.00000000000E+00 0.  1.
</event>
<event>
 5    1  0.8962782E-005  0.9118800E+02  0.7818608E-02  0.1130116E+00
         25   -1    0    0    0    0  0.00000000000E+00  0.00000000000E+00  0.99999998245E-14  0.12500000000E+03  0.12500000000E+03 0.  0.
        -11    1    3    3    0    0 -0.43585694042E+02  0.34645882530E+02 -0.15887011454E+02  0.57900319814E+02  0.51100000000E-03 0.  1.
         23    2    1    0    0    0 -0.19727286989E+02  0.34754953826E+01 -0.19148489195E+02  0.97288818889E+02  0.93258805066E+02 0.  0.
         11    1    3    3    0    0  0.23858407052E+02 -0.31170387148E+02 -0.32614777407E+01  0.39388499074E+02  0.51100000000E-03 0. -1.
         22    1    1    0    0    0  0.19727286989E+02 -0.34754953826E+01  0.19148489195E+02  0.27711181111E+02  0.00000000000E+00 0.  1.
</event>
<event>
 5    1  0.8962782E-005  0.9118800E+02  0.7818608E-02  0.1130116E+00
         25   -1    0    0    0    0  0.00000000000E+00  0.00000000000E+00  0.99999998245E-14  0.12500000000E+03  0.12500000000E+03 0.  0.
        -11    1    3    3    0    0  0.36080018318E+02  0.24376145864E+02  0.33204783565E+02  0.54758760586E+02  0.51100000000E-03 0. -1.
         23    2    1    0    0    0  0.20985931850E+02  0.20992290495E+02 -0.39975852482E+01  0.95048935183E+02  0.90206617250E+02 0.  0.
         11    1    3    3    0    0 -0.15094086468E+02 -0.33838553687E+01 -0.37202368814E+02  0.40290174597E+02  0.51100000000E-03 0.  1.
         22    1    1    0    0    0 -0.20985931850E+02 -0.20992290495E+02  0.39975852482E+01  0.29951064817E+02  0.00000000000E+00 0.  1.
</event>
<event>
 5    1  0.8962782E-005  0.9118800E+02  0.7818608E-02  0.1130116E+00
         25   -1    0    0    0    0  0.00000000000E+00  0.00000000000E+00  0.99999998245E-14  0.12500000000E+03  0.12500000000E+03 0.  0.
        -11    1    3    3    0    0 -0.25995578783E+02 -0.41988155249E+02  0.10713144723E+02  0.50532630721E+02  0.51100000000E-03 0.  1.
         23    2    1    0    0    0 -0.21091773807E+02  0.12625063031E+01  0.20946844804E+02  0.95247232873E+02  0.90480982633E+02 0.  0.
         11    1    3    3    0    0  0.49038049761E+01  0.43250661552E+02  0.10233700081E+02  0.44714602152E+02  0.51100000000E-03 0. -1.
         22    1    1    0    0    0  0.21091773807E+02 -0.12625063031E+01 -0.20946844804E+02  0.29752767127E+02  0.00000000000E+00 0.  1.
</event>
<event>
 5    1  0.8962782E-005  0.9118800E+02  0.7818608E-02  0.1130116E+00
         25   -1    0    0    0    0  0.00000000000E+00  0.00000000000E+00  0.99999998245E-14  0.12500000000E+03  0.12500000000E+03 0.  0.
        -11    1    3    3    0    0  0.99839988456E+01 -0.88838467829E+01 -0.31203733442E+02  0.33945190346E+02  0.51100000000E-03 0.  1.
         23    2    1    0    0    0  0.20896803560E+01  0.10175276250E+02  0.27199339097E+02  0.95884590711E+02  0.91357253011E+02 0.  0.
         11    1    3    3    0    0 -0.78943184896E+01  0.19059123033E+02  0.58403072540E+02  0.61939400365E+02  0.51100000000E-03 0. -1.
         22    1    1    0    0    0 -0.20896803560E+01 -0.10175276250E+02 -0.27199339097E+02  0.29115409289E+02  0.00000000000E+00 0. -1.
</event>
<event>
 5    1  0.8962782E-005  0.9118800E+02  0.7818608E-02  0.1130116E+00
         25   -1    0    0    0    0  0.00000000000E+00  0.00000000000E+00  0.99999998245E-14  0.12500000000E+03  0.12500000000E+03 0.  0.
        -11    1    3    3    0    0  0.45510812410E+02  0.12080339699E+02 -0.31470166357E+02  0.56635148312E+02  0.51100000000E-03 0. -1.
         23    2    1    0    0    0  0.28132399207E+02 -0.76566515085E+01 -0.25361722488E+01  0.95734177490E+02  0.91151217066E+02 0.  0.
         11    1    3    3    0    0 -0.17378413203E+02 -0.19736991207E+02  0.28933994108E+02  0.39099029179E+02  0.51100000000E-03 0.  1.
         22    1    1    0    0    0 -0.28132399207E+02  0.76566515085E+01  0.25361722488E+01  0.29265822510E+02  0.00000000000E+00 0. -1.
</event>
<event>
 5    1  0.8962782E-005  0.9118800E+02  0.7818608E-02  0.1130116E+00
         25   -1    0    0    0    0  0.00000000000E+00  0.00000000000E+00  0.99999998245E-14  0.12500000000E+03  0.12500000000E+03 0.  0.
        -11    1    3    3    0    0  0.42446561761E+02 -0.22262377370E+02  0.20203912134E+02  0.52014633684E+02  0.51100000000E-03 0. -1.
         23    2    1    0    0    0  0.26287629023E+02  0.89494741240E+01 -0.68858939890E+01  0.96389721030E+02  0.92045805214E+02 0.  0.
         11    1    3    3    0    0 -0.16158932738E+02  0.31211851494E+02 -0.27089806123E+02  0.44375087346E+02  0.51100000000E-03 0.  1.
         22    1    1    0    0    0 -0.26287629023E+02 -0.89494741240E+01  0.68858939890E+01  0.28610278970E+02  0.00000000000E+00 0.  1.
</event>
<event>
 5    1  0.8962782E-005  0.9118800E+02  0.7818608E-02  0.1130116E+00
         25   -1    0    0    0    0  0.00000000000E+00  0.00000000000E+00  0.99999998245E-14  0.12500000000E+03  0.12500000000E+03 0.  0.
        -11    1    3    3    0    0  0.17181708341E+02 -0.24286087866E+02 -0.27685290720E+02  0.40638657555E+02  0.51100000000E-03 0. -1.
         23    2    1    0    0    0 -0.28609899493E+02 -0.33469748412E+01 -0.54392777926E+01  0.95685936268E+02  0.91085037558E+02 0.  0.
         11    1    3    3    0    0 -0.45791607834E+02  0.20939113024E+02  0.22246012927E+02  0.55047278713E+02  0.51100000000E-03 0.  1.
         22    1    1    0    0    0  0.28609899493E+02  0.33469748412E+01  0.54392777926E+01  0.29314063732E+02  0.00000000000E+00 0.  1.
</event>
<event>
 5    1  0.8962782E-005  0.9118800E+02  0.7818608E-02  0.1130116E+00
         25   -1    0    0    0    0  0.00000000000E+00  0.00000000000E+00  0.99999998245E-14  0.12500000000E+03  0.12500000000E+03 0.  0.
        -11    1    3    3    0    0  0.12953148115E+02  0.98265677638E+01 -0.32059334666E+02  0.35946438205E+02  0.51100000000E-03 0. -1.
         23    2    1    0    0    0 -0.12356766806E+02  0.19371142342E+02  0.19950883060E+02  0.94570268217E+02  0.89540868067E+02 0.  0.
         11    1    3    3    0    0 -0.25309914921E+02  0.95445745781E+01  0.52010217726E+02  0.58623830012E+02  0.51100000000E-03 0.  1.
         22    1    1    0    0    0  0.12356766806E+02 -0.19371142342E+02 -0.19950883060E+02  0.30429731783E+02  0.00000000000E+00 0.  1.
</event>
<event>
 5    1  0.8962782E-005  0.9118800E+02  0.7818608E-02  0.1130116E+00
         25   -1    0    0    0    0  0.00000000000E+00  0.00000000000E+00  0.99999998245E-14  0.12500000000E+03  0.12500000000E+03 0.  0.
        -11    1    3    3    0    0  0.39254789227E+02  0.22584209550E+02 -0.45609713127E+01  0.45516892005E+02  0.51100000000E-03 0.  1.
         23    2    1    0    0    0  0.18116813428E+02 -0.22740012179E+02  0.14590406738E+01  0.95888904480E+02  0.91363155156E+02 0.  0.
         11    1    3    3    0    0 -0.21137975798E+02 -0.45324221729E+02  0.60200119865E+01  0.50372012475E+02  0.51100000000E-03 0. -1.
         22    1    1    0    0    0 -0.18116813428E+02  0.22740012179E+02 -0.14590406738E+01  0.29111095520E+02  0.00000000000E+00 0. -1.
</event>
<event>
 5    1  0.8962782E-005  0.9118800E+02  0.7818608E-02  0.1130116E+00
         25   -1    0    0    0    0  0.00000000000E+00  0.00000000000E+00  0.99999998245E-14  0.12500000000E+03  0.12500000000E+03 0.  0.
        -11    1    3    3    0    0 -0.11831285071E+02 -0.12509105039E+02  0.29354599123E+02  0.34031595690E+02  0.51100000000E-03 0. -1.
         23    2    1    0    0    0  0.85319119890E+00  0.16888371944E+02 -0.23632514203E+02  0.95940736938E+02  0.91434043083E+02 0.  0.
         11    1    3    3    0    0  0.12684476270E+02  0.29397476983E+02 -0.52987113326E+02  0.61909141248E+02  0.51100000000E-03 0.  1.
         22    1    1    0    0    0 -0.85319119890E+00 -0.16888371944E+02  0.23632514203E+02  0.29059263062E+02  0.00000000000E+00 0.  1.
</event>
<event>
 5    1  0.8962782E-005  0.9118800E+02  0.7818608E-02  0.1130116E+00
         25   -1    0    0    0    0  0.00000000000E+00  0.00000000000E+00  0.99999998245E-14  0.12500000000E+03  0.12500000000E+03 0.  0.
        -11    1    3    3    0    0 -0.21545038723E+02 -0.32134370522E+02 -0.24034621714E+01  0.38763166707E+02  0.51100000000E-03 0. -1.
         23    2    1    0    0    0  0.21011927538E+02 -0.62520938009E+00  0.19744159984E+02  0.96160377272E+02  0.91733823195E+02 0.  0.
         11    1    3    3    0    0  0.42556966261E+02  0.31509161142E+02  0.22147622155E+02  0.57397210565E+02  0.51100000000E-03 0.  1.
         22    1    1    0    0    0 -0.21011927538E+02  0.62520938009E+00 -0.19744159984E+02  0.28839622728E+02  0.00000000000E+00 0.  1.
</event>
<event>
 5    1  0.8962782E-005  0.9118800E+02  0.7818608E-02  0.1130116E+00
         25   -1    0    0    0    0  0.00000000000E+00  0.00000000000E+00  0.99999998245E-14  0.12500000000E+03  0.12500000000E+03 0.  0.
        -11    1    3    3    0    0  0.26868288334E+02 -0.14426181995E+02 -0.15344465525E+02  0.34139013862E+02  0.51100000000E-03 0.  1.
         23    2    1    0    0    0 -0.12581193321E+02  0.18357876258E+02  0.18890670249E+02  0.95808297951E+02  0.91252805369E+02 0.  0.
         11    1    3    3    0    0 -0.39449481655E+02  0.32784058252E+02  0.34235135774E+02  0.61669284089E+02  0.51100000000E-03 0. -1.
         22    1    1    0    0    0  0.12581193321E+02 -0.18357876258E+02 -0.18890670249E+02  0.29191702049E+02  0.00000000000E+00 0. -1.
</event>
<event>
 5    1  0.8962782E-005  0.9118800E+02  0.7818608E-02  0.1130116E+00
         25   -1    0    0    0    0  0.00000000000E+00  0.00000000000E+00  0.99999998245E-14  0.12500000000E+03  0.12500000000E+03 0.  0.
        -11    1    3    3    0    0 -0.40026558891E+02  0.64667681688E+01 -0.60274173209E+01  0.40991148642E+02  0.51100000000E-03 0.  1.
         23    2    1    0    0    0  0.13476580590E+01 -0.65462021313E+00  0.29179372693E+02  0.95782188640E+02  0.91217033278E+02 0.  0.
         11    1    3    3    0    0  0.41374216950E+02 -0.71213883819E+01  0.35206790014E+02  0.54791039998E+02  0.51100000000E-03 0. -1.
         22    1    1    0    0    0 -0.13476580590E+01  0.65462021313E+00 -0.29179372693E+02  0.29217811360E+02  0.00000000000E+00 0. -1.
</event>
<event>
 5    1  0.8962782E-005  0.9118800E+02  0.7818608E-02  0.1130116E+00
         25   -1    0    0    0    0  0.00000000000E+00  0.00000000000E+00  0.99999998245E-14  0.12500000000E+03  0.12500000000E+03 0.  0.
        -11    1    3    3    0    0  0.13453279644E+02  0.14852597917E+02 -0.18855756902E+02  0.27515994743E+02  0.51100000000E-03 0. -1.
         23    2    1    0    0    0 -0.38186603202E+02 -0.77073652473E+01 -0.37189804973E+01  0.85866242716E+02  0.76430103226E+02 0.  0.
         11    1    3    3    0    0 -0.51639882847E+02 -0.22559963164E+02  0.15136776405E+02  0.58350247974E+02  0.51100000000E-03 0.  1.
         22    1    1    0    0    0  0.38186603202E+02  0.77073652473E+01  0.37189804973E+01  0.39133757284E+02  0.00000000000E+00 0.  1.
</event>
<event>
 5    1  0.8962782E-005  0.9118800E+02  0.7818608E-02  0.1130116E+00
         25   -1    0    0    0    0  0.00000000000E+00  0.00000000000E+00  0.99999998245E-14  0.12500000000E+03  0.12500000000E+03 0.  0.
        -11    1    3    3    0    0 -0.60358973318E+00 -0.45841411944E+02  0.14379597955E+02  0.48047603553E+02  0.51100000000E-03 0. -1.
         23    2    1    0    0    0 -0.18258491231E+02 -0.13697039720E+02 -0.17180659496E+02  0.96431547823E+02  0.92102589300E+02 0.  0.
         11    1    3    3    0    0 -0.17654901497E+02  0.32144372224E+02 -0.31560257450E+02  0.48383944270E+02  0.51100000000E-03 0.  1.
         22    1    1    0    0    0  0.18258491231E+02  0.13697039720E+02  0.17180659496E+02  0.28568452177E+02  0.00000000000E+00 0. -1.
</event>
<event>
 5    1  0.8962782E-005  0.9118800E+02  0.7818608E-02  0.1130116E+00
         25   -1    0    0    0    0  0.00000000000E+00  0.00000000000E+00  0.99999998245E-14  0.12500000000E+03  0.12500000000E+03 0.  0.
        -11    1    3    3    0    0 -0.43223751060E+01  0.52331957374E+02  0.57839521324E+01  0.52827746419E+02  0.51100000000E-03 0.  1.
         23    2    1    0    0    0 -0.18377736611E+01  0.46412118921E+01  0.21364138316E+02  0.10306043150E+03  0.10069810264E+03 0.  0.
         11    1    3    3    0    0  0.24846014449E+01 -0.47690745482E+02  0.15580186183E+02  0.50232685084E+02  0.51100000000E-03 0. -1.
         22    1    1    0    0    0  0.18377736611E+01 -0.46412118921E+01 -0.21364138316E+02  0.21939568497E+02  0.00000000000E+00 0.  1.
</event>
<event>
 5    1  0.8962782E-005  0.9118800E+02  0.7818608E-02  0.1130116E+00
         25   -1    0    0    0    0  0.00000000000E+00  0.00000000000E+00  0.99999998245E-14  0.12500000000E+03  0.12500000000E+03 0.  0.
        -11    1    3    3    0    0 -0.32511326643E+01 -0.54533955200E+02  0.87557985136E+00  0.54637796201E+02  0.51100000000E-03 0.  1.
         23    2    1    0    0    0  0.15722602793E+02 -0.26237392041E+02  0.14272752434E+02  0.91246297363E+02  0.84773665373E+02 0.  0.
         11    1    3    3    0    0  0.18973735457E+02  0.28296563160E+02  0.13397172582E+02  0.36608501162E+02  0.51100000000E-03 0. -1.
         22    1    1    0    0    0 -0.15722602793E+02  0.26237392041E+02 -0.14272752434E+02  0.33753702637E+02  0.00000000000E+00 0.  1.
</event>
<event>
 5    1  0.8962782E-005  0.9118800E+02  0.7818608E-02  0.1130116E+00
         25   -1    0    0    0    0  0.00000000000E+00  0.00000000000E+00  0.99999998245E-14  0.12500000000E+03  0.12500000000E+03 0.  0.
        -11    1    3    3    0    0  0.51180929583E+01 -0.46984912944E+01  0.32237581717E+02  0.32977755703E+02  0.51100000000E-03 0. -1.
         23    2    1    0    0    0 -0.77090745444E+01 -0.14700507604E+02 -0.26392038210E+02  0.93821891735E+02  0.88489959508E+02 0.  0.
         11    1    3    3    0    0 -0.12827167503E+02 -0.10002016309E+02 -0.58629619927E+02  0.60844136032E+02  0.51100000000E-03 0.  1.
         22    1    1    0    0    0  0.77090745444E+01  0.14700507604E+02  0.26392038210E+02  0.31178108265E+02  0.00000000000E+00 0.  1.
</event>
<event>
 5    1  0.8962782E-005  0.9118800E+02  0.7818608E-02  0.1130116E+00
         25   -1    0    0    0    0  0.00000000000E+00  0.00000000000E+00  0.99999998245E-14  0.12500000000E+03  0.12500000000E+03 0.  0.
        -11    1    3    3    0    0 -0.15679952296E+02 -0.16640008729E+02  0.26307953676E+02  0.34854830675E+02  0.51100000000E-03 0.  1.
         23    2    1    0    0    0  0.19433532665E+02  0.68420377896E+01 -0.19123247920E+02  0.96889961154E+02  0.92722652509E+02 0.  0.
         11    1    3    3    0    0  0.35113484960E+02  0.23482046518E+02 -0.45431201596E+02  0.62035130479E+02  0.51100000000E-03 0. -1.
         22    1    1    0    0    0 -0.19433532665E+02 -0.68420377896E+01  0.19123247920E+02  0.28110038846E+02  0.00000000000E+00 0. -1.
</event>
<event>
 5    1  0.8962782E-005  0.9118800E+02  0.7818608E-02  0.1130116E+00
         25   -1    0    0    0    0  0.00000000000E+00  0.00000000000E+00  0.99999998245E-14  0.12500000000E+03  0.12500000000E+03 0.  0.
        -11    1    3    3    0    0 -0.19972772385E+02  0.12170397105E+02 -0.48970587077E+02  0.54269223335E+02  0.51100000000E-03 0.  1.
         23    2    1    0    0    0  0.78538855438E+01  0.20500822435E+02 -0.19771171890E+02  0.95455686223E+02  0.90768505307E+02 0.  0.
         11    1    3    3    0    0  0.27826657928E+02  0.83304253308E+01  0.29199415187E+02  0.41186462888E+02  0.51100000000E-03 0. -1.
         22    1    1    0    0    0 -0.78538855438E+01 -0.20500822435E+02  0.19771171890E+02  0.29544313777E+02  0.00000000000E+00 0.  1.
</event>
<event>
 5    1  0.8962782E-005  0.9118800E+02  0.7818608E-02  0.1130116E+00
         25   -1    0    0    0    0  0.00000000000E+00  0.00000000000E+00  0.99999998245E-14  0.12500000000E+03  0.12500000000E+03 0.  0.
        -11    1    3    3    0    0 -0.47483983687E+02 -0.83425090566E+01 -0.20933019850E+02  0.52559656434E+02  0.51100000000E-03 0.  1.
         23    2    1    0    0    0 -0.22444877812E+02 -0.96660952873E+01  0.14962500265E+02  0.96345465415E+02  0.91985685592E+02 0.  0.
         11    1    3    3    0    0  0.25039105875E+02 -0.13235862307E+01  0.35895520116E+02  0.43785808981E+02  0.51100000000E-03 0. -1.
         22    1    1    0    0    0  0.22444877812E+02  0.96660952873E+01 -0.14962500265E+02  0.28654534585E+02  0.00000000000E+00 0.  1.
</event>
<event>
 5    1  0.8962782E-005  0.9118800E+02  0.7818608E-02  0.1130116E+00
         25   -1    0    0    0    0  0.00000000000E+00  0.00000000000E+00  0.99999998245E-14  0.12500000000E+03  0.12500000000E+03 0.  0.
        -11    1    3    3    0    0  0.13677974964E+02  0.83911134672E+01 -0.43481711340E+02  0.46348214697E+02  0.51100000000E-03 0.  1.
         23    2    1    0    0    0  0.27625631115E+02 -0.51244985467E+01  0.30184676566E+01  0.96741423835E+02  0.92522191710E+02 0.  0.
         11    1    3    3    0    0  0.13947656152E+02 -0.13515612014E+02  0.46500178997E+02  0.50393209138E+02  0.51100000000E-03 0. -1.
         22    1    1    0    0    0 -0.27625631115E+02  0.51244985467E+01 -0.30184676566E+01  0.28258576165E+02  0.00000000000E+00 0. -1.
</event>
<event>
 5    1  0.8962782E-005  0.9118800E+02  0.7818608E-02  0.1130116E+00
         25   -1    0    0    0    0  0.00000000000E+00  0.00000000000E+00  0.99999998245E-14  0.12500000000E+03  0.12500000000E+03 0.  0.
        -11    1    3    3    0    0  0.39570875380E+02 -0.81392915731E+00 -0.37183451364E+02  0.54305853410E+02  0.51100000000E-03 0.  1.
         23    2    1    0    0    0 -0.67123088293E+00 -0.10548171703E+02 -0.25608384719E+02  0.97296140249E+02  0.93268617778E+02 0.  0.
         11    1    3    3    0    0 -0.40242106263E+02 -0.97342425461E+01  0.11575066645E+02  0.42990286839E+02  0.51100000000E-03 0. -1.
         22    1    1    0    0    0  0.67123088293E+00  0.10548171703E+02  0.25608384719E+02  0.27703859751E+02  0.00000000000E+00 0.  1.
</event>
<event>
 5    1  0.8962782E-005  0.9118800E+02  0.7818608E-02  0.1130116E+00
         25   -1    0    0    0    0  0.00000000000E+00  0.00000000000E+00  0.99999998245E-14  0.12500000000E+03  0.12500000000E+03 0.  0.
        -11    1    3    3    0    0 -0.24705162641E+02 -0.20944866635E+02  0.16202903601E+02  0.36215557221E+02  0.51100000000E-03 0.  1.
         23    2    1    0    0    0 -0.10609253386E+02  0.19566119844E+02 -0.22036347501E+02  0.93679241478E+02  0.88288223278E+02 0.  0.
         11    1    3    3    0    0  0.14095909255E+02  0.40510986479E+02 -0.38239251103E+02  0.57463684257E+02  0.51100000000E-03 0. -1.
         22    1    1    0    0    0  0.10609253386E+02 -0.19566119844E+02  0.22036347501E+02  0.31320758522E+02  0.00000000000E+00 0. -1.
</event>
<event>
 5    1  0.8962782E-005  0.9118800E+02  0.7818608E-02  0.1130116E+00
         25   -1    0    0    0    0  0.00000000000E+00  0.00000000000E+00  0.99999998245E-14  0.12500000000E+03  0.12500000000E+03 0.  0.
        -11    1    3    3    0    0  0.22546646494E+02 -0.20923279703E+02  0.14989880805E+02  0.34217414111E+02  0.51100000000E-03 0.  1.
         23    2    1    0    0    0 -0.26329855690E+02  0.10134633525E+02 -0.66082369037E+01  0.96023442366E+02  0.91547040321E+02 0.  0.
         11    1    3    3    0    0 -0.48876502183E+02  0.31057913229E+02 -0.21598117709E+02  0.61806028255E+02  0.51100000000E-03 0. -1.
         22    1    1    0    0    0  0.26329855690E+02 -0.10134633525E+02  0.66082369037E+01  0.28976557634E+02  0.00000000000E+00 0. -1.
</event>
<event>
 5    1  0.8962782E-005  0.9118800E+02  0.7818608E-02  0.1130116E+00
         25   -1    0    0    0    0  0.00000000000E+00  0.00000000000E+00  0.99999998245E-14  0.12500000000E+03  0.12500000000E+03 0.  0.
        -11    1    3    3    0    0 -0.10617129206E+02  0.53180457475E+02 -0.30108801589E+01  0.54313441148E+02  0.51100000000E-03 0. -1.
         23    2    1    0    0    0 -0.24994016086E+02  0.13495157372E+02 -0.17524538374E+01  0.96541412420E+02  0.92251575081E+02 0.  0.
         11    1    3    3    0    0 -0.14376886880E+02 -0.39685300103E+02  0.12584263215E+01  0.42227971271E+02  0.51100000000E-03 0.  1.
         22    1    1    0    0    0  0.24994016086E+02 -0.13495157372E+02  0.17524538374E+01  0.28458587580E+02  0.00000000000E+00 0. -1.
</event>
<event>
 5    1  0.8962782E-005  0.9118800E+02  0.7818608E-02  0.1130116E+00
         25   -1    0    0    0    0  0.00000000000E+00  0.00000000000E+00  0.99999998245E-14  0.12500000000E+03  0.12500000000E+03 0.  0.
        -11    1    3    3    0    0  0.50302348321E+02  0.18085751359E+02  0.25676424512E+02  0.59301765781E+02  0.51100000000E-03 0.  1.
         23    2    1    0    0    0  0.16009323215E+02  0.20555926329E+02  0.12200809322E+02  0.96230149720E+02  0.91828848572E+02 0.  0.
         11    1    3    3    0    0 -0.34293025106E+02  0.24701749699E+01 -0.13475615190E+02  0.36928383939E+02  0.51100000000E-03 0. -1.
         22    1    1    0    0    0 -0.16009323215E+02 -0.20555926329E+02 -0.12200809322E+02  0.28769850280E+02  0.00000000000E+00 0.  1.
</event>
<event>
 5    1  0.8962782E-005  0.9118800E+02  0.7818608E-02  0.1130116E+00
         25   -1    0    0    0    0  0.00000000000E+00  0.00000000000E+00  0.99999998245E-14  0.12500000000E+03  0.12500000000E+03 0.  0.
        -11    1    3    3    0    0 -0.10975657561E+02 -0.29312598198E+02  0.79794602809E+01  0.32301164973E+02  0.51100000000E-03 0. -1.
         23    2    1    0    0    0 -0.16347206197E+02  0.28203852881E+02  0.12131521676E+02  0.90216925295E+02  0.83242004563E+02 0.  0.
         11    1    3    3    0    0 -0.53715486356E+01  0.57516451079E+02  0.41520613954E+01  0.57915760321E+02  0.51100000000E-03 0.  1.
         22    1    1    0    0    0  0.16347206197E+02 -0.28203852881E+02 -0.12131521676E+02  0.34783074705E+02  0.00000000000E+00 0.  1.
</event>
<event>
 5    1  0.8962782E-005  0.9118800E+02  0.7818608E-02  0.1130116E+00
         25   -1    0    0    0    0  0.00000000000E+00  0.00000000000E+00  0.99999998245E-14  0.12500000000E+03  0.12500000000E+03 0.  0.
        -11    1    3    3    0    0  0.29587289424E+01 -0.37381171054E+01  0.35032706448E+02  0.35355595283E+02  0.51100000000E-03 0.  1.
         23    2    1    0    0    0  0.89520166881E+00  0.10165998900E+02 -0.25518275549E+02  0.97516708591E+02  0.93563759799E+02 0.  0.
         11    1    3    3    0    0 -0.20635272736E+01  0.13904116006E+02 -0.60550981997E+02  0.62161113309E+02  0.51100000000E-03 0. -1.
         22    1    1    0    0    0 -0.89520166881E+00 -0.10165998900E+02  0.25518275549E+02  0.27483291409E+02  0.00000000000E+00 0. -1.
</event>
<event>
 5    1  0.8962782E-005  0.9118800E+02  0.7818608E-02  0.1130116E+00
         25   -1    0    0    0    0  0.00000000000E+00  0.00000000000E+00  0.99999998245E-14  0.12500000000E+03  0.12500000000E+03 0.  0.
        -11    1    3    3    0    0  0.26598526746E+01 -0.45801557350E+02  0.26147032207E+02  0.52806484123E+02  0.51100000000E-03 0.  1.
         23    2    1    0    0    0 -0.22842079171E+02 -0.15456081111E+02  0.90689701673E+01  0.95967307323E+02  0.91470360395E+02 0.  0.
         11    1    3    3    0    0 -0.25501931845E+02  0.30345476239E+02 -0.17078062040E+02  0.43160823200E+02  0.51100000000E-03 0. -1.
         22    1    1    0    0    0  0.22842079171E+02  0.15456081111E+02 -0.90689701673E+01  0.29032692677E+02  0.00000000000E+00 0.  1.
</event>
<event>
 4    1  0.8962782E-005  0.9118800E+02  0.7818608E-02  0.1130116E+00
         25   -1    0    0    0    0  0.00000000000E+00  0.00000000000E+00  0.99999998245E-14  0.12500000000E+03  0.12500000000E+03 0.  0.
        -11    1    1    0    0    0 -0.36993092149E+02  0.51007557429E+01  0.27927285945E+01  0.37447375197E+02  0.51100000000E-03 0. -1.
         11    1    1    0    0    0 -0.20824206817E+02 -0.18578559979E+02 -0.38776626274E+01  0.28175286124E+02  0.51100000000E-03 0.  1.
         22    1    1    0    0    0  0.57817298966E+02  0.13477804237E+02  0.10849340330E+01  0.59377338679E+02  0.00000000000E+00 0.  1.
</event>
<event>
 5    1  0.8962782E-005  0.9118800E+02  0.7818608E-02  0.1130116E+00
         25   -1    0    0    0    0  0.00000000000E+00  0.00000000000E+00  0.99999998245E-14  0.12500000000E+03  0.12500000000E+03 0.  0.
        -11    1    3    3    0    0 -0.43403727501E+02  0.31026615061E+02 -0.21491490325E+02  0.57518853951E+02  0.51100000000E-03 0.  1.
         23    2    1    0    0    0 -0.23516887949E+02  0.83719188216E+01  0.70801673362E+01  0.99052710873E+02  0.95593816318E+02 0.  0.
         11    1    3    3    0    0  0.19886839553E+02 -0.22654696239E+02  0.28571657661E+02  0.41533856922E+02  0.51100000000E-03 0. -1.
         22    1    1    0    0    0  0.23516887949E+02 -0.83719188216E+01 -0.70801673362E+01  0.25947289127E+02  0.00000000000E+00 0.  1.
</event>
<event>
 5    1  0.8962782E-005  0.9118800E+02  0.7818608E-02  0.1130116E+00
         25   -1    0    0    0    0  0.00000000000E+00  0.00000000000E+00  0.99999998245E-14  0.12500000000E+03  0.12500000000E+03 0.  0.
        -11    1    3    3    0    0  0.40875075593E+01 -0.22716585817E+02 -0.32492633058E+02  0.39856269175E+02  0.51100000000E-03 0. -1.
         23    2    1    0    0    0  0.27432779596E+02  0.11652014618E+02  0.37118369058E+01  0.94964944245E+02  0.90090155184E+02 0.  0.
         11    1    3    3    0    0  0.23345272037E+02  0.34368600435E+02  0.36204469964E+02  0.55108675070E+02  0.51100000000E-03 0.  1.
         22    1    1    0    0    0 -0.27432779596E+02 -0.11652014618E+02 -0.37118369058E+01  0.30035055755E+02  0.00000000000E+00 0.  1.
</event>
<event>
 5    1  0.8962782E-005  0.9118800E+02  0.7818608E-02  0.1130116E+00
         25   -1    0    0    0    0  0.00000000000E+00  0.00000000000E+00  0.99999998245E-14  0.12500000000E+03  0.12500000000E+03 0.  0.
        -11    1    3    3    0    0  0.28617972421E+02 -0.47464774341E+02 -0.27992586410E+02  0.62092495867E+02  0.51100000000E-03 0.  1.
         23    2    1    0    0    0  0.95893402934E+01 -0.23800722556E+02 -0.16120531563E+02  0.94696512093E+02  0.89716932757E+02 0.  0.
         11    1    3    3    0    0 -0.19028632128E+02  0.23664051785E+02  0.11872054847E+02  0.32604016227E+02  0.51100000000E-03 0. -1.
         22    1    1    0    0    0 -0.95893402934E+01  0.23800722556E+02  0.16120531563E+02  0.30303487907E+02  0.00000000000E+00 0.  1.
</event>
<event>
 5    1  0.8962782E-005  0.9118800E+02  0.7818608E-02  0.1130116E+00
         25   -1    0    0    0    0  0.00000000000E+00  0.00000000000E+00  0.99999998245E-14  0.12500000000E+03  0.12500000000E+03 0.  0.
        -11    1    3    3    0    0  0.12748679078E+02  0.15703584380E+02  0.33896758609E+02  0.39473049351E+02  0.51100000000E-03 0.  1.
         23    2    1    0    0    0 -0.28981770016E+02 -0.80016261917E+01  0.17619069806E+02  0.90151748455E+02  0.83144074435E+02 0.  0.
         11    1    3    3    0    0 -0.41730449093E+02 -0.23705210571E+02 -0.16277688804E+02  0.50678699103E+02  0.51100000000E-03 0. -1.
         22    1    1    0    0    0  0.28981770016E+02  0.80016261917E+01 -0.17619069806E+02  0.34848251545E+02  0.00000000000E+00 0. -1.
</event>
<event>
 5    1  0.8962782E-005  0.9118800E+02  0.7818608E-02  0.1130116E+00
         25   -1    0    0    0    0  0.00000000000E+00  0.00000000000E+00  0.99999998245E-14  0.12500000000E+03  0.12500000000E+03 0.  0.
        -11    1    3    3    0    0  0.28063325037E+02 -0.14438600305E+02  0.29495333736E+02  0.43197200180E+02  0.51100000000E-03 0.  1.
         23    2    1    0    0    0  0.61446291347E+01  0.27077496208E+02  0.30843820702E+01  0.97063273620E+02  0.92956002523E+02 0.  0.
         11    1    3    3    0    0 -0.21918695902E+02  0.41516096512E+02 -0.26410951666E+02  0.53866073440E+02  0.51100000000E-03 0. -1.
         22    1    1    0    0    0 -0.61446291347E+01 -0.27077496208E+02 -0.30843820702E+01  0.27936726380E+02  0.00000000000E+00 0. -1.
</event>
<event>
 5    1  0.8962782E-005  0.9118800E+02  0.7818608E-02  0.1130116E+00
         25   -1    0    0    0    0  0.00000000000E+00  0.00000000000E+00  0.99999998245E-14  0.12500000000E+03  0.12500000000E+03 0.  0.
        -11    1    3    3    0    0 -0.23826962611E+02  0.89697256900E+01  0.32414604207E+02  0.41217553207E+02  0.51100000000E-03 0. -1.
         23    2    1    0    0    0  0.21100732745E+02  0.19560470281E+02  0.27287021933E+01  0.96098464822E+02  0.91649420104E+02 0.  0.
         11    1    3    3    0    0  0.44927695356E+02  0.10590744591E+02 -0.29685902014E+02  0.54880911615E+02  0.51100000000E-03 0.  1.
         22    1    1    0    0    0 -0.21100732745E+02 -0.19560470281E+02 -0.27287021933E+01  0.28901535178E+02  0.00000000000E+00 0.  1.
</event>
<event>
 5    1  0.8962782E-005  0.9118800E+02  0.7818608E-02  0.1130116E+00
         25   -1    0    0    0    0  0.00000000000E+00  0.00000000000E+00  0.99999998245E-14  0.12500000000E+03  0.12500000000E+03 0.  0.
        -11    1    3    3    0    0 -0.10157945955E+02 -0.35831259709E+02 -0.86478104447E+01  0.38234116495E+02  0.51100000000E-03 0. -1.
         23    2    1    0    0    0 -0.26958399434E+00  0.62559109060E+01  0.28859094183E+02  0.95469398688E+02  0.90787387185E+02 0.  0.
         11    1    3    3    0    0  0.98883619604E+01  0.42087170615E+02  0.37506904628E+02  0.57235282193E+02  0.51100000000E-03 0.  1.
         22    1    1    0    0    0  0.26958399434E+00 -0.62559109060E+01 -0.28859094183E+02  0.29530601312E+02  0.00000000000E+00 0.  1.
</event>
<event>
 5    1  0.8962782E-005  0.9118800E+02  0.7818608E-02  0.1130116E+00
         25   -1    0    0    0    0  0.00000000000E+00  0.00000000000E+00  0.99999998245E-14  0.12500000000E+03  0.12500000000E+03 0.  0.
        -11    1    3    3    0    0  0.44118962217E+02 -0.34488889292E+02  0.87920763050E+01  0.56685685298E+02  0.51100000000E-03 0.  1.
         23    2    1    0    0    0  0.18237275704E+02 -0.18933926240E+02 -0.14642386085E+02  0.94908618207E+02  0.90011968935E+02 0.  0.
         11    1    3    3    0    0 -0.25881686513E+02  0.15554963052E+02 -0.23434462390E+02  0.38222932908E+02  0.51100000000E-03 0. -1.
         22    1    1    0    0    0 -0.18237275704E+02  0.18933926240E+02  0.14642386085E+02  0.30091381793E+02  0.00000000000E+00 0.  1.
</event>
<event>
 5    1  0.8962782E-005  0.9118800E+02  0.7818608E-02  0.1130116E+00
         25   -1    0    0    0    0  0.00000000000E+00  0.00000000000E+00  0.99999998245E-14  0.12500000000E+03  0.12500000000E+03 0.  0.
        -11    1    3    3    0    0  0.52553410416E+02 -0.19667634714E+02 -0.26661695043E+02  0.62125057621E+02  0.51100000000E-03 0.  1.
         23    2    1    0    0    0  0.23912907877E+02 -0.12311508440E+02 -0.16761885074E+02  0.93308341879E+02  0.87761526137E+02 0.  0.
         11    1    3    3    0    0 -0.28640502539E+02  0.73561262741E+01  0.98998099695E+01  0.31183284258E+02  0.51100000000E-03 0. -1.
         22    1    1    0    0    0 -0.23912907877E+02  0.12311508440E+02  0.16761885074E+02  0.31691658121E+02  0.00000000000E+00 0.  1.
</event>
<event>
 5    1  0.8962782E-005  0.9118800E+02  0.7818608E-02  0.1130116E+00
         25   -1    0    0    0    0  0.00000000000E+00  0.00000000000E+00  0.99999998245E-14  0.12500000000E+03  0.12500000000E+03 0.  0.
        -11    1    3    3    0    0  0.19389915300E+01 -0.39760597552E+02 -0.35745733938E+02  0.53501610264E+02  0.51100000000E-03 0. -1.
         23    2    1    0    0    0  0.18655713744E+02 -0.77228880663E+01 -0.28033460436E+02  0.90452155503E+02  0.83594490702E+02 0.  0.
         11    1    3    3    0    0  0.16716722214E+02  0.32037709485E+02  0.77122735016E+01  0.36950545239E+02  0.51100000000E-03 0.  1.
         22    1    1    0    0    0 -0.18655713744E+02  0.77228880663E+01  0.28033460436E+02  0.34547844497E+02  0.00000000000E+00 0. -1.
</event>
<event>
 5    1  0.8962782E-005  0.9118800E+02  0.7818608E-02  0.1130116E+00
         25   -1    0    0    0    0  0.00000000000E+00  0.00000000000E+00  0.99999998245E-14  0.12500000000E+03  0.12500000000E+03 0.  0.
        -11    1    3    3    0    0  0.90213447699E+00  0.38784600303E+01  0.41964992071E+02  0.42153491654E+02  0.51100000000E-03 0.  1.
         23    2    1    0    0    0  0.16974032285E+01  0.29561863553E+02 -0.43034789403E+01  0.95078354232E+02  0.90247374245E+02 0.  0.
         11    1    3    3    0    0  0.79526875151E+00  0.25683403523E+02 -0.46268471012E+02  0.52924862578E+02  0.51100000000E-03 0. -1.
         22    1    1    0    0    0 -0.16974032285E+01 -0.29561863553E+02  0.43034789403E+01  0.29921645768E+02  0.00000000000E+00 0. -1.
</event>
<event>
 5    1  0.8962782E-005  0.9118800E+02  0.7818608E-02  0.1130116E+00
         25   -1    0    0    0    0  0.00000000000E+00  0.00000000000E+00  0.99999998245E-14  0.12500000000E+03  0.12500000000E+03 0.  0.
        -11    1    3    3    0    0  0.37027960417E+02  0.13792109212E+02 -0.29567224502E+02  0.49350915839E+02  0.51100000000E-03 0. -1.
         23    2    1    0    0    0  0.18054992455E+02 -0.20614244810E+02 -0.16550673612E+01  0.97546965749E+02  0.93604174251E+02 0.  0.
         11    1    3    3    0    0 -0.18972967962E+02 -0.34406354022E+02  0.27912157141E+02  0.48196049909E+02  0.51100000000E-03 0.  1.
         22    1    1    0    0    0 -0.18054992455E+02  0.20614244810E+02  0.16550673612E+01  0.27453034251E+02  0.00000000000E+00 0.  1.
</event>
<event>
 5    1  0.8962782E-005  0.9118800E+02  0.7818608E-02  0.1130116E+00
         25   -1    0    0    0    0  0.00000000000E+00  0.00000000000E+00  0.99999998245E-14  0.12500000000E+03  0.12500000000E+03 0.  0.
        -11    1    3    3    0    0 -0.83353396689E+01  0.18923709272E+02  0.24403373958E+02  0.31986080110E+02  0.51100000000E-03 0. -1.
         23    2    1    0    0    0 -0.79349757106E+01 -0.16944963155E+02 -0.25455384406E+02  0.93407719121E+02  0.87902956607E+02 0.  0.
         11    1    3    3    0    0  0.40036395832E+00 -0.35868672428E+02 -0.49858758364E+02  0.61421639011E+02  0.51100000000E-03 0.  1.
         22    1    1    0    0    0  0.79349757106E+01  0.16944963155E+02  0.25455384406E+02  0.31592280879E+02  0.00000000000E+00 0.  1.
</event>
<event>
 5    1  0.8962782E-005  0.9118800E+02  0.7818608E-02  0.1130116E+00
         25   -1    0    0    0    0  0.00000000000E+00  0.00000000000E+00  0.99999998245E-14  0.12500000000E+03  0.12500000000E+03 0.  0.
        -11    1    3    3    0    0  0.83100172096E+00 -0.20189424094E+02  0.53654883207E+01  0.20906742317E+02  0.51100000000E-03 0. -1.
         23    2    1    0    0    0  0.26336713353E+02  0.34556092603E+02 -0.12878632373E+00  0.81551610017E+02  0.69013784886E+02 0.  0.
         11    1    3    3    0    0  0.25505711632E+02  0.54745516697E+02 -0.54942746445E+01  0.60644867700E+02  0.51100000000E-03 0.  1.
         22    1    1    0    0    0 -0.26336713353E+02 -0.34556092603E+02  0.12878632373E+00  0.43448389983E+02  0.00000000000E+00 0.  1.
</event>
<event>
 5    1  0.8962782E-005  0.9118800E+02  0.7818608E-02  0.1130116E+00
         25   -1    0    0    0    0  0.00000000000E+00  0.00000000000E+00  0.99999998245E-14  0.12500000000E+03  0.12500000000E+03 0.  0.
        -11    1    3    3    0    0 -0.43557514507E+02 -0.18502037015E+01 -0.35807469331E+02  0.56416798774E+02  0.51100000000E-03 0. -1.
         23    2    1    0    0    0 -0.20725136877E+02 -0.18695512152E+02 -0.84351891691E+01  0.95841709763E+02  0.91298562096E+02 0.  0.
         11    1    3    3    0    0  0.22832377629E+02 -0.16845308451E+02  0.27372280162E+02  0.39424910989E+02  0.51100000000E-03 0.  1.
         22    1    1    0    0    0  0.20725136877E+02  0.18695512152E+02  0.84351891691E+01  0.29158290237E+02  0.00000000000E+00 0. -1.
</event>
<event>
 5    1  0.8962782E-005  0.9118800E+02  0.7818608E-02  0.1130116E+00
         25   -1    0    0    0    0  0.00000000000E+00  0.00000000000E+00  0.99999998245E-14  0.12500000000E+03  0.12500000000E+03 0.  0.
        -11    1    3    3    0    0 -0.55465902343E+02  0.23304856612E+02 -0.73401837496E+01  0.60609083166E+02  0.51100000000E-03 0.  1.
         23    2    1    0    0    0 -0.20920895741E+02  0.18053647993E+02 -0.99046970422E+01  0.95644913423E+02  0.91028722696E+02 0.  0.
         11    1    3    3    0    0  0.34545006602E+02 -0.52512086185E+01 -0.25645132927E+01  0.35035830257E+02  0.51100000000E-03 0. -1.
         22    1    1    0    0    0  0.20920895741E+02 -0.18053647993E+02  0.99046970422E+01  0.29355086577E+02  0.00000000000E+00 0.  1.
</event>
<event>
 5    1  0.8962782E-005  0.9118800E+02  0.7818608E-02  0.1130116E+00
         25   -1    0    0    0    0  0.00000000000E+00  0.00000000000E+00  0.99999998245E-14  0.12500000000E+03  0.12500000000E+03 0.  0.
        -11    1    3    3    0    0 -0.67021051466E+01 -0.45892958702E+02  0.52271892150E+01  0.46673390483E+02  0.51100000000E-03 0. -1.
         23    2    1    0    0    0 -0.26558254962E+02 -0.15795076349E+02 -0.17686994263E+02  0.89395855444E+02  0.81999779640E+02 0.  0.
         11    1    3    3    0    0 -0.19856149815E+02  0.30097882353E+02 -0.22914183478E+02  0.42722464961E+02  0.51100000000E-03 0.  1.
         22    1    1    0    0    0  0.26558254962E+02  0.15795076349E+02  0.17686994263E+02  0.35604144556E+02  0.00000000000E+00 0.  1.
</event>
<event>
 5    1  0.8962782E-005  0.9118800E+02  0.7818608E-02  0.1130116E+00
         25   -1    0    0    0    0  0.00000000000E+00  0.00000000000E+00  0.99999998245E-14  0.12500000000E+03  0.12500000000E+03 0.  0.
        -11    1    3    3    0    0  0.39743559597E+02 -0.22649309925E+02 -0.34147914108E+01  0.45871587832E+02  0.51100000000E-03 0. -1.
         23    2    1    0    0    0 -0.20242839011E+01 -0.12597086995E+02  0.24689833038E+02  0.97208415276E+02  0.93150973258E+02 0.  0.
         11    1    3    3    0    0 -0.41767843498E+02  0.10052222930E+02  0.28104624449E+02  0.51336827444E+02  0.51100000000E-03 0.  1.
         22    1    1    0    0    0  0.20242839011E+01  0.12597086995E+02 -0.24689833038E+02  0.27791584724E+02  0.00000000000E+00 0.  1.
</event>
<event>
 5    1  0.8962782E-005  0.9118800E+02  0.7818608E-02  0.1130116E+00
         25   -1    0    0    0    0  0.00000000000E+00  0.00000000000E+00  0.99999998245E-14  0.12500000000E+03  0.12500000000E+03 0.  0.
        -11    1    3    3    0    0  0.22152877217E+01 -0.60019151713E+02 -0.16783477230E+02  0.62360974818E+02  0.51100000000E-03 0.  1.
         23    2    1    0    0    0 -0.70034234887E+00 -0.30422143322E+02 -0.60824901632E+01  0.93967855854E+02  0.88695907253E+02 0.  0.
         11    1    3    3    0    0 -0.29156300706E+01  0.29597008390E+02  0.10700987067E+02  0.31606881036E+02  0.51100000000E-03 0. -1.
         22    1    1    0    0    0  0.70034234887E+00  0.30422143322E+02  0.60824901632E+01  0.31032144146E+02  0.00000000000E+00 0.  1.
</event>
<event>
 5    1  0.8962782E-005  0.9118800E+02  0.7818608E-02  0.1130116E+00
         25   -1    0    0    0    0  0.00000000000E+00  0.00000000000E+00  0.99999998245E-14  0.12500000000E+03  0.12500000000E+03 0.  0.
        -11    1    3    3    0    0 -0.17987719160E+02 -0.30831163410E+02 -0.10010162722E+02  0.37071849640E+02  0.51100000000E-03 0. -1.
         23    2    1    0    0    0  0.20459044798E+00  0.19381462739E+02  0.19007756534E+02  0.97852665626E+02  0.94011522732E+02 0.  0.
         11    1    3    3    0    0  0.18192309608E+02  0.50212626149E+02  0.29017919256E+02  0.60780815985E+02  0.51100000000E-03 0.  1.
         22    1    1    0    0    0 -0.20459044798E+00 -0.19381462739E+02 -0.19007756534E+02  0.27147334374E+02  0.00000000000E+00 0.  1.
</event>
<event>
 5    1  0.8962782E-005  0.9118800E+02  0.7818608E-02  0.1130116E+00
         25   -1    0    0    0    0  0.00000000000E+00  0.00000000000E+00  0.99999998245E-14  0.12500000000E+03  0.12500000000E+03 0.  0.
        -11    1    3    3    0    0 -0.51960184586E+01 -0.26918942858E+02 -0.23035253344E+02  0.35808532354E+02  0.51100000000E-03 0. -1.
         23    2    1    0    0    0  0.13967584382E+02  0.25578158874E+02 -0.11270424898E+01  0.95834852141E+02  0.91289172607E+02 0.  0.
         11    1    3    3    0    0  0.19163602841E+02  0.52497101732E+02  0.21908210854E+02  0.60026319787E+02  0.51100000000E-03 0.  1.
         22    1    1    0    0    0 -0.13967584382E+02 -0.25578158874E+02  0.11270424898E+01  0.29165147859E+02  0.00000000000E+00 0.  1.
</event>
<event>
 5    1  0.8962782E-005  0.9118800E+02  0.7818608E-02  0.1130116E+00
         25   -1    0    0    0    0  0.00000000000E+00  0.00000000000E+00  0.99999998245E-14  0.12500000000E+03  0.12500000000E+03 0.  0.
        -11    1    3    3    0    0 -0.10788924864E+02  0.21909172664E+02  0.21544274510E+02  0.32566370860E+02  0.51100000000E-03 0.  1.
         23    2    1    0    0    0 -0.36391000427E+02 -0.18324025783E+02  0.16948909642E+01  0.84220746839E+02  0.73689800582E+02 0.  0.
         11    1    3    3    0    0 -0.25602075562E+02 -0.40233198447E+02 -0.19849383546E+02  0.51654375979E+02  0.51100000000E-03 0. -1.
         22    1    1    0    0    0  0.36391000427E+02  0.18324025783E+02 -0.16948909642E+01  0.40779253161E+02  0.00000000000E+00 0. -1.
</event>
<event>
 5    1  0.8962782E-005  0.9118800E+02  0.7818608E-02  0.1130116E+00
         25   -1    0    0    0    0  0.00000000000E+00  0.00000000000E+00  0.99999998245E-14  0.12500000000E+03  0.12500000000E+03 0.  0.
        -11    1    3    3    0    0 -0.31598762529E+02  0.48402032017E+02  0.10334331986E+02  0.58719987352E+02  0.51100000000E-03 0.  1.
         23    2    1    0    0    0 -0.18515800284E+02  0.21085598510E+02 -0.10010628095E+02  0.95206544350E+02  0.90424753733E+02 0.  0.
         11    1    3    3    0    0  0.13082962245E+02 -0.27316433507E+02 -0.20344960081E+02  0.36486556998E+02  0.51100000000E-03 0. -1.
         22    1    1    0    0    0  0.18515800284E+02 -0.21085598510E+02  0.10010628095E+02  0.29793455650E+02  0.00000000000E+00 0.  1.
</event>
<event>
 5    1  0.8962782E-005  0.9118800E+02  0.7818608E-02  0.1130116E+00
         25   -1    0    0    0    0  0.00000000000E+00  0.00000000000E+00  0.99999998245E-14  0.12500000000E+03  0.12500000000E+03 0.  0.
        -11    1    3    3    0    0 -0.29250652355E+01 -0.46653013660E+01  0.31894099045E+02  0.32365948118E+02  0.51100000000E-03 0.  1.
         23    2    1    0    0    0 -0.17516239697E+02  0.76843503722E+01 -0.25650686917E+02  0.93002724599E+02  0.87325146147E+02 0.  0.
         11    1    3    3    0    0 -0.14591174462E+02  0.12349651738E+02 -0.57544785962E+02  0.60636776480E+02  0.51100000000E-03 0. -1.
         22    1    1    0    0    0  0.17516239697E+02 -0.76843503722E+01  0.25650686917E+02  0.31997275401E+02  0.00000000000E+00 0. -1.
</event>
<event>
 5    1  0.8962782E-005  0.9118800E+02  0.7818608E-02  0.1130116E+00
         25   -1    0    0    0    0  0.00000000000E+00  0.00000000000E+00  0.99999998245E-14  0.12500000000E+03  0.12500000000E+03 0.  0.
        -11    1    3    3    0    0  0.33411494766E+02  0.85557597369E+01  0.34843336944E+02  0.49026392248E+02  0.51100000000E-03 0. -1.
         23    2    1    0    0    0 -0.96183511000E+01  0.19144689398E+02  0.19808644644E+02  0.95820997058E+02  0.91270199214E+02 0.  0.
         11    1    3    3    0    0 -0.43029845865E+02  0.10588929661E+02 -0.15034692300E+02  0.46794604811E+02  0.51100000000E-03 0.  1.
         22    1    1    0    0    0  0.96183511000E+01 -0.19144689398E+02 -0.19808644644E+02  0.29179002942E+02  0.00000000000E+00 0. -1.
</event>
<event>
 5    1  0.8962782E-005  0.9118800E+02  0.7818608E-02  0.1130116E+00
         25   -1    0    0    0    0  0.00000000000E+00  0.00000000000E+00  0.99999998245E-14  0.12500000000E+03  0.12500000000E+03 0.  0.
        -11    1    3    3    0    0  0.13634076553E+02 -0.47999460454E+01 -0.29706526468E+02  0.33036422939E+02  0.51100000000E-03 0. -1.
         23    2    1    0    0    0 -0.12738416880E+02  0.14504799496E+02  0.22949589607E+02  0.95010999748E+02  0.90154034502E+02 0.  0.
         11    1    3    3    0    0 -0.26372493433E+02  0.19304745541E+02  0.52656116075E+02  0.61974576809E+02  0.51100000000E-03 0.  1.
         22    1    1    0    0    0  0.12738416880E+02 -0.14504799496E+02 -0.22949589607E+02  0.29989000252E+02  0.00000000000E+00 0.  1.
</event>
<event>
 5    1  0.8962782E-005  0.9118800E+02  0.7818608E-02  0.1130116E+00
         25   -1    0    0    0    0  0.00000000000E+00  0.00000000000E+00  0.99999998245E-14  0.12500000000E+03  0.12500000000E+03 0.  0.
        -11    1    3    3    0    0 -0.41537306098E+02 -0.10725184342E+02  0.37233050698E+02  0.56803850588E+02  0.51100000000E-03 0. -1.
         23    2    1    0    0    0 -0.25479148268E+02  0.12039563882E+02  0.12072624589E+02  0.94342433896E+02  0.89222242037E+02 0.  0.
         11    1    3    3    0    0  0.16058157830E+02  0.22764748224E+02 -0.25160426109E+02  0.37538583309E+02  0.51100000000E-03 0.  1.
         22    1    1    0    0    0  0.25479148268E+02 -0.12039563882E+02 -0.12072624589E+02  0.30657566104E+02  0.00000000000E+00 0. -1.
</event>
<event>
 5    1  0.8962782E-005  0.9118800E+02  0.7818608E-02  0.1130116E+00
         25   -1    0    0    0    0  0.00000000000E+00  0.00000000000E+00  0.99999998245E-14  0.12500000000E+03  0.12500000000E+03 0.  0.
        -11    1    3    3    0    0  0.31501560470E+02  0.32481321872E+02  0.18836771004E+02  0.49012330333E+02  0.51100000000E-03 0.  1.
         23    2    1    0    0    0  0.62985969137E+01  0.25617553110E+02 -0.17190712288E+02  0.93512670177E+02  0.88052072913E+02 0.  0.
         11    1    3    3    0    0 -0.25202963556E+02 -0.68637687617E+01 -0.36027483291E+02  0.44500339844E+02  0.51100000000E-03 0. -1.
         22    1    1    0    0    0 -0.62985969137E+01 -0.25617553110E+02  0.17190712288E+02  0.31487329823E+02  0.00000000000E+00 0.  1.
</event>
<event>
 5    1  0.8962782E-005  0.9118800E+02  0.7818608E-02  0.1130116E+00
         25   -1    0    0    0    0  0.00000000000E+00  0.00000000000E+00  0.99999998245E-14  0.12500000000E+03  0.12500000000E+03 0.  0.
        -11    1    3    3    0    0  0.12414234684E+02 -0.17667315350E+02 -0.48254564931E+02  0.52865397864E+02  0.51100000000E-03 0. -1.
         23    2    1    0    0    0 -0.80272270243E+01 -0.25397500515E+02 -0.10742154524E+02  0.96279566683E+02  0.91896091706E+02 0.  0.
         11    1    3    3    0    0 -0.20441461708E+02 -0.77301851650E+01  0.37512410407E+02  0.43414168819E+02  0.51100000000E-03 0.  1.
         22    1    1    0    0    0  0.80272270243E+01  0.25397500515E+02  0.10742154524E+02  0.28720433317E+02  0.00000000000E+00 0. -1.
</event>
<event>
 5    1  0.8962782E-005  0.9118800E+02  0.7818608E-02  0.1130116E+00
         25   -1    0    0    0    0  0.00000000000E+00  0.00000000000E+00  0.99999998245E-14  0.12500000000E+03  0.12500000000E+03 0.  0.
        -11    1    3    3    0    0  0.33413042648E+02  0.51100824452E+02  0.73994294705E+01  0.61501847415E+02  0.51100000000E-03 0. -1.
         23    2    1    0    0    0  0.87910526394E+01  0.24495694277E+02  0.80505822457E+01  0.97757872346E+02  0.93885398686E+02 0.  0.
         11    1    3    3    0    0 -0.24621990008E+02 -0.26605130175E+02  0.65115277513E+00  0.36256024931E+02  0.51100000000E-03 0.  1.
         22    1    1    0    0    0 -0.87910526394E+01 -0.24495694277E+02 -0.80505822457E+01  0.27242127654E+02  0.00000000000E+00 0. -1.
</event>
<event>
 5    1  0.8962782E-005  0.9118800E+02  0.7818608E-02  0.1130116E+00
         25   -1    0    0    0    0  0.00000000000E+00  0.00000000000E+00  0.99999998245E-14  0.12500000000E+03  0.12500000000E+03 0.  0.
        -11    1    3    3    0    0 -0.70623107974E+01  0.46186161991E+02 -0.22028926767E+02  0.51655700634E+02  0.51100000000E-03 0. -1.
         23    2    1    0    0    0 -0.98648425947E+00  0.57641653447E+01 -0.30957033983E+02  0.93495449434E+02  0.88027622702E+02 0.  0.
         11    1    3    3    0    0  0.60758265379E+01 -0.40421996646E+02 -0.89281072158E+01  0.41839748800E+02  0.51100000000E-03 0.  1.
         22    1    1    0    0    0  0.98648425947E+00 -0.57641653447E+01  0.30957033983E+02  0.31504550566E+02  0.00000000000E+00 0. -1.
</event>
<event>
 5    1  0.8962782E-005  0.9118800E+02  0.7818608E-02  0.1130116E+00
         25   -1    0    0    0    0  0.00000000000E+00  0.00000000000E+00  0.99999998245E-14  0.12500000000E+03  0.12500000000E+03 0.  0.
        -11    1    3    3    0    0  0.32256065487E+02 -0.55278642137E+01 -0.22381206667E+02  0.39647565570E+02  0.51100000000E-03 0.  1.
         23    2    1    0    0    0 -0.16033043942E+02 -0.24654256633E+02 -0.17343261653E+01  0.95539878557E+02  0.90884375111E+02 0.  0.
         11    1    3    3    0    0 -0.48289109429E+02 -0.19126392419E+02  0.20646880502E+02  0.55892312988E+02  0.51100000000E-03 0. -1.
         22    1    1    0    0    0  0.16033043942E+02  0.24654256633E+02  0.17343261653E+01  0.29460121443E+02  0.00000000000E+00 0. -1.
</event>
<event>
 5    1  0.8962782E-005  0.9118800E+02  0.7818608E-02  0.1130116E+00
         25   -1    0    0    0    0  0.00000000000E+00  0.00000000000E+00  0.99999998245E-14  0.12500000000E+03  0.12500000000E+03 0.  0.
        -11    1    3    3    0    0  0.50725161683E+02  0.23789852030E+02  0.57324602105E+01  0.56319270127E+02  0.51100000000E-03 0. -1.
         23    2    1    0    0    0  0.10615258079E+02  0.25895011281E+02  0.54638862444E+01  0.96485278079E+02  0.92175482206E+02 0.  0.
         11    1    3    3    0    0 -0.40109903604E+02  0.21051592512E+01 -0.26857396609E+00  0.40166007952E+02  0.51100000000E-03 0.  1.
         22    1    1    0    0    0 -0.10615258079E+02 -0.25895011281E+02 -0.54638862444E+01  0.28514721921E+02  0.00000000000E+00 0.  1.
</event>
<event>
 5    1  0.8962782E-005  0.9118800E+02  0.7818608E-02  0.1130116E+00
         25   -1    0    0    0    0  0.00000000000E+00  0.00000000000E+00  0.99999998245E-14  0.12500000000E+03  0.12500000000E+03 0.  0.
        -11    1    3    3    0    0  0.11617415087E+02  0.31500596068E+02  0.45283486832E+02  0.56372387441E+02  0.51100000000E-03 0.  1.
         23    2    1    0    0    0 -0.13209177833E+02  0.19710031288E+02  0.16989481686E+02  0.95817638883E+02  0.91265599876E+02 0.  0.
         11    1    3    3    0    0 -0.24826592920E+02 -0.11790564780E+02 -0.28294005146E+02  0.39445251442E+02  0.51100000000E-03 0. -1.
         22    1    1    0    0    0  0.13209177833E+02 -0.19710031288E+02 -0.16989481686E+02  0.29182361117E+02  0.00000000000E+00 0.  1.
</event>
<event>
 5    1  0.8962782E-005  0.9118800E+02  0.7818608E-02  0.1130116E+00
         25   -1    0    0    0    0  0.00000000000E+00  0.00000000000E+00  0.99999998245E-14  0.12500000000E+03  0.12500000000E+03 0.  0.
        -11    1    3    3    0    0  0.29323343511E+02 -0.25300670877E+02 -0.25097786975E+02  0.46150637404E+02  0.51100000000E-03 0.  1.
         23    2    1    0    0    0  0.17435336400E+02  0.20793142708E+02 -0.84760681935E+01  0.96571326604E+02  0.92292099613E+02 0.  0.
         11    1    3    3    0    0 -0.11888007110E+02  0.46093813585E+02  0.16621718782E+02  0.50420689200E+02  0.51100000000E-03 0. -1.
         22    1    1    0    0    0 -0.17435336400E+02 -0.20793142708E+02  0.84760681935E+01  0.28428673396E+02  0.00000000000E+00 0. -1.
</event>
<event>
 5    1  0.8962782E-005  0.9118800E+02  0.7818608E-02  0.1130116E+00
         25   -1    0    0    0    0  0.00000000000E+00  0.00000000000E+00  0.99999998245E-14  0.12500000000E+03  0.12500000000E+03 0.  0.
        -11    1    3    3    0    0  0.59752728382E+01 -0.32679036353E+02  0.34134895845E+02  0.47632073407E+02  0.51100000000E-03 0.  1.
         23    2    1    0    0    0  0.19934534841E+02  0.10590860756E+02  0.18827642569E+02  0.95605576454E+02  0.90974689412E+02 0.  0.
         11    1    3    3    0    0  0.13959262003E+02  0.43269897109E+02 -0.15307253276E+02  0.47973503047E+02  0.51100000000E-03 0. -1.
         22    1    1    0    0    0 -0.19934534841E+02 -0.10590860756E+02 -0.18827642569E+02  0.29394423546E+02  0.00000000000E+00 0. -1.
</event>
<event>
 5    1  0.8962782E-005  0.9118800E+02  0.7818608E-02  0.1130116E+00
         25   -1    0    0    0    0  0.00000000000E+00  0.00000000000E+00  0.99999998245E-14  0.12500000000E+03  0.12500000000E+03 0.  0.
        -11    1    3    3    0    0  0.26349926390E+02 -0.92937343870E+01  0.19434768096E+02  0.34035310059E+02  0.51100000000E-03 0.  1.
         23    2    1    0    0    0 -0.27430028599E+02  0.12837954787E+01 -0.94101261026E+01  0.95972339518E+02  0.91477236947E+02 0.  0.
         11    1    3    3    0    0 -0.53779954989E+02  0.10577529866E+02 -0.28844894198E+02  0.61937029459E+02  0.51100000000E-03 0. -1.
         22    1    1    0    0    0  0.27430028599E+02 -0.12837954787E+01  0.94101261026E+01  0.29027660482E+02  0.00000000000E+00 0. -1.
</event>
<event>
 5    1  0.8962782E-005  0.9118800E+02  0.7818608E-02  0.1130116E+00
         25   -1    0    0    0    0  0.00000000000E+00  0.00000000000E+00  0.99999998245E-14  0.12500000000E+03  0.12500000000E+03 0.  0.
        -11    1    3    3    0    0 -0.31570543073E+02  0.23999385013E+02  0.86596068365E+01  0.40591359447E+02  0.51100000000E-03 0.  1.
         23    2    1    0    0    0 -0.56763373030E+01 -0.79447716837E+01 -0.27791918784E+02  0.95542726671E+02  0.90888292248E+02 0.  0.
         11    1    3    3    0    0  0.25894205770E+02 -0.31944156697E+02 -0.36451525620E+02  0.54951367224E+02  0.51100000000E-03 0. -1.
         22    1    1    0    0    0  0.56763373030E+01  0.79447716837E+01  0.27791918784E+02  0.29457273329E+02  0.00000000000E+00 0. -1.
</event>
<event>
 5    1  0.8962782E-005  0.9118800E+02  0.7818608E-02  0.1130116E+00
         25   -1    0    0    0    0  0.00000000000E+00  0.00000000000E+00  0.99999998245E-14  0.12500000000E+03  0.12500000000E+03 0.  0.
        -11    1    3    3    0    0 -0.58672817326E+01  0.34111707959E+02  0.32887040687E+02  0.47745063203E+02  0.51100000000E-03 0.  1.
         23    2    1    0    0    0  0.25705132351E+02  0.13402643187E+02  0.30861211516E+01  0.95846804337E+02  0.91305536986E+02 0.  0.
         11    1    3    3    0    0  0.31572414084E+02 -0.20709064772E+02 -0.29800919535E+02  0.48101741135E+02  0.51100000000E-03 0. -1.
         22    1    1    0    0    0 -0.25705132351E+02 -0.13402643187E+02 -0.30861211516E+01  0.29153195663E+02  0.00000000000E+00 0.  1.
</event>
<event>
 5    1  0.8962782E-005  0.9118800E+02  0.7818608E-02  0.1130116E+00
         25   -1    0    0    0    0  0.00000000000E+00  0.00000000000E+00  0.99999998245E-14  0.12500000000E+03  0.12500000000E+03 0.  0.
        -11    1    3    3    0    0 -0.32239623709E+02  0.66511180117E+01  0.24832305921E+02  0.41234380381E+02  0.51100000000E-03 0. -1.
         23    2    1    0    0    0 -0.15864750943E+02 -0.81204682814E+01 -0.24169556842E+02  0.94970018223E+02  0.90097195049E+02 0.  0.
         11    1    3    3    0    0  0.16374872766E+02 -0.14771586293E+02 -0.49001862764E+02  0.53735637842E+02  0.51100000000E-03 0.  1.
         22    1    1    0    0    0  0.15864750943E+02  0.81204682814E+01  0.24169556842E+02  0.30029981777E+02  0.00000000000E+00 0.  1.
</event>
<event>
 5    1  0.8962782E-005  0.9118800E+02  0.7818608E-02  0.1130116E+00
         25   -1    0    0    0    0  0.00000000000E+00  0.00000000000E+00  0.99999998245E-14  0.12500000000E+03  0.12500000000E+03 0.  0.
        -11    1    3    3    0    0 -0.13925383740E+02 -0.29542955028E+02  0.45993997100E+02  0.56410551084E+02  0.51100000000E-03 0. -1.
         23    2    1    0    0    0 -0.17125638012E+01 -0.26962212861E+02  0.73776678473E+01  0.96994218811E+02  0.92863096560E+02 0.  0.
         11    1    3    3    0    0  0.12212819939E+02  0.25807421671E+01 -0.38616329253E+02  0.40583667727E+02  0.51100000000E-03 0.  1.
         22    1    1    0    0    0  0.17125638012E+01  0.26962212861E+02 -0.73776678473E+01  0.28005781189E+02  0.00000000000E+00 0. -1.
</event>
<event>
 5    1  0.8962782E-005  0.9118800E+02  0.7818608E-02  0.1130116E+00
         25   -1    0    0    0    0  0.00000000000E+00  0.00000000000E+00  0.99999998245E-14  0.12500000000E+03  0.12500000000E+03 0.  0.
        -11    1    3    3    0    0 -0.33890301574E+02 -0.28456127853E+02  0.31466260174E+02  0.54299440907E+02  0.51100000000E-03 0.  1.
         23    2    1    0    0    0 -0.13676635205E+01 -0.18690464327E+01  0.28494527830E+02  0.96411506610E+02  0.92075385704E+02 0.  0.
         11    1    3    3    0    0  0.32522638054E+02  0.26587081420E+02 -0.29717323445E+01  0.42112065703E+02  0.51100000000E-03 0. -1.
         22    1    1    0    0    0  0.13676635205E+01  0.18690464327E+01 -0.28494527830E+02  0.28588493390E+02  0.00000000000E+00 0. -1.
</event>
<event>
 5    1  0.8962782E-005  0.9118800E+02  0.7818608E-02  0.1130116E+00
         25   -1    0    0    0    0  0.00000000000E+00  0.00000000000E+00  0.99999998245E-14  0.12500000000E+03  0.12500000000E+03 0.  0.
        -11    1    3    3    0    0 -0.23506906617E+02 -0.28941993272E+02  0.22256039180E+01  0.37351933636E+02  0.51100000000E-03 0.  1.
         23    2    1    0    0    0 -0.11772698623E+02  0.26697942576E+02 -0.70870932056E+01  0.94973287546E+02  0.90101730764E+02 0.  0.
         11    1    3    3    0    0  0.11734207994E+02  0.55639935848E+02 -0.93126971235E+01  0.57621353910E+02  0.51100000000E-03 0. -1.
         22    1    1    0    0    0  0.11772698623E+02 -0.26697942576E+02  0.70870932056E+01  0.30026712454E+02  0.00000000000E+00 0. -1.
</event>
<event>
 5    1  0.8962782E-005  0.9118800E+02  0.7818608E-02  0.1130116E+00
         25   -1    0    0    0    0  0.00000000000E+00  0.00000000000E+00  0.99999998245E-14  0.12500000000E+03  0.12500000000E+03 0.  0.
        -11    1    3    3    0    0 -0.13235297721E+02 -0.27727200015E+02  0.16859196114E+02  0.35045730415E+02  0.51100000000E-03 0.  1.
         23    2    1    0    0    0 -0.14538455435E+01  0.27612536497E+02 -0.70415585270E+01  0.96466696911E+02  0.92150280671E+02 0.  0.
         11    1    3    3    0    0  0.11781452178E+02  0.55339736512E+02 -0.23900754641E+02  0.61420966496E+02  0.51100000000E-03 0. -1.
         22    1    1    0    0    0  0.14538455435E+01 -0.27612536497E+02  0.70415585270E+01  0.28533303089E+02  0.00000000000E+00 0. -1.
</event>
<event>
 5    1  0.8962782E-005  0.9118800E+02  0.7818608E-02  0.1130116E+00
         25   -1    0    0    0    0  0.00000000000E+00  0.00000000000E+00  0.99999998245E-14  0.12500000000E+03  0.12500000000E+03 0.  0.
        -11    1    3    3    0    0  0.47967938668E+02 -0.37332184143E+02 -0.11838191964E+01  0.60794872655E+02  0.51100000000E-03 0. -1.
         23    2    1    0    0    0  0.23226300538E+02 -0.19792433686E+02 -0.10829332177E+02  0.92619822371E+02  0.86775316725E+02 0.  0.
         11    1    3    3    0    0 -0.24741638131E+02  0.17539750457E+02 -0.96455129808E+01  0.31824949716E+02  0.51100000000E-03 0.  1.
         22    1    1    0    0    0 -0.23226300538E+02  0.19792433686E+02  0.10829332177E+02  0.32380177629E+02  0.00000000000E+00 0. -1.
</event>
<event>
 5    1  0.8962782E-005  0.9118800E+02  0.7818608E-02  0.1130116E+00
         25   -1    0    0    0    0  0.00000000000E+00  0.00000000000E+00  0.99999998245E-14  0.12500000000E+03  0.12500000000E+03 0.  0.
        -11    1    3    3    0    0 -0.15640663032E+02  0.32535802301E+02  0.60601690039E+01  0.36605114671E+02  0.51100000000E-03 0.  1.
         23    2    1    0    0    0  0.96370092319E+00 -0.15103080531E+02 -0.24946805814E+02  0.95821671033E+02  0.91271122259E+02 0.  0.
         11    1    3    3    0    0  0.16604363955E+02 -0.47638882832E+02 -0.31006974818E+02  0.59216556362E+02  0.51100000000E-03 0. -1.
         22    1    1    0    0    0 -0.96370092319E+00  0.15103080531E+02  0.24946805814E+02  0.29178328967E+02  0.00000000000E+00 0. -1.
</event>
<event>
 5    1  0.8962782E-005  0.9118800E+02  0.7818608E-02  0.1130116E+00
         25   -1    0    0    0    0  0.00000000000E+00  0.00000000000E+00  0.99999998245E-14  0.12500000000E+03  0.12500000000E+03 0.  0.
        -11    1    3    3    0    0 -0.17463407847E+02 -0.31895484409E+02  0.37751130942E+02  0.52416032156E+02  0.51100000000E-03 0. -1.
         23    2    1    0    0    0  0.18624154502E+01 -0.30053445696E+02 -0.25359889320E-01  0.94888891873E+02  0.89984570723E+02 0.  0.
         11    1    3    3    0    0  0.19325823297E+02  0.18420387123E+01 -0.37776490831E+02  0.42472859717E+02  0.51100000000E-03 0.  1.
         22    1    1    0    0    0 -0.18624154502E+01  0.30053445696E+02  0.25359889320E-01  0.30111108127E+02  0.00000000000E+00 0. -1.
</event>
<event>
 5    1  0.8962782E-005  0.9118800E+02  0.7818608E-02  0.1130116E+00
         25   -1    0    0    0    0  0.00000000000E+00  0.00000000000E+00  0.99999998245E-14  0.12500000000E+03  0.12500000000E+03 0.  0.
        -11    1    3    3    0    0  0.12418014276E+02  0.28848461404E+01 -0.35735311323E+02  0.37941295331E+02  0.51100000000E-03 0. -1.
         23    2    1    0    0    0  0.25637937661E+01 -0.46346495393E+01  0.24753035572E+02  0.99686648091E+02  0.96419199451E+02 0.  0.
         11    1    3    3    0    0 -0.98542205101E+01 -0.75194956797E+01  0.60488346895E+02  0.61745352760E+02  0.51100000000E-03 0.  1.
         22    1    1    0    0    0 -0.25637937661E+01  0.46346495393E+01 -0.24753035572E+02  0.25313351909E+02  0.00000000000E+00 0.  1.
</event>
<event>
 5    1  0.8962782E-005  0.9118800E+02  0.7818608E-02  0.1130116E+00
         25   -1    0    0    0    0  0.00000000000E+00  0.00000000000E+00  0.99999998245E-14  0.12500000000E+03  0.12500000000E+03 0.  0.
        -11    1    3    3    0    0 -0.18641466413E+02 -0.48187760198E+02  0.11784127903E+02  0.52994624007E+02  0.51100000000E-03 0.  1.
         23    2    1    0    0    0  0.55623670627E+01 -0.16006683207E+02  0.24490031640E+02  0.95218873689E+02  0.90441795771E+02 0.  0.
         11    1    3    3    0    0  0.24203833476E+02  0.32181076991E+02  0.12705903737E+02  0.42224249683E+02  0.51100000000E-03 0. -1.
         22    1    1    0    0    0 -0.55623670627E+01  0.16006683207E+02 -0.24490031640E+02  0.29781126311E+02  0.00000000000E+00 0. -1.
</event>
<event>
 5    1  0.8962782E-005  0.9118800E+02  0.7818608E-02  0.1130116E+00
         25   -1    0    0    0    0  0.00000000000E+00  0.00000000000E+00  0.99999998245E-14  0.12500000000E+03  0.12500000000E+03 0.  0.
        -11    1    3    3    0    0 -0.15389193480E+01 -0.11583948618E+02 -0.31307147558E+02  0.33416966152E+02  0.51100000000E-03 0.  1.
         23    2    1    0    0    0 -0.30496775234E+01  0.20994108368E+02  0.21058749550E+02  0.95108127329E+02  0.90288603003E+02 0.  0.
         11    1    3    3    0    0 -0.15107581754E+01  0.32578056985E+02  0.52365897108E+02  0.61691161177E+02  0.51100000000E-03 0. -1.
         22    1    1    0    0    0  0.30496775234E+01 -0.20994108368E+02 -0.21058749550E+02  0.29891872671E+02  0.00000000000E+00 0. -1.
</event>
<event>
 5    1  0.8962782E-005  0.9118800E+02  0.7818608E-02  0.1130116E+00
         25   -1    0    0    0    0  0.00000000000E+00  0.00000000000E+00  0.99999998245E-14  0.12500000000E+03  0.12500000000E+03 0.  0.
        -11    1    3    3    0    0  0.26275091765E+02 -0.21886726427E+02  0.48286380926E+02  0.59169112078E+02  0.51100000000E-03 0. -1.
         23    2    1    0    0    0  0.10458551326E+02 -0.22950673496E+02  0.16015251372E+02  0.95123537923E+02  0.90309935670E+02 0.  0.
         11    1    3    3    0    0 -0.15816540439E+02 -0.10639470692E+01 -0.32271129554E+02  0.35954425844E+02  0.51100000000E-03 0.  1.
         22    1    1    0    0    0 -0.10458551326E+02  0.22950673496E+02 -0.16015251372E+02  0.29876462077E+02  0.00000000000E+00 0. -1.
</event>
<event>
 5    1  0.8962782E-005  0.9118800E+02  0.7818608E-02  0.1130116E+00
         25   -1    0    0    0    0  0.00000000000E+00  0.00000000000E+00  0.99999998245E-14  0.12500000000E+03  0.12500000000E+03 0.  0.
        -11    1    3    3    0    0 -0.35760662355E+02  0.25007736751E+02  0.24642656328E+01  0.43706801242E+02  0.51100000000E-03 0. -1.
         23    2    1    0    0    0 -0.75077576466E+01  0.49764573798E+01  0.33560372353E+02  0.90251904434E+02  0.83294514277E+02 0.  0.
         11    1    3    3    0    0  0.28252904709E+02 -0.20031279371E+02  0.31096106721E+02  0.46545103192E+02  0.51100000000E-03 0.  1.
         22    1    1    0    0    0  0.75077576466E+01 -0.49764573798E+01 -0.33560372353E+02  0.34748095566E+02  0.00000000000E+00 0.  1.
</event>
<event>
 5    1  0.8962782E-005  0.9118800E+02  0.7818608E-02  0.1130116E+00
         25   -1    0    0    0    0  0.00000000000E+00  0.00000000000E+00  0.99999998245E-14  0.12500000000E+03  0.12500000000E+03 0.  0.
        -11    1    3    3    0    0 -0.96147867202E+01  0.89684164608E+01  0.58426667678E+02  0.59887829429E+02  0.51100000000E-03 0.  1.
         23    2    1    0    0    0 -0.67462691489E+01  0.16320165925E+02  0.24025896475E+02  0.95182158618E+02  0.90391037468E+02 0.  0.
         11    1    3    3    0    0  0.28685175713E+01  0.73517494645E+01 -0.34400771204E+02  0.35294329189E+02  0.51100000000E-03 0. -1.
         22    1    1    0    0    0  0.67462691489E+01 -0.16320165925E+02 -0.24025896475E+02  0.29817841382E+02  0.00000000000E+00 0.  1.
</event>
<event>
 5    1  0.8962782E-005  0.9118800E+02  0.7818608E-02  0.1130116E+00
         25   -1    0    0    0    0  0.00000000000E+00  0.00000000000E+00  0.99999998245E-14  0.12500000000E+03  0.12500000000E+03 0.  0.
        -11    1    3    3    0    0 -0.79243137648E+01  0.32780340386E+02  0.44047585056E+02  0.55475537077E+02  0.51100000000E-03 0.  1.
         23    2    1    0    0    0 -0.93931876780E+01  0.30117994681E+02  0.69535310787E+01  0.92694007169E+02  0.86882114340E+02 0.  0.
         11    1    3    3    0    0 -0.14688739133E+01 -0.26623457049E+01 -0.37094053977E+02  0.37218470092E+02  0.51100000000E-03 0. -1.
         22    1    1    0    0    0  0.93931876780E+01 -0.30117994681E+02 -0.69535310787E+01  0.32305992831E+02  0.00000000000E+00 0. -1.
</event>
<event>
 5    1  0.8962782E-005  0.9118800E+02  0.7818608E-02  0.1130116E+00
         25   -1    0    0    0    0  0.00000000000E+00  0.00000000000E+00  0.99999998245E-14  0.12500000000E+03  0.12500000000E+03 0.  0.
        -11    1    3    3    0    0  0.38252474388E+01  0.45828269765E+02  0.33433781019E+02  0.56856666637E+02  0.51100000000E-03 0.  1.
         23    2    1    0    0    0  0.96521529416E+01  0.11782338887E+02  0.29729824953E+02  0.91595658100E+02  0.85287247141E+02 0.  0.
         11    1    3    3    0    0  0.58269055028E+01 -0.34045930878E+02 -0.37039560654E+01  0.34738991463E+02  0.51100000000E-03 0. -1.
         22    1    1    0    0    0 -0.96521529416E+01 -0.11782338887E+02 -0.29729824953E+02  0.33404341900E+02  0.00000000000E+00 0.  1.
</event>
<event>
 5    1  0.8962782E-005  0.9118800E+02  0.7818608E-02  0.1130116E+00
         25   -1    0    0    0    0  0.00000000000E+00  0.00000000000E+00  0.99999998245E-14  0.12500000000E+03  0.12500000000E+03 0.  0.
        -11    1    3    3    0    0  0.45392856300E+02 -0.47888010690E+01  0.26121495496E+02  0.52590650747E+02  0.51100000000E-03 0.  1.
         23    2    1    0    0    0  0.15857599857E+02 -0.17714228985E+02 -0.83615023037E+01  0.99797379054E+02  0.96562646834E+02 0.  0.
         11    1    3    3    0    0 -0.29535256443E+02 -0.12925427916E+02 -0.34482997800E+02  0.47206728307E+02  0.51100000000E-03 0. -1.
         22    1    1    0    0    0 -0.15857599857E+02  0.17714228985E+02  0.83615023037E+01  0.25202620946E+02  0.00000000000E+00 0.  1.
</event>
<event>
 5    1  0.8962782E-005  0.9118800E+02  0.7818608E-02  0.1130116E+00
         25   -1    0    0    0    0  0.00000000000E+00  0.00000000000E+00  0.99999998245E-14  0.12500000000E+03  0.12500000000E+03 0.  0.
        -11    1    3    3    0    0  0.35691383620E+02 -0.15412652653E+02  0.23970398075E+02  0.45672800557E+02  0.51100000000E-03 0.  1.
         23    2    1    0    0    0  0.18943161099E+02  0.21794483617E+02 -0.49727824759E+01  0.95698610373E+02  0.91102429129E+02 0.  0.
         11    1    3    3    0    0 -0.16748222522E+02  0.37207136271E+02 -0.28943180551E+02  0.50025809816E+02  0.51100000000E-03 0. -1.
         22    1    1    0    0    0 -0.18943161099E+02 -0.21794483617E+02  0.49727824759E+01  0.29301389627E+02  0.00000000000E+00 0. -1.
</event>
<event>
 5    1  0.8962782E-005  0.9118800E+02  0.7818608E-02  0.1130116E+00
         25   -1    0    0    0    0  0.00000000000E+00  0.00000000000E+00  0.99999998245E-14  0.12500000000E+03  0.12500000000E+03 0.  0.
        -11    1    3    3    0    0  0.39102631438E+02 -0.35373716193E+02 -0.17072300362E+02  0.55423632348E+02  0.51100000000E-03 0. -1.
         23    2    1    0    0    0  0.32567572261E+01 -0.21721281597E+02 -0.21778568953E+02  0.94069002481E+02  0.88838339811E+02 0.  0.
         11    1    3    3    0    0 -0.35845874212E+02  0.13652434596E+02 -0.47062685915E+01  0.38645370133E+02  0.51100000000E-03 0.  1.
         22    1    1    0    0    0 -0.32567572261E+01  0.21721281597E+02  0.21778568953E+02  0.30930997519E+02  0.00000000000E+00 0. -1.
</event>
<event>
 5    1  0.8962782E-005  0.9118800E+02  0.7818608E-02  0.1130116E+00
         25   -1    0    0    0    0  0.00000000000E+00  0.00000000000E+00  0.99999998245E-14  0.12500000000E+03  0.12500000000E+03 0.  0.
        -11    1    3    3    0    0  0.26713561727E+02 -0.26847258644E+02 -0.50801661818E+00  0.37876744289E+02  0.51100000000E-03 0.  1.
         23    2    1    0    0    0  0.50529867321E+01  0.22677458909E+02 -0.18979060955E+02  0.94999923796E+02  0.90138676211E+02 0.  0.
         11    1    3    3    0    0 -0.21660574995E+02  0.49524717553E+02 -0.18471044337E+02  0.57123179507E+02  0.51100000000E-03 0. -1.
         22    1    1    0    0    0 -0.50529867321E+01 -0.22677458909E+02  0.18979060955E+02  0.30000076204E+02  0.00000000000E+00 0. -1.
</event>
<event>
 5    1  0.8962782E-005  0.9118800E+02  0.7818608E-02  0.1130116E+00
         25   -1    0    0    0    0  0.00000000000E+00  0.00000000000E+00  0.99999998245E-14  0.12500000000E+03  0.12500000000E+03 0.  0.
        -11    1    3    3    0    0 -0.17732628515E+02 -0.16194351260E+02 -0.15509277039E+02  0.28587423832E+02  0.51100000000E-03 0.  1.
         23    2    1    0    0    0  0.26901191832E+02  0.19713737917E+02  0.83130596119E+01  0.90628317691E+02  0.83857494732E+02 0.  0.
         11    1    3    3    0    0  0.44633820347E+02  0.35908089177E+02  0.23822336651E+02  0.62040893859E+02  0.51100000000E-03 0. -1.
         22    1    1    0    0    0 -0.26901191832E+02 -0.19713737917E+02 -0.83130596119E+01  0.34371682309E+02  0.00000000000E+00 0. -1.
</event>
<event>
 5    1  0.8962782E-005  0.9118800E+02  0.7818608E-02  0.1130116E+00
         25   -1    0    0    0    0  0.00000000000E+00  0.00000000000E+00  0.99999998245E-14  0.12500000000E+03  0.12500000000E+03 0.  0.
        -11    1    3    3    0    0 -0.13844130005E+02 -0.48081158272E+02 -0.36717153080E+02  0.62061316832E+02  0.51100000000E-03 0.  1.
         23    2    1    0    0    0 -0.41101742718E+01 -0.21396996833E+02 -0.21939606345E+02  0.94079596823E+02  0.88853245331E+02 0.  0.
         11    1    3    3    0    0  0.97339557333E+01  0.26684161438E+02  0.14777546734E+02  0.32018279992E+02  0.51100000000E-03 0. -1.
         22    1    1    0    0    0  0.41101742718E+01  0.21396996833E+02  0.21939606345E+02  0.30920403177E+02  0.00000000000E+00 0.  1.
</event>
<event>
 5    1  0.8962782E-005  0.9118800E+02  0.7818608E-02  0.1130116E+00
         25   -1    0    0    0    0  0.00000000000E+00  0.00000000000E+00  0.99999998245E-14  0.12500000000E+03  0.12500000000E+03 0.  0.
        -11    1    3    3    0    0  0.44504156060E+02 -0.19143833168E+02 -0.33307823246E+02  0.58792153768E+02  0.51100000000E-03 0.  1.
         23    2    1    0    0    0  0.27050133300E+02  0.30118362931E+01 -0.81449594355E+01  0.96590120845E+02  0.92317550939E+02 0.  0.
         11    1    3    3    0    0 -0.17454022760E+02  0.22155669462E+02  0.25162863810E+02  0.37797967078E+02  0.51100000000E-03 0. -1.
         22    1    1    0    0    0 -0.27050133300E+02 -0.30118362931E+01  0.81449594355E+01  0.28409879155E+02  0.00000000000E+00 0.  1.
</event>
<event>
 5    1  0.8962782E-005  0.9118800E+02  0.7818608E-02  0.1130116E+00
         25   -1    0    0    0    0  0.00000000000E+00  0.00000000000E+00  0.99999998245E-14  0.12500000000E+03  0.12500000000E+03 0.  0.
        -11    1    3    3    0    0 -0.20890226327E+02 -0.24768339622E+02  0.18768006234E+02  0.37444762809E+02  0.51100000000E-03 0.  1.
         23    2    1    0    0    0 -0.27905840483E+01  0.27792304066E+01 -0.29139114888E+02  0.95595927196E+02  0.90961430283E+02 0.  0.
         11    1    3    3    0    0  0.18099642279E+02  0.27547570028E+02 -0.47907121122E+02  0.58151164387E+02  0.51100000000E-03 0. -1.
         22    1    1    0    0    0  0.27905840483E+01 -0.27792304066E+01  0.29139114888E+02  0.29404072804E+02  0.00000000000E+00 0. -1.
</event>
<event>
 5    1  0.8962782E-005  0.9118800E+02  0.7818608E-02  0.1130116E+00
         25   -1    0    0    0    0  0.00000000000E+00  0.00000000000E+00  0.99999998245E-14  0.12500000000E+03  0.12500000000E+03 0.  0.
        -11    1    3    3    0    0 -0.30394910295E+02  0.20978082177E+02 -0.51074893094E+01  0.37282931094E+02  0.51100000000E-03 0.  1.
         23    2    1    0    0    0  0.78047353865E+01 -0.24154648326E+02 -0.12201658282E+02  0.96835458551E+02  0.92649148068E+02 0.  0.
         11    1    3    3    0    0  0.38199645682E+02 -0.45132730503E+02 -0.70941689729E+01  0.59552527457E+02  0.51100000000E-03 0. -1.
         22    1    1    0    0    0 -0.78047353865E+01  0.24154648326E+02  0.12201658282E+02  0.28164541449E+02  0.00000000000E+00 0. -1.
</event>
<event>
 5    1  0.8962782E-005  0.9118800E+02  0.7818608E-02  0.1130116E+00
         25   -1    0    0    0    0  0.00000000000E+00  0.00000000000E+00  0.99999998245E-14  0.12500000000E+03  0.12500000000E+03 0.  0.
        -11    1    3    3    0    0  0.53241556161E+01 -0.39144185176E+02  0.47438846676E+02  0.61733767424E+02  0.51100000000E-03 0. -1.
         23    2    1    0    0    0  0.82408163694E+01 -0.14082909404E+02  0.22470859112E+02  0.97229891952E+02  0.93179788517E+02 0.  0.
         11    1    3    3    0    0  0.29166607533E+01  0.25061275772E+02 -0.24967987564E+02  0.35496124528E+02  0.51100000000E-03 0.  1.
         22    1    1    0    0    0 -0.82408163694E+01  0.14082909404E+02 -0.22470859112E+02  0.27770108048E+02  0.00000000000E+00 0. -1.
</event>
<event>
 5    1  0.8962782E-005  0.9118800E+02  0.7818608E-02  0.1130116E+00
         25   -1    0    0    0    0  0.00000000000E+00  0.00000000000E+00  0.99999998245E-14  0.12500000000E+03  0.12500000000E+03 0.  0.
        -11    1    3    3    0    0  0.36659738161E+02  0.37849691291E+02 -0.20360768555E+02  0.56489790487E+02  0.51100000000E-03 0.  1.
         23    2    1    0    0    0  0.46050690703E+00  0.26839580904E+02 -0.13535286602E+02  0.94937080096E+02  0.90051485408E+02 0.  0.
         11    1    3    3    0    0 -0.36199231254E+02 -0.11010110387E+02  0.68254819532E+01  0.38447289609E+02  0.51100000000E-03 0. -1.
         22    1    1    0    0    0 -0.46050690703E+00 -0.26839580904E+02  0.13535286602E+02  0.30062919904E+02  0.00000000000E+00 0.  1.
</event>
<event>
 5    1  0.8962782E-005  0.9118800E+02  0.7818608E-02  0.1130116E+00
         25   -1    0    0    0    0  0.00000000000E+00  0.00000000000E+00  0.99999998245E-14  0.12500000000E+03  0.12500000000E+03 0.  0.
        -11    1    3    3    0    0  0.36238708522E+02 -0.72071301168E+01  0.30591997699E+02  0.47969334406E+02  0.51100000000E-03 0.  1.
         23    2    1    0    0    0  0.33338910937E+01 -0.28128821455E+02  0.14713749106E+01  0.96636107982E+02  0.92379797551E+02 0.  0.
         11    1    3    3    0    0 -0.32904817428E+02 -0.20921691338E+02 -0.29120622789E+02  0.48666773576E+02  0.51100000000E-03 0. -1.
         22    1    1    0    0    0 -0.33338910937E+01  0.28128821455E+02 -0.14713749106E+01  0.28363892018E+02  0.00000000000E+00 0. -1.
</event>
<event>
 5    1  0.8962782E-005  0.9118800E+02  0.7818608E-02  0.1130116E+00
         25   -1    0    0    0    0  0.00000000000E+00  0.00000000000E+00  0.99999998245E-14  0.12500000000E+03  0.12500000000E+03 0.  0.
        -11    1    3    3    0    0 -0.18169672759E+02 -0.36481806752E+02  0.24877274198E+02  0.47748696358E+02  0.51100000000E-03 0.  1.
         23    2    1    0    0    0  0.83330996116E+01 -0.25791899624E+02 -0.12789608958E+02  0.95029402197E+02  0.90179546180E+02 0.  0.
         11    1    3    3    0    0  0.26502772370E+02  0.10689907128E+02 -0.37666883157E+02  0.47280705840E+02  0.51100000000E-03 0. -1.
         22    1    1    0    0    0 -0.83330996116E+01  0.25791899624E+02  0.12789608958E+02  0.29970597803E+02  0.00000000000E+00 0. -1.
</event>
<event>
 5    1  0.8962782E-005  0.9118800E+02  0.7818608E-02  0.1130116E+00
         25   -1    0    0    0    0  0.00000000000E+00  0.00000000000E+00  0.99999998245E-14  0.12500000000E+03  0.12500000000E+03 0.  0.
        -11    1    3    3    0    0  0.15643125526E+01 -0.25255036597E+02  0.76670403401E+01  0.26439505576E+02  0.51100000000E-03 0.  1.
         23    2    1    0    0    0 -0.13977797393E+02  0.15531959665E+02 -0.32898023252E+02  0.86026925642E+02  0.76692446894E+02 0.  0.
         11    1    3    3    0    0 -0.15542109945E+02  0.40786996262E+02 -0.40565063592E+02  0.59587420066E+02  0.51100000000E-03 0. -1.
         22    1    1    0    0    0  0.13977797393E+02 -0.15531959665E+02  0.32898023252E+02  0.38973074358E+02  0.00000000000E+00 0. -1.
</event>
<event>
 5    1  0.8962782E-005  0.9118800E+02  0.7818608E-02  0.1130116E+00
         25   -1    0    0    0    0  0.00000000000E+00  0.00000000000E+00  0.99999998245E-14  0.12500000000E+03  0.12500000000E+03 0.  0.
        -11    1    3    3    0    0  0.27938995716E+02 -0.24544193813E+02 -0.83964728760E+01  0.38124869685E+02  0.51100000000E-03 0. -1.
         23    2    1    0    0    0  0.65929831406E+01  0.28011039051E+02  0.32743084732E+01  0.96037837937E+02  0.91566694187E+02 0.  0.
         11    1    3    3    0    0 -0.21346012575E+02  0.52555232863E+02  0.11670781349E+02  0.57912968252E+02  0.51100000000E-03 0.  1.
         22    1    1    0    0    0 -0.65929831406E+01 -0.28011039051E+02 -0.32743084732E+01  0.28962162063E+02  0.00000000000E+00 0.  1.
</event>
<event>
 5    1  0.8962782E-005  0.9118800E+02  0.7818608E-02  0.1130116E+00
         25   -1    0    0    0    0  0.00000000000E+00  0.00000000000E+00  0.99999998245E-14  0.12500000000E+03  0.12500000000E+03 0.  0.
        -11    1    3    3    0    0  0.38765352088E+02 -0.36444049050E+02  0.65383141479E+01  0.53606630054E+02  0.51100000000E-03 0.  1.
         23    2    1    0    0    0 -0.29861631959E+01 -0.22792095507E+02  0.13887130218E+02  0.98143917376E+02  0.94397983792E+02 0.  0.
         11    1    3    3    0    0 -0.41751515284E+02  0.13651953543E+02  0.73488160702E+01  0.44537287321E+02  0.51100000000E-03 0. -1.
         22    1    1    0    0    0  0.29861631959E+01  0.22792095507E+02 -0.13887130218E+02  0.26856082624E+02  0.00000000000E+00 0.  1.
</event>
<event>
 5    1  0.8962782E-005  0.9118800E+02  0.7818608E-02  0.1130116E+00
         25   -1    0    0    0    0  0.00000000000E+00  0.00000000000E+00  0.99999998245E-14  0.12500000000E+03  0.12500000000E+03 0.  0.
        -11    1    3    3    0    0  0.21999022509E+01  0.19411690274E+02  0.38490198310E+02  0.43164205719E+02  0.51100000000E-03 0.  1.
         23    2    1    0    0    0 -0.25830159961E+02 -0.74678760327E+01  0.33073754812E+02  0.82375598616E+02  0.70490422427E+02 0.  0.
         11    1    3    3    0    0 -0.28030062212E+02 -0.26879566307E+02 -0.54164434977E+01  0.39211392896E+02  0.51100000000E-03 0. -1.
         22    1    1    0    0    0  0.25830159961E+02  0.74678760327E+01 -0.33073754812E+02  0.42624401384E+02  0.00000000000E+00 0. -1.
</event>
<event>
 5    1  0.8962782E-005  0.9118800E+02  0.7818608E-02  0.1130116E+00
         25   -1    0    0    0    0  0.00000000000E+00  0.00000000000E+00  0.99999998245E-14  0.12500000000E+03  0.12500000000E+03 0.  0.
        -11    1    3    3    0    0 -0.11176817107E+02  0.27483721129E+02  0.45098396354E+02  0.53982789125E+02  0.51100000000E-03 0. -1.
         23    2    1    0    0    0  0.23886785924E+01 -0.84139436044E+01  0.27390987552E+02  0.96246453585E+02  0.91851039168E+02 0.  0.
         11    1    3    3    0    0  0.13565495699E+02 -0.35897664733E+02 -0.17707408802E+02  0.42263664460E+02  0.51100000000E-03 0.  1.
         22    1    1    0    0    0 -0.23886785924E+01  0.84139436044E+01 -0.27390987552E+02  0.28753546415E+02  0.00000000000E+00 0. -1.
</event>
<event>
 5    1  0.8962782E-005  0.9118800E+02  0.7818608E-02  0.1130116E+00
         25   -1    0    0    0    0  0.00000000000E+00  0.00000000000E+00  0.99999998245E-14  0.12500000000E+03  0.12500000000E+03 0.  0.
        -11    1    3    3    0    0  0.20403839590E+02 -0.26510370588E+02 -0.42033559413E+02  0.53720913394E+02  0.51100000000E-03 0. -1.
         23    2    1    0    0    0  0.78584733501E+01 -0.33178994162E+02 -0.89172049084E+01  0.89756308361E+02  0.82547423280E+02 0.  0.
         11    1    3    3    0    0 -0.12545366240E+02 -0.66686235737E+01  0.33116354505E+02  0.36035394967E+02  0.51100000000E-03 0.  1.
         22    1    1    0    0    0 -0.78584733501E+01  0.33178994162E+02  0.89172049084E+01  0.35243691639E+02  0.00000000000E+00 0. -1.
</event>
<event>
 5    1  0.8962782E-005  0.9118800E+02  0.7818608E-02  0.1130116E+00
         25   -1    0    0    0    0  0.00000000000E+00  0.00000000000E+00  0.99999998245E-14  0.12500000000E+03  0.12500000000E+03 0.  0.
        -11    1    3    3    0    0  0.11867097910E+02 -0.21386337260E+02  0.54641215702E+02  0.59865398085E+02  0.51100000000E-03 0. -1.
         23    2    1    0    0    0  0.14896868115E+02 -0.12076491446E+01  0.25559162796E+02  0.95391793385E+02  0.90680473897E+02 0.  0.
         11    1    3    3    0    0  0.30297702050E+01  0.20178688116E+02 -0.29082052905E+02  0.35526395300E+02  0.51100000000E-03 0.  1.
         22    1    1    0    0    0 -0.14896868115E+02  0.12076491446E+01 -0.25559162796E+02  0.29608206615E+02  0.00000000000E+00 0. -1.
</event>
<event>
 5    1  0.8962782E-005  0.9118800E+02  0.7818608E-02  0.1130116E+00
         25   -1    0    0    0    0  0.00000000000E+00  0.00000000000E+00  0.99999998245E-14  0.12500000000E+03  0.12500000000E+03 0.  0.
        -11    1    3    3    0    0  0.99020885690E+01  0.35823241781E+02 -0.37095966867E+02  0.52511586986E+02  0.51100000000E-03 0.  1.
         23    2    1    0    0    0  0.23840960090E+02  0.14647307560E+02 -0.52044400699E+00  0.97014184687E+02  0.92889968089E+02 0.  0.
         11    1    3    3    0    0  0.13938871521E+02 -0.21175934221E+02  0.36575522860E+02  0.44502597701E+02  0.51100000000E-03 0. -1.
         22    1    1    0    0    0 -0.23840960090E+02 -0.14647307560E+02  0.52044400699E+00  0.27985815313E+02  0.00000000000E+00 0.  1.
</event>
<event>
 5    1  0.8962782E-005  0.9118800E+02  0.7818608E-02  0.1130116E+00
         25   -1    0    0    0    0  0.00000000000E+00  0.00000000000E+00  0.99999998245E-14  0.12500000000E+03  0.12500000000E+03 0.  0.
        -11    1    3    3    0    0 -0.24406820870E+02 -0.24726466081E+02 -0.40869881155E+02  0.53641758134E+02  0.51100000000E-03 0. -1.
         23    2    1    0    0    0  0.11394530576E+02 -0.82800321896E+01 -0.25375739384E+02  0.95977208794E+02  0.91483890377E+02 0.  0.
         11    1    3    3    0    0  0.35801351446E+02  0.16446433891E+02  0.15494141771E+02  0.42335450660E+02  0.51100000000E-03 0.  1.
         22    1    1    0    0    0 -0.11394530576E+02  0.82800321896E+01  0.25375739384E+02  0.29022791206E+02  0.00000000000E+00 0.  1.
</event>
<event>
 5    1  0.8962782E-005  0.9118800E+02  0.7818608E-02  0.1130116E+00
         25   -1    0    0    0    0  0.00000000000E+00  0.00000000000E+00  0.99999998245E-14  0.12500000000E+03  0.12500000000E+03 0.  0.
        -11    1    3    3    0    0 -0.27601898399E+02 -0.75611910782E+01 -0.45401869620E+02  0.53669042948E+02  0.51100000000E-03 0. -1.
         23    2    1    0    0    0 -0.96449548305E+01 -0.25097482875E+02 -0.11731473341E+02  0.95665101550E+02  0.91056440670E+02 0.  0.
         11    1    3    3    0    0  0.17956943568E+02 -0.17536291796E+02  0.33670396279E+02  0.41996058602E+02  0.51100000000E-03 0.  1.
         22    1    1    0    0    0  0.96449548305E+01  0.25097482875E+02  0.11731473341E+02  0.29334898450E+02  0.00000000000E+00 0. -1.
</event>
<event>
 5    1  0.8962782E-005  0.9118800E+02  0.7818608E-02  0.1130116E+00
         25   -1    0    0    0    0  0.00000000000E+00  0.00000000000E+00  0.99999998245E-14  0.12500000000E+03  0.12500000000E+03 0.  0.
        -11    1    3    3    0    0 -0.13010097855E+02 -0.29783685595E+02  0.26015876745E+02  0.41631195237E+02  0.51100000000E-03 0.  1.
         23    2    1    0    0    0  0.19174054441E+02  0.14675264810E+02  0.10519912785E+02  0.98662264221E+02  0.95081891310E+02 0.  0.
         11    1    3    3    0    0  0.32184152297E+02  0.44458950405E+02 -0.15495963959E+02  0.57031068984E+02  0.51100000000E-03 0. -1.
         22    1    1    0    0    0 -0.19174054441E+02 -0.14675264810E+02 -0.10519912785E+02  0.26337735779E+02  0.00000000000E+00 0. -1.
</event>
<event>
 5    1  0.8962782E-005  0.9118800E+02  0.7818608E-02  0.1130116E+00
         25   -1    0    0    0    0  0.00000000000E+00  0.00000000000E+00  0.99999998245E-14  0.12500000000E+03  0.12500000000E+03 0.  0.
        -11    1    3    3    0    0  0.41887615733E+02 -0.21565131230E+02 -0.94530904645E+01  0.48051931869E+02  0.51100000000E-03 0.  1.
         23    2    1    0    0    0  0.62929174155E+01  0.10995668812E+02 -0.23505297594E+02  0.98297854820E+02  0.94601605193E+02 0.  0.
         11    1    3    3    0    0 -0.35594698318E+02  0.32560800042E+02 -0.14052207130E+02  0.50245922951E+02  0.51100000000E-03 0. -1.
         22    1    1    0    0    0 -0.62929174155E+01 -0.10995668812E+02  0.23505297594E+02  0.26702145180E+02  0.00000000000E+00 0.  1.
</event>
<event>
 5    1  0.8962782E-005  0.9118800E+02  0.7818608E-02  0.1130116E+00
         25   -1    0    0    0    0  0.00000000000E+00  0.00000000000E+00  0.99999998245E-14  0.12500000000E+03  0.12500000000E+03 0.  0.
        -11    1    3    3    0    0 -0.26810893804E+02  0.44627683738E+02 -0.32318166205E+02  0.61277386118E+02  0.51100000000E-03 0. -1.
         23    2    1    0    0    0 -0.13724328798E+02  0.12758251734E+02 -0.19281307462E+02  0.98113218755E+02  0.94357324511E+02 0.  0.
         11    1    3    3    0    0  0.13086565006E+02 -0.31869432003E+02  0.13036858744E+02  0.36835832637E+02  0.51100000000E-03 0.  1.
         22    1    1    0    0    0  0.13724328798E+02 -0.12758251734E+02  0.19281307462E+02  0.26886781245E+02  0.00000000000E+00 0. -1.
</event>
<event>
 5    1  0.8962782E-005  0.9118800E+02  0.7818608E-02  0.1130116E+00
         25   -1    0    0    0    0  0.00000000000E+00  0.00000000000E+00  0.99999998245E-14  0.12500000000E+03  0.12500000000E+03 0.  0.
        -11    1    3    3    0    0  0.64343263547E+00 -0.30699947565E+02 -0.24397052318E+02  0.39218834100E+02  0.51100000000E-03 0. -1.
         23    2    1    0    0    0 -0.25005296348E+02  0.13405863438E+02  0.17962665955E+01  0.96570990281E+02  0.92291644097E+02 0.  0.
         11    1    3    3    0    0 -0.25648728983E+02  0.44105811003E+02  0.26193318914E+02  0.57352156181E+02  0.51100000000E-03 0.  1.
         22    1    1    0    0    0  0.25005296348E+02 -0.13405863438E+02 -0.17962665955E+01  0.28429009719E+02  0.00000000000E+00 0.  1.
</event>
<event>
 5    1  0.8962782E-005  0.9118800E+02  0.7818608E-02  0.1130116E+00
         25   -1    0    0    0    0  0.00000000000E+00  0.00000000000E+00  0.99999998245E-14  0.12500000000E+03  0.12500000000E+03 0.  0.
        -11    1    3    3    0    0 -0.24653328671E+01  0.21504993475E+02  0.41410827509E+02  0.46726857863E+02  0.51100000000E-03 0.  1.
         23    2    1    0    0    0  0.27538520100E+02  0.14096377308E+01  0.71304336726E+01  0.96518422583E+02  0.92220418811E+02 0.  0.
         11    1    3    3    0    0  0.30003852967E+02 -0.20095355744E+02 -0.34280393837E+02  0.49791564719E+02  0.51100000000E-03 0. -1.
         22    1    1    0    0    0 -0.27538520100E+02 -0.14096377308E+01 -0.71304336726E+01  0.28481577417E+02  0.00000000000E+00 0. -1.
</event>
<event>
 5    1  0.8962782E-005  0.9118800E+02  0.7818608E-02  0.1130116E+00
         25   -1    0    0    0    0  0.00000000000E+00  0.00000000000E+00  0.99999998245E-14  0.12500000000E+03  0.12500000000E+03 0.  0.
        -11    1    3    3    0    0 -0.27055067981E+02  0.40520240497E+01  0.36508766234E+02  0.45621109308E+02  0.51100000000E-03 0.  1.
         23    2    1    0    0    0 -0.11235958545E+02  0.25181294752E+02 -0.70370209935E+01  0.96541889833E+02  0.92252221969E+02 0.  0.
         11    1    3    3    0    0  0.15819109436E+02  0.21129270702E+02 -0.43545787227E+02  0.50920780525E+02  0.51100000000E-03 0. -1.
         22    1    1    0    0    0  0.11235958545E+02 -0.25181294752E+02  0.70370209935E+01  0.28458110167E+02  0.00000000000E+00 0.  1.
</event>
<event>
 5    1  0.8962782E-005  0.9118800E+02  0.7818608E-02  0.1130116E+00
         25   -1    0    0    0    0  0.00000000000E+00  0.00000000000E+00  0.99999998245E-14  0.12500000000E+03  0.12500000000E+03 0.  0.
        -11    1    3    3    0    0  0.39881623387E+02  0.47286259951E+02 -0.44723113998E+00  0.61860603619E+02  0.51100000000E-03 0.  1.
         23    2    1    0    0    0  0.17888291598E+02  0.22265364779E+02 -0.64740521316E+01  0.95714324388E+02  0.91123987495E+02 0.  0.
         11    1    3    3    0    0 -0.21993331789E+02 -0.25020895172E+02 -0.60268209916E+01  0.33853720769E+02  0.51100000000E-03 0. -1.
         22    1    1    0    0    0 -0.17888291598E+02 -0.22265364779E+02  0.64740521316E+01  0.29285675612E+02  0.00000000000E+00 0.  1.
</event>
<event>
 5    1  0.8962782E-005  0.9118800E+02  0.7818608E-02  0.1130116E+00
         25   -1    0    0    0    0  0.00000000000E+00  0.00000000000E+00  0.99999998245E-14  0.12500000000E+03  0.12500000000E+03 0.  0.
        -11    1    3    3    0    0  0.28434440865E+02 -0.47253045360E+02 -0.54167028708E+01  0.55413972907E+02  0.51100000000E-03 0.  1.
         23    2    1    0    0    0  0.10898399592E+01 -0.21597888024E+02 -0.19902215725E+02  0.95610295867E+02  0.90981173694E+02 0.  0.
         11    1    3    3    0    0 -0.27344600906E+02  0.25655157335E+02 -0.14485512855E+02  0.40196322960E+02  0.51100000000E-03 0. -1.
         22    1    1    0    0    0 -0.10898399592E+01  0.21597888024E+02  0.19902215725E+02  0.29389704133E+02  0.00000000000E+00 0.  1.
</event>
<event>
 5    1  0.8962782E-005  0.9118800E+02  0.7818608E-02  0.1130116E+00
         25   -1    0    0    0    0  0.00000000000E+00  0.00000000000E+00  0.99999998245E-14  0.12500000000E+03  0.12500000000E+03 0.  0.
        -11    1    3    3    0    0 -0.11534939655E+02 -0.14939229437E+02 -0.10346946173E+02  0.21524281739E+02  0.51100000000E-03 0. -1.
         23    2    1    0    0    0  0.18252844289E+02  0.37965279531E+02 -0.18061649832E+01  0.82836140992E+02  0.71302421053E+02 0.  0.
         11    1    3    3    0    0  0.29787783944E+02  0.52904508968E+02  0.85407811897E+01  0.61311859253E+02  0.51100000000E-03 0.  1.
         22    1    1    0    0    0 -0.18252844289E+02 -0.37965279531E+02  0.18061649832E+01  0.42163859008E+02  0.00000000000E+00 0.  1.
</event>
<event>
 5    1  0.8962782E-005  0.9118800E+02  0.7818608E-02  0.1130116E+00
         25   -1    0    0    0    0  0.00000000000E+00  0.00000000000E+00  0.99999998245E-14  0.12500000000E+03  0.12500000000E+03 0.  0.
        -11    1    3    3    0    0  0.18630600012E+02 -0.42105167602E+02 -0.32573522163E+02  0.56400166152E+02  0.51100000000E-03 0.  1.
         23    2    1    0    0    0  0.24201077839E+02 -0.75271039693E+01 -0.14090488016E+02  0.96001873935E+02  0.91517585653E+02 0.  0.
         11    1    3    3    0    0  0.55704778277E+01  0.34578063633E+02  0.18483034147E+02  0.39601707783E+02  0.51100000000E-03 0. -1.
         22    1    1    0    0    0 -0.24201077839E+02  0.75271039693E+01  0.14090488016E+02  0.28998126065E+02  0.00000000000E+00 0.  1.
</event>
<event>
 5    1  0.8962782E-005  0.9118800E+02  0.7818608E-02  0.1130116E+00
         25   -1    0    0    0    0  0.00000000000E+00  0.00000000000E+00  0.99999998245E-14  0.12500000000E+03  0.12500000000E+03 0.  0.
        -11    1    3    3    0    0  0.31184968249E+02 -0.26415874207E+02 -0.34850451190E+02  0.53710842511E+02  0.51100000000E-03 0.  1.
         23    2    1    0    0    0 -0.80658865421E+01 -0.31143872535E+01  0.55978535319E+01  0.11469981079E+03  0.11423638955E+03 0.  0.
         11    1    3    3    0    0 -0.39250854791E+02  0.23301486954E+02  0.40448304722E+02  0.60988968275E+02  0.51100000000E-03 0. -1.
         22    1    1    0    0    0  0.80658865421E+01  0.31143872535E+01 -0.55978535319E+01  0.10300189214E+02  0.00000000000E+00 0. -1.
</event>
<event>
 5    1  0.8962782E-005  0.9118800E+02  0.7818608E-02  0.1130116E+00
         25   -1    0    0    0    0  0.00000000000E+00  0.00000000000E+00  0.99999998245E-14  0.12500000000E+03  0.12500000000E+03 0.  0.
        -11    1    3    3    0    0  0.10577038483E+02 -0.47376501693E+02 -0.25549462869E+02  0.54856008868E+02  0.51100000000E-03 0. -1.
         23    2    1    0    0    0 -0.51153215458E+01 -0.90067390072E+01 -0.26736041750E+02  0.96327647629E+02  0.91961469688E+02 0.  0.
         11    1    3    3    0    0 -0.15692360029E+02  0.38369762686E+02 -0.11865788805E+01  0.41471638761E+02  0.51100000000E-03 0.  1.
         22    1    1    0    0    0  0.51153215458E+01  0.90067390072E+01  0.26736041750E+02  0.28672352371E+02  0.00000000000E+00 0. -1.
</event>
<event>
 5    1  0.8962782E-005  0.9118800E+02  0.7818608E-02  0.1130116E+00
         25   -1    0    0    0    0  0.00000000000E+00  0.00000000000E+00  0.99999998245E-14  0.12500000000E+03  0.12500000000E+03 0.  0.
        -11    1    3    3    0    0 -0.21725196390E+02  0.27267613824E+02  0.21182223472E+02  0.40794527982E+02  0.51100000000E-03 0. -1.
         23    2    1    0    0    0  0.68682987647E+01 -0.30486670661E+01  0.38390481756E+02  0.85880989426E+02  0.76454217389E+02 0.  0.
         11    1    3    3    0    0  0.28593495154E+02 -0.30316280890E+02  0.17208258284E+02  0.45086461444E+02  0.51100000000E-03 0.  1.
         22    1    1    0    0    0 -0.68682987647E+01  0.30486670661E+01 -0.38390481756E+02  0.39119010574E+02  0.00000000000E+00 0.  1.
</event>
<event>
 5    1  0.8962782E-005  0.9118800E+02  0.7818608E-02  0.1130116E+00
         25   -1    0    0    0    0  0.00000000000E+00  0.00000000000E+00  0.99999998245E-14  0.12500000000E+03  0.12500000000E+03 0.  0.
        -11    1    3    3    0    0  0.27010293634E+02 -0.21285937439E+02  0.93380591984E+00  0.34402312257E+02  0.51100000000E-03 0.  1.
         23    2    1    0    0    0 -0.24606369710E+02  0.98351373571E+01  0.12378943108E+02  0.95752066917E+02  0.91175746387E+02 0.  0.
         11    1    3    3    0    0 -0.51616663345E+02  0.31121074796E+02  0.11445137189E+02  0.61349754660E+02  0.51100000000E-03 0. -1.
         22    1    1    0    0    0  0.24606369710E+02 -0.98351373571E+01 -0.12378943108E+02  0.29247933083E+02  0.00000000000E+00 0. -1.
</event>
<event>
 5    1  0.8962782E-005  0.9118800E+02  0.7818608E-02  0.1130116E+00
         25   -1    0    0    0    0  0.00000000000E+00  0.00000000000E+00  0.99999998245E-14  0.12500000000E+03  0.12500000000E+03 0.  0.
        -11    1    3    3    0    0  0.16608817966E+02 -0.46010423562E+02  0.87534634039E+01  0.49693410352E+02  0.51100000000E-03 0. -1.
         23    2    1    0    0    0 -0.12977489189E+02 -0.16850749153E+02 -0.16299226292E+02  0.98203960173E+02  0.94477457858E+02 0.  0.
         11    1    3    3    0    0 -0.29586307156E+02  0.29159674408E+02 -0.25052689696E+02  0.48510549821E+02  0.51100000000E-03 0.  1.
         22    1    1    0    0    0  0.12977489189E+02  0.16850749153E+02  0.16299226292E+02  0.26796039827E+02  0.00000000000E+00 0. -1.
</event>
<event>
 5    1  0.8962782E-005  0.9118800E+02  0.7818608E-02  0.1130116E+00
         25   -1    0    0    0    0  0.00000000000E+00  0.00000000000E+00  0.99999998245E-14  0.12500000000E+03  0.12500000000E+03 0.  0.
        -11    1    3    3    0    0 -0.35499735334E+02 -0.91816476283E+01  0.53686108432E+01  0.37058816017E+02  0.51100000000E-03 0.  1.
         23    2    1    0    0    0  0.16298974977E+02 -0.16181584864E+02 -0.19433371503E+02  0.94914186034E+02  0.90019700669E+02 0.  0.
         11    1    3    3    0    0  0.51798710311E+02 -0.69999372361E+01 -0.24801982346E+02  0.57855370017E+02  0.51100000000E-03 0. -1.
         22    1    1    0    0    0 -0.16298974977E+02  0.16181584864E+02  0.19433371503E+02  0.30085813966E+02  0.00000000000E+00 0. -1.
</event>
<event>
 5    1  0.8962782E-005  0.9118800E+02  0.7818608E-02  0.1130116E+00
         25   -1    0    0    0    0  0.00000000000E+00  0.00000000000E+00  0.99999998245E-14  0.12500000000E+03  0.12500000000E+03 0.  0.
        -11    1    3    3    0    0  0.47879146427E+02 -0.22982644521E+02 -0.19380907232E+02  0.56535247211E+02  0.51100000000E-03 0.  1.
         23    2    1    0    0    0  0.19146052553E+02  0.82638440170E+01 -0.15210342751E+02  0.99188820776E+02  0.95771630424E+02 0.  0.
         11    1    3    3    0    0 -0.28733093874E+02  0.31246488538E+02  0.41705644812E+01  0.42653573565E+02  0.51100000000E-03 0. -1.
         22    1    1    0    0    0 -0.19146052553E+02 -0.82638440170E+01  0.15210342751E+02  0.25811179224E+02  0.00000000000E+00 0.  1.
</event>
<event>
 5    1  0.8962782E-005  0.9118800E+02  0.7818608E-02  0.1130116E+00
         25   -1    0    0    0    0  0.00000000000E+00  0.00000000000E+00  0.99999998245E-14  0.12500000000E+03  0.12500000000E+03 0.  0.
        -11    1    3    3    0    0 -0.36484543426E+02  0.81249142497E+01 -0.19600592926E+02  0.42205679521E+02  0.51100000000E-03 0. -1.
         23    2    1    0    0    0  0.46902362996E+00 -0.26621737667E+02  0.38664963007E+01  0.98094857495E+02  0.94332997269E+02 0.  0.
         11    1    3    3    0    0  0.36953567056E+02 -0.34746651917E+02  0.23467089226E+02  0.55889177974E+02  0.51100000000E-03 0.  1.
         22    1    1    0    0    0 -0.46902362996E+00  0.26621737667E+02 -0.38664963007E+01  0.26905142505E+02  0.00000000000E+00 0.  1.
</event>
<event>
 5    1  0.8962782E-005  0.9118800E+02  0.7818608E-02  0.1130116E+00
         25   -1    0    0    0    0  0.00000000000E+00  0.00000000000E+00  0.99999998245E-14  0.12500000000E+03  0.12500000000E+03 0.  0.
        -11    1    3    3    0    0  0.15388185841E+02 -0.58584448501E+02  0.60446397482E+01  0.60872584466E+02  0.51100000000E-03 0. -1.
         23    2    1    0    0    0 -0.10663795289E+01 -0.35370373336E+02  0.35436635230E+01  0.89436563349E+02  0.82061811078E+02 0.  0.
         11    1    3    3    0    0 -0.16454565370E+02  0.23214075165E+02 -0.25009762251E+01  0.28563978883E+02  0.51100000000E-03 0.  1.
         22    1    1    0    0    0  0.10663795289E+01  0.35370373336E+02 -0.35436635230E+01  0.35563436651E+02  0.00000000000E+00 0. -1.
</event>
<event>
 5    1  0.8962782E-005  0.9118800E+02  0.7818608E-02  0.1130116E+00
         25   -1    0    0    0    0  0.00000000000E+00  0.00000000000E+00  0.99999998245E-14  0.12500000000E+03  0.12500000000E+03 0.  0.
        -11    1    3    3    0    0  0.37285628751E+01 -0.18163364543E+02 -0.31005973508E+02  0.36127280358E+02  0.51100000000E-03 0.  1.
         23    2    1    0    0    0  0.16629866897E+02 -0.21865043609E+01  0.24499059505E+02  0.95309308008E+02  0.90566699189E+02 0.  0.
         11    1    3    3    0    0  0.12901304022E+02  0.15976860182E+02  0.55505033013E+02  0.59182027650E+02  0.51100000000E-03 0. -1.
         22    1    1    0    0    0 -0.16629866897E+02  0.21865043609E+01 -0.24499059505E+02  0.29690691992E+02  0.00000000000E+00 0. -1.
</event>
<event>
 5    1  0.8962782E-005  0.9118800E+02  0.7818608E-02  0.1130116E+00
         25   -1    0    0    0    0  0.00000000000E+00  0.00000000000E+00  0.99999998245E-14  0.12500000000E+03  0.12500000000E+03 0.  0.
        -11    1    3    3    0    0 -0.17924132013E+02  0.24112966624E+02  0.16650125220E+02  0.34350201425E+02  0.51100000000E-03 0.  1.
         23    2    1    0    0    0  0.27596955962E+02 -0.12855911363E+02  0.47527205073E+01  0.94186775769E+02  0.89003898466E+02 0.  0.
         11    1    3    3    0    0  0.45521087975E+02 -0.36968877987E+02 -0.11897404712E+02  0.59836574343E+02  0.51100000000E-03 0. -1.
         22    1    1    0    0    0 -0.27596955962E+02  0.12855911363E+02 -0.47527205073E+01  0.30813224231E+02  0.00000000000E+00 0. -1.
</event>
<event>
 5    1  0.8962782E-005  0.9118800E+02  0.7818608E-02  0.1130116E+00
         25   -1    0    0    0    0  0.00000000000E+00  0.00000000000E+00  0.99999998245E-14  0.12500000000E+03  0.12500000000E+03 0.  0.
        -11    1    3    3    0    0 -0.68107297074E+00 -0.39210789866E+02 -0.36580729314E+02  0.53629279873E+02  0.51100000000E-03 0.  1.
         23    2    1    0    0    0 -0.91743360613E+01 -0.39505310267E+02 -0.77200556150E+01  0.83715169370E+02  0.72827140151E+02 0.  0.
         11    1    3    3    0    0 -0.84932630906E+01 -0.29452040068E+00  0.28860673699E+02  0.30085889497E+02  0.51100000000E-03 0. -1.
         22    1    1    0    0    0  0.91743360613E+01  0.39505310267E+02  0.77200556150E+01  0.41284830630E+02  0.00000000000E+00 0.  1.
</event>
<event>
 5    1  0.8962782E-005  0.9118800E+02  0.7818608E-02  0.1130116E+00
         25   -1    0    0    0    0  0.00000000000E+00  0.00000000000E+00  0.99999998245E-14  0.12500000000E+03  0.12500000000E+03 0.  0.
        -11    1    3    3    0    0  0.39079241419E+02  0.46640670160E+02 -0.33596288506E+01  0.60941171052E+02  0.51100000000E-03 0.  1.
         23    2    1    0    0    0  0.23488188020E+02  0.15030056189E+02  0.36463752552E+01  0.96877169097E+02  0.92705405852E+02 0.  0.
         11    1    3    3    0    0 -0.15591053399E+02 -0.31610613971E+02  0.70060041057E+01  0.35935998045E+02  0.51100000000E-03 0. -1.
         22    1    1    0    0    0 -0.23488188020E+02 -0.15030056189E+02 -0.36463752552E+01  0.28122830903E+02  0.00000000000E+00 0.  1.
</event>
<event>
 5    1  0.8962782E-005  0.9118800E+02  0.7818608E-02  0.1130116E+00
         25   -1    0    0    0    0  0.00000000000E+00  0.00000000000E+00  0.99999998245E-14  0.12500000000E+03  0.12500000000E+03 0.  0.
        -11    1    3    3    0    0 -0.16621013388E+02  0.11942596279E+02 -0.41900785493E+02  0.46632172554E+02  0.51100000000E-03 0.  1.
         23    2    1    0    0    0 -0.56950754880E+01  0.28742243478E+02  0.27462811388E+01  0.95570550378E+02  0.90926550548E+02 0.  0.
         11    1    3    3    0    0  0.10925937900E+02  0.16799647198E+02  0.44647066632E+02  0.48938377824E+02  0.51100000000E-03 0. -1.
         22    1    1    0    0    0  0.56950754880E+01 -0.28742243478E+02 -0.27462811388E+01  0.29429449622E+02  0.00000000000E+00 0. -1.
</event>
<event>
 5    1  0.8962782E-005  0.9118800E+02  0.7818608E-02  0.1130116E+00
         25   -1    0    0    0    0  0.00000000000E+00  0.00000000000E+00  0.99999998245E-14  0.12500000000E+03  0.12500000000E+03 0.  0.
        -11    1    3    3    0    0 -0.32884799128E+02 -0.62445185688E+01 -0.10520108200E+02  0.35086702647E+02  0.51100000000E-03 0.  1.
         23    2    1    0    0    0  0.17425085180E+02  0.23946996963E+02  0.27960057430E+01  0.95252564729E+02  0.90488348323E+02 0.  0.
         11    1    3    3    0    0  0.50309884309E+02  0.30191515532E+02  0.13316113943E+02  0.60165862082E+02  0.51100000000E-03 0. -1.
         22    1    1    0    0    0 -0.17425085180E+02 -0.23946996963E+02 -0.27960057430E+01  0.29747435271E+02  0.00000000000E+00 0. -1.
</event>
<event>
 5    1  0.8962782E-005  0.9118800E+02  0.7818608E-02  0.1130116E+00
         25   -1    0    0    0    0  0.00000000000E+00  0.00000000000E+00  0.99999998245E-14  0.12500000000E+03  0.12500000000E+03 0.  0.
        -11    1    3    3    0    0 -0.35356347496E+02  0.35992684706E+01  0.28239017879E+00  0.35540199581E+02  0.51100000000E-03 0.  1.
         23    2    1    0    0    0  0.24692589552E+02  0.11030431438E+02  0.86114183006E+01  0.96617771024E+02  0.92354982302E+02 0.  0.
         11    1    3    3    0    0  0.60048937048E+02  0.74311629672E+01  0.83290281218E+01  0.61077571443E+02  0.51100000000E-03 0. -1.
         22    1    1    0    0    0 -0.24692589552E+02 -0.11030431438E+02 -0.86114183006E+01  0.28382228976E+02  0.00000000000E+00 0. -1.
</event>
<event>
 5    1  0.8962782E-005  0.9118800E+02  0.7818608E-02  0.1130116E+00
         25   -1    0    0    0    0  0.00000000000E+00  0.00000000000E+00  0.99999998245E-14  0.12500000000E+03  0.12500000000E+03 0.  0.
        -11    1    3    3    0    0  0.41806261997E+01  0.35861377511E+02  0.34801734418E+02  0.50146552735E+02  0.51100000000E-03 0. -1.
         23    2    1    0    0    0 -0.14753353876E+02 -0.56171109138E+01 -0.24496001222E+01  0.10902458369E+03  0.10784779053E+03 0.  0.
         11    1    3    3    0    0 -0.18933980076E+02 -0.41478488425E+02 -0.37251334540E+02  0.58878030952E+02  0.51100000000E-03 0.  1.
         22    1    1    0    0    0  0.14753353876E+02  0.56171109138E+01  0.24496001222E+01  0.15975416313E+02  0.00000000000E+00 0.  1.
</event>
<event>
 5    1  0.8962782E-005  0.9118800E+02  0.7818608E-02  0.1130116E+00
         25   -1    0    0    0    0  0.00000000000E+00  0.00000000000E+00  0.99999998245E-14  0.12500000000E+03  0.12500000000E+03 0.  0.
        -11    1    3    3    0    0 -0.43360659186E+02  0.22814562860E+02 -0.33926491830E+02  0.59595787533E+02  0.51100000000E-03 0. -1.
         23    2    1    0    0    0 -0.16609139473E+02  0.13189378914E+01 -0.24828831606E+02  0.95098929950E+02  0.90275868800E+02 0.  0.
         11    1    3    3    0    0  0.26751519712E+02 -0.21495624969E+02  0.90976602236E+01  0.35503142418E+02  0.51100000000E-03 0.  1.
         22    1    1    0    0    0  0.16609139473E+02 -0.13189378914E+01  0.24828831606E+02  0.29901070050E+02  0.00000000000E+00 0. -1.
</event>
<event>
 5    1  0.8962782E-005  0.9118800E+02  0.7818608E-02  0.1130116E+00
         25   -1    0    0    0    0  0.00000000000E+00  0.00000000000E+00  0.99999998245E-14  0.12500000000E+03  0.12500000000E+03 0.  0.
        -11    1    3    3    0    0  0.48682362199E+02 -0.27535921079E+01  0.31590625034E+02  0.58099244824E+02  0.51100000000E-03 0. -1.
         23    2    1    0    0    0  0.13453400875E+02  0.10884541184E+02  0.21879415185E+02  0.97104193133E+02  0.93011011624E+02 0.  0.
         11    1    3    3    0    0 -0.35228961324E+02  0.13638133292E+02 -0.97112098489E+01  0.39004948310E+02  0.51100000000E-03 0.  1.
         22    1    1    0    0    0 -0.13453400875E+02 -0.10884541184E+02 -0.21879415185E+02  0.27895806867E+02  0.00000000000E+00 0. -1.
</event>
<event>
 5    1  0.8962782E-005  0.9118800E+02  0.7818608E-02  0.1130116E+00
         25   -1    0    0    0    0  0.00000000000E+00  0.00000000000E+00  0.99999998245E-14  0.12500000000E+03  0.12500000000E+03 0.  0.
        -11    1    3    3    0    0 -0.30464554380E+02  0.25781608501E+02 -0.45586493828E+00  0.39912256559E+02  0.51100000000E-03 0. -1.
         23    2    1    0    0    0  0.11989938344E+02  0.21075045209E+00 -0.26509956215E+02  0.95903938140E+02  0.91383721390E+02 0.  0.
         11    1    3    3    0    0  0.42454492724E+02 -0.25570858049E+02 -0.26054091277E+02  0.55991681582E+02  0.51100000000E-03 0.  1.
         22    1    1    0    0    0 -0.11989938344E+02 -0.21075045209E+00  0.26509956215E+02  0.29096061860E+02  0.00000000000E+00 0.  1.
</event>
<event>
 5    1  0.8962782E-005  0.9118800E+02  0.7818608E-02  0.1130116E+00
         25   -1    0    0    0    0  0.00000000000E+00  0.00000000000E+00  0.99999998245E-14  0.12500000000E+03  0.12500000000E+03 0.  0.
        -11    1    3    3    0    0  0.37340900190E+02  0.30300976697E+02 -0.29489729668E+02  0.56410426092E+02  0.51100000000E-03 0. -1.
         23    2    1    0    0    0  0.29995338846E+02  0.64486932184E+01 -0.97629314975E+00  0.94303760083E+02  0.89168043719E+02 0.  0.
         11    1    3    3    0    0 -0.73455613435E+01 -0.23852283478E+02  0.28513436518E+02  0.37893333991E+02  0.51100000000E-03 0.  1.
         22    1    1    0    0    0 -0.29995338846E+02 -0.64486932184E+01  0.97629314975E+00  0.30696239917E+02  0.00000000000E+00 0. -1.
</event>
<event>
 5    1  0.8962782E-005  0.9118800E+02  0.7818608E-02  0.1130116E+00
         25   -1    0    0    0    0  0.00000000000E+00  0.00000000000E+00  0.99999998245E-14  0.12500000000E+03  0.12500000000E+03 0.  0.
        -11    1    3    3    0    0  0.39150390349E+02  0.24158293370E+02 -0.37895235725E+02  0.59602223901E+02  0.51100000000E-03 0. -1.
         23    2    1    0    0    0  0.13418913726E+02  0.21553726989E+02 -0.98115255105E+01  0.97780587340E+02  0.93915636797E+02 0.  0.
         11    1    3    3    0    0 -0.25731476623E+02 -0.26045663804E+01  0.28083710215E+02  0.38178363439E+02  0.51100000000E-03 0.  1.
         22    1    1    0    0    0 -0.13418913726E+02 -0.21553726989E+02  0.98115255105E+01  0.27219412660E+02  0.00000000000E+00 0. -1.
</event>
<event>
 5    1  0.8962782E-005  0.9118800E+02  0.7818608E-02  0.1130116E+00
         25   -1    0    0    0    0  0.00000000000E+00  0.00000000000E+00  0.99999998245E-14  0.12500000000E+03  0.12500000000E+03 0.  0.
        -11    1    3    3    0    0  0.20856967883E+02  0.27763349228E+02 -0.15615616159E+02  0.38074455189E+02  0.51100000000E-03 0.  1.
         23    2    1    0    0    0  0.33613953979E+01 -0.27259065137E+02 -0.85056310320E+01  0.96247584964E+02  0.91852578848E+02 0.  0.
         11    1    3    3    0    0 -0.17495572486E+02 -0.55022414364E+02  0.71099851268E+01  0.58173129775E+02  0.51100000000E-03 0. -1.
         22    1    1    0    0    0 -0.33613953979E+01  0.27259065137E+02  0.85056310320E+01  0.28752415036E+02  0.00000000000E+00 0. -1.
</event>
<event>
 5    1  0.8962782E-005  0.9118800E+02  0.7818608E-02  0.1130116E+00
         25   -1    0    0    0    0  0.00000000000E+00  0.00000000000E+00  0.99999998245E-14  0.12500000000E+03  0.12500000000E+03 0.  0.
        -11    1    3    3    0    0 -0.65271235538E+00  0.14211843356E+01 -0.40142353332E+02  0.40172805847E+02  0.51100000000E-03 0.  1.
         23    2    1    0    0    0  0.85847754638E+01  0.27526986771E+02  0.74349671908E+01  0.95222288409E+02  0.90446515148E+02 0.  0.
         11    1    3    3    0    0  0.92374878191E+01  0.26105802435E+02  0.47577320523E+02  0.55049482562E+02  0.51100000000E-03 0. -1.
         22    1    1    0    0    0 -0.85847754638E+01 -0.27526986771E+02 -0.74349671908E+01  0.29777711591E+02  0.00000000000E+00 0. -1.
</event>
<event>
 5    1  0.8962782E-005  0.9118800E+02  0.7818608E-02  0.1130116E+00
         25   -1    0    0    0    0  0.00000000000E+00  0.00000000000E+00  0.99999998245E-14  0.12500000000E+03  0.12500000000E+03 0.  0.
        -11    1    3    3    0    0  0.17492138133E+02 -0.31923535345E+01  0.34892299196E+02  0.39161697627E+02  0.51100000000E-03 0.  1.
         23    2    1    0    0    0 -0.19399552898E+02 -0.23727864294E+02 -0.63844491632E+00  0.94344465288E+02  0.89225087962E+02 0.  0.
         11    1    3    3    0    0 -0.36891691031E+02 -0.20535510760E+02 -0.35530744113E+02  0.55182767661E+02  0.51100000000E-03 0. -1.
         22    1    1    0    0    0  0.19399552898E+02  0.23727864294E+02  0.63844491632E+00  0.30655534712E+02  0.00000000000E+00 0. -1.
</event>
<event>
 5    1  0.8962782E-005  0.9118800E+02  0.7818608E-02  0.1130116E+00
         25   -1    0    0    0    0  0.00000000000E+00  0.00000000000E+00  0.99999998245E-14  0.12500000000E+03  0.12500000000E+03 0.  0.
        -11    1    3    3    0    0  0.43714570261E+02  0.30601584807E+02 -0.23613130011E+02  0.58352382599E+02  0.51100000000E-03 0. -1.
         23    2    1    0    0    0  0.24927792410E+02 -0.48250907549E+00 -0.15735711601E+02  0.95517119051E+02  0.90853066887E+02 0.  0.
         11    1    3    3    0    0 -0.18786777850E+02 -0.31084093883E+02  0.78774184103E+01  0.37164736452E+02  0.51100000000E-03 0.  1.
         22    1    1    0    0    0 -0.24927792410E+02  0.48250907549E+00  0.15735711601E+02  0.29482880949E+02  0.00000000000E+00 0.  1.
</event>
<event>
 5    1  0.8962782E-005  0.9118800E+02  0.7818608E-02  0.1130116E+00
         25   -1    0    0    0    0  0.00000000000E+00  0.00000000000E+00  0.99999998245E-14  0.12500000000E+03  0.12500000000E+03 0.  0.
        -11    1    3    3    0    0  0.39135378955E+02  0.36138034784E+02  0.62860518309E+00  0.53272230934E+02  0.51100000000E-03 0. -1.
         23    2    1    0    0    0  0.22290270017E+02 -0.11922240327E+01 -0.16064217578E+02  0.97498425100E+02  0.93539330098E+02 0.  0.
         11    1    3    3    0    0 -0.16845108938E+02 -0.37330258816E+02 -0.16692822761E+02  0.44226194166E+02  0.51100000000E-03 0.  1.
         22    1    1    0    0    0 -0.22290270017E+02  0.11922240327E+01  0.16064217578E+02  0.27501574900E+02  0.00000000000E+00 0. -1.
</event>
<event>
 5    1  0.8962782E-005  0.9118800E+02  0.7818608E-02  0.1130116E+00
         25   -1    0    0    0    0  0.00000000000E+00  0.00000000000E+00  0.99999998245E-14  0.12500000000E+03  0.12500000000E+03 0.  0.
        -11    1    3    3    0    0 -0.51257061872E+02  0.13815776193E+02  0.11358680443E+02  0.54287951566E+02  0.51100000000E-03 0. -1.
         23    2    1    0    0    0 -0.15070185909E+02  0.90381504767E+01  0.26002201504E+02  0.93616674006E+02  0.88199594679E+02 0.  0.
         11    1    3    3    0    0  0.36186875963E+02 -0.47776257164E+01  0.14643521061E+02  0.39328722440E+02  0.51100000000E-03 0.  1.
         22    1    1    0    0    0  0.15070185909E+02 -0.90381504767E+01 -0.26002201504E+02  0.31383325994E+02  0.00000000000E+00 0. -1.
</event>
<event>
 5    1  0.8962782E-005  0.9118800E+02  0.7818608E-02  0.1130116E+00
         25   -1    0    0    0    0  0.00000000000E+00  0.00000000000E+00  0.99999998245E-14  0.12500000000E+03  0.12500000000E+03 0.  0.
        -11    1    3    3    0    0 -0.39365361195E+01 -0.57843667661E+02 -0.11812746578E+02  0.59168633473E+02  0.51100000000E-03 0.  1.
         23    2    1    0    0    0 -0.13887896278E+02 -0.22865562645E+02 -0.12339612975E+02  0.95538607187E+02  0.90882626485E+02 0.  0.
         11    1    3    3    0    0 -0.99513601586E+01  0.34978105016E+02 -0.52686639792E+00  0.36369973714E+02  0.51100000000E-03 0. -1.
         22    1    1    0    0    0  0.13887896278E+02  0.22865562645E+02  0.12339612975E+02  0.29461392813E+02  0.00000000000E+00 0.  1.
</event>
<event>
 5    1  0.8962782E-005  0.9118800E+02  0.7818608E-02  0.1130116E+00
         25   -1    0    0    0    0  0.00000000000E+00  0.00000000000E+00  0.99999998245E-14  0.12500000000E+03  0.12500000000E+03 0.  0.
        -11    1    3    3    0    0 -0.99240210551E-01  0.42500792799E+02 -0.35744807695E+02  0.55533940204E+02  0.51100000000E-03 0.  1.
         23    2    1    0    0    0  0.19510855483E+02  0.19961029094E+02 -0.88898836267E+01  0.95705867566E+02  0.91112386048E+02 0.  0.
         11    1    3    3    0    0  0.19610095693E+02 -0.22539763705E+02  0.26854924068E+02  0.40171927362E+02  0.51100000000E-03 0. -1.
         22    1    1    0    0    0 -0.19510855483E+02 -0.19961029094E+02  0.88898836267E+01  0.29294132434E+02  0.00000000000E+00 0.  1.
</event>
<event>
 5    1  0.8962782E-005  0.9118800E+02  0.7818608E-02  0.1130116E+00
         25   -1    0    0    0    0  0.00000000000E+00  0.00000000000E+00  0.99999998245E-14  0.12500000000E+03  0.12500000000E+03 0.  0.
        -11    1    3    3    0    0  0.24073498115E+02 -0.36822166019E+02 -0.98648731225E+01  0.45085706646E+02  0.51100000000E-03 0.  1.
         23    2    1    0    0    0 -0.10318700598E+02 -0.14096005832E+02  0.21798548813E+02  0.97065260108E+02  0.92958673759E+02 0.  0.
         11    1    3    3    0    0 -0.34392198713E+02  0.22726160186E+02  0.31663421936E+02  0.51979553462E+02  0.51100000000E-03 0. -1.
         22    1    1    0    0    0  0.10318700598E+02  0.14096005832E+02 -0.21798548813E+02  0.27934739892E+02  0.00000000000E+00 0. -1.
</event>
<event>
 5    1  0.8962782E-005  0.9118800E+02  0.7818608E-02  0.1130116E+00
         25   -1    0    0    0    0  0.00000000000E+00  0.00000000000E+00  0.99999998245E-14  0.12500000000E+03  0.12500000000E+03 0.  0.
        -11    1    3    3    0    0  0.16139436515E+02  0.54490416629E+01  0.55009445453E+02  0.57586565754E+02  0.51100000000E-03 0.  1.
         23    2    1    0    0    0  0.22867798783E+02 -0.25426271188E+01  0.18756073347E+02  0.95315130769E+02  0.90574735397E+02 0.  0.
         11    1    3    3    0    0  0.67283622683E+01 -0.79916687816E+01 -0.36253372106E+02  0.37728565015E+02  0.51100000000E-03 0. -1.
         22    1    1    0    0    0 -0.22867798783E+02  0.25426271188E+01 -0.18756073347E+02  0.29684869231E+02  0.00000000000E+00 0.  1.
</event>
<event>
 4    1  0.8962782E-005  0.9118800E+02  0.7818608E-02  0.1130116E+00
         25   -1    0    0    0    0  0.00000000000E+00  0.00000000000E+00  0.99999998245E-14  0.12500000000E+03  0.12500000000E+03 0.  0.
        -11    1    1    0    0    0 -0.17048971381E+02  0.21362454643E+01 -0.17443447586E+02  0.24484787803E+02  0.51100000000E-03 0.  1.
         11    1    1    0    0    0 -0.55558373352E+01 -0.46782930159E+02 -0.11605237021E+01  0.47125966285E+02  0.51100000000E-03 0. -1.
         22    1    1    0    0    0  0.22604808716E+02  0.44646684695E+02  0.18603971288E+02  0.53389245912E+02  0.00000000000E+00 0. -1.
</event>
<event>
 5    1  0.8962782E-005  0.9118800E+02  0.7818608E-02  0.1130116E+00
         25   -1    0    0    0    0  0.00000000000E+00  0.00000000000E+00  0.99999998245E-14  0.12500000000E+03  0.12500000000E+03 0.  0.
        -11    1    3    3    0    0 -0.46294637492E+02  0.15145522087E+02 -0.31667102339E+02  0.58098069422E+02  0.51100000000E-03 0.  1.
         23    2    1    0    0    0 -0.22180623505E+02 -0.90373404932E+01 -0.18643447618E+02  0.94648200690E+02  0.89649596611E+02 0.  0.
         11    1    3    3    0    0  0.24114013987E+02 -0.24182862580E+02  0.13023654721E+02  0.36550131267E+02  0.51100000000E-03 0. -1.
         22    1    1    0    0    0  0.22180623505E+02  0.90373404932E+01  0.18643447618E+02  0.30351799310E+02  0.00000000000E+00 0.  1.
</event>
<event>
 5    1  0.8962782E-005  0.9118800E+02  0.7818608E-02  0.1130116E+00
         25   -1    0    0    0    0  0.00000000000E+00  0.00000000000E+00  0.99999998245E-14  0.12500000000E+03  0.12500000000E+03 0.  0.
        -11    1    3    3    0    0 -0.78903899412E+01 -0.87375010725E+01  0.58451824137E+02  0.59625648203E+02  0.51100000000E-03 0. -1.
         23    2    1    0    0    0 -0.16226244173E+02  0.25846676253E+00  0.25626728491E+02  0.94667063806E+02  0.89675893926E+02 0.  0.
         11    1    3    3    0    0 -0.83358542315E+01  0.89959678350E+01 -0.32825095646E+02  0.35041415603E+02  0.51100000000E-03 0.  1.
         22    1    1    0    0    0  0.16226244173E+02 -0.25846676253E+00 -0.25626728491E+02  0.30332936194E+02  0.00000000000E+00 0. -1.
</event>
<event>
 5    1  0.8962782E-005  0.9118800E+02  0.7818608E-02  0.1130116E+00
         25   -1    0    0    0    0  0.00000000000E+00  0.00000000000E+00  0.99999998245E-14  0.12500000000E+03  0.12500000000E+03 0.  0.
        -11    1    3    3    0    0  0.16928432308E+02 -0.56707321701E+02  0.72527735131E+01  0.59622939200E+02  0.51100000000E-03 0. -1.
         23    2    1    0    0    0  0.16341938100E+01 -0.29911892166E+02 -0.79333188323E+01  0.94010817531E+02  0.88756432909E+02 0.  0.
         11    1    3    3    0    0 -0.15294238498E+02  0.26795429534E+02 -0.15186092345E+02  0.34387878332E+02  0.51100000000E-03 0.  1.
         22    1    1    0    0    0 -0.16341938100E+01  0.29911892166E+02  0.79333188323E+01  0.30989182469E+02  0.00000000000E+00 0. -1.
</event>
<event>
 5    1  0.8962782E-005  0.9118800E+02  0.7818608E-02  0.1130116E+00
         25   -1    0    0    0    0  0.00000000000E+00  0.00000000000E+00  0.99999998245E-14  0.12500000000E+03  0.12500000000E+03 0.  0.
        -11    1    3    3    0    0  0.27068818604E+02 -0.46539196199E+02 -0.94242776529E+01  0.54657430721E+02  0.51100000000E-03 0.  1.
         23    2    1    0    0    0  0.45124393114E+00 -0.28019272545E+02  0.13026346553E+02  0.94097427945E+02  0.88878326865E+02 0.  0.
         11    1    3    3    0    0 -0.26617574672E+02  0.18519923654E+02  0.22450624206E+02  0.39439997225E+02  0.51100000000E-03 0. -1.
         22    1    1    0    0    0 -0.45124393114E+00  0.28019272545E+02 -0.13026346553E+02  0.30902572055E+02  0.00000000000E+00 0.  1.
</event>
<event>
 5    1  0.8962782E-005  0.9118800E+02  0.7818608E-02  0.1130116E+00
         25   -1    0    0    0    0  0.00000000000E+00  0.00000000000E+00  0.99999998245E-14  0.12500000000E+03  0.12500000000E+03 0.  0.
        -11    1    3    3    0    0  0.31495525364E+02  0.64801243404E+01 -0.13273288451E+02  0.34787071104E+02  0.51100000000E-03 0. -1.
         23    2    1    0    0    0 -0.13588345136E+02 -0.17747827896E+02  0.19311413902E+02  0.95460886515E+02  0.90775666502E+02 0.  0.
         11    1    3    3    0    0 -0.45083870501E+02 -0.24227952236E+02  0.32584702353E+02  0.60673815411E+02  0.51100000000E-03 0.  1.
         22    1    1    0    0    0  0.13588345136E+02  0.17747827896E+02 -0.19311413902E+02  0.29539113485E+02  0.00000000000E+00 0.  1.
</event>
<event>
 5    1  0.8962782E-005  0.9118800E+02  0.7818608E-02  0.1130116E+00
         25   -1    0    0    0    0  0.00000000000E+00  0.00000000000E+00  0.99999998245E-14  0.12500000000E+03  0.12500000000E+03 0.  0.
        -11    1    3    3    0    0 -0.39742836643E+02 -0.13040000121E+01 -0.14385874399E+02  0.42286485583E+02  0.51100000000E-03 0.  1.
         23    2    1    0    0    0  0.13376933804E+01 -0.30058613291E+02  0.14641360097E+01  0.94876033614E+02  0.89966707195E+02 0.  0.
         11    1    3    3    0    0  0.41080530024E+02 -0.28754613279E+02  0.15850010409E+02  0.52589548031E+02  0.51100000000E-03 0. -1.
         22    1    1    0    0    0 -0.13376933804E+01  0.30058613291E+02 -0.14641360097E+01  0.30123966386E+02  0.00000000000E+00 0.  1.
</event>
<event>
 5    1  0.8962782E-005  0.9118800E+02  0.7818608E-02  0.1130116E+00
         25   -1    0    0    0    0  0.00000000000E+00  0.00000000000E+00  0.99999998245E-14  0.12500000000E+03  0.12500000000E+03 0.  0.
        -11    1    3    3    0    0  0.46739911406E+02  0.35475048566E+02 -0.20272269149E+02  0.62081102484E+02  0.51100000000E-03 0. -1.
         23    2    1    0    0    0  0.27288816262E+02  0.16882020721E+02 -0.66959093722E+01  0.92220169022E+02  0.86197692867E+02 0.  0.
         11    1    3    3    0    0 -0.19451095144E+02 -0.18593027845E+02  0.13576359776E+02  0.30139066538E+02  0.51100000000E-03 0.  1.
         22    1    1    0    0    0 -0.27288816262E+02 -0.16882020721E+02  0.66959093722E+01  0.32779830978E+02  0.00000000000E+00 0. -1.
</event>
<event>
 5    1  0.8962782E-005  0.9118800E+02  0.7818608E-02  0.1130116E+00
         25   -1    0    0    0    0  0.00000000000E+00  0.00000000000E+00  0.99999998245E-14  0.12500000000E+03  0.12500000000E+03 0.  0.
        -11    1    3    3    0    0  0.75389525908E+01  0.11621682325E+02  0.39402566885E+02  0.41766752131E+02  0.51100000000E-03 0. -1.
         23    2    1    0    0    0  0.93039987318E+01  0.10212459488E+02 -0.19714403504E+02  0.10092685258E+03  0.98013841599E+02 0.  0.
         11    1    3    3    0    0  0.17650461410E+01 -0.14092228370E+01 -0.59116970389E+02  0.59160100449E+02  0.51100000000E-03 0.  1.
         22    1    1    0    0    0 -0.93039987318E+01 -0.10212459488E+02  0.19714403504E+02  0.24073147420E+02  0.00000000000E+00 0. -1.
</event>
<event>
 5    1  0.8962782E-005  0.9118800E+02  0.7818608E-02  0.1130116E+00
         25   -1    0    0    0    0  0.00000000000E+00  0.00000000000E+00  0.99999998245E-14  0.12500000000E+03  0.12500000000E+03 0.  0.
        -11    1    3    3    0    0 -0.43945811060E+02 -0.32485736610E+02 -0.29064038957E+02  0.61897300051E+02  0.51100000000E-03 0.  1.
         23    2    1    0    0    0 -0.21209036913E+02 -0.10676560883E+02 -0.17678145114E+02  0.95397145176E+02  0.90687850863E+02 0.  0.
         11    1    3    3    0    0  0.22736774147E+02  0.21809175727E+02  0.11385893844E+02  0.33499845125E+02  0.51100000000E-03 0. -1.
         22    1    1    0    0    0  0.21209036913E+02  0.10676560883E+02  0.17678145114E+02  0.29602854824E+02  0.00000000000E+00 0.  1.
</event>
<event>
 5    1  0.8962782E-005  0.9118800E+02  0.7818608E-02  0.1130116E+00
         25   -1    0    0    0    0  0.00000000000E+00  0.00000000000E+00  0.99999998245E-14  0.12500000000E+03  0.12500000000E+03 0.  0.
        -11    1    3    3    0    0  0.23123255348E+02  0.12818326207E+02  0.33208031305E+02  0.42447235106E+02  0.51100000000E-03 0.  1.
         23    2    1    0    0    0 -0.14743032468E+02  0.25894093878E+02 -0.10883722316E+01  0.95183131314E+02  0.90392382581E+02 0.  0.
         11    1    3    3    0    0 -0.37866287816E+02  0.13075767670E+02 -0.34296403537E+02  0.52735896209E+02  0.51100000000E-03 0. -1.
         22    1    1    0    0    0  0.14743032468E+02 -0.25894093878E+02  0.10883722316E+01  0.29816868686E+02  0.00000000000E+00 0. -1.
</event>
<event>
 5    1  0.8962782E-005  0.9118800E+02  0.7818608E-02  0.1130116E+00
         25   -1    0    0    0    0  0.00000000000E+00  0.00000000000E+00  0.99999998245E-14  0.12500000000E+03  0.12500000000E+03 0.  0.
        -11    1    3    3    0    0 -0.18464999809E+02 -0.20763014604E+02  0.27524710394E+02  0.39110978970E+02  0.51100000000E-03 0.  1.
         23    2    1    0    0    0  0.84023226602E+00  0.28091846524E+02  0.42149110209E+01  0.96581285985E+02  0.92305587567E+02 0.  0.
         11    1    3    3    0    0  0.19305232075E+02  0.48854861128E+02 -0.23309799373E+02  0.57470307015E+02  0.51100000000E-03 0. -1.
         22    1    1    0    0    0 -0.84023226602E+00 -0.28091846524E+02 -0.42149110209E+01  0.28418714015E+02  0.00000000000E+00 0. -1.
</event>
<event>
 5    1  0.8962782E-005  0.9118800E+02  0.7818608E-02  0.1130116E+00
         25   -1    0    0    0    0  0.00000000000E+00  0.00000000000E+00  0.99999998245E-14  0.12500000000E+03  0.12500000000E+03 0.  0.
        -11    1    3    3    0    0  0.14095211763E+01 -0.48251870579E+02 -0.38040118476E+02  0.61459583290E+02  0.51100000000E-03 0. -1.
         23    2    1    0    0    0 -0.39821692200E+01 -0.17945516965E+02 -0.22511424017E+02  0.95936905497E+02  0.91428804948E+02 0.  0.
         11    1    3    3    0    0 -0.53916903963E+01  0.30306353613E+02  0.15528694459E+02  0.34477322206E+02  0.51100000000E-03 0.  1.
         22    1    1    0    0    0  0.39821692200E+01  0.17945516965E+02  0.22511424017E+02  0.29063094503E+02  0.00000000000E+00 0. -1.
</event>
<event>
 5    1  0.8962782E-005  0.9118800E+02  0.7818608E-02  0.1130116E+00
         25   -1    0    0    0    0  0.00000000000E+00  0.00000000000E+00  0.99999998245E-14  0.12500000000E+03  0.12500000000E+03 0.  0.
        -11    1    3    3    0    0  0.52387502055E+01  0.32365990030E+02 -0.19372582848E+02  0.38082788511E+02  0.51100000000E-03 0. -1.
         23    2    1    0    0    0 -0.26129981705E+02 -0.12884383797E+02 -0.20905867643E+01  0.95791202648E+02  0.91229384860E+02 0.  0.
         11    1    3    3    0    0 -0.31368731911E+02 -0.45250373828E+02  0.17281996083E+02  0.57708414136E+02  0.51100000000E-03 0.  1.
         22    1    1    0    0    0  0.26129981705E+02  0.12884383797E+02  0.20905867643E+01  0.29208797352E+02  0.00000000000E+00 0.  1.
</event>
<event>
 5    1  0.8962782E-005  0.9118800E+02  0.7818608E-02  0.1130116E+00
         25   -1    0    0    0    0  0.00000000000E+00  0.00000000000E+00  0.99999998245E-14  0.12500000000E+03  0.12500000000E+03 0.  0.
        -11    1    3    3    0    0 -0.29940645214E+02  0.37205632911E+02 -0.84138634153E+01  0.48492210240E+02  0.51100000000E-03 0. -1.
         23    2    1    0    0    0  0.11476477695E+02  0.28635075356E+02  0.67462009457E+01  0.93421711445E+02  0.87922851757E+02 0.  0.
         11    1    3    3    0    0  0.41417122908E+02 -0.85705575556E+01  0.15160064361E+02  0.44929501205E+02  0.51100000000E-03 0.  1.
         22    1    1    0    0    0 -0.11476477695E+02 -0.28635075356E+02 -0.67462009457E+01  0.31578288555E+02  0.00000000000E+00 0. -1.
</event>
<event>
 5    1  0.8962782E-005  0.9118800E+02  0.7818608E-02  0.1130116E+00
         25   -1    0    0    0    0  0.00000000000E+00  0.00000000000E+00  0.99999998245E-14  0.12500000000E+03  0.12500000000E+03 0.  0.
        -11    1    3    3    0    0  0.10274608717E+02  0.46569490236E+02 -0.12386983356E+02  0.49271922654E+02  0.51100000000E-03 0.  1.
         23    2    1    0    0    0  0.22972814989E+02  0.13183821731E+02  0.15251906651E+02  0.94435575575E+02  0.89352637866E+02 0.  0.
         11    1    3    3    0    0  0.12698206273E+02 -0.33385668505E+02  0.27638890006E+02  0.45163652920E+02  0.51100000000E-03 0. -1.
         22    1    1    0    0    0 -0.22972814989E+02 -0.13183821731E+02 -0.15251906651E+02  0.30564424425E+02  0.00000000000E+00 0.  1.
</event>
<event>
 5    1  0.8962782E-005  0.9118800E+02  0.7818608E-02  0.1130116E+00
         25   -1    0    0    0    0  0.00000000000E+00  0.00000000000E+00  0.99999998245E-14  0.12500000000E+03  0.12500000000E+03 0.  0.
        -11    1    3    3    0    0 -0.36290729395E+02 -0.36291723945E+02 -0.11085148160E+02  0.52507016454E+02  0.51100000000E-03 0.  1.
         23    2    1    0    0    0 -0.18167574405E+02 -0.12980300489E+02  0.19743188888E+02  0.95194925465E+02  0.90408690768E+02 0.  0.
         11    1    3    3    0    0  0.18123154990E+02  0.23311423456E+02  0.30828337048E+02  0.42687909011E+02  0.51100000000E-03 0. -1.
         22    1    1    0    0    0  0.18167574405E+02  0.12980300489E+02 -0.19743188888E+02  0.29805074535E+02  0.00000000000E+00 0. -1.
</event>
<event>
 5    1  0.8962782E-005  0.9118800E+02  0.7818608E-02  0.1130116E+00
         25   -1    0    0    0    0  0.00000000000E+00  0.00000000000E+00  0.99999998245E-14  0.12500000000E+03  0.12500000000E+03 0.  0.
        -11    1    3    3    0    0  0.11499977042E+02  0.26692588080E+02  0.15377978757E+02  0.32882000567E+02  0.51100000000E-03 0. -1.
         23    2    1    0    0    0 -0.32901265561E+02 -0.86009249844E+01  0.36872981739E+01  0.90793781940E+02  0.84103778067E+02 0.  0.
         11    1    3    3    0    0 -0.44401242603E+02 -0.35293513064E+02 -0.11690680583E+02  0.57911781374E+02  0.51100000000E-03 0.  1.
         22    1    1    0    0    0  0.32901265561E+02  0.86009249844E+01 -0.36872981739E+01  0.34206218060E+02  0.00000000000E+00 0.  1.
</event>
<event>
 5    1  0.8962782E-005  0.9118800E+02  0.7818608E-02  0.1130116E+00
         25   -1    0    0    0    0  0.00000000000E+00  0.00000000000E+00  0.99999998245E-14  0.12500000000E+03  0.12500000000E+03 0.  0.
        -11    1    3    3    0    0  0.20797903155E+02  0.18237091692E+02 -0.34045211076E+02  0.43865939936E+02  0.51100000000E-03 0.  1.
         23    2    1    0    0    0  0.21258001981E+02  0.72920437993E+01  0.17471001171E+02  0.96534012701E+02  0.92241547989E+02 0.  0.
         11    1    3    3    0    0  0.46009882574E+00 -0.10945047892E+02  0.51516212247E+02  0.52668072765E+02  0.51100000000E-03 0. -1.
         22    1    1    0    0    0 -0.21258001981E+02 -0.72920437993E+01 -0.17471001171E+02  0.28465987299E+02  0.00000000000E+00 0. -1.
</event>
<event>
 5    1  0.8962782E-005  0.9118800E+02  0.7818608E-02  0.1130116E+00
         25   -1    0    0    0    0  0.00000000000E+00  0.00000000000E+00  0.99999998245E-14  0.12500000000E+03  0.12500000000E+03 0.  0.
        -11    1    3    3    0    0  0.54053623037E+02  0.14371580946E+02  0.27073452519E+02  0.62139426565E+02  0.51100000000E-03 0. -1.
         23    2    1    0    0    0  0.24633995030E+02  0.74902501279E+01  0.17631589618E+02  0.93794062896E+02  0.88450640043E+02 0.  0.
         11    1    3    3    0    0 -0.29419628007E+02 -0.68813308178E+01 -0.94418629007E+01  0.31654636331E+02  0.51100000000E-03 0.  1.
         22    1    1    0    0    0 -0.24633995030E+02 -0.74902501279E+01 -0.17631589618E+02  0.31205937104E+02  0.00000000000E+00 0. -1.
</event>
<event>
 5    1  0.8962782E-005  0.9118800E+02  0.7818608E-02  0.1130116E+00
         25   -1    0    0    0    0  0.00000000000E+00  0.00000000000E+00  0.99999998245E-14  0.12500000000E+03  0.12500000000E+03 0.  0.
        -11    1    3    3    0    0 -0.19255883488E+02 -0.29577664709E+02 -0.43778266247E+02  0.56233120973E+02  0.51100000000E-03 0. -1.
         23    2    1    0    0    0  0.37360067673E+01 -0.12305977725E+00 -0.27930104423E+02  0.96820865461E+02  0.92629457330E+02 0.  0.
         11    1    3    3    0    0  0.22991890255E+02  0.29454604932E+02  0.15848161824E+02  0.40587744488E+02  0.51100000000E-03 0.  1.
         22    1    1    0    0    0 -0.37360067673E+01  0.12305977725E+00  0.27930104423E+02  0.28179134539E+02  0.00000000000E+00 0. -1.
</event>
<event>
 5    1  0.8962782E-005  0.9118800E+02  0.7818608E-02  0.1130116E+00
         25   -1    0    0    0    0  0.00000000000E+00  0.00000000000E+00  0.99999998245E-14  0.12500000000E+03  0.12500000000E+03 0.  0.
        -11    1    3    3    0    0 -0.14918788450E+02 -0.35681916018E+02  0.45704935618E+02  0.59872452094E+02  0.51100000000E-03 0.  1.
         23    2    1    0    0    0  0.15601191626E-01 -0.79470203541E+01  0.27758724063E+02  0.96126099371E+02  0.91687102925E+02 0.  0.
         11    1    3    3    0    0  0.14934389642E+02  0.27734895664E+02 -0.17946211555E+02  0.36253647278E+02  0.51100000000E-03 0. -1.
         22    1    1    0    0    0 -0.15601191626E-01  0.79470203541E+01 -0.27758724063E+02  0.28873900629E+02  0.00000000000E+00 0.  1.
</event>
<event>
 5    1  0.8962782E-005  0.9118800E+02  0.7818608E-02  0.1130116E+00
         25   -1    0    0    0    0  0.00000000000E+00  0.00000000000E+00  0.99999998245E-14  0.12500000000E+03  0.12500000000E+03 0.  0.
        -11    1    3    3    0    0  0.37440379847E+02 -0.48943996139E+02 -0.21551446408E+01  0.61659885257E+02  0.51100000000E-03 0.  1.
         23    2    1    0    0    0  0.21916749865E+02 -0.20084636999E+02  0.40058706673E+01  0.95003607419E+02  0.90143784338E+02 0.  0.
         11    1    3    3    0    0 -0.15523629982E+02  0.28859359140E+02  0.61610153081E+01  0.33343722163E+02  0.51100000000E-03 0. -1.
         22    1    1    0    0    0 -0.21916749865E+02  0.20084636999E+02 -0.40058706673E+01  0.29996392581E+02  0.00000000000E+00 0.  1.
</event>
<event>
 5    1  0.8962782E-005  0.9118800E+02  0.7818608E-02  0.1130116E+00
         25   -1    0    0    0    0  0.00000000000E+00  0.00000000000E+00  0.99999998245E-14  0.12500000000E+03  0.12500000000E+03 0.  0.
        -11    1    3    3    0    0 -0.31587190246E+01  0.49432037064E+02  0.15803122470E+02  0.51992715589E+02  0.51100000000E-03 0. -1.
         23    2    1    0    0    0 -0.95667202239E+01  0.85719071142E+01  0.27221931189E+02  0.94899613539E+02  0.89999463247E+02 0.  0.
         11    1    3    3    0    0 -0.64080011993E+01 -0.40860129950E+02  0.11418808719E+02  0.42906897951E+02  0.51100000000E-03 0.  1.
         22    1    1    0    0    0  0.95667202239E+01 -0.85719071142E+01 -0.27221931189E+02  0.30100386461E+02  0.00000000000E+00 0. -1.
</event>
<event>
 5    1  0.8962782E-005  0.9118800E+02  0.7818608E-02  0.1130116E+00
         25   -1    0    0    0    0  0.00000000000E+00  0.00000000000E+00  0.99999998245E-14  0.12500000000E+03  0.12500000000E+03 0.  0.
        -11    1    3    3    0    0 -0.16308861127E+01 -0.32761908638E+02 -0.22727624185E+02  0.39906733122E+02  0.51100000000E-03 0. -1.
         23    2    1    0    0    0  0.24702352435E+02 -0.99438631753E+00  0.15221891930E+02  0.95967242399E+02  0.91470271672E+02 0.  0.
         11    1    3    3    0    0  0.26333238548E+02  0.31767522320E+02  0.37949516115E+02  0.56060509277E+02  0.51100000000E-03 0.  1.
         22    1    1    0    0    0 -0.24702352435E+02  0.99438631753E+00 -0.15221891930E+02  0.29032757601E+02  0.00000000000E+00 0.  1.
</event>
<event>
 5    1  0.8962782E-005  0.9118800E+02  0.7818608E-02  0.1130116E+00
         25   -1    0    0    0    0  0.00000000000E+00  0.00000000000E+00  0.99999998245E-14  0.12500000000E+03  0.12500000000E+03 0.  0.
        -11    1    3    3    0    0  0.55828127523E+02 -0.23288993316E+02  0.12069415344E+02  0.61683286386E+02  0.51100000000E-03 0. -1.
         23    2    1    0    0    0  0.27599354776E+02 -0.58351582358E+01  0.64572440475E+00  0.96783153690E+02  0.92578552713E+02 0.  0.
         11    1    3    3    0    0 -0.28228772747E+02  0.17453835080E+02 -0.11423690939E+02  0.35099867303E+02  0.51100000000E-03 0.  1.
         22    1    1    0    0    0 -0.27599354776E+02  0.58351582358E+01 -0.64572440475E+00  0.28216846310E+02  0.00000000000E+00 0. -1.
</event>
<event>
 5    1  0.8962782E-005  0.9118800E+02  0.7818608E-02  0.1130116E+00
         25   -1    0    0    0    0  0.00000000000E+00  0.00000000000E+00  0.99999998245E-14  0.12500000000E+03  0.12500000000E+03 0.  0.
        -11    1    3    3    0    0  0.25917974587E+02 -0.48334964458E+02 -0.40161487337E+01  0.54992178051E+02  0.51100000000E-03 0. -1.
         23    2    1    0    0    0  0.82491590973E+01 -0.17602197069E+02 -0.22740467697E+02  0.95083201399E+02  0.90254087718E+02 0.  0.
         11    1    3    3    0    0 -0.17668815490E+02  0.30732767389E+02 -0.18724318963E+02  0.40091023348E+02  0.51100000000E-03 0.  1.
         22    1    1    0    0    0 -0.82491590973E+01  0.17602197069E+02  0.22740467697E+02  0.29916798601E+02  0.00000000000E+00 0. -1.
</event>
<event>
 5    1  0.8962782E-005  0.9118800E+02  0.7818608E-02  0.1130116E+00
         25   -1    0    0    0    0  0.00000000000E+00  0.00000000000E+00  0.99999998245E-14  0.12500000000E+03  0.12500000000E+03 0.  0.
        -11    1    3    3    0    0 -0.55717655148E+02  0.23102432549E+02 -0.44487755412E+01  0.60481163092E+02  0.51100000000E-03 0.  1.
         23    2    1    0    0    0 -0.22419114282E+02  0.91100962685E+01 -0.12901933154E+02  0.97576097683E+02  0.93643069261E+02 0.  0.
         11    1    3    3    0    0  0.33298540866E+02 -0.13992336281E+02 -0.84531576129E+01  0.37094934591E+02  0.51100000000E-03 0. -1.
         22    1    1    0    0    0  0.22419114282E+02 -0.91100962685E+01  0.12901933154E+02  0.27423902317E+02  0.00000000000E+00 0.  1.
</event>
<event>
 5    1  0.8962782E-005  0.9118800E+02  0.7818608E-02  0.1130116E+00
         25   -1    0    0    0    0  0.00000000000E+00  0.00000000000E+00  0.99999998245E-14  0.12500000000E+03  0.12500000000E+03 0.  0.
        -11    1    3    3    0    0  0.10542805081E+02 -0.37838409471E+02 -0.13995609403E+02  0.41698597736E+02  0.51100000000E-03 0.  1.
         23    2    1    0    0    0  0.28192233841E+02  0.10417882833E+02 -0.33164790073E-01  0.94944460884E+02  0.90061730057E+02 0.  0.
         11    1    3    3    0    0  0.17649428760E+02  0.48256292305E+02  0.13962444613E+02  0.53245863148E+02  0.51100000000E-03 0. -1.
         22    1    1    0    0    0 -0.28192233841E+02 -0.10417882833E+02  0.33164790073E-01  0.30055539116E+02  0.00000000000E+00 0. -1.
</event>
<event>
 5    1  0.8962782E-005  0.9118800E+02  0.7818608E-02  0.1130116E+00
         25   -1    0    0    0    0  0.00000000000E+00  0.00000000000E+00  0.99999998245E-14  0.12500000000E+03  0.12500000000E+03 0.  0.
        -11    1    3    3    0    0 -0.47175626021E+02 -0.15827890987E+02 -0.18772152445E+02  0.53183226032E+02  0.51100000000E-03 0. -1.
         23    2    1    0    0    0 -0.13777841680E+02  0.80282671041E+01 -0.25648770080E+02  0.94798321228E+02  0.89858668513E+02 0.  0.
         11    1    3    3    0    0  0.33397784341E+02  0.23856158091E+02 -0.68766176351E+01  0.41615095195E+02  0.51100000000E-03 0.  1.
         22    1    1    0    0    0  0.13777841680E+02 -0.80282671041E+01  0.25648770080E+02  0.30201678772E+02  0.00000000000E+00 0. -1.
</event>
<event>
 5    1  0.8962782E-005  0.9118800E+02  0.7818608E-02  0.1130116E+00
         25   -1    0    0    0    0  0.00000000000E+00  0.00000000000E+00  0.99999998245E-14  0.12500000000E+03  0.12500000000E+03 0.  0.
        -11    1    3    3    0    0 -0.31368691876E+02 -0.66530053213E+01  0.39248096317E+02  0.50682051799E+02  0.51100000000E-03 0.  1.
         23    2    1    0    0    0 -0.10137065122E+02 -0.26486124391E+02  0.40022212928E+01  0.96359248442E+02  0.92004413538E+02 0.  0.
         11    1    3    3    0    0  0.21231626754E+02 -0.19833119069E+02 -0.35245875024E+02  0.45677196643E+02  0.51100000000E-03 0. -1.
         22    1    1    0    0    0  0.10137065122E+02  0.26486124391E+02 -0.40022212928E+01  0.28640751558E+02  0.00000000000E+00 0. -1.
</event>
<event>
 5    1  0.8962782E-005  0.9118800E+02  0.7818608E-02  0.1130116E+00
         25   -1    0    0    0    0  0.00000000000E+00  0.00000000000E+00  0.99999998245E-14  0.12500000000E+03  0.12500000000E+03 0.  0.
        -11    1    3    3    0    0 -0.37702410380E+02 -0.11623097463E+02 -0.26965962143E+01  0.39545414077E+02  0.51100000000E-03 0. -1.
         23    2    1    0    0    0  0.59816482842E+01  0.78447625559E+01  0.27281322251E+02  0.95989812832E+02  0.91501110420E+02 0.  0.
         11    1    3    3    0    0  0.43684058664E+02  0.19467860019E+02  0.29977918465E+02  0.56444398755E+02  0.51100000000E-03 0.  1.
         22    1    1    0    0    0 -0.59816482842E+01 -0.78447625559E+01 -0.27281322251E+02  0.29010187168E+02  0.00000000000E+00 0.  1.
</event>
<event>
 5    1  0.8962782E-005  0.9118800E+02  0.7818608E-02  0.1130116E+00
         25   -1    0    0    0    0  0.00000000000E+00  0.00000000000E+00  0.99999998245E-14  0.12500000000E+03  0.12500000000E+03 0.  0.
        -11    1    3    3    0    0 -0.31782800869E+02 -0.22351556943E+02  0.18952210568E+02  0.43231063075E+02  0.51100000000E-03 0. -1.
         23    2    1    0    0    0 -0.16367192551E+02  0.23538264055E+02 -0.25822283697E+01  0.96214538911E+02  0.91807596242E+02 0.  0.
         11    1    3    3    0    0  0.15415608318E+02  0.45889820998E+02 -0.21534438938E+02  0.52983475836E+02  0.51100000000E-03 0.  1.
         22    1    1    0    0    0  0.16367192551E+02 -0.23538264055E+02  0.25822283697E+01  0.28785461089E+02  0.00000000000E+00 0.  1.
</event>
<event>
 5    1  0.8962782E-005  0.9118800E+02  0.7818608E-02  0.1130116E+00
         25   -1    0    0    0    0  0.00000000000E+00  0.00000000000E+00  0.99999998245E-14  0.12500000000E+03  0.12500000000E+03 0.  0.
        -11    1    3    3    0    0 -0.18340210836E+02  0.51654575148E+02  0.45231436984E+01  0.55000157240E+02  0.51100000000E-03 0. -1.
         23    2    1    0    0    0 -0.15732784103E+02  0.20393488531E+02 -0.17964282065E+02  0.93597288330E+02  0.88172116242E+02 0.  0.
         11    1    3    3    0    0  0.26074267332E+01 -0.31261086617E+02 -0.22487425764E+02  0.38597131090E+02  0.51100000000E-03 0.  1.
         22    1    1    0    0    0  0.15732784103E+02 -0.20393488531E+02  0.17964282065E+02  0.31402711670E+02  0.00000000000E+00 0. -1.
</event>
<event>
 5    1  0.8962782E-005  0.9118800E+02  0.7818608E-02  0.1130116E+00
         25   -1    0    0    0    0  0.00000000000E+00  0.00000000000E+00  0.99999998245E-14  0.12500000000E+03  0.12500000000E+03 0.  0.
        -11    1    3    3    0    0 -0.15786797179E+02  0.60776136953E+01 -0.32499070894E+02  0.36638094419E+02  0.51100000000E-03 0. -1.
         23    2    1    0    0    0  0.13750387732E+02  0.95217762490E+01  0.21185188708E+02  0.98008341913E+02  0.94218286326E+02 0.  0.
         11    1    3    3    0    0  0.29537184911E+02  0.34441625537E+01  0.53684259602E+02  0.61370247494E+02  0.51100000000E-03 0.  1.
         22    1    1    0    0    0 -0.13750387732E+02 -0.95217762490E+01 -0.21185188708E+02  0.26991658087E+02  0.00000000000E+00 0.  1.
</event>
<event>
 5    1  0.8962782E-005  0.9118800E+02  0.7818608E-02  0.1130116E+00
         25   -1    0    0    0    0  0.00000000000E+00  0.00000000000E+00  0.99999998245E-14  0.12500000000E+03  0.12500000000E+03 0.  0.
        -11    1    3    3    0    0  0.24786128221E+02 -0.94900190316E+01 -0.46462165834E+02  0.53508368202E+02  0.51100000000E-03 0. -1.
         23    2    1    0    0    0  0.25561074633E+02 -0.17411445993E+02 -0.76338799864E+01  0.93144025496E+02  0.87527175060E+02 0.  0.
         11    1    3    3    0    0  0.77494641209E+00 -0.79214269618E+01  0.38828285847E+02  0.39635657294E+02  0.51100000000E-03 0.  1.
         22    1    1    0    0    0 -0.25561074633E+02  0.17411445993E+02  0.76338799864E+01  0.31855974504E+02  0.00000000000E+00 0. -1.
</event>
<event>
 5    1  0.8962782E-005  0.9118800E+02  0.7818608E-02  0.1130116E+00
         25   -1    0    0    0    0  0.00000000000E+00  0.00000000000E+00  0.99999998245E-14  0.12500000000E+03  0.12500000000E+03 0.  0.
        -11    1    3    3    0    0  0.17582453327E+02  0.38339086182E+02  0.39846200841E+02  0.58023684095E+02  0.51100000000E-03 0.  1.
         23    2    1    0    0    0  0.45472036757E+01  0.63362131755E+01  0.30069045167E+02  0.93935999357E+02  0.88651000216E+02 0.  0.
         11    1    3    3    0    0 -0.13035249652E+02 -0.32002873006E+02 -0.97771556740E+01  0.35912315262E+02  0.51100000000E-03 0. -1.
         22    1    1    0    0    0 -0.45472036757E+01 -0.63362131755E+01 -0.30069045167E+02  0.31064000643E+02  0.00000000000E+00 0.  1.
</event>
<event>
 5    1  0.8962782E-005  0.9118800E+02  0.7818608E-02  0.1130116E+00
         25   -1    0    0    0    0  0.00000000000E+00  0.00000000000E+00  0.99999998245E-14  0.12500000000E+03  0.12500000000E+03 0.  0.
        -11    1    3    3    0    0  0.26666892957E+02  0.15937364433E+02 -0.28039818420E+02  0.41849183771E+02  0.51100000000E-03 0.  1.
         23    2    1    0    0    0 -0.10104069258E+02 -0.21381684190E+02  0.16652542471E+00  0.10135055254E+03  0.98552717545E+02 0.  0.
         11    1    3    3    0    0 -0.36770962215E+02 -0.37319048622E+02  0.28206343844E+02  0.59501368771E+02  0.51100000000E-03 0. -1.
         22    1    1    0    0    0  0.10104069258E+02  0.21381684190E+02 -0.16652542471E+00  0.23649447458E+02  0.00000000000E+00 0. -1.
</event>
<event>
 5    1  0.8962782E-005  0.9118800E+02  0.7818608E-02  0.1130116E+00
         25   -1    0    0    0    0  0.00000000000E+00  0.00000000000E+00  0.99999998245E-14  0.12500000000E+03  0.12500000000E+03 0.  0.
        -11    1    3    3    0    0 -0.16463714903E+02  0.55920083750E+02 -0.15816214974E+02  0.60400847108E+02  0.51100000000E-03 0.  1.
         23    2    1    0    0    0 -0.17177392862E+02  0.24869914657E+02 -0.11376270865E+01  0.94753187341E+02  0.89795862017E+02 0.  0.
         11    1    3    3    0    0 -0.71367795975E+00 -0.31050169093E+02  0.14678587887E+02  0.34352340234E+02  0.51100000000E-03 0. -1.
         22    1    1    0    0    0  0.17177392862E+02 -0.24869914657E+02  0.11376270865E+01  0.30246812659E+02  0.00000000000E+00 0.  1.
</event>
<event>
 5    1  0.8962782E-005  0.9118800E+02  0.7818608E-02  0.1130116E+00
         25   -1    0    0    0    0  0.00000000000E+00  0.00000000000E+00  0.99999998245E-14  0.12500000000E+03  0.12500000000E+03 0.  0.
        -11    1    3    3    0    0  0.40873931048E+02 -0.67051760881E+00 -0.73120202505E+01  0.41528225024E+02  0.51100000000E-03 0. -1.
         23    2    1    0    0    0 -0.87942967333E+01 -0.67208454351E+01 -0.27402635845E+02  0.95446423742E+02  0.90755748774E+02 0.  0.
         11    1    3    3    0    0 -0.49668227782E+02 -0.60503278263E+01 -0.20090615594E+02  0.53918198718E+02  0.51100000000E-03 0.  1.
         22    1    1    0    0    0  0.87942967333E+01  0.67208454351E+01  0.27402635845E+02  0.29553576258E+02  0.00000000000E+00 0.  1.
</event>
<event>
 5    1  0.8962782E-005  0.9118800E+02  0.7818608E-02  0.1130116E+00
         25   -1    0    0    0    0  0.00000000000E+00  0.00000000000E+00  0.99999998245E-14  0.12500000000E+03  0.12500000000E+03 0.  0.
        -11    1    3    3    0    0 -0.33479527582E+02 -0.15169578378E+02 -0.27636895912E+02  0.45986877380E+02  0.51100000000E-03 0. -1.
         23    2    1    0    0    0  0.61476255529E+01  0.45111634771E+01 -0.33521888138E+02  0.90621796438E+02  0.83847773432E+02 0.  0.
         11    1    3    3    0    0  0.39627153135E+02  0.19680741855E+02 -0.58849922254E+01  0.44634919058E+02  0.51100000000E-03 0.  1.
         22    1    1    0    0    0 -0.61476255529E+01 -0.45111634771E+01  0.33521888138E+02  0.34378203562E+02  0.00000000000E+00 0.  1.
</event>
<event>
 5    1  0.8962782E-005  0.9118800E+02  0.7818608E-02  0.1130116E+00
         25   -1    0    0    0    0  0.00000000000E+00  0.00000000000E+00  0.99999998245E-14  0.12500000000E+03  0.12500000000E+03 0.  0.
        -11    1    3    3    0    0 -0.41591454743E+02 -0.39883734993E+02  0.10997404968E+02  0.58664336193E+02  0.51100000000E-03 0.  1.
         23    2    1    0    0    0 -0.16913265831E+02 -0.24099558110E+02 -0.90926645927E+01  0.94185655750E+02  0.89002325461E+02 0.  0.
         11    1    3    3    0    0  0.24678188912E+02  0.15784176883E+02 -0.20090069561E+02  0.35521319557E+02  0.51100000000E-03 0. -1.
         22    1    1    0    0    0  0.16913265831E+02  0.24099558110E+02  0.90926645927E+01  0.30814344250E+02  0.00000000000E+00 0.  1.
</event>
<event>
 5    1  0.8962782E-005  0.9118800E+02  0.7818608E-02  0.1130116E+00
         25   -1    0    0    0    0  0.00000000000E+00  0.00000000000E+00  0.99999998245E-14  0.12500000000E+03  0.12500000000E+03 0.  0.
        -11    1    3    3    0    0 -0.25995855680E+01  0.35593792626E+02  0.15821447057E+02  0.39038367100E+02  0.51100000000E-03 0.  1.
         23    2    1    0    0    0  0.22752776096E+02 -0.95307990570E+01 -0.11742850352E+02  0.97679321291E+02  0.93780756676E+02 0.  0.
         11    1    3    3    0    0  0.25352361664E+02 -0.45124591683E+02 -0.27564297409E+02  0.58640954191E+02  0.51100000000E-03 0. -1.
         22    1    1    0    0    0 -0.22752776096E+02  0.95307990570E+01  0.11742850352E+02  0.27320678709E+02  0.00000000000E+00 0. -1.
</event>
<event>
 5    1  0.8962782E-005  0.9118800E+02  0.7818608E-02  0.1130116E+00
         25   -1    0    0    0    0  0.00000000000E+00  0.00000000000E+00  0.99999998245E-14  0.12500000000E+03  0.12500000000E+03 0.  0.
        -11    1    3    3    0    0 -0.33347475919E+02 -0.26098837422E+01  0.52130910000E+01  0.33853241519E+02  0.51100000000E-03 0.  1.
         23    2    1    0    0    0  0.28608081673E+02  0.26576378248E+01  0.35045606353E+01  0.96055789507E+02  0.91591197049E+02 0.  0.
         11    1    3    3    0    0  0.61955557592E+02  0.52675215670E+01 -0.17085303648E+01  0.62202547988E+02  0.51100000000E-03 0. -1.
         22    1    1    0    0    0 -0.28608081673E+02 -0.26576378248E+01 -0.35045606353E+01  0.28944210493E+02  0.00000000000E+00 0. -1.
</event>
<event>
 5    1  0.8962782E-005  0.9118800E+02  0.7818608E-02  0.1130116E+00
         25   -1    0    0    0    0  0.00000000000E+00  0.00000000000E+00  0.99999998245E-14  0.12500000000E+03  0.12500000000E+03 0.  0.
        -11    1    3    3    0    0 -0.33474928922E+02  0.84648200083E+01 -0.39063149456E+00  0.34530807076E+02  0.51100000000E-03 0.  1.
         23    2    1    0    0    0  0.27715839642E+02  0.78997931307E+01  0.41065204985E+01  0.95889211464E+02  0.91363575160E+02 0.  0.
         11    1    3    3    0    0  0.61190768564E+02 -0.56502687755E+00  0.44971519931E+01  0.61358404388E+02  0.51100000000E-03 0. -1.
         22    1    1    0    0    0 -0.27715839642E+02 -0.78997931307E+01 -0.41065204985E+01  0.29110788536E+02  0.00000000000E+00 0. -1.
</event>
<event>
 5    1  0.8962782E-005  0.9118800E+02  0.7818608E-02  0.1130116E+00
         25   -1    0    0    0    0  0.00000000000E+00  0.00000000000E+00  0.99999998245E-14  0.12500000000E+03  0.12500000000E+03 0.  0.
        -11    1    3    3    0    0 -0.13124818661E+02  0.49408194452E-01 -0.40201394161E+02  0.42289660661E+02  0.51100000000E-03 0. -1.
         23    2    1    0    0    0 -0.20588684909E+02  0.17711333290E+02  0.10023992966E+02  0.96050635445E+02  0.91584162720E+02 0.  0.
         11    1    3    3    0    0 -0.74638662485E+01  0.17661925095E+02  0.50225387127E+02  0.53760974784E+02  0.51100000000E-03 0.  1.
         22    1    1    0    0    0  0.20588684909E+02 -0.17711333290E+02 -0.10023992966E+02  0.28949364555E+02  0.00000000000E+00 0.  1.
</event>
<event>
 5    1  0.8962782E-005  0.9118800E+02  0.7818608E-02  0.1130116E+00
         25   -1    0    0    0    0  0.00000000000E+00  0.00000000000E+00  0.99999998245E-14  0.12500000000E+03  0.12500000000E+03 0.  0.
        -11    1    3    3    0    0  0.47253001996E+02  0.13207903220E+02 -0.37598173057E+02  0.61813570699E+02  0.51100000000E-03 0. -1.
         23    2    1    0    0    0  0.18351728362E+02  0.40318260079E+01 -0.22496542484E+02  0.95688978548E+02  0.91089212517E+02 0.  0.
         11    1    3    3    0    0 -0.28901273634E+02 -0.91760772124E+01  0.15101630573E+02  0.33875407849E+02  0.51100000000E-03 0.  1.
         22    1    1    0    0    0 -0.18351728362E+02 -0.40318260079E+01  0.22496542484E+02  0.29311021452E+02  0.00000000000E+00 0. -1.
</event>
<event>
 5    1  0.8962782E-005  0.9118800E+02  0.7818608E-02  0.1130116E+00
         25   -1    0    0    0    0  0.00000000000E+00  0.00000000000E+00  0.99999998245E-14  0.12500000000E+03  0.12500000000E+03 0.  0.
        -11    1    3    3    0    0  0.30462045172E+02  0.13901188120E+02 -0.14325672281E+02  0.36419831326E+02  0.51100000000E-03 0.  1.
         23    2    1    0    0    0 -0.27801597024E+02  0.60002987750E+01 -0.73105760208E+01  0.95633745485E+02  0.91013385671E+02 0.  0.
         11    1    3    3    0    0 -0.58263642196E+02 -0.79008893453E+01  0.70150962602E+01  0.59213914160E+02  0.51100000000E-03 0. -1.
         22    1    1    0    0    0  0.27801597024E+02 -0.60002987750E+01  0.73105760208E+01  0.29366254515E+02  0.00000000000E+00 0. -1.
</event>
<event>
 5    1  0.8962782E-005  0.9118800E+02  0.7818608E-02  0.1130116E+00
         25   -1    0    0    0    0  0.00000000000E+00  0.00000000000E+00  0.99999998245E-14  0.12500000000E+03  0.12500000000E+03 0.  0.
        -11    1    3    3    0    0 -0.57139984973E+01 -0.18013517212E+02 -0.28098323981E+02  0.33862256156E+02  0.51100000000E-03 0. -1.
         23    2    1    0    0    0  0.29176338117E+02  0.37105955645E+01  0.13762972882E+02  0.92527755731E+02  0.86642593063E+02 0.  0.
         11    1    3    3    0    0  0.34890336614E+02  0.21724112777E+02  0.41861296863E+02  0.58665499574E+02  0.51100000000E-03 0.  1.
         22    1    1    0    0    0 -0.29176338117E+02 -0.37105955645E+01 -0.13762972882E+02  0.32472244269E+02  0.00000000000E+00 0.  1.
</event>
<event>
 5    1  0.8962782E-005  0.9118800E+02  0.7818608E-02  0.1130116E+00
         25   -1    0    0    0    0  0.00000000000E+00  0.00000000000E+00  0.99999998245E-14  0.12500000000E+03  0.12500000000E+03 0.  0.
        -11    1    3    3    0    0 -0.47884839173E+02 -0.11700853381E+02  0.23932480076E+02  0.54796271728E+02  0.51100000000E-03 0.  1.
         23    2    1    0    0    0 -0.26197400783E+02 -0.83393464526E+01 -0.10451901528E+02  0.95587574861E+02  0.90949951705E+02 0.  0.
         11    1    3    3    0    0  0.21687438390E+02  0.33615069281E+01 -0.34384381604E+02  0.40791303133E+02  0.51100000000E-03 0. -1.
         22    1    1    0    0    0  0.26197400783E+02  0.83393464526E+01  0.10451901528E+02  0.29412425139E+02  0.00000000000E+00 0.  1.
</event>
<event>
 5    1  0.8962782E-005  0.9118800E+02  0.7818608E-02  0.1130116E+00
         25   -1    0    0    0    0  0.00000000000E+00  0.00000000000E+00  0.99999998245E-14  0.12500000000E+03  0.12500000000E+03 0.  0.
        -11    1    3    3    0    0 -0.45199427064E+02  0.12965191723E+02 -0.20037046906E+02  0.51113282543E+02  0.51100000000E-03 0.  1.
         23    2    1    0    0    0 -0.27185472111E+00  0.15166441996E+02 -0.24361304813E+02  0.96302124818E+02  0.91926770880E+02 0.  0.
         11    1    3    3    0    0  0.44927572343E+02  0.22012502731E+01 -0.43242579070E+01  0.45188842275E+02  0.51100000000E-03 0. -1.
         22    1    1    0    0    0  0.27185472111E+00 -0.15166441996E+02  0.24361304813E+02  0.28697875182E+02  0.00000000000E+00 0.  1.
</event>
<event>
 5    1  0.8962782E-005  0.9118800E+02  0.7818608E-02  0.1130116E+00
         25   -1    0    0    0    0  0.00000000000E+00  0.00000000000E+00  0.99999998245E-14  0.12500000000E+03  0.12500000000E+03 0.  0.
        -11    1    3    3    0    0 -0.13231245642E+02 -0.31847308426E+02  0.31288401388E+02  0.46564804058E+02  0.51100000000E-03 0.  1.
         23    2    1    0    0    0 -0.31959673344E+01  0.16063790677E+02  0.23835307570E+02  0.96079739540E+02  0.91623877264E+02 0.  0.
         11    1    3    3    0    0  0.10035278308E+02  0.47911099104E+02 -0.74530938180E+01  0.49514935482E+02  0.51100000000E-03 0. -1.
         22    1    1    0    0    0  0.31959673344E+01 -0.16063790677E+02 -0.23835307570E+02  0.28920260460E+02  0.00000000000E+00 0. -1.
</event>
<event>
 5    1  0.8962782E-005  0.9118800E+02  0.7818608E-02  0.1130116E+00
         25   -1    0    0    0    0  0.00000000000E+00  0.00000000000E+00  0.99999998245E-14  0.12500000000E+03  0.12500000000E+03 0.  0.
        -11    1    3    3    0    0  0.46066782704E+01 -0.23245613133E+02 -0.25209612423E+02  0.34599199028E+02  0.51100000000E-03 0. -1.
         23    2    1    0    0    0 -0.12190306903E+02  0.15224842562E+02  0.20530608941E+02  0.96682067220E+02  0.92441964524E+02 0.  0.
         11    1    3    3    0    0 -0.16796985174E+02  0.38470455695E+02  0.45740221363E+02  0.62082868192E+02  0.51100000000E-03 0.  1.
         22    1    1    0    0    0  0.12190306903E+02 -0.15224842562E+02 -0.20530608941E+02  0.28317932780E+02  0.00000000000E+00 0.  1.
</event>
<event>
 5    1  0.8962782E-005  0.9118800E+02  0.7818608E-02  0.1130116E+00
         25   -1    0    0    0    0  0.00000000000E+00  0.00000000000E+00  0.99999998245E-14  0.12500000000E+03  0.12500000000E+03 0.  0.
        -11    1    3    3    0    0 -0.39193484559E+02 -0.38700403856E+02 -0.52050048529E+01  0.55325785727E+02  0.51100000000E-03 0. -1.
         23    2    1    0    0    0 -0.28163842651E+02 -0.20081642992E+01  0.76632971128E+01  0.95743190889E+02  0.91163576730E+02 0.  0.
         11    1    3    3    0    0  0.11029641908E+02  0.36692239557E+02  0.12868301966E+02  0.40417405162E+02  0.51100000000E-03 0.  1.
         22    1    1    0    0    0  0.28163842651E+02  0.20081642992E+01 -0.76632971128E+01  0.29256809111E+02  0.00000000000E+00 0. -1.
</event>
<event>
 5    1  0.8962782E-005  0.9118800E+02  0.7818608E-02  0.1130116E+00
         25   -1    0    0    0    0  0.00000000000E+00  0.00000000000E+00  0.99999998245E-14  0.12500000000E+03  0.12500000000E+03 0.  0.
        -11    1    3    3    0    0  0.14603478890E+02  0.24739497546E+02 -0.17998047243E+02  0.33900354561E+02  0.51100000000E-03 0.  1.
         23    2    1    0    0    0 -0.66034098639E+01 -0.23712634033E+02  0.14937934451E+02  0.96207016128E+02  0.91797353077E+02 0.  0.
         11    1    3    3    0    0 -0.21206888754E+02 -0.48452131579E+02  0.32935981694E+02  0.62306661567E+02  0.51100000000E-03 0. -1.
         22    1    1    0    0    0  0.66034098639E+01  0.23712634033E+02 -0.14937934451E+02  0.28792983872E+02  0.00000000000E+00 0. -1.
</event>
<event>
 5    1  0.8962782E-005  0.9118800E+02  0.7818608E-02  0.1130116E+00
         25   -1    0    0    0    0  0.00000000000E+00  0.00000000000E+00  0.99999998245E-14  0.12500000000E+03  0.12500000000E+03 0.  0.
        -11    1    3    3    0    0 -0.47914603749E+02 -0.37395972460E+02  0.12465880455E+02  0.62045678209E+02  0.51100000000E-03 0.  1.
         23    2    1    0    0    0 -0.19219971044E+02 -0.21563636065E+02  0.70948991627E+01  0.95255499981E+02  0.90492402970E+02 0.  0.
         11    1    3    3    0    0  0.28694632705E+02  0.15832336395E+02 -0.53709812919E+01  0.33209821772E+02  0.51100000000E-03 0. -1.
         22    1    1    0    0    0  0.19219971044E+02  0.21563636065E+02 -0.70948991627E+01  0.29744500019E+02  0.00000000000E+00 0.  1.
</event>
<event>
 5    1  0.8962782E-005  0.9118800E+02  0.7818608E-02  0.1130116E+00
         25   -1    0    0    0    0  0.00000000000E+00  0.00000000000E+00  0.99999998245E-14  0.12500000000E+03  0.12500000000E+03 0.  0.
        -11    1    3    3    0    0 -0.37983259279E+02  0.75636649602E+01 -0.22162304947E+02  0.44621797072E+02  0.51100000000E-03 0.  1.
         23    2    1    0    0    0  0.11188271817E+02  0.11199428084E+02 -0.26514434094E+02  0.94119264404E+02  0.88909032729E+02 0.  0.
         11    1    3    3    0    0  0.49171531096E+02  0.36357631240E+01 -0.43521291467E+01  0.49497467331E+02  0.51100000000E-03 0. -1.
         22    1    1    0    0    0 -0.11188271817E+02 -0.11199428084E+02  0.26514434094E+02  0.30880735596E+02  0.00000000000E+00 0. -1.
</event>
<event>
 5    1  0.8962782E-005  0.9118800E+02  0.7818608E-02  0.1130116E+00
         25   -1    0    0    0    0  0.00000000000E+00  0.00000000000E+00  0.99999998245E-14  0.12500000000E+03  0.12500000000E+03 0.  0.
        -11    1    3    3    0    0  0.18116445496E+02  0.18161395245E+02 -0.18571270036E+02  0.31669132379E+02  0.51100000000E-03 0.  1.
         23    2    1    0    0    0 -0.13681673158E+02 -0.34349736280E+01  0.28953485408E+02  0.92792989249E+02  0.87024406418E+02 0.  0.
         11    1    3    3    0    0 -0.31798118653E+02 -0.21596368873E+02  0.47524755444E+02  0.61123856870E+02  0.51100000000E-03 0. -1.
         22    1    1    0    0    0  0.13681673158E+02  0.34349736280E+01 -0.28953485408E+02  0.32207010751E+02  0.00000000000E+00 0. -1.
</event>
<event>
 5    1  0.8962782E-005  0.9118800E+02  0.7818608E-02  0.1130116E+00
         25   -1    0    0    0    0  0.00000000000E+00  0.00000000000E+00  0.99999998245E-14  0.12500000000E+03  0.12500000000E+03 0.  0.
        -11    1    3    3    0    0 -0.32741846358E+02 -0.43770331440E+02 -0.33434216279E+01  0.54763572616E+02  0.51100000000E-03 0.  1.
         23    2    1    0    0    0 -0.26538779759E+02 -0.26623799301E+01 -0.92823201078E+01  0.96758956029E+02  0.92545875150E+02 0.  0.
         11    1    3    3    0    0  0.62030665991E+01  0.41107951510E+02 -0.59388984799E+01  0.41995383412E+02  0.51100000000E-03 0. -1.
         22    1    1    0    0    0  0.26538779759E+02  0.26623799301E+01  0.92823201078E+01  0.28241043971E+02  0.00000000000E+00 0.  1.
</event>
<event>
 5    1  0.8962782E-005  0.9118800E+02  0.7818608E-02  0.1130116E+00
         25   -1    0    0    0    0  0.00000000000E+00  0.00000000000E+00  0.99999998245E-14  0.12500000000E+03  0.12500000000E+03 0.  0.
        -11    1    3    3    0    0 -0.38423226722E+02 -0.48823680356E+02 -0.42459003758E+01  0.62274583785E+02  0.51100000000E-03 0.  1.
         23    2    1    0    0    0 -0.18540206434E+02 -0.20809872689E+02  0.14270190382E+01  0.97092537928E+02  0.92995346562E+02 0.  0.
         11    1    3    3    0    0  0.19883020288E+02  0.28013807668E+02  0.56729194140E+01  0.34817954144E+02  0.51100000000E-03 0. -1.
         22    1    1    0    0    0  0.18540206434E+02  0.20809872689E+02 -0.14270190382E+01  0.27907462072E+02  0.00000000000E+00 0.  1.
</event>
<event>
 5    1  0.8962782E-005  0.9118800E+02  0.7818608E-02  0.1130116E+00
         25   -1    0    0    0    0  0.00000000000E+00  0.00000000000E+00  0.99999998245E-14  0.12500000000E+03  0.12500000000E+03 0.  0.
        -11    1    3    3    0    0 -0.23158701573E+02 -0.10165422119E+02  0.49101366950E+02  0.55232286772E+02  0.51100000000E-03 0. -1.
         23    2    1    0    0    0 -0.28436025453E+02 -0.84258874950E+01  0.11582426611E+02  0.93160469070E+02  0.87550655438E+02 0.  0.
         11    1    3    3    0    0 -0.52773238793E+01  0.17395346238E+01 -0.37518940339E+02  0.37928182298E+02  0.51100000000E-03 0.  1.
         22    1    1    0    0    0  0.28436025453E+02  0.84258874950E+01 -0.11582426611E+02  0.31839530930E+02  0.00000000000E+00 0.  1.
</event>
<event>
 5    1  0.8962782E-005  0.9118800E+02  0.7818608E-02  0.1130116E+00
         25   -1    0    0    0    0  0.00000000000E+00  0.00000000000E+00  0.99999998245E-14  0.12500000000E+03  0.12500000000E+03 0.  0.
        -11    1    3    3    0    0 -0.36084033907E+02 -0.12929244503E+00  0.43921152687E+02  0.56843133914E+02  0.51100000000E-03 0.  1.
         23    2    1    0    0    0 -0.32684500668E+01  0.11057468052E+02  0.27449699854E+02  0.95226918406E+02  0.90452913725E+02 0.  0.
         11    1    3    3    0    0  0.32815583841E+02  0.11186760497E+02 -0.16471452833E+02  0.38383784492E+02  0.51100000000E-03 0. -1.
         22    1    1    0    0    0  0.32684500668E+01 -0.11057468052E+02 -0.27449699854E+02  0.29773081594E+02  0.00000000000E+00 0.  1.
</event>
<event>
 5    1  0.8962782E-005  0.9118800E+02  0.7818608E-02  0.1130116E+00
         25   -1    0    0    0    0  0.00000000000E+00  0.00000000000E+00  0.99999998245E-14  0.12500000000E+03  0.12500000000E+03 0.  0.
        -11    1    3    3    0    0 -0.25985107229E+02  0.47764380540E+02  0.14781702970E+01  0.54395283194E+02  0.51100000000E-03 0.  1.
         23    2    1    0    0    0 -0.27951652958E+02  0.63167869180E+01 -0.32577277751E+01  0.96158892353E+02  0.91731799765E+02 0.  0.
         11    1    3    3    0    0 -0.19665457294E+01 -0.41447593622E+02 -0.47358980721E+01  0.41763609159E+02  0.51100000000E-03 0. -1.
         22    1    1    0    0    0  0.27951652958E+02 -0.63167869180E+01  0.32577277751E+01  0.28841107647E+02  0.00000000000E+00 0.  1.
</event>
<event>
 5    1  0.8962782E-005  0.9118800E+02  0.7818608E-02  0.1130116E+00
         25   -1    0    0    0    0  0.00000000000E+00  0.00000000000E+00  0.99999998245E-14  0.12500000000E+03  0.12500000000E+03 0.  0.
        -11    1    3    3    0    0  0.27162738803E+02 -0.81415958251E+01 -0.22304681726E+02  0.36077677157E+02  0.51100000000E-03 0.  1.
         23    2    1    0    0    0 -0.17011137736E+02  0.11787076884E+01  0.20530563445E+02  0.98311571903E+02  0.94619728259E+02 0.  0.
         11    1    3    3    0    0 -0.44173876540E+02  0.93203035135E+01  0.42835245171E+02  0.62233894746E+02  0.51100000000E-03 0. -1.
         22    1    1    0    0    0  0.17011137736E+02 -0.11787076884E+01 -0.20530563445E+02  0.26688428097E+02  0.00000000000E+00 0. -1.
</event>
<event>
 5    1  0.8962782E-005  0.9118800E+02  0.7818608E-02  0.1130116E+00
         25   -1    0    0    0    0  0.00000000000E+00  0.00000000000E+00  0.99999998245E-14  0.12500000000E+03  0.12500000000E+03 0.  0.
        -11    1    3    3    0    0 -0.64744874085E+01 -0.14306494745E+02 -0.59458597658E+02  0.61497313883E+02  0.51100000000E-03 0. -1.
         23    2    1    0    0    0 -0.10177438492E+02 -0.33683597945E+01 -0.26950176988E+02  0.95995894400E+02  0.91509418095E+02 0.  0.
         11    1    3    3    0    0 -0.37029510835E+01  0.10938134951E+02  0.32508420670E+02  0.34498580517E+02  0.51100000000E-03 0.  1.
         22    1    1    0    0    0  0.10177438492E+02  0.33683597945E+01  0.26950176988E+02  0.29004105600E+02  0.00000000000E+00 0. -1.
</event>
<event>
 5    1  0.8962782E-005  0.9118800E+02  0.7818608E-02  0.1130116E+00
         25   -1    0    0    0    0  0.00000000000E+00  0.00000000000E+00  0.99999998245E-14  0.12500000000E+03  0.12500000000E+03 0.  0.
        -11    1    3    3    0    0  0.77787879336E+01 -0.37651989262E+02 -0.40722916172E+02  0.56004801035E+02  0.51100000000E-03 0. -1.
         23    2    1    0    0    0 -0.10962056074E+02 -0.57318120009E+01 -0.26675641389E+02  0.95595745449E+02  0.90961180524E+02 0.  0.
         11    1    3    3    0    0 -0.18740844008E+02  0.31920177261E+02  0.14047274783E+02  0.39590944414E+02  0.51100000000E-03 0.  1.
         22    1    1    0    0    0  0.10962056074E+02  0.57318120009E+01  0.26675641389E+02  0.29404254551E+02  0.00000000000E+00 0. -1.
</event>
<event>
 5    1  0.8962782E-005  0.9118800E+02  0.7818608E-02  0.1130116E+00
         25   -1    0    0    0    0  0.00000000000E+00  0.00000000000E+00  0.99999998245E-14  0.12500000000E+03  0.12500000000E+03 0.  0.
        -11    1    3    3    0    0  0.92424432657E+01 -0.50128935016E+02  0.14430071657E+02  0.52976974731E+02  0.51100000000E-03 0.  1.
         23    2    1    0    0    0  0.51393325065E+01 -0.22255468270E+02 -0.17987470922E+02  0.95926511789E+02  0.91414593733E+02 0.  0.
         11    1    3    3    0    0 -0.41031107592E+01  0.27873466746E+02 -0.32417542580E+02  0.42949537058E+02  0.51100000000E-03 0. -1.
         22    1    1    0    0    0 -0.51393325065E+01  0.22255468270E+02  0.17987470922E+02  0.29073488211E+02  0.00000000000E+00 0.  1.
</event>
<event>
 5    1  0.8962782E-005  0.9118800E+02  0.7818608E-02  0.1130116E+00
         25   -1    0    0    0    0  0.00000000000E+00  0.00000000000E+00  0.99999998245E-14  0.12500000000E+03  0.12500000000E+03 0.  0.
        -11    1    3    3    0    0  0.52476519614E+02  0.13089318040E+02 -0.55570839398E+01  0.54369077054E+02  0.51100000000E-03 0. -1.
         23    2    1    0    0    0  0.14279300248E+02  0.22071721179E+02 -0.15006945690E+02  0.94730085724E+02  0.89763697734E+02 0.  0.
         11    1    3    3    0    0 -0.38197219366E+02  0.89824031391E+01 -0.94498617499E+01  0.40361008670E+02  0.51100000000E-03 0.  1.
         22    1    1    0    0    0 -0.14279300248E+02 -0.22071721179E+02  0.15006945690E+02  0.30269914276E+02  0.00000000000E+00 0. -1.
</event>
<event>
 5    1  0.8962782E-005  0.9118800E+02  0.7818608E-02  0.1130116E+00
         25   -1    0    0    0    0  0.00000000000E+00  0.00000000000E+00  0.99999998245E-14  0.12500000000E+03  0.12500000000E+03 0.  0.
        -11    1    3    3    0    0  0.22301121394E+02  0.42317891000E+02 -0.19369746221E+02  0.51607470225E+02  0.51100000000E-03 0.  1.
         23    2    1    0    0    0  0.88060709885E+01  0.18172828784E+01 -0.28373024494E+02  0.95236298580E+02  0.90465875583E+02 0.  0.
         11    1    3    3    0    0 -0.13495050405E+02 -0.40500608122E+02 -0.90032782721E+01  0.43628828354E+02  0.51100000000E-03 0. -1.
         22    1    1    0    0    0 -0.88060709885E+01 -0.18172828784E+01  0.28373024494E+02  0.29763701420E+02  0.00000000000E+00 0.  1.
</event>
<event>
 5    1  0.8962782E-005  0.9118800E+02  0.7818608E-02  0.1130116E+00
         25   -1    0    0    0    0  0.00000000000E+00  0.00000000000E+00  0.99999998245E-14  0.12500000000E+03  0.12500000000E+03 0.  0.
        -11    1    3    3    0    0 -0.50999618667E+02  0.13207170443E+02 -0.15757909459E+02  0.54988200244E+02  0.51100000000E-03 0.  1.
         23    2    1    0    0    0 -0.12645138851E+02  0.21416358155E+02 -0.18036422022E+02  0.94277492737E+02  0.89131213299E+02 0.  0.
         11    1    3    3    0    0  0.38354479816E+02  0.82091877118E+01 -0.22785125632E+01  0.39289292493E+02  0.51100000000E-03 0. -1.
         22    1    1    0    0    0  0.12645138851E+02 -0.21416358155E+02  0.18036422022E+02  0.30722507263E+02  0.00000000000E+00 0.  1.
</event>
<event>
 5    1  0.8962782E-005  0.9118800E+02  0.7818608E-02  0.1130116E+00
         25   -1    0    0    0    0  0.00000000000E+00  0.00000000000E+00  0.99999998245E-14  0.12500000000E+03  0.12500000000E+03 0.  0.
        -11    1    3    3    0    0  0.12730190745E+02  0.10703242898E+02  0.24496582191E+02  0.29609115222E+02  0.51100000000E-03 0.  1.
         23    2    1    0    0    0  0.26478966982E+02 -0.28868951517E+02 -0.10773764502E+02  0.84372102495E+02  0.73946099449E+02 0.  0.
         11    1    3    3    0    0  0.13748776237E+02 -0.39572194416E+02 -0.35270346694E+02  0.54762987273E+02  0.51100000000E-03 0. -1.
         22    1    1    0    0    0 -0.26478966982E+02  0.28868951517E+02  0.10773764502E+02  0.40627897505E+02  0.00000000000E+00 0. -1.
</event>
<event>
 5    1  0.8962782E-005  0.9118800E+02  0.7818608E-02  0.1130116E+00
         25   -1    0    0    0    0  0.00000000000E+00  0.00000000000E+00  0.99999998245E-14  0.12500000000E+03  0.12500000000E+03 0.  0.
        -11    1    3    3    0    0 -0.47333846485E+02  0.38455658154E+02 -0.91817216625E+01  0.61673614132E+02  0.51100000000E-03 0.  1.
         23    2    1    0    0    0 -0.21204050856E+02  0.19929185693E+02  0.25576423041E+01  0.95788260078E+02  0.91225352943E+02 0.  0.
         11    1    3    3    0    0  0.26129795630E+02 -0.18526472460E+02  0.11739363967E+02  0.34114645947E+02  0.51100000000E-03 0. -1.
         22    1    1    0    0    0  0.21204050856E+02 -0.19929185693E+02 -0.25576423041E+01  0.29211739922E+02  0.00000000000E+00 0.  1.
</event>
<event>
 5    1  0.8962782E-005  0.9118800E+02  0.7818608E-02  0.1130116E+00
         25   -1    0    0    0    0  0.00000000000E+00  0.00000000000E+00  0.99999998245E-14  0.12500000000E+03  0.12500000000E+03 0.  0.
        -11    1    3    3    0    0 -0.12266663214E+01 -0.57087134897E+01  0.41128725969E+02  0.41541138887E+02  0.51100000000E-03 0.  1.
         23    2    1    0    0    0 -0.21420340760E+02  0.19217557805E+02 -0.29655222644E+01  0.96070087305E+02  0.91610708033E+02 0.  0.
         11    1    3    3    0    0 -0.20193674438E+02  0.24926271294E+02 -0.44094248233E+02  0.54528948417E+02  0.51100000000E-03 0. -1.
         22    1    1    0    0    0  0.21420340760E+02 -0.19217557805E+02  0.29655222644E+01  0.28929912695E+02  0.00000000000E+00 0. -1.
</event>
<event>
 5    1  0.8962782E-005  0.9118800E+02  0.7818608E-02  0.1130116E+00
         25   -1    0    0    0    0  0.00000000000E+00  0.00000000000E+00  0.99999998245E-14  0.12500000000E+03  0.12500000000E+03 0.  0.
        -11    1    3    3    0    0  0.53532575910E+02 -0.16553413813E+02 -0.18022403410E+02  0.58860506431E+02  0.51100000000E-03 0. -1.
         23    2    1    0    0    0  0.18489478193E+02 -0.19755851993E+02 -0.10691984160E+01  0.97920530340E+02  0.94101714039E+02 0.  0.
         11    1    3    3    0    0 -0.35043097717E+02 -0.32024381797E+01  0.16953204994E+02  0.39060023909E+02  0.51100000000E-03 0.  1.
         22    1    1    0    0    0 -0.18489478193E+02  0.19755851993E+02  0.10691984160E+01  0.27079469660E+02  0.00000000000E+00 0. -1.
</event>
<event>
 5    1  0.8962782E-005  0.9118800E+02  0.7818608E-02  0.1130116E+00
         25   -1    0    0    0    0  0.00000000000E+00  0.00000000000E+00  0.99999998245E-14  0.12500000000E+03  0.12500000000E+03 0.  0.
        -11    1    3    3    0    0 -0.18475713532E+02 -0.91413508221E+00 -0.22989994527E+02  0.29508091807E+02  0.51100000000E-03 0. -1.
         23    2    1    0    0    0  0.24379030166E+02  0.14281783366E+02  0.18635662508E+02  0.91153369961E+02  0.84636531653E+02 0.  0.
         11    1    3    3    0    0  0.42854743698E+02  0.15195918448E+02  0.41625657034E+02  0.61645278154E+02  0.51100000000E-03 0.  1.
         22    1    1    0    0    0 -0.24379030166E+02 -0.14281783366E+02 -0.18635662508E+02  0.33846630039E+02  0.00000000000E+00 0.  1.
</event>
<event>
 5    1  0.8962782E-005  0.9118800E+02  0.7818608E-02  0.1130116E+00
         25   -1    0    0    0    0  0.00000000000E+00  0.00000000000E+00  0.99999998245E-14  0.12500000000E+03  0.12500000000E+03 0.  0.
        -11    1    3    3    0    0  0.33810500332E+01  0.24208343967E+02 -0.38424793690E+02  0.45540533454E+02  0.51100000000E-03 0.  1.
         23    2    1    0    0    0 -0.16980027032E+02 -0.16559149114E+02 -0.16482648086E+02  0.96117402725E+02  0.91675245739E+02 0.  0.
         11    1    3    3    0    0 -0.20361077065E+02 -0.40767493080E+02  0.21942145604E+02  0.50576869271E+02  0.51100000000E-03 0. -1.
         22    1    1    0    0    0  0.16980027032E+02  0.16559149114E+02  0.16482648086E+02  0.28882597275E+02  0.00000000000E+00 0.  1.
</event>
<event>
 5    1  0.8962782E-005  0.9118800E+02  0.7818608E-02  0.1130116E+00
         25   -1    0    0    0    0  0.00000000000E+00  0.00000000000E+00  0.99999998245E-14  0.12500000000E+03  0.12500000000E+03 0.  0.
        -11    1    3    3    0    0 -0.35348599689E+02 -0.19989099009E+01  0.48036847334E+02  0.59674599645E+02  0.51100000000E-03 0. -1.
         23    2    1    0    0    0 -0.13384955088E+02 -0.13421179296E+02  0.26042014773E+02  0.92790193886E+02  0.87020391125E+02 0.  0.
         11    1    3    3    0    0  0.21963644601E+02 -0.11422269396E+02 -0.21994832561E+02  0.33115594241E+02  0.51100000000E-03 0.  1.
         22    1    1    0    0    0  0.13384955088E+02  0.13421179296E+02 -0.26042014773E+02  0.32209806114E+02  0.00000000000E+00 0. -1.
</event>
<event>
 5    1  0.8962782E-005  0.9118800E+02  0.7818608E-02  0.1130116E+00
         25   -1    0    0    0    0  0.00000000000E+00  0.00000000000E+00  0.99999998245E-14  0.12500000000E+03  0.12500000000E+03 0.  0.
        -11    1    3    3    0    0 -0.37634869828E+02  0.14312687141E+02 -0.27096826522E+02  0.48533230348E+02  0.51100000000E-03 0. -1.
         23    2    1    0    0    0 -0.18756160790E+02  0.15877809717E+02  0.16045357552E+02  0.95651202614E+02  0.91037358560E+02 0.  0.
         11    1    3    3    0    0  0.18878709038E+02  0.15651225760E+01  0.43142184074E+02  0.47117972267E+02  0.51100000000E-03 0.  1.
         22    1    1    0    0    0  0.18756160790E+02 -0.15877809717E+02 -0.16045357552E+02  0.29348797386E+02  0.00000000000E+00 0. -1.
</event>
<event>
 5    1  0.8962782E-005  0.9118800E+02  0.7818608E-02  0.1130116E+00
         25   -1    0    0    0    0  0.00000000000E+00  0.00000000000E+00  0.99999998245E-14  0.12500000000E+03  0.12500000000E+03 0.  0.
        -11    1    3    3    0    0 -0.37647246345E+01 -0.57944460698E+02 -0.16746188533E+02  0.60433173901E+02  0.51100000000E-03 0.  1.
         23    2    1    0    0    0 -0.14853596889E+01 -0.26603462623E+02  0.39554596391E+01  0.98063107494E+02  0.94290916177E+02 0.  0.
         11    1    3    3    0    0  0.22793649455E+01  0.31340998075E+02  0.20701648172E+02  0.37629933593E+02  0.51100000000E-03 0. -1.
         22    1    1    0    0    0  0.14853596889E+01  0.26603462623E+02 -0.39554596391E+01  0.26936892506E+02  0.00000000000E+00 0.  1.
</event>
<event>
 5    1  0.8962782E-005  0.9118800E+02  0.7818608E-02  0.1130116E+00
         25   -1    0    0    0    0  0.00000000000E+00  0.00000000000E+00  0.99999998245E-14  0.12500000000E+03  0.12500000000E+03 0.  0.
        -11    1    3    3    0    0 -0.16512146739E+02 -0.12174693473E+02 -0.31032842220E+02  0.37200960305E+02  0.51100000000E-03 0.  1.
         23    2    1    0    0    0  0.26126135406E+02 -0.96887086949E+01  0.89775061238E+01  0.95724726412E+02  0.91138255431E+02 0.  0.
         11    1    3    3    0    0  0.42638282145E+02  0.24859847776E+01  0.40010348344E+02  0.58523766108E+02  0.51100000000E-03 0. -1.
         22    1    1    0    0    0 -0.26126135406E+02  0.96887086949E+01 -0.89775061238E+01  0.29275273588E+02  0.00000000000E+00 0. -1.
</event>
<event>
 5    1  0.8962782E-005  0.9118800E+02  0.7818608E-02  0.1130116E+00
         25   -1    0    0    0    0  0.00000000000E+00  0.00000000000E+00  0.99999998245E-14  0.12500000000E+03  0.12500000000E+03 0.  0.
        -11    1    3    3    0    0  0.31843390413E+02  0.38252469906E+02  0.27663625041E+02  0.56943209583E+02  0.51100000000E-03 0. -1.
         23    2    1    0    0    0  0.27993865832E+02  0.14557986995E+02  0.16364833863E+00  0.93446580370E+02  0.87958200826E+02 0.  0.
         11    1    3    3    0    0 -0.38495245812E+01 -0.23694482911E+02 -0.27499976703E+02  0.36503370787E+02  0.51100000000E-03 0.  1.
         22    1    1    0    0    0 -0.27993865832E+02 -0.14557986995E+02 -0.16364833863E+00  0.31553419630E+02  0.00000000000E+00 0. -1.
</event>
<event>
 5    1  0.8962782E-005  0.9118800E+02  0.7818608E-02  0.1130116E+00
         25   -1    0    0    0    0  0.00000000000E+00  0.00000000000E+00  0.99999998245E-14  0.12500000000E+03  0.12500000000E+03 0.  0.
        -11    1    3    3    0    0 -0.11766450625E+02  0.41443048700E+02 -0.19839039354E+02  0.47429559651E+02  0.51100000000E-03 0.  1.
         23    2    1    0    0    0  0.84660066202E+00  0.16778146726E+02  0.21822055030E+02  0.97460482466E+02  0.93488612229E+02 0.  0.
         11    1    3    3    0    0  0.12613051287E+02 -0.24664901974E+02  0.41661094385E+02  0.50030922816E+02  0.51100000000E-03 0. -1.
         22    1    1    0    0    0 -0.84660066202E+00 -0.16778146726E+02 -0.21822055030E+02  0.27539517534E+02  0.00000000000E+00 0.  1.
</event>
<event>
 5    1  0.8962782E-005  0.9118800E+02  0.7818608E-02  0.1130116E+00
         25   -1    0    0    0    0  0.00000000000E+00  0.00000000000E+00  0.99999998245E-14  0.12500000000E+03  0.12500000000E+03 0.  0.
        -11    1    3    3    0    0 -0.70905870702E+01  0.19095575262E+02  0.36145861679E+02  0.41490248690E+02  0.51100000000E-03 0. -1.
         23    2    1    0    0    0 -0.53515215880E+01 -0.27667169306E+02  0.99733620365E+01  0.95107208377E+02  0.90287330751E+02 0.  0.
         11    1    3    3    0    0  0.17390654822E+01 -0.46762744568E+02 -0.26172499643E+02  0.53616959687E+02  0.51100000000E-03 0.  1.
         22    1    1    0    0    0  0.53515215880E+01  0.27667169306E+02 -0.99733620365E+01  0.29892791623E+02  0.00000000000E+00 0.  1.
</event>
<event>
 5    1  0.8962782E-005  0.9118800E+02  0.7818608E-02  0.1130116E+00
         25   -1    0    0    0    0  0.00000000000E+00  0.00000000000E+00  0.99999998245E-14  0.12500000000E+03  0.12500000000E+03 0.  0.
        -11    1    3    3    0    0 -0.16214956143E+02  0.12536590505E+01 -0.29347294841E+02  0.33552349820E+02  0.51100000000E-03 0.  1.
         23    2    1    0    0    0  0.11309844152E+02  0.74240337739E+01  0.26009850968E+02  0.95682066928E+02  0.91079727338E+02 0.  0.
         11    1    3    3    0    0  0.27524800295E+02  0.61703747234E+01  0.55357145809E+02  0.62129717108E+02  0.51100000000E-03 0. -1.
         22    1    1    0    0    0 -0.11309844152E+02 -0.74240337739E+01 -0.26009850968E+02  0.29317933072E+02  0.00000000000E+00 0. -1.
</event>
<event>
 5    1  0.8962782E-005  0.9118800E+02  0.7818608E-02  0.1130116E+00
         25   -1    0    0    0    0  0.00000000000E+00  0.00000000000E+00  0.99999998245E-14  0.12500000000E+03  0.12500000000E+03 0.  0.
        -11    1    3    3    0    0  0.15184286554E+02 -0.46214735930E+02  0.30134010582E+02  0.57222573948E+02  0.51100000000E-03 0.  1.
         23    2    1    0    0    0 -0.44355621934E+01 -0.29961358545E+02  0.28096618348E+01  0.94582054352E+02  0.89557320125E+02 0.  0.
         11    1    3    3    0    0 -0.19619848747E+02  0.16253377385E+02 -0.27324348748E+02  0.37359480403E+02  0.51100000000E-03 0. -1.
         22    1    1    0    0    0  0.44355621934E+01  0.29961358545E+02 -0.28096618348E+01  0.30417945648E+02  0.00000000000E+00 0.  1.
</event>
<event>
 5    1  0.8962782E-005  0.9118800E+02  0.7818608E-02  0.1130116E+00
         25   -1    0    0    0    0  0.00000000000E+00  0.00000000000E+00  0.99999998245E-14  0.12500000000E+03  0.12500000000E+03 0.  0.
        -11    1    3    3    0    0  0.45535934694E+02 -0.55026442688E+01  0.32683198868E+02  0.56320439726E+02  0.51100000000E-03 0.  1.
         23    2    1    0    0    0  0.28639089178E+02 -0.48699729471E+01 -0.29883049827E+01  0.95796506508E+02  0.91236651775E+02 0.  0.
         11    1    3    3    0    0 -0.16896845516E+02  0.63267132172E+00 -0.35671503851E+02  0.39476066783E+02  0.51100000000E-03 0. -1.
         22    1    1    0    0    0 -0.28639089178E+02  0.48699729471E+01  0.29883049827E+01  0.29203493492E+02  0.00000000000E+00 0.  1.
</event>
<event>
 5    1  0.8962782E-005  0.9118800E+02  0.7818608E-02  0.1130116E+00
         25   -1    0    0    0    0  0.00000000000E+00  0.00000000000E+00  0.99999998245E-14  0.12500000000E+03  0.12500000000E+03 0.  0.
        -11    1    3    3    0    0  0.77857332309E+01 -0.25108683490E+02  0.28949635107E+02  0.39104283674E+02  0.51100000000E-03 0. -1.
         23    2    1    0    0    0 -0.17754357163E+01  0.27411639011E+02  0.10686786405E+02  0.95525306975E+02  0.90864331526E+02 0.  0.
         11    1    3    3    0    0 -0.95611689471E+01  0.52520322502E+02 -0.18262848703E+02  0.56421023301E+02  0.51100000000E-03 0.  1.
         22    1    1    0    0    0  0.17754357163E+01 -0.27411639011E+02 -0.10686786405E+02  0.29474693025E+02  0.00000000000E+00 0.  1.
</event>
<event>
 5    1  0.8962782E-005  0.9118800E+02  0.7818608E-02  0.1130116E+00
         25   -1    0    0    0    0  0.00000000000E+00  0.00000000000E+00  0.99999998245E-14  0.12500000000E+03  0.12500000000E+03 0.  0.
        -11    1    3    3    0    0 -0.56727423733E+01  0.34063298541E+01 -0.33595863836E+02  0.34241278543E+02  0.51100000000E-03 0.  1.
         23    2    1    0    0    0  0.18202758619E+02 -0.75848459002E+01  0.21829064945E+02  0.95582685625E+02  0.90943231778E+02 0.  0.
         11    1    3    3    0    0  0.23875500992E+02 -0.10991175754E+02  0.55424928781E+02  0.61341407082E+02  0.51100000000E-03 0. -1.
         22    1    1    0    0    0 -0.18202758619E+02  0.75848459002E+01 -0.21829064945E+02  0.29417314375E+02  0.00000000000E+00 0. -1.
</event>
<event>
 5    1  0.8962782E-005  0.9118800E+02  0.7818608E-02  0.1130116E+00
         25   -1    0    0    0    0  0.00000000000E+00  0.00000000000E+00  0.99999998245E-14  0.12500000000E+03  0.12500000000E+03 0.  0.
        -11    1    3    3    0    0  0.22199416575E+02  0.14531617508E+02 -0.21197541891E+02  0.33960532772E+02  0.51100000000E-03 0.  1.
         23    2    1    0    0    0 -0.16987303187E+02 -0.15220084253E+02  0.17250654347E+02  0.96402718493E+02  0.92063454330E+02 0.  0.
         11    1    3    3    0    0 -0.39186719762E+02 -0.29751701760E+02  0.38448196238E+02  0.62442185721E+02  0.51100000000E-03 0. -1.
         22    1    1    0    0    0  0.16987303187E+02  0.15220084253E+02 -0.17250654347E+02  0.28597281507E+02  0.00000000000E+00 0. -1.
</event>
<event>
 5    1  0.8962782E-005  0.9118800E+02  0.7818608E-02  0.1130116E+00
         25   -1    0    0    0    0  0.00000000000E+00  0.00000000000E+00  0.99999998245E-14  0.12500000000E+03  0.12500000000E+03 0.  0.
        -11    1    3    3    0    0 -0.12579273043E+02 -0.44372517247E+02 -0.38197354386E+02  0.59884858516E+02  0.51100000000E-03 0.  1.
         23    2    1    0    0    0  0.71719059649E+01 -0.17414177491E+02 -0.96439320220E+01  0.10384119007E+03  0.10166266531E+03 0.  0.
         11    1    3    3    0    0  0.19751179008E+02  0.26958339756E+02  0.28553422364E+02  0.43956331553E+02  0.51100000000E-03 0. -1.
         22    1    1    0    0    0 -0.71719059649E+01  0.17414177491E+02  0.96439320220E+01  0.21158809931E+02  0.00000000000E+00 0.  1.
</event>
<event>
 5    1  0.8962782E-005  0.9118800E+02  0.7818608E-02  0.1130116E+00
         25   -1    0    0    0    0  0.00000000000E+00  0.00000000000E+00  0.99999998245E-14  0.12500000000E+03  0.12500000000E+03 0.  0.
        -11    1    3    3    0    0  0.33014116652E+02 -0.17782559803E+02 -0.65506522512E+01  0.38066551940E+02  0.51100000000E-03 0.  1.
         23    2    1    0    0    0 -0.82812569027E+01  0.16323707484E+02 -0.24378620695E+02  0.94514597118E+02  0.89463116866E+02 0.  0.
         11    1    3    3    0    0 -0.41295373554E+02  0.34106267287E+02 -0.17827968444E+02  0.56448045177E+02  0.51100000000E-03 0. -1.
         22    1    1    0    0    0  0.82812569027E+01 -0.16323707484E+02  0.24378620695E+02  0.30485402882E+02  0.00000000000E+00 0. -1.
</event>
<event>
 5    1  0.8962782E-005  0.9118800E+02  0.7818608E-02  0.1130116E+00
         25   -1    0    0    0    0  0.00000000000E+00  0.00000000000E+00  0.99999998245E-14  0.12500000000E+03  0.12500000000E+03 0.  0.
        -11    1    3    3    0    0 -0.31927285628E+02  0.30975391081E+02 -0.10714946152E+02  0.45756272701E+02  0.51100000000E-03 0. -1.
         23    2    1    0    0    0 -0.18995150674E+01  0.13989250043E+02  0.25549633272E+02  0.95809401607E+02  0.91254317167E+02 0.  0.
         11    1    3    3    0    0  0.30027770560E+02 -0.16986141039E+02  0.36264579424E+02  0.50053128906E+02  0.51100000000E-03 0.  1.
         22    1    1    0    0    0  0.18995150674E+01 -0.13989250043E+02 -0.25549633272E+02  0.29190598393E+02  0.00000000000E+00 0. -1.
</event>
<event>
 5    1  0.8962782E-005  0.9118800E+02  0.7818608E-02  0.1130116E+00
         25   -1    0    0    0    0  0.00000000000E+00  0.00000000000E+00  0.99999998245E-14  0.12500000000E+03  0.12500000000E+03 0.  0.
        -11    1    3    3    0    0 -0.57966963743E+00  0.45377653751E+02  0.24784866458E+02  0.51708385030E+02  0.51100000000E-03 0. -1.
         23    2    1    0    0    0  0.22637135078E+02  0.16233596001E+02 -0.11716483074E+01  0.97119141271E+02  0.93031098660E+02 0.  0.
         11    1    3    3    0    0  0.23216804716E+02 -0.29144057750E+02 -0.25956514766E+02  0.45410756241E+02  0.51100000000E-03 0.  1.
         22    1    1    0    0    0 -0.22637135078E+02 -0.16233596001E+02  0.11716483074E+01  0.27880858729E+02  0.00000000000E+00 0. -1.
</event>
<event>
 5    1  0.8962782E-005  0.9118800E+02  0.7818608E-02  0.1130116E+00
         25   -1    0    0    0    0  0.00000000000E+00  0.00000000000E+00  0.99999998245E-14  0.12500000000E+03  0.12500000000E+03 0.  0.
        -11    1    3    3    0    0 -0.38152616992E+02  0.14500670798E+02  0.28604716493E+01  0.40915448613E+02  0.51100000000E-03 0.  1.
         23    2    1    0    0    0 -0.65778498028E+01 -0.26423608152E+02  0.14860031886E+02  0.93979108275E+02  0.88711763981E+02 0.  0.
         11    1    3    3    0    0  0.31574767189E+02 -0.40924278950E+02  0.11999560236E+02  0.53063659662E+02  0.51100000000E-03 0. -1.
         22    1    1    0    0    0  0.65778498028E+01  0.26423608152E+02 -0.14860031886E+02  0.31020891725E+02  0.00000000000E+00 0. -1.
</event>
<event>
 5    1  0.8962782E-005  0.9118800E+02  0.7818608E-02  0.1130116E+00
         25   -1    0    0    0    0  0.00000000000E+00  0.00000000000E+00  0.99999998245E-14  0.12500000000E+03  0.12500000000E+03 0.  0.
        -11    1    3    3    0    0  0.15368347602E+01 -0.18210355987E+02  0.55422407171E+02  0.58357708515E+02  0.51100000000E-03 0. -1.
         23    2    1    0    0    0  0.97184121808E+01 -0.19850807210E+02  0.18602448098E+02  0.96111366293E+02  0.91667014642E+02 0.  0.
         11    1    3    3    0    0  0.81815774206E+01 -0.16404512229E+01 -0.36819959073E+02  0.37753657779E+02  0.51100000000E-03 0.  1.
         22    1    1    0    0    0 -0.97184121808E+01  0.19850807210E+02 -0.18602448098E+02  0.28888633707E+02  0.00000000000E+00 0. -1.
</event>
<event>
 5    1  0.8962782E-005  0.9118800E+02  0.7818608E-02  0.1130116E+00
         25   -1    0    0    0    0  0.00000000000E+00  0.00000000000E+00  0.99999998245E-14  0.12500000000E+03  0.12500000000E+03 0.  0.
        -11    1    3    3    0    0 -0.42230031039E+02  0.42935387898E+02 -0.37168924961E+01  0.60337702522E+02  0.51100000000E-03 0.  1.
         23    2    1    0    0    0 -0.12122110344E+02  0.28555733647E+02  0.53576736300E+00  0.93973196588E+02  0.88703433682E+02 0.  0.
         11    1    3    3    0    0  0.30107920695E+02 -0.14379654252E+02  0.42526598591E+01  0.33635494066E+02  0.51100000000E-03 0. -1.
         22    1    1    0    0    0  0.12122110344E+02 -0.28555733647E+02 -0.53576736300E+00  0.31026803412E+02  0.00000000000E+00 0.  1.
</event>
<event>
 5    1  0.8962782E-005  0.9118800E+02  0.7818608E-02  0.1130116E+00
         25   -1    0    0    0    0  0.00000000000E+00  0.00000000000E+00  0.99999998245E-14  0.12500000000E+03  0.12500000000E+03 0.  0.
        -11    1    3    3    0    0 -0.18796252968E+02  0.39383881717E+02  0.22274864436E+02  0.48995498269E+02  0.51100000000E-03 0.  1.
         23    2    1    0    0    0  0.20359360615E+02  0.20923700968E+02  0.63323516292E+01  0.95126876561E+02  0.90314556636E+02 0.  0.
         11    1    3    3    0    0  0.39155613583E+02 -0.18460180749E+02 -0.15942512806E+02  0.46131378293E+02  0.51100000000E-03 0. -1.
         22    1    1    0    0    0 -0.20359360615E+02 -0.20923700968E+02 -0.63323516292E+01  0.29873123439E+02  0.00000000000E+00 0.  1.
</event>
<event>
 5    1  0.8962782E-005  0.9118800E+02  0.7818608E-02  0.1130116E+00
         25   -1    0    0    0    0  0.00000000000E+00  0.00000000000E+00  0.99999998245E-14  0.12500000000E+03  0.12500000000E+03 0.  0.
        -11    1    3    3    0    0 -0.35305038976E+02  0.20875254076E+02 -0.83258449880E+01  0.41851424167E+02  0.51100000000E-03 0. -1.
         23    2    1    0    0    0 -0.50499687479E+01 -0.25950276774E+02 -0.71493938540E+01  0.97613271800E+02  0.93692678209E+02 0.  0.
         11    1    3    3    0    0  0.30255070228E+02 -0.46825530850E+02  0.11764511340E+01  0.55761847633E+02  0.51100000000E-03 0.  1.
         22    1    1    0    0    0  0.50499687479E+01  0.25950276774E+02  0.71493938540E+01  0.27386728200E+02  0.00000000000E+00 0.  1.
</event>
<event>
 5    1  0.8962782E-005  0.9118800E+02  0.7818608E-02  0.1130116E+00
         25   -1    0    0    0    0  0.00000000000E+00  0.00000000000E+00  0.99999998245E-14  0.12500000000E+03  0.12500000000E+03 0.  0.
        -11    1    3    3    0    0  0.12370343730E+02 -0.30952469461E+01 -0.47319624727E+02  0.49007681462E+02  0.51100000000E-03 0. -1.
         23    2    1    0    0    0 -0.22775054951E+02 -0.74263759921E+01 -0.17000772356E+02  0.95625173207E+02  0.91001611534E+02 0.  0.
         11    1    3    3    0    0 -0.35145398681E+02 -0.43311290459E+01  0.30318852371E+02  0.46617491745E+02  0.51100000000E-03 0.  1.
         22    1    1    0    0    0  0.22775054951E+02  0.74263759921E+01  0.17000772356E+02  0.29374826793E+02  0.00000000000E+00 0.  1.
</event>
<event>
 5    1  0.8962782E-005  0.9118800E+02  0.7818608E-02  0.1130116E+00
         25   -1    0    0    0    0  0.00000000000E+00  0.00000000000E+00  0.99999998245E-14  0.12500000000E+03  0.12500000000E+03 0.  0.
        -11    1    3    3    0    0 -0.50479807735E+02  0.33664118966E+02  0.14453361024E+02  0.62372939163E+02  0.51100000000E-03 0.  1.
         23    2    1    0    0    0 -0.24773713477E+02  0.15537086809E+02  0.41961016790E+01  0.95457738487E+02  0.90771331498E+02 0.  0.
         11    1    3    3    0    0  0.25706094258E+02 -0.18127032157E+02 -0.10257259345E+02  0.33084799324E+02  0.51100000000E-03 0. -1.
         22    1    1    0    0    0  0.24773713477E+02 -0.15537086809E+02 -0.41961016790E+01  0.29542261513E+02  0.00000000000E+00 0.  1.
</event>
<event>
 5    1  0.8962782E-005  0.9118800E+02  0.7818608E-02  0.1130116E+00
         25   -1    0    0    0    0  0.00000000000E+00  0.00000000000E+00  0.99999998245E-14  0.12500000000E+03  0.12500000000E+03 0.  0.
        -11    1    3    3    0    0 -0.11183911789E+02  0.14587889069E+02 -0.32330492534E+02  0.37190686174E+02  0.51100000000E-03 0.  1.
         23    2    1    0    0    0 -0.83880861611E+01  0.18751349722E+02  0.23809233766E+02  0.93553971342E+02  0.88110685138E+02 0.  0.
         11    1    3    3    0    0  0.27958256275E+01  0.41634606529E+01  0.56139726300E+02  0.56363285167E+02  0.51100000000E-03 0. -1.
         22    1    1    0    0    0  0.83880861611E+01 -0.18751349722E+02 -0.23809233766E+02  0.31446028658E+02  0.00000000000E+00 0. -1.
</event>
<event>
 5    1  0.8962782E-005  0.9118800E+02  0.7818608E-02  0.1130116E+00
         25   -1    0    0    0    0  0.00000000000E+00  0.00000000000E+00  0.99999998245E-14  0.12500000000E+03  0.12500000000E+03 0.  0.
        -11    1    3    3    0    0  0.30213138766E+02 -0.33966849095E+02 -0.23506751872E+02  0.51177612052E+02  0.51100000000E-03 0. -1.
         23    2    1    0    0    0  0.10349580950E+02 -0.25833628000E+02  0.13584599195E+02  0.94031766328E+02  0.88785931216E+02 0.  0.
         11    1    3    3    0    0 -0.19863557816E+02  0.81332210947E+01  0.37091351067E+02  0.42854154276E+02  0.51100000000E-03 0.  1.
         22    1    1    0    0    0 -0.10349580950E+02  0.25833628000E+02 -0.13584599195E+02  0.30968233672E+02  0.00000000000E+00 0. -1.
</event>
<event>
 5    1  0.8962782E-005  0.9118800E+02  0.7818608E-02  0.1130116E+00
         25   -1    0    0    0    0  0.00000000000E+00  0.00000000000E+00  0.99999998245E-14  0.12500000000E+03  0.12500000000E+03 0.  0.
        -11    1    3    3    0    0 -0.34056702639E+02  0.13126556274E+02  0.38659352411E+02  0.53166822393E+02  0.51100000000E-03 0.  1.
         23    2    1    0    0    0 -0.73823795583E+00 -0.11382546067E+02  0.26295382374E+02  0.96337228249E+02  0.91974491368E+02 0.  0.
         11    1    3    3    0    0  0.33318464684E+02 -0.24509102341E+02 -0.12363970038E+02  0.43170405856E+02  0.51100000000E-03 0. -1.
         22    1    1    0    0    0  0.73823795583E+00  0.11382546067E+02 -0.26295382374E+02  0.28662771751E+02  0.00000000000E+00 0.  1.
</event>
<event>
 5    1  0.8962782E-005  0.9118800E+02  0.7818608E-02  0.1130116E+00
         25   -1    0    0    0    0  0.00000000000E+00  0.00000000000E+00  0.99999998245E-14  0.12500000000E+03  0.12500000000E+03 0.  0.
        -11    1    3    3    0    0  0.24184768496E+01 -0.44817121089E+02 -0.14744001066E+02  0.47242025154E+02  0.51100000000E-03 0.  1.
         23    2    1    0    0    0  0.28389448270E+02 -0.50686192415E+01 -0.45500220960E+01  0.95804891246E+02  0.91248138674E+02 0.  0.
         11    1    3    3    0    0  0.25970971420E+02  0.39748501847E+02  0.10193978970E+02  0.48562866092E+02  0.51100000000E-03 0. -1.
         22    1    1    0    0    0 -0.28389448270E+02  0.50686192415E+01  0.45500220960E+01  0.29195108754E+02  0.00000000000E+00 0.  1.
</event>
<event>
 5    1  0.8962782E-005  0.9118800E+02  0.7818608E-02  0.1130116E+00
         25   -1    0    0    0    0  0.00000000000E+00  0.00000000000E+00  0.99999998245E-14  0.12500000000E+03  0.12500000000E+03 0.  0.
        -11    1    3    3    0    0  0.27966545495E+02 -0.26965969681E+02  0.30473441040E+02  0.49375315663E+02  0.51100000000E-03 0.  1.
         23    2    1    0    0    0  0.29181944816E+02 -0.77654379971E+00 -0.68768017879E+01  0.95008679149E+02  0.90150816898E+02 0.  0.
         11    1    3    3    0    0  0.12153993213E+01  0.26189425881E+02 -0.37350242828E+02  0.45633363486E+02  0.51100000000E-03 0. -1.
         22    1    1    0    0    0 -0.29181944816E+02  0.77654379971E+00  0.68768017879E+01  0.29991320851E+02  0.00000000000E+00 0.  1.
</event>
<event>
 5    1  0.8962782E-005  0.9118800E+02  0.7818608E-02  0.1130116E+00
         25   -1    0    0    0    0  0.00000000000E+00  0.00000000000E+00  0.99999998245E-14  0.12500000000E+03  0.12500000000E+03 0.  0.
        -11    1    3    3    0    0 -0.33918903131E+01  0.43131061352E+02 -0.40274615230E+02  0.59108696530E+02  0.51100000000E-03 0.  1.
         23    2    1    0    0    0 -0.14612176282E+02  0.27333380104E+02 -0.16152520252E+02  0.90049559744E+02  0.82990300252E+02 0.  0.
         11    1    3    3    0    0 -0.11220285969E+02 -0.15797681248E+02  0.24122094978E+02  0.30940863214E+02  0.51100000000E-03 0. -1.
         22    1    1    0    0    0  0.14612176282E+02 -0.27333380104E+02  0.16152520252E+02  0.34950440256E+02  0.00000000000E+00 0.  1.
</event>
<event>
 5    1  0.8962782E-005  0.9118800E+02  0.7818608E-02  0.1130116E+00
         25   -1    0    0    0    0  0.00000000000E+00  0.00000000000E+00  0.99999998245E-14  0.12500000000E+03  0.12500000000E+03 0.  0.
        -11    1    3    3    0    0 -0.10103376696E+01  0.11169357787E+01 -0.36680262619E+02  0.36711169878E+02  0.51100000000E-03 0.  1.
         23    2    1    0    0    0  0.14458883539E+02 -0.22666693950E+02  0.13921321857E+02  0.94723911579E+02  0.89755099547E+02 0.  0.
         11    1    3    3    0    0  0.15469221209E+02 -0.23783629728E+02  0.50601584477E+02  0.58012741701E+02  0.51100000000E-03 0. -1.
         22    1    1    0    0    0 -0.14458883539E+02  0.22666693950E+02 -0.13921321857E+02  0.30276088421E+02  0.00000000000E+00 0. -1.
</event>
<event>
 5    1  0.8962782E-005  0.9118800E+02  0.7818608E-02  0.1130116E+00
         25   -1    0    0    0    0  0.00000000000E+00  0.00000000000E+00  0.99999998245E-14  0.12500000000E+03  0.12500000000E+03 0.  0.
        -11    1    3    3    0    0 -0.19546781032E+02 -0.17679019081E+02 -0.17338452966E+02  0.31547524719E+02  0.51100000000E-03 0.  1.
         23    2    1    0    0    0  0.18963815543E+02 -0.12881742440E+02  0.26409643740E+02  0.90028084544E+02  0.82957947997E+02 0.  0.
         11    1    3    3    0    0  0.38510596575E+02  0.47972766410E+01  0.43748096706E+02  0.58480559825E+02  0.51100000000E-03 0. -1.
         22    1    1    0    0    0 -0.18963815543E+02  0.12881742440E+02 -0.26409643740E+02  0.34971915456E+02  0.00000000000E+00 0. -1.
</event>
<event>
 5    1  0.8962782E-005  0.9118800E+02  0.7818608E-02  0.1130116E+00
         25   -1    0    0    0    0  0.00000000000E+00  0.00000000000E+00  0.99999998245E-14  0.12500000000E+03  0.12500000000E+03 0.  0.
        -11    1    3    3    0    0  0.21576219807E+02 -0.55359393110E+01 -0.55820904792E+02  0.60101192145E+02  0.51100000000E-03 0. -1.
         23    2    1    0    0    0  0.18531503244E+02 -0.11137622005E+02 -0.23410042370E+02  0.93133194070E+02  0.87511705031E+02 0.  0.
         11    1    3    3    0    0 -0.30447165628E+01 -0.56016826940E+01  0.32410862422E+02  0.33032001924E+02  0.51100000000E-03 0.  1.
         22    1    1    0    0    0 -0.18531503244E+02  0.11137622005E+02  0.23410042370E+02  0.31866805930E+02  0.00000000000E+00 0. -1.
</event>
<event>
 5    1  0.8962782E-005  0.9118800E+02  0.7818608E-02  0.1130116E+00
         25   -1    0    0    0    0  0.00000000000E+00  0.00000000000E+00  0.99999998245E-14  0.12500000000E+03  0.12500000000E+03 0.  0.
        -11    1    3    3    0    0 -0.25838071861E+02 -0.17084210589E+02  0.30290958419E+02  0.43324570063E+02  0.51100000000E-03 0.  1.
         23    2    1    0    0    0  0.28451095349E+01 -0.26220000652E+02 -0.12636546952E+02  0.95755079050E+02  0.91179875864E+02 0.  0.
         11    1    3    3    0    0  0.28683181396E+02 -0.91357900633E+01 -0.42927505370E+02  0.52430508987E+02  0.51100000000E-03 0. -1.
         22    1    1    0    0    0 -0.28451095349E+01  0.26220000652E+02  0.12636546952E+02  0.29244920950E+02  0.00000000000E+00 0.  1.
</event>
<event>
 5    1  0.8962782E-005  0.9118800E+02  0.7818608E-02  0.1130116E+00
         25   -1    0    0    0    0  0.00000000000E+00  0.00000000000E+00  0.99999998245E-14  0.12500000000E+03  0.12500000000E+03 0.  0.
        -11    1    3    3    0    0 -0.11917761217E+02 -0.46452461301E+02 -0.60917140748E+01  0.48342250402E+02  0.51100000000E-03 0.  1.
         23    2    1    0    0    0 -0.29335561859E+02 -0.36542018665E+01  0.24667024794E+01  0.95334986904E+02  0.90602134225E+02 0.  0.
         11    1    3    3    0    0 -0.17417800642E+02  0.42798259434E+02  0.85584165542E+01  0.46992736502E+02  0.51100000000E-03 0. -1.
         22    1    1    0    0    0  0.29335561859E+02  0.36542018665E+01 -0.24667024794E+01  0.29665013096E+02  0.00000000000E+00 0.  1.
</event>
<event>
 5    1  0.8962782E-005  0.9118800E+02  0.7818608E-02  0.1130116E+00
         25   -1    0    0    0    0  0.00000000000E+00  0.00000000000E+00  0.99999998245E-14  0.12500000000E+03  0.12500000000E+03 0.  0.
        -11    1    3    3    0    0  0.62149590368E+01 -0.30806732601E+02  0.43786688915E+02  0.53897630892E+02  0.51100000000E-03 0.  1.
         23    2    1    0    0    0 -0.19467205213E+02 -0.65390113135E+01  0.18634355086E+02  0.97269692803E+02  0.93233165777E+02 0.  0.
         11    1    3    3    0    0 -0.25682164250E+02  0.24267721287E+02 -0.25152333829E+02  0.43372061911E+02  0.51100000000E-03 0. -1.
         22    1    1    0    0    0  0.19467205213E+02  0.65390113135E+01 -0.18634355086E+02  0.27730307197E+02  0.00000000000E+00 0.  1.
</event>
<event>
 5    1  0.8962782E-005  0.9118800E+02  0.7818608E-02  0.1130116E+00
         25   -1    0    0    0    0  0.00000000000E+00  0.00000000000E+00  0.99999998245E-14  0.12500000000E+03  0.12500000000E+03 0.  0.
        -11    1    3    3    0    0  0.25276715581E+02  0.34671453082E+02  0.16067962584E+02  0.45817043021E+02  0.51100000000E-03 0.  1.
         23    2    1    0    0    0  0.27271170142E+02 -0.12095108434E+02  0.44755886751E+00  0.95163634976E+02  0.90365417854E+02 0.  0.
         11    1    3    3    0    0  0.19944545605E+01 -0.46766561515E+02 -0.15620403716E+02  0.49346591954E+02  0.51100000000E-03 0. -1.
         22    1    1    0    0    0 -0.27271170142E+02  0.12095108434E+02 -0.44755886751E+00  0.29836365024E+02  0.00000000000E+00 0. -1.
</event>
<event>
 5    1  0.8962782E-005  0.9118800E+02  0.7818608E-02  0.1130116E+00
         25   -1    0    0    0    0  0.00000000000E+00  0.00000000000E+00  0.99999998245E-14  0.12500000000E+03  0.12500000000E+03 0.  0.
        -11    1    3    3    0    0 -0.80865754196E+01 -0.30627738584E+02  0.22298780357E+02  0.38738697428E+02  0.51100000000E-03 0.  1.
         23    2    1    0    0    0 -0.19750732971E+02  0.21658826975E+02  0.36598937492E+01  0.95460347647E+02  0.90774924466E+02 0.  0.
         11    1    3    3    0    0 -0.11664157552E+02  0.52286565559E+02 -0.18638886608E+02  0.56721650219E+02  0.51100000000E-03 0. -1.
         22    1    1    0    0    0  0.19750732971E+02 -0.21658826975E+02 -0.36598937492E+01  0.29539652353E+02  0.00000000000E+00 0. -1.
</event>
<event>
 5    1  0.8962782E-005  0.9118800E+02  0.7818608E-02  0.1130116E+00
         25   -1    0    0    0    0  0.00000000000E+00  0.00000000000E+00  0.99999998245E-14  0.12500000000E+03  0.12500000000E+03 0.  0.
        -11    1    3    3    0    0  0.33604034627E+02  0.22724596039E+02  0.11586587957E+02  0.42188712105E+02  0.51100000000E-03 0.  1.
         23    2    1    0    0    0  0.29644249099E+01  0.25398852123E+01 -0.28327715487E+02  0.96404575600E+02  0.92065975799E+02 0.  0.
         11    1    3    3    0    0 -0.30639609717E+02 -0.20184710827E+02 -0.39914303444E+02  0.54215863494E+02  0.51100000000E-03 0. -1.
         22    1    1    0    0    0 -0.29644249099E+01 -0.25398852123E+01  0.28327715487E+02  0.28595424400E+02  0.00000000000E+00 0.  1.
</event>
<event>
 5    1  0.8962782E-005  0.9118800E+02  0.7818608E-02  0.1130116E+00
         25   -1    0    0    0    0  0.00000000000E+00  0.00000000000E+00  0.99999998245E-14  0.12500000000E+03  0.12500000000E+03 0.  0.
        -11    1    3    3    0    0 -0.27125849734E+02 -0.17057098505E+02 -0.18867431013E+02  0.37185162182E+02  0.51100000000E-03 0.  1.
         23    2    1    0    0    0 -0.29199525260E+02  0.19639253577E+02  0.14607168945E+02  0.86899055903E+02  0.78100985754E+02 0.  0.
         11    1    3    3    0    0 -0.20736755256E+01  0.36696352082E+02  0.33474599958E+02  0.49713893721E+02  0.51100000000E-03 0. -1.
         22    1    1    0    0    0  0.29199525260E+02 -0.19639253577E+02 -0.14607168945E+02  0.38100944097E+02  0.00000000000E+00 0. -1.
</event>
<event>
 5    1  0.8962782E-005  0.9118800E+02  0.7818608E-02  0.1130116E+00
         25   -1    0    0    0    0  0.00000000000E+00  0.00000000000E+00  0.99999998245E-14  0.12500000000E+03  0.12500000000E+03 0.  0.
        -11    1    3    3    0    0  0.53642429974E+02 -0.27941765393E+01  0.41876053052E+01  0.53878138002E+02  0.51100000000E-03 0.  1.
         23    2    1    0    0    0  0.16806019590E+02 -0.12646592165E+02  0.20753096112E+02  0.95452249052E+02  0.90763771754E+02 0.  0.
         11    1    3    3    0    0 -0.36836410385E+02 -0.98524156261E+01  0.16565490807E+02  0.41574111050E+02  0.51100000000E-03 0. -1.
         22    1    1    0    0    0 -0.16806019590E+02  0.12646592165E+02 -0.20753096112E+02  0.29547750948E+02  0.00000000000E+00 0.  1.
</event>
<event>
 5    1  0.8962782E-005  0.9118800E+02  0.7818608E-02  0.1130116E+00
         25   -1    0    0    0    0  0.00000000000E+00  0.00000000000E+00  0.99999998245E-14  0.12500000000E+03  0.12500000000E+03 0.  0.
        -11    1    3    3    0    0  0.38191518225E+02 -0.25925205463E+02  0.19126483605E+01  0.46199205260E+02  0.51100000000E-03 0.  1.
         23    2    1    0    0    0  0.78748446027E+01 -0.43342255794E+01 -0.29035871223E+02  0.94604597279E+02  0.89588778983E+02 0.  0.
         11    1    3    3    0    0 -0.30316673622E+02  0.21590979884E+02 -0.30948519584E+02  0.48405392019E+02  0.51100000000E-03 0. -1.
         22    1    1    0    0    0 -0.78748446027E+01  0.43342255794E+01  0.29035871223E+02  0.30395402721E+02  0.00000000000E+00 0. -1.
</event>
<event>
 5    1  0.8962782E-005  0.9118800E+02  0.7818608E-02  0.1130116E+00
         25   -1    0    0    0    0  0.00000000000E+00  0.00000000000E+00  0.99999998245E-14  0.12500000000E+03  0.12500000000E+03 0.  0.
        -11    1    3    3    0    0  0.54616698067E+02  0.10206717599E+02  0.17347026967E+02  0.58207217222E+02  0.51100000000E-03 0.  1.
         23    2    1    0    0    0  0.29333056791E+02 -0.41192133323E+00 -0.69573033498E+01  0.94850340470E+02  0.89931001982E+02 0.  0.
         11    1    3    3    0    0 -0.25283641276E+02 -0.10618638933E+02 -0.24304330317E+02  0.36643123248E+02  0.51100000000E-03 0. -1.
         22    1    1    0    0    0 -0.29333056791E+02  0.41192133323E+00  0.69573033498E+01  0.30149659530E+02  0.00000000000E+00 0.  1.
</event>
<event>
 5    1  0.8962782E-005  0.9118800E+02  0.7818608E-02  0.1130116E+00
         25   -1    0    0    0    0  0.00000000000E+00  0.00000000000E+00  0.99999998245E-14  0.12500000000E+03  0.12500000000E+03 0.  0.
        -11    1    3    3    0    0 -0.16884083183E+02  0.46816174160E+02  0.35241415609E+02  0.60981831740E+02  0.51100000000E-03 0. -1.
         23    2    1    0    0    0 -0.15322966839E+02  0.22884356762E+02  0.10264250013E+02  0.95608812112E+02  0.90979135124E+02 0.  0.
         11    1    3    3    0    0  0.15611163440E+01 -0.23931817398E+02 -0.24977165596E+02  0.34626980372E+02  0.51100000000E-03 0.  1.
         22    1    1    0    0    0  0.15322966839E+02 -0.22884356762E+02 -0.10264250013E+02  0.29391187888E+02  0.00000000000E+00 0. -1.
</event>
<event>
 5    1  0.8962782E-005  0.9118800E+02  0.7818608E-02  0.1130116E+00
         25   -1    0    0    0    0  0.00000000000E+00  0.00000000000E+00  0.99999998245E-14  0.12500000000E+03  0.12500000000E+03 0.  0.
        -11    1    3    3    0    0 -0.28881677469E+02 -0.39728207626E+02  0.24297477524E+02  0.54798258995E+02  0.51100000000E-03 0.  1.
         23    2    1    0    0    0  0.71105953123E+01 -0.25475496919E+02  0.14933164520E+02  0.94626312184E+02  0.89619071887E+02 0.  0.
         11    1    3    3    0    0  0.35992272782E+02  0.14252710707E+02 -0.93643130041E+01  0.39828053188E+02  0.51100000000E-03 0. -1.
         22    1    1    0    0    0 -0.71105953123E+01  0.25475496919E+02 -0.14933164520E+02  0.30373687816E+02  0.00000000000E+00 0.  1.
</event>
<event>
 5    1  0.8962782E-005  0.9118800E+02  0.7818608E-02  0.1130116E+00
         25   -1    0    0    0    0  0.00000000000E+00  0.00000000000E+00  0.99999998245E-14  0.12500000000E+03  0.12500000000E+03 0.  0.
        -11    1    3    3    0    0 -0.10728265068E+02 -0.58627691801E+02 -0.93792251287E+01  0.60334664841E+02  0.51100000000E-03 0.  1.
         23    2    1    0    0    0  0.36545410032E+01 -0.29897448503E+02  0.29226378174E+01  0.94738557392E+02  0.89775494140E+02 0.  0.
         11    1    3    3    0    0  0.14382806071E+02  0.28730243298E+02  0.12301862946E+02  0.34403892551E+02  0.51100000000E-03 0. -1.
         22    1    1    0    0    0 -0.36545410032E+01  0.29897448503E+02 -0.29226378174E+01  0.30261442608E+02  0.00000000000E+00 0.  1.
</event>
<event>
 5    1  0.8962782E-005  0.9118800E+02  0.7818608E-02  0.1130116E+00
         25   -1    0    0    0    0  0.00000000000E+00  0.00000000000E+00  0.99999998245E-14  0.12500000000E+03  0.12500000000E+03 0.  0.
        -11    1    3    3    0    0 -0.48853921817E+02 -0.30209079183E+02 -0.22713546373E+02  0.61767299853E+02  0.51100000000E-03 0.  1.
         23    2    1    0    0    0 -0.25529666383E+02 -0.19398387767E+02 -0.61412836444E+01  0.92353764714E+02  0.86391210076E+02 0.  0.
         11    1    3    3    0    0  0.23324255435E+02  0.10810691416E+02  0.16572262729E+02  0.30586464861E+02  0.51100000000E-03 0. -1.
         22    1    1    0    0    0  0.25529666383E+02  0.19398387767E+02  0.61412836444E+01  0.32646235286E+02  0.00000000000E+00 0.  1.
</event>
<event>
 5    1  0.8962782E-005  0.9118800E+02  0.7818608E-02  0.1130116E+00
         25   -1    0    0    0    0  0.00000000000E+00  0.00000000000E+00  0.99999998245E-14  0.12500000000E+03  0.12500000000E+03 0.  0.
        -11    1    3    3    0    0  0.33649497471E+02 -0.23193983810E+01 -0.35828790975E+02  0.49207423748E+02  0.51100000000E-03 0.  1.
         23    2    1    0    0    0  0.31618129826E+02  0.93883192116E+01  0.49192219077E+01  0.91652655046E+02  0.85370743006E+02 0.  0.
         11    1    3    3    0    0 -0.20313676450E+01  0.11707717593E+02  0.40748012883E+02  0.42445231298E+02  0.51100000000E-03 0. -1.
         22    1    1    0    0    0 -0.31618129826E+02 -0.93883192116E+01 -0.49192219077E+01  0.33347344954E+02  0.00000000000E+00 0. -1.
</event>
<event>
 5    1  0.8962782E-005  0.9118800E+02  0.7818608E-02  0.1130116E+00
         25   -1    0    0    0    0  0.00000000000E+00  0.00000000000E+00  0.99999998245E-14  0.12500000000E+03  0.12500000000E+03 0.  0.
        -11    1    3    3    0    0  0.22732478537E+01 -0.24175521917E+01 -0.33525491063E+02  0.33689327178E+02  0.51100000000E-03 0.  1.
         23    2    1    0    0    0  0.10456904365E+02  0.18347691326E+02  0.22587188334E+02  0.94078070844E+02  0.88851098536E+02 0.  0.
         11    1    3    3    0    0  0.81836565109E+01  0.20765243518E+02  0.56112679397E+02  0.60388743666E+02  0.51100000000E-03 0. -1.
         22    1    1    0    0    0 -0.10456904365E+02 -0.18347691326E+02 -0.22587188334E+02  0.30921929156E+02  0.00000000000E+00 0. -1.
</event>
<event>
 5    1  0.8962782E-005  0.9118800E+02  0.7818608E-02  0.1130116E+00
         25   -1    0    0    0    0  0.00000000000E+00  0.00000000000E+00  0.99999998245E-14  0.12500000000E+03  0.12500000000E+03 0.  0.
        -11    1    3    3    0    0  0.33130868444E+02  0.64400235123E+00 -0.13213310910E+02  0.35674371310E+02  0.51100000000E-03 0.  1.
         23    2    1    0    0    0 -0.29787064338E+01 -0.17059667987E+01  0.31566498180E+02  0.93247412356E+02  0.87674700393E+02 0.  0.
         11    1    3    3    0    0 -0.36109574878E+02 -0.23499691500E+01  0.44779809090E+02  0.57573041046E+02  0.51100000000E-03 0. -1.
         22    1    1    0    0    0  0.29787064338E+01  0.17059667987E+01 -0.31566498180E+02  0.31752587644E+02  0.00000000000E+00 0. -1.
</event>
<event>
 5    1  0.8962782E-005  0.9118800E+02  0.7818608E-02  0.1130116E+00
         25   -1    0    0    0    0  0.00000000000E+00  0.00000000000E+00  0.99999998245E-14  0.12500000000E+03  0.12500000000E+03 0.  0.
        -11    1    3    3    0    0 -0.46621857655E+02  0.52812162964E+00 -0.38379103660E+02  0.60389006630E+02  0.51100000000E-03 0. -1.
         23    2    1    0    0    0 -0.18974798054E+02  0.11479415241E+02 -0.17976493824E+02  0.96452245873E+02  0.92130676044E+02 0.  0.
         11    1    3    3    0    0  0.27647059601E+02  0.10951293611E+02  0.20402609836E+02  0.36063239244E+02  0.51100000000E-03 0.  1.
         22    1    1    0    0    0  0.18974798054E+02 -0.11479415241E+02  0.17976493824E+02  0.28547754127E+02  0.00000000000E+00 0. -1.
</event>
<event>
 5    1  0.8962782E-005  0.9118800E+02  0.7818608E-02  0.1130116E+00
         25   -1    0    0    0    0  0.00000000000E+00  0.00000000000E+00  0.99999998245E-14  0.12500000000E+03  0.12500000000E+03 0.  0.
        -11    1    3    3    0    0  0.25462922107E+02 -0.46011849826E+02  0.25286965788E+00  0.52588160929E+02  0.51100000000E-03 0.  1.
         23    2    1    0    0    0  0.28832070531E+02 -0.28428104762E+01  0.23010186464E+01  0.95936886793E+02  0.91428779376E+02 0.  0.
         11    1    3    3    0    0  0.33691484240E+01  0.43169039349E+02  0.20481489885E+01  0.43348725864E+02  0.51100000000E-03 0. -1.
         22    1    1    0    0    0 -0.28832070531E+02  0.28428104762E+01 -0.23010186464E+01  0.29063113207E+02  0.00000000000E+00 0.  1.
</event>
<event>
 5    1  0.8962782E-005  0.9118800E+02  0.7818608E-02  0.1130116E+00
         25   -1    0    0    0    0  0.00000000000E+00  0.00000000000E+00  0.99999998245E-14  0.12500000000E+03  0.12500000000E+03 0.  0.
        -11    1    3    3    0    0  0.71669938976E+01  0.36367449905E+02  0.17123097794E+02  0.40830842417E+02  0.51100000000E-03 0.  1.
         23    2    1    0    0    0  0.22255445374E+02  0.49814611737E+01 -0.22072274820E+02  0.93261929486E+02  0.87695395383E+02 0.  0.
         11    1    3    3    0    0  0.15088451477E+02 -0.31385988732E+02 -0.39195372614E+02  0.52431087069E+02  0.51100000000E-03 0. -1.
         22    1    1    0    0    0 -0.22255445374E+02 -0.49814611737E+01  0.22072274820E+02  0.31738070514E+02  0.00000000000E+00 0. -1.
</event>
<event>
 5    1  0.8962782E-005  0.9118800E+02  0.7818608E-02  0.1130116E+00
         25   -1    0    0    0    0  0.00000000000E+00  0.00000000000E+00  0.99999998245E-14  0.12500000000E+03  0.12500000000E+03 0.  0.
        -11    1    3    3    0    0  0.47544076667E+02 -0.15398113505E+02  0.24084871337E+00  0.49975985573E+02  0.51100000000E-03 0.  1.
         23    2    1    0    0    0  0.56148070199E+01 -0.26791910602E+02 -0.11991413894E+02  0.95114777251E+02  0.90297809014E+02 0.  0.
         11    1    3    3    0    0 -0.41929269647E+02 -0.11393797097E+02 -0.12232262607E+02  0.45138791678E+02  0.51100000000E-03 0. -1.
         22    1    1    0    0    0 -0.56148070199E+01  0.26791910602E+02  0.11991413894E+02  0.29885222749E+02  0.00000000000E+00 0.  1.
</event>
<event>
 5    1  0.8962782E-005  0.9118800E+02  0.7818608E-02  0.1130116E+00
         25   -1    0    0    0    0  0.00000000000E+00  0.00000000000E+00  0.99999998245E-14  0.12500000000E+03  0.12500000000E+03 0.  0.
        -11    1    3    3    0    0  0.31621441470E+02  0.46560820333E+02  0.25938193335E+02  0.61972699025E+02  0.51100000000E-03 0.  1.
         23    2    1    0    0    0  0.11622603984E+02  0.20685255968E+02  0.16796662705E+02  0.95929523295E+02  0.91418711563E+02 0.  0.
         11    1    3    3    0    0 -0.19998837486E+02 -0.25875564365E+02 -0.91415306306E+01  0.33956824270E+02  0.51100000000E-03 0. -1.
         22    1    1    0    0    0 -0.11622603984E+02 -0.20685255968E+02 -0.16796662705E+02  0.29070476705E+02  0.00000000000E+00 0.  1.
</event>
<event>
 5    1  0.8962782E-005  0.9118800E+02  0.7818608E-02  0.1130116E+00
         25   -1    0    0    0    0  0.00000000000E+00  0.00000000000E+00  0.99999998245E-14  0.12500000000E+03  0.12500000000E+03 0.  0.
        -11    1    3    3    0    0  0.27933740096E+02  0.43591695180E+02  0.33777115991E+02  0.61817661629E+02  0.51100000000E-03 0.  1.
         23    2    1    0    0    0  0.13970032729E+02  0.23120302584E+02  0.98991448164E+01  0.96230167291E+02  0.91828872490E+02 0.  0.
         11    1    3    3    0    0 -0.13963707367E+02 -0.20471392596E+02 -0.23877971175E+02  0.34412505662E+02  0.51100000000E-03 0. -1.
         22    1    1    0    0    0 -0.13970032729E+02 -0.23120302584E+02 -0.98991448164E+01  0.28769832709E+02  0.00000000000E+00 0.  1.
</event>
<event>
 5    1  0.8962782E-005  0.9118800E+02  0.7818608E-02  0.1130116E+00
         25   -1    0    0    0    0  0.00000000000E+00  0.00000000000E+00  0.99999998245E-14  0.12500000000E+03  0.12500000000E+03 0.  0.
        -11    1    3    3    0    0 -0.20507770091E+02 -0.21388437189E+02 -0.19521447404E+02  0.35484092049E+02  0.51100000000E-03 0. -1.
         23    2    1    0    0    0 -0.30019359042E+00  0.30075784903E+02  0.20971220142E+01  0.94849695284E+02  0.89930105199E+02 0.  0.
         11    1    3    3    0    0  0.20207576501E+02  0.51464222092E+02  0.21618569418E+02  0.59365603236E+02  0.51100000000E-03 0.  1.
         22    1    1    0    0    0  0.30019359042E+00 -0.30075784903E+02 -0.20971220142E+01  0.30150304716E+02  0.00000000000E+00 0.  1.
</event>
<event>
 5    1  0.8962782E-005  0.9118800E+02  0.7818608E-02  0.1130116E+00
         25   -1    0    0    0    0  0.00000000000E+00  0.00000000000E+00  0.99999998245E-14  0.12500000000E+03  0.12500000000E+03 0.  0.
        -11    1    3    3    0    0 -0.31978783918E+02 -0.41596541864E+02 -0.72278035404E+01  0.52963724002E+02  0.51100000000E-03 0. -1.
         23    2    1    0    0    0  0.89457499745E+01 -0.24862519688E+02 -0.86412923927E+01  0.97199941330E+02  0.93139601312E+02 0.  0.
         11    1    3    3    0    0  0.40924533892E+02  0.16734022176E+02 -0.14134888523E+01  0.44236217328E+02  0.51100000000E-03 0.  1.
         22    1    1    0    0    0 -0.89457499745E+01  0.24862519688E+02  0.86412923927E+01  0.27800058670E+02  0.00000000000E+00 0. -1.
</event>
<event>
 5    1  0.8962782E-005  0.9118800E+02  0.7818608E-02  0.1130116E+00
         25   -1    0    0    0    0  0.00000000000E+00  0.00000000000E+00  0.99999998245E-14  0.12500000000E+03  0.12500000000E+03 0.  0.
        -11    1    3    3    0    0 -0.11591979178E+02 -0.29760338839E+02  0.92811481481E+01  0.33259456704E+02  0.51100000000E-03 0.  1.
         23    2    1    0    0    0  0.82786526448E+01  0.25282534385E+02 -0.12376852860E+02  0.95658406293E+02  0.91047249124E+02 0.  0.
         11    1    3    3    0    0  0.19870631823E+02  0.55042873224E+02 -0.21658001009E+02  0.62398949588E+02  0.51100000000E-03 0. -1.
         22    1    1    0    0    0 -0.82786526448E+01 -0.25282534385E+02  0.12376852860E+02  0.29341593707E+02  0.00000000000E+00 0. -1.
</event>
<event>
 5    1  0.8962782E-005  0.9118800E+02  0.7818608E-02  0.1130116E+00
         25   -1    0    0    0    0  0.00000000000E+00  0.00000000000E+00  0.99999998245E-14  0.12500000000E+03  0.12500000000E+03 0.  0.
        -11    1    3    3    0    0  0.30669062250E+02 -0.36819885692E+02  0.42900269489E+01  0.48111326038E+02  0.51100000000E-03 0.  1.
         23    2    1    0    0    0 -0.73965755469E+01 -0.20815566974E+02 -0.19298367303E+02  0.95667012787E+02  0.91059064331E+02 0.  0.
         11    1    3    3    0    0 -0.38065637797E+02  0.16004318718E+02 -0.23588394252E+02  0.47555686749E+02  0.51100000000E-03 0. -1.
         22    1    1    0    0    0  0.73965755469E+01  0.20815566974E+02  0.19298367303E+02  0.29332987213E+02  0.00000000000E+00 0. -1.
</event>
<event>
 5    1  0.8962782E-005  0.9118800E+02  0.7818608E-02  0.1130116E+00
         25   -1    0    0    0    0  0.00000000000E+00  0.00000000000E+00  0.99999998245E-14  0.12500000000E+03  0.12500000000E+03 0.  0.
        -11    1    3    3    0    0 -0.82065477612E+01 -0.17259474532E+02  0.51059366696E+02  0.54518765713E+02  0.51100000000E-03 0.  1.
         23    2    1    0    0    0 -0.52382287629E+01  0.14650182548E+02  0.23662894444E+02  0.96680404969E+02  0.92439716801E+02 0.  0.
         11    1    3    3    0    0  0.29683189983E+01  0.31909657080E+02 -0.27396472251E+02  0.42161639256E+02  0.51100000000E-03 0. -1.
         22    1    1    0    0    0  0.52382287629E+01 -0.14650182548E+02 -0.23662894444E+02  0.28319595031E+02  0.00000000000E+00 0.  1.
</event>
<event>
 5    1  0.8962782E-005  0.9118800E+02  0.7818608E-02  0.1130116E+00
         25   -1    0    0    0    0  0.00000000000E+00  0.00000000000E+00  0.99999998245E-14  0.12500000000E+03  0.12500000000E+03 0.  0.
        -11    1    3    3    0    0  0.29337921764E+02  0.32906661887E+02  0.18070398104E+02  0.47645580465E+02  0.51100000000E-03 0.  1.
         23    2    1    0    0    0  0.11712127312E+02  0.10112188369E+02 -0.22674117578E+02  0.97549209707E+02  0.93607170808E+02 0.  0.
         11    1    3    3    0    0 -0.17625794451E+02 -0.22794473518E+02 -0.40744515682E+02  0.49903629241E+02  0.51100000000E-03 0. -1.
         22    1    1    0    0    0 -0.11712127312E+02 -0.10112188369E+02  0.22674117578E+02  0.27450790293E+02  0.00000000000E+00 0. -1.
</event>
<event>
 5    1  0.8962782E-005  0.9118800E+02  0.7818608E-02  0.1130116E+00
         25   -1    0    0    0    0  0.00000000000E+00  0.00000000000E+00  0.99999998245E-14  0.12500000000E+03  0.12500000000E+03 0.  0.
        -11    1    3    3    0    0  0.40651419648E+02  0.92460237510E+01 -0.16652727451E+02  0.44892540655E+02  0.51100000000E-03 0. -1.
         23    2    1    0    0    0 -0.67354952445E+01 -0.10709977044E+02 -0.24997788731E+02  0.96982863353E+02  0.92847810088E+02 0.  0.
         11    1    3    3    0    0 -0.47386914893E+02 -0.19956000795E+02 -0.83450612799E+01  0.52090322698E+02  0.51100000000E-03 0.  1.
         22    1    1    0    0    0  0.67354952445E+01  0.10709977044E+02  0.24997788731E+02  0.28017136647E+02  0.00000000000E+00 0. -1.
</event>
<event>
 5    1  0.8962782E-005  0.9118800E+02  0.7818608E-02  0.1130116E+00
         25   -1    0    0    0    0  0.00000000000E+00  0.00000000000E+00  0.99999998245E-14  0.12500000000E+03  0.12500000000E+03 0.  0.
        -11    1    3    3    0    0  0.11412744282E+02 -0.15977363504E+01 -0.16231310813E+02  0.19906253904E+02  0.51100000000E-03 0. -1.
         23    2    1    0    0    0 -0.12787773096E+02  0.14797985576E+02  0.38422478613E+02  0.81886262275E+02  0.69617279240E+02 0.  0.
         11    1    3    3    0    0 -0.24200517378E+02  0.16395721926E+02  0.54653789426E+02  0.61980008372E+02  0.51100000000E-03 0.  1.
         22    1    1    0    0    0  0.12787773096E+02 -0.14797985576E+02 -0.38422478613E+02  0.43113737725E+02  0.00000000000E+00 0.  1.
</event>
<event>
 5    1  0.8962782E-005  0.9118800E+02  0.7818608E-02  0.1130116E+00
         25   -1    0    0    0    0  0.00000000000E+00  0.00000000000E+00  0.99999998245E-14  0.12500000000E+03  0.12500000000E+03 0.  0.
        -11    1    3    3    0    0 -0.24480862361E+02 -0.28217687241E+02  0.13076406886E+02  0.39579576961E+02  0.51100000000E-03 0.  1.
         23    2    1    0    0    0  0.26261451076E+02 -0.11924942238E+02 -0.47365349076E+01  0.95771540873E+02  0.91202440857E+02 0.  0.
         11    1    3    3    0    0  0.50742313437E+02  0.16292745003E+02 -0.17812941794E+02  0.56191963912E+02  0.51100000000E-03 0. -1.
         22    1    1    0    0    0 -0.26261451076E+02  0.11924942238E+02  0.47365349076E+01  0.29228459127E+02  0.00000000000E+00 0. -1.
</event>
<event>
 5    1  0.8962782E-005  0.9118800E+02  0.7818608E-02  0.1130116E+00
         25   -1    0    0    0    0  0.00000000000E+00  0.00000000000E+00  0.99999998245E-14  0.12500000000E+03  0.12500000000E+03 0.  0.
        -11    1    3    3    0    0  0.20704880991E+02 -0.27306776380E+02  0.69846687458E+01  0.34973386036E+02  0.51100000000E-03 0.  1.
         23    2    1    0    0    0 -0.26866688084E+02  0.87027994031E+01 -0.62231414813E+01  0.96081405015E+02  0.91626149399E+02 0.  0.
         11    1    3    3    0    0 -0.47571569074E+02  0.36009575783E+02 -0.13207810227E+02  0.61108018979E+02  0.51100000000E-03 0. -1.
         22    1    1    0    0    0  0.26866688084E+02 -0.87027994031E+01  0.62231414813E+01  0.28918594985E+02  0.00000000000E+00 0. -1.
</event>
<event>
 5    1  0.8962782E-005  0.9118800E+02  0.7818608E-02  0.1130116E+00
         25   -1    0    0    0    0  0.00000000000E+00  0.00000000000E+00  0.99999998245E-14  0.12500000000E+03  0.12500000000E+03 0.  0.
        -11    1    3    3    0    0  0.62949796191E+01 -0.12583852600E+02  0.35228266449E+02  0.37934296776E+02  0.51100000000E-03 0.  1.
         23    2    1    0    0    0 -0.57720924264E+00 -0.20564956414E+02 -0.21271492924E+02  0.95407314856E+02  0.90701867203E+02 0.  0.
         11    1    3    3    0    0 -0.68721888617E+01 -0.79811038136E+01 -0.56499759373E+02  0.57473018080E+02  0.51100000000E-03 0. -1.
         22    1    1    0    0    0  0.57720924264E+00  0.20564956414E+02  0.21271492924E+02  0.29592685144E+02  0.00000000000E+00 0. -1.
</event>
<event>
 5    1  0.8962782E-005  0.9118800E+02  0.7818608E-02  0.1130116E+00
         25   -1    0    0    0    0  0.00000000000E+00  0.00000000000E+00  0.99999998245E-14  0.12500000000E+03  0.12500000000E+03 0.  0.
        -11    1    3    3    0    0  0.13680947472E+02 -0.16900875748E+02  0.48663885711E+02  0.53300860195E+02  0.51100000000E-03 0. -1.
         23    2    1    0    0    0  0.12561658828E+02  0.15175772198E+02  0.12429431877E+02  0.10170643627E+03  0.99003076055E+02 0.  0.
         11    1    3    3    0    0 -0.11192886434E+01  0.32076647946E+02 -0.36234453834E+02  0.48405576078E+02  0.51100000000E-03 0.  1.
         22    1    1    0    0    0 -0.12561658828E+02 -0.15175772198E+02 -0.12429431877E+02  0.23293563727E+02  0.00000000000E+00 0. -1.
</event>
<event>
 5    1  0.8962782E-005  0.9118800E+02  0.7818608E-02  0.1130116E+00
         25   -1    0    0    0    0  0.00000000000E+00  0.00000000000E+00  0.99999998245E-14  0.12500000000E+03  0.12500000000E+03 0.  0.
        -11    1    3    3    0    0 -0.13628009157E+02 -0.20881860469E+02  0.29730542512E+02  0.38803091224E+02  0.51100000000E-03 0.  1.
         23    2    1    0    0    0  0.30158281931E+02 -0.71684036976E+00  0.12220578279E+01  0.94808457235E+02  0.89872767337E+02 0.  0.
         11    1    3    3    0    0  0.43786291088E+02  0.20165020099E+02 -0.28508484684E+02  0.56005366012E+02  0.51100000000E-03 0. -1.
         22    1    1    0    0    0 -0.30158281931E+02  0.71684036976E+00 -0.12220578279E+01  0.30191542765E+02  0.00000000000E+00 0.  1.
</event>
<event>
 5    1  0.8962782E-005  0.9118800E+02  0.7818608E-02  0.1130116E+00
         25   -1    0    0    0    0  0.00000000000E+00  0.00000000000E+00  0.99999998245E-14  0.12500000000E+03  0.12500000000E+03 0.  0.
        -11    1    3    3    0    0  0.49346598387E+01  0.38587155561E+02  0.18104960736E+02  0.42908146611E+02  0.51100000000E-03 0.  1.
         23    2    1    0    0    0  0.28751418856E+02  0.58876129027E+01 -0.11957942710E+02  0.93309300011E+02  0.87762890807E+02 0.  0.
         11    1    3    3    0    0  0.23816759017E+02 -0.32699542659E+02 -0.30062903447E+02  0.50401153400E+02  0.51100000000E-03 0. -1.
         22    1    1    0    0    0 -0.28751418856E+02 -0.58876129027E+01  0.11957942710E+02  0.31690699989E+02  0.00000000000E+00 0. -1.
</event>
<event>
 5    1  0.8962782E-005  0.9118800E+02  0.7818608E-02  0.1130116E+00
         25   -1    0    0    0    0  0.00000000000E+00  0.00000000000E+00  0.99999998245E-14  0.12500000000E+03  0.12500000000E+03 0.  0.
        -11    1    3    3    0    0  0.11590380991E+01 -0.55079830015E+02 -0.28268960168E+02  0.61921443402E+02  0.51100000000E-03 0.  1.
         23    2    1    0    0    0  0.63079448659E+01 -0.24778439638E+02 -0.11117912963E+02  0.97118658067E+02  0.93030449407E+02 0.  0.
         11    1    3    3    0    0  0.51489067668E+01  0.30301390378E+02  0.17151047204E+02  0.35197214665E+02  0.51100000000E-03 0. -1.
         22    1    1    0    0    0 -0.63079448659E+01  0.24778439638E+02  0.11117912963E+02  0.27881341933E+02  0.00000000000E+00 0.  1.
</event>
<event>
 5    1  0.8962782E-005  0.9118800E+02  0.7818608E-02  0.1130116E+00
         25   -1    0    0    0    0  0.00000000000E+00  0.00000000000E+00  0.99999998245E-14  0.12500000000E+03  0.12500000000E+03 0.  0.
        -11    1    3    3    0    0  0.75235254560E+01  0.43603599370E+02  0.14740209268E+02  0.46638515015E+02  0.51100000000E-03 0.  1.
         23    2    1    0    0    0  0.28544130682E+02  0.73823899136E-01  0.71906170954E+01  0.95564004679E+02  0.90917551494E+02 0.  0.
         11    1    3    3    0    0  0.21020605226E+02 -0.43529775471E+02 -0.75495921729E+01  0.48925489664E+02  0.51100000000E-03 0. -1.
         22    1    1    0    0    0 -0.28544130682E+02 -0.73823899136E-01 -0.71906170954E+01  0.29435995321E+02  0.00000000000E+00 0. -1.
</event>
<event>
 5    1  0.8962782E-005  0.9118800E+02  0.7818608E-02  0.1130116E+00
         25   -1    0    0    0    0  0.00000000000E+00  0.00000000000E+00  0.99999998245E-14  0.12500000000E+03  0.12500000000E+03 0.  0.
        -11    1    3    3    0    0 -0.32161161115E+02  0.24084418699E+02 -0.24941385057E+02  0.47291354359E+02  0.51100000000E-03 0.  1.
         23    2    1    0    0    0 -0.17828386210E+02  0.11317932563E+02  0.19847339786E+02  0.96019595431E+02  0.91541787495E+02 0.  0.
         11    1    3    3    0    0  0.14332774904E+02 -0.12766486135E+02  0.44788724843E+02  0.48728241072E+02  0.51100000000E-03 0. -1.
         22    1    1    0    0    0  0.17828386210E+02 -0.11317932563E+02 -0.19847339786E+02  0.28980404569E+02  0.00000000000E+00 0. -1.
</event>
<event>
 5    1  0.8962782E-005  0.9118800E+02  0.7818608E-02  0.1130116E+00
         25   -1    0    0    0    0  0.00000000000E+00  0.00000000000E+00  0.99999998245E-14  0.12500000000E+03  0.12500000000E+03 0.  0.
        -11    1    3    3    0    0  0.92071668285E+01 -0.49682308684E+00 -0.32853592271E+02  0.34122972900E+02  0.51100000000E-03 0.  1.
         23    2    1    0    0    0 -0.11944293183E+02  0.28119231602E+01  0.25728891139E+02  0.96494756785E+02  0.92188335468E+02 0.  0.
         11    1    3    3    0    0 -0.21151460011E+02  0.33087462470E+01  0.58582483410E+02  0.62371783885E+02  0.51100000000E-03 0. -1.
         22    1    1    0    0    0  0.11944293183E+02 -0.28119231602E+01 -0.25728891139E+02  0.28505243215E+02  0.00000000000E+00 0. -1.
</event>
<event>
 5    1  0.8962782E-005  0.9118800E+02  0.7818608E-02  0.1130116E+00
         25   -1    0    0    0    0  0.00000000000E+00  0.00000000000E+00  0.99999998245E-14  0.12500000000E+03  0.12500000000E+03 0.  0.
        -11    1    3    3    0    0  0.10689179403E+02  0.24173819432E+02 -0.23978431122E+02  0.35687494470E+02  0.51100000000E-03 0.  1.
         23    2    1    0    0    0  0.47471119537E+01 -0.74823599697E+00  0.29566030077E+02  0.95045950799E+02  0.90202481672E+02 0.  0.
         11    1    3    3    0    0 -0.59420674495E+01 -0.24922055429E+02  0.53544461199E+02  0.59358456329E+02  0.51100000000E-03 0. -1.
         22    1    1    0    0    0 -0.47471119537E+01  0.74823599697E+00 -0.29566030077E+02  0.29954049201E+02  0.00000000000E+00 0. -1.
</event>
<event>
 5    1  0.8962782E-005  0.9118800E+02  0.7818608E-02  0.1130116E+00
         25   -1    0    0    0    0  0.00000000000E+00  0.00000000000E+00  0.99999998245E-14  0.12500000000E+03  0.12500000000E+03 0.  0.
        -11    1    3    3    0    0  0.35242370433E+01 -0.15137348044E+02  0.30142471647E+02  0.33913539328E+02  0.51100000000E-03 0. -1.
         23    2    1    0    0    0  0.22390100179E+00 -0.33854379374E+01 -0.29760088751E+02  0.95047133624E+02  0.90204120782E+02 0.  0.
         11    1    3    3    0    0 -0.33003360415E+01  0.11751910106E+02 -0.59902560397E+02  0.61133594296E+02  0.51100000000E-03 0.  1.
         22    1    1    0    0    0 -0.22390100179E+00  0.33854379374E+01  0.29760088751E+02  0.29952866376E+02  0.00000000000E+00 0.  1.
</event>
<event>
 5    1  0.8962782E-005  0.9118800E+02  0.7818608E-02  0.1130116E+00
         25   -1    0    0    0    0  0.00000000000E+00  0.00000000000E+00  0.99999998245E-14  0.12500000000E+03  0.12500000000E+03 0.  0.
        -11    1    3    3    0    0  0.42520763743E+00 -0.87840113236E+01  0.20663491649E+02  0.22457060000E+02  0.51100000000E-03 0.  1.
         23    2    1    0    0    0  0.11411732608E+02  0.44383060625E+02  0.53737938332E+01  0.78859330611E+02  0.63951799448E+02 0.  0.
         11    1    3    3    0    0  0.10986524970E+02  0.53167071948E+02 -0.15289697815E+02  0.56402270611E+02  0.51100000000E-03 0. -1.
         22    1    1    0    0    0 -0.11411732608E+02 -0.44383060625E+02 -0.53737938332E+01  0.46140669389E+02  0.00000000000E+00 0. -1.
</event>
<event>
 5    1  0.8962782E-005  0.9118800E+02  0.7818608E-02  0.1130116E+00
         25   -1    0    0    0    0  0.00000000000E+00  0.00000000000E+00  0.99999998245E-14  0.12500000000E+03  0.12500000000E+03 0.  0.
        -11    1    3    3    0    0  0.41407933570E+02  0.35318231577E+02  0.23708648775E+02  0.59364084018E+02  0.51100000000E-03 0. -1.
         23    2    1    0    0    0  0.76767981373E+01  0.22625491401E+02  0.16073368319E+02  0.96204179819E+02  0.91793490809E+02 0.  0.
         11    1    3    3    0    0 -0.33731135433E+02 -0.12692740177E+02 -0.76352804559E+01  0.36840095802E+02  0.51100000000E-03 0.  1.
         22    1    1    0    0    0 -0.76767981373E+01 -0.22625491401E+02 -0.16073368319E+02  0.28795820181E+02  0.00000000000E+00 0. -1.
</event>
<event>
 5    1  0.8962782E-005  0.9118800E+02  0.7818608E-02  0.1130116E+00
         25   -1    0    0    0    0  0.00000000000E+00  0.00000000000E+00  0.99999998245E-14  0.12500000000E+03  0.12500000000E+03 0.  0.
        -11    1    3    3    0    0 -0.19168969031E+02  0.43632709191E+02 -0.13312998377E+02  0.49482306040E+02  0.51100000000E-03 0. -1.
         23    2    1    0    0    0 -0.18995681606E+02  0.11088576318E+02  0.19432897004E+02  0.95649873417E+02  0.91035533471E+02 0.  0.
         11    1    3    3    0    0  0.17328742446E+00 -0.32544132873E+02  0.32745895381E+02  0.46167567377E+02  0.51100000000E-03 0.  1.
         22    1    1    0    0    0  0.18995681606E+02 -0.11088576318E+02 -0.19432897004E+02  0.29350126583E+02  0.00000000000E+00 0. -1.
</event>
<event>
 5    1  0.8962782E-005  0.9118800E+02  0.7818608E-02  0.1130116E+00
         25   -1    0    0    0    0  0.00000000000E+00  0.00000000000E+00  0.99999998245E-14  0.12500000000E+03  0.12500000000E+03 0.  0.
        -11    1    3    3    0    0 -0.28255355400E+02 -0.29453419068E+02 -0.60689945731E+01  0.41263806162E+02  0.51100000000E-03 0.  1.
         23    2    1    0    0    0 -0.10038429644E+02  0.14646103634E+02  0.22083041646E+02  0.96663819070E+02  0.92417286085E+02 0.  0.
         11    1    3    3    0    0  0.18216925757E+02  0.44099522702E+02  0.28152036219E+02  0.55400012907E+02  0.51100000000E-03 0. -1.
         22    1    1    0    0    0  0.10038429644E+02 -0.14646103634E+02 -0.22083041646E+02  0.28336180930E+02  0.00000000000E+00 0. -1.
</event>
<event>
 5    1  0.8962782E-005  0.9118800E+02  0.7818608E-02  0.1130116E+00
         25   -1    0    0    0    0  0.00000000000E+00  0.00000000000E+00  0.99999998245E-14  0.12500000000E+03  0.12500000000E+03 0.  0.
        -11    1    3    3    0    0  0.51245534993E+02 -0.27374366588E+01 -0.11883199545E+02  0.52676454397E+02  0.51100000000E-03 0.  1.
         23    2    1    0    0    0  0.18722823606E+02 -0.67661457888E+01  0.18835259326E+02  0.97593945076E+02  0.93666889930E+02 0.  0.
         11    1    3    3    0    0 -0.32522711387E+02 -0.40287091300E+01  0.30718458871E+02  0.44917490679E+02  0.51100000000E-03 0. -1.
         22    1    1    0    0    0 -0.18722823606E+02  0.67661457888E+01 -0.18835259326E+02  0.27406054924E+02  0.00000000000E+00 0.  1.
</event>
<event>
 5    1  0.8962782E-005  0.9118800E+02  0.7818608E-02  0.1130116E+00
         25   -1    0    0    0    0  0.00000000000E+00  0.00000000000E+00  0.99999998245E-14  0.12500000000E+03  0.12500000000E+03 0.  0.
        -11    1    3    3    0    0 -0.14892848734E+02  0.56754421329E+00 -0.59395033350E+02  0.61236337552E+02  0.51100000000E-03 0. -1.
         23    2    1    0    0    0 -0.35061262967E+01 -0.48393814360E+01 -0.41186062375E+02  0.83382644627E+02  0.72254142835E+02 0.  0.
         11    1    3    3    0    0  0.11386722438E+02 -0.54069256493E+01  0.18208970975E+02  0.22146307076E+02  0.51100000000E-03 0.  1.
         22    1    1    0    0    0  0.35061262967E+01  0.48393814360E+01  0.41186062375E+02  0.41617355373E+02  0.00000000000E+00 0. -1.
</event>
<event>
 5    1  0.8962782E-005  0.9118800E+02  0.7818608E-02  0.1130116E+00
         25   -1    0    0    0    0  0.00000000000E+00  0.00000000000E+00  0.99999998245E-14  0.12500000000E+03  0.12500000000E+03 0.  0.
        -11    1    3    3    0    0 -0.52192952048E+02  0.23878071794E+02 -0.72257519170E+01  0.57848751474E+02  0.51100000000E-03 0. -1.
         23    2    1    0    0    0 -0.23594900300E+02  0.31328354722E+01 -0.18412493516E+02  0.94907577437E+02  0.90010523602E+02 0.  0.
         11    1    3    3    0    0  0.28598051748E+02 -0.20745236322E+02 -0.11186741599E+02  0.37058825962E+02  0.51100000000E-03 0.  1.
         22    1    1    0    0    0  0.23594900300E+02 -0.31328354722E+01  0.18412493516E+02  0.30092422563E+02  0.00000000000E+00 0. -1.
</event>
<event>
 5    1  0.8962782E-005  0.9118800E+02  0.7818608E-02  0.1130116E+00
         25   -1    0    0    0    0  0.00000000000E+00  0.00000000000E+00  0.99999998245E-14  0.12500000000E+03  0.12500000000E+03 0.  0.
        -11    1    3    3    0    0  0.10674430733E+02  0.32274423857E+02 -0.47573303006E+01  0.34325123432E+02  0.51100000000E-03 0. -1.
         23    2    1    0    0    0 -0.10144090795E+02 -0.21006210126E+02  0.17636805214E+02  0.95755849473E+02  0.91180932043E+02 0.  0.
         11    1    3    3    0    0 -0.20818521527E+02 -0.53280633983E+02  0.22394135514E+02  0.61430726041E+02  0.51100000000E-03 0.  1.
         22    1    1    0    0    0  0.10144090795E+02  0.21006210126E+02 -0.17636805214E+02  0.29244150527E+02  0.00000000000E+00 0.  1.
</event>
<event>
 5    1  0.8962782E-005  0.9118800E+02  0.7818608E-02  0.1130116E+00
         25   -1    0    0    0    0  0.00000000000E+00  0.00000000000E+00  0.99999998245E-14  0.12500000000E+03  0.12500000000E+03 0.  0.
        -11    1    3    3    0    0 -0.96347067952E+01  0.45116625433E+02  0.10844100947E+02  0.47391264924E+02  0.51100000000E-03 0.  1.
         23    2    1    0    0    0  0.12745618710E+02  0.43867636081E+00  0.22893963678E+02  0.98793573190E+02  0.95254361042E+02 0.  0.
         11    1    3    3    0    0  0.22380325505E+02 -0.44677949072E+02  0.12049862731E+02  0.51402308266E+02  0.51100000000E-03 0. -1.
         22    1    1    0    0    0 -0.12745618710E+02 -0.43867636081E+00 -0.22893963678E+02  0.26206426810E+02  0.00000000000E+00 0. -1.
</event>
<event>
 5    1  0.8962782E-005  0.9118800E+02  0.7818608E-02  0.1130116E+00
         25   -1    0    0    0    0  0.00000000000E+00  0.00000000000E+00  0.99999998245E-14  0.12500000000E+03  0.12500000000E+03 0.  0.
        -11    1    3    3    0    0 -0.43517836640E+02  0.23698050447E+01  0.82363618142E+01  0.44353756751E+02  0.51100000000E-03 0. -1.
         23    2    1    0    0    0  0.22559335956E+01  0.24517605452E+02  0.15773233616E+02  0.95759666346E+02  0.91186164446E+02 0.  0.
         11    1    3    3    0    0  0.45773770235E+02  0.22147800408E+02  0.75368718020E+01  0.51405909595E+02  0.51100000000E-03 0.  1.
         22    1    1    0    0    0 -0.22559335956E+01 -0.24517605452E+02 -0.15773233616E+02  0.29240333654E+02  0.00000000000E+00 0.  1.
</event>
<event>
 5    1  0.8962782E-005  0.9118800E+02  0.7818608E-02  0.1130116E+00
         25   -1    0    0    0    0  0.00000000000E+00  0.00000000000E+00  0.99999998245E-14  0.12500000000E+03  0.12500000000E+03 0.  0.
        -11    1    3    3    0    0 -0.17739309974E+02 -0.12015648519E+02 -0.25189733829E+02  0.33069345598E+02  0.51100000000E-03 0.  1.
         23    2    1    0    0    0  0.94757616490E+01  0.24257796021E+01  0.28443360778E+02  0.94921781338E+02  0.90030246776E+02 0.  0.
         11    1    3    3    0    0  0.27215071623E+02  0.14441428121E+02  0.53633094607E+02  0.61852435740E+02  0.51100000000E-03 0. -1.
         22    1    1    0    0    0 -0.94757616490E+01 -0.24257796021E+01 -0.28443360778E+02  0.30078218662E+02  0.00000000000E+00 0. -1.
</event>
<event>
 5    1  0.8962782E-005  0.9118800E+02  0.7818608E-02  0.1130116E+00
         25   -1    0    0    0    0  0.00000000000E+00  0.00000000000E+00  0.99999998245E-14  0.12500000000E+03  0.12500000000E+03 0.  0.
        -11    1    3    3    0    0  0.41508487132E+02  0.37546668474E+02 -0.20476361499E+02  0.59598558690E+02  0.51100000000E-03 0. -1.
         23    2    1    0    0    0  0.28086413972E+02  0.73747683194E+01 -0.82444268571E+01  0.94813837081E+02  0.89880249612E+02 0.  0.
         11    1    3    3    0    0 -0.13422073160E+02 -0.30171900155E+02  0.12231934641E+02  0.35215278391E+02  0.51100000000E-03 0.  1.
         22    1    1    0    0    0 -0.28086413972E+02 -0.73747683194E+01  0.82444268571E+01  0.30186162919E+02  0.00000000000E+00 0. -1.
</event>
<event>
 5    1  0.8962782E-005  0.9118800E+02  0.7818608E-02  0.1130116E+00
         25   -1    0    0    0    0  0.00000000000E+00  0.00000000000E+00  0.99999998245E-14  0.12500000000E+03  0.12500000000E+03 0.  0.
        -11    1    3    3    0    0 -0.35132923475E+02 -0.25483492017E+02 -0.39283127790E+01  0.43579379514E+02  0.51100000000E-03 0.  1.
         23    2    1    0    0    0 -0.77937440619E+01  0.23698369217E+01  0.29145729589E+02  0.94737281570E+02  0.89773717715E+02 0.  0.
         11    1    3    3    0    0  0.27339179413E+02  0.27853328939E+02  0.33074042368E+02  0.51157902056E+02  0.51100000000E-03 0. -1.
         22    1    1    0    0    0  0.77937440619E+01 -0.23698369217E+01 -0.29145729589E+02  0.30262718430E+02  0.00000000000E+00 0.  1.
</event>
<event>
 5    1  0.8962782E-005  0.9118800E+02  0.7818608E-02  0.1130116E+00
         25   -1    0    0    0    0  0.00000000000E+00  0.00000000000E+00  0.99999998245E-14  0.12500000000E+03  0.12500000000E+03 0.  0.
        -11    1    3    3    0    0 -0.96906820817E+01  0.37305943171E+02  0.43839219033E+02  0.58373965437E+02  0.51100000000E-03 0. -1.
         23    2    1    0    0    0 -0.80560248333E+01  0.38309982920E+01  0.28321346746E+02  0.95306991302E+02  0.90563501619E+02 0.  0.
         11    1    3    3    0    0  0.16346572484E+01 -0.33474944879E+02 -0.15517872286E+02  0.36933025865E+02  0.51100000000E-03 0.  1.
         22    1    1    0    0    0  0.80560248333E+01 -0.38309982920E+01 -0.28321346746E+02  0.29693008698E+02  0.00000000000E+00 0. -1.
</event>
<event>
 5    1  0.8962782E-005  0.9118800E+02  0.7818608E-02  0.1130116E+00
         25   -1    0    0    0    0  0.00000000000E+00  0.00000000000E+00  0.99999998245E-14  0.12500000000E+03  0.12500000000E+03 0.  0.
        -11    1    3    3    0    0  0.24834865089E+02 -0.68048810955E+01  0.42150643854E+02  0.49393863062E+02  0.51100000000E-03 0.  1.
         23    2    1    0    0    0 -0.38922567173E+01 -0.19426119765E+02  0.39409345464E+02  0.80890813866E+02  0.67806367448E+02 0.  0.
         11    1    3    3    0    0 -0.28727121806E+02 -0.12621238670E+02 -0.27412983896E+01  0.31496950804E+02  0.51100000000E-03 0. -1.
         22    1    1    0    0    0  0.38922567173E+01  0.19426119765E+02 -0.39409345464E+02  0.44109186134E+02  0.00000000000E+00 0.  1.
</event>
<event>
 5    1  0.8962782E-005  0.9118800E+02  0.7818608E-02  0.1130116E+00
         25   -1    0    0    0    0  0.00000000000E+00  0.00000000000E+00  0.99999998245E-14  0.12500000000E+03  0.12500000000E+03 0.  0.
        -11    1    3    3    0    0 -0.39335771405E+02  0.13353502789E+02  0.34858652197E+02  0.54228632493E+02  0.51100000000E-03 0. -1.
         23    2    1    0    0    0 -0.11062642113E+00  0.19301364076E+01  0.29503996340E+02  0.95432729839E+02  0.90736885882E+02 0.  0.
         11    1    3    3    0    0  0.39225144984E+02 -0.11423366381E+02 -0.53546558572E+01  0.41204097346E+02  0.51100000000E-03 0.  1.
         22    1    1    0    0    0  0.11062642113E+00 -0.19301364076E+01 -0.29503996340E+02  0.29567270161E+02  0.00000000000E+00 0.  1.
</event>
<event>
 5    1  0.8962782E-005  0.9118800E+02  0.7818608E-02  0.1130116E+00
         25   -1    0    0    0    0  0.00000000000E+00  0.00000000000E+00  0.99999998245E-14  0.12500000000E+03  0.12500000000E+03 0.  0.
        -11    1    3    3    0    0  0.45156368382E+02  0.17354885210E+02  0.74645922104E+00  0.48382298909E+02  0.51100000000E-03 0.  1.
         23    2    1    0    0    0  0.58370159455E+01  0.80975825427E+01  0.26767170704E+02  0.96432132987E+02  0.92103383471E+02 0.  0.
         11    1    3    3    0    0 -0.39319352436E+02 -0.92573026674E+01  0.26020711482E+02  0.48049834079E+02  0.51100000000E-03 0. -1.
         22    1    1    0    0    0 -0.58370159455E+01 -0.80975825427E+01 -0.26767170704E+02  0.28567867013E+02  0.00000000000E+00 0. -1.
</event>
<event>
 5    1  0.8962782E-005  0.9118800E+02  0.7818608E-02  0.1130116E+00
         25   -1    0    0    0    0  0.00000000000E+00  0.00000000000E+00  0.99999998245E-14  0.12500000000E+03  0.12500000000E+03 0.  0.
        -11    1    3    3    0    0 -0.98085361887E+01  0.11935167797E+02  0.42053936509E+02  0.44801665022E+02  0.51100000000E-03 0.  1.
         23    2    1    0    0    0  0.19668494730E+02  0.22179763940E+02  0.24053513511E+01  0.95258155260E+02  0.90496070716E+02 0.  0.
         11    1    3    3    0    0  0.29477030919E+02  0.10244596143E+02 -0.39648585158E+02  0.50456490239E+02  0.51100000000E-03 0. -1.
         22    1    1    0    0    0 -0.19668494730E+02 -0.22179763940E+02 -0.24053513511E+01  0.29741844740E+02  0.00000000000E+00 0. -1.
</event>
<event>
 5    1  0.8962782E-005  0.9118800E+02  0.7818608E-02  0.1130116E+00
         25   -1    0    0    0    0  0.00000000000E+00  0.00000000000E+00  0.99999998245E-14  0.12500000000E+03  0.12500000000E+03 0.  0.
        -11    1    3    3    0    0 -0.11565050554E+02  0.20154868729E+02 -0.24135014284E+02  0.33503254208E+02  0.51100000000E-03 0. -1.
         23    2    1    0    0    0 -0.11184317499E+02 -0.18676560404E+02  0.22164868793E+02  0.93932584996E+02  0.88646185755E+02 0.  0.
         11    1    3    3    0    0  0.38073305484E+00 -0.38831429133E+02  0.46299883077E+02  0.60429330787E+02  0.51100000000E-03 0.  1.
         22    1    1    0    0    0  0.11184317499E+02  0.18676560404E+02 -0.22164868793E+02  0.31067415004E+02  0.00000000000E+00 0.  1.
</event>
<event>
 5    1  0.8962782E-005  0.9118800E+02  0.7818608E-02  0.1130116E+00
         25   -1    0    0    0    0  0.00000000000E+00  0.00000000000E+00  0.99999998245E-14  0.12500000000E+03  0.12500000000E+03 0.  0.
        -11    1    3    3    0    0 -0.27620080443E+01  0.54931898470E+02 -0.17337714333E+02  0.57669216195E+02  0.51100000000E-03 0.  1.
         23    2    1    0    0    0  0.14964793377E+01  0.13271315907E+02 -0.21432812705E+02  0.99746629201E+02  0.96496928967E+02 0.  0.
         11    1    3    3    0    0  0.42584873820E+01 -0.41660582564E+02 -0.40950983713E+01  0.42077413006E+02  0.51100000000E-03 0. -1.
         22    1    1    0    0    0 -0.14964793377E+01 -0.13271315907E+02  0.21432812705E+02  0.25253370799E+02  0.00000000000E+00 0.  1.
</event>
<event>
 4    1  0.8962782E-005  0.9118800E+02  0.7818608E-02  0.1130116E+00
         25   -1    0    0    0    0  0.00000000000E+00  0.00000000000E+00  0.99999998245E-14  0.12500000000E+03  0.12500000000E+03 0.  0.
        -11    1    1    0    0    0  0.13553880234E+02 -0.44679487722E+01 -0.18997670502E+02  0.23760928441E+02  0.51100000000E-03 0.  1.
         11    1    1    0    0    0 -0.36219939638E+02 -0.22664837989E+02 -0.21207385705E+02  0.47700441478E+02  0.51100000000E-03 0. -1.
         22    1    1    0    0    0  0.22666059404E+02  0.27132786761E+02  0.40205056207E+02  0.53538630081E+02  0.00000000000E+00 0. -1.
</event>
<event>
 5    1  0.8962782E-005  0.9118800E+02  0.7818608E-02  0.1130116E+00
         25   -1    0    0    0    0  0.00000000000E+00  0.00000000000E+00  0.99999998245E-14  0.12500000000E+03  0.12500000000E+03 0.  0.
        -11    1    3    3    0    0 -0.58115097486E+02  0.17535492770E+02 -0.10506506907E+02  0.61605557786E+02  0.51100000000E-03 0.  1.
         23    2    1    0    0    0 -0.26973827588E+02  0.78337232738E+00 -0.22271283745E+01  0.97923051359E+02  0.94105062774E+02 0.  0.
         11    1    3    3    0    0  0.31141269898E+02 -0.16752120443E+02  0.82793785330E+01  0.36317493572E+02  0.51100000000E-03 0. -1.
         22    1    1    0    0    0  0.26973827588E+02 -0.78337232738E+00  0.22271283745E+01  0.27076948641E+02  0.00000000000E+00 0.  1.
</event>
<event>
 5    1  0.8962782E-005  0.9118800E+02  0.7818608E-02  0.1130116E+00
         25   -1    0    0    0    0  0.00000000000E+00  0.00000000000E+00  0.99999998245E-14  0.12500000000E+03  0.12500000000E+03 0.  0.
        -11    1    3    3    0    0  0.12357324099E+02  0.35995616059E+02 -0.10362036935E+02  0.39443119096E+02  0.51100000000E-03 0.  1.
         23    2    1    0    0    0  0.20919192291E+02 -0.18985392793E+02 -0.98280071229E+01  0.95089341873E+02  0.90262591743E+02 0.  0.
         11    1    3    3    0    0  0.85618681919E+01 -0.54981008851E+02  0.53402981170E+00  0.55646222777E+02  0.51100000000E-03 0. -1.
         22    1    1    0    0    0 -0.20919192291E+02  0.18985392793E+02  0.98280071229E+01  0.29910658127E+02  0.00000000000E+00 0. -1.
</event>
<event>
 5    1  0.8962782E-005  0.9118800E+02  0.7818608E-02  0.1130116E+00
         25   -1    0    0    0    0  0.00000000000E+00  0.00000000000E+00  0.99999998245E-14  0.12500000000E+03  0.12500000000E+03 0.  0.
        -11    1    3    3    0    0 -0.18139384579E+02 -0.27291226729E+02  0.36952905182E+02  0.49389933498E+02  0.51100000000E-03 0. -1.
         23    2    1    0    0    0 -0.28435029018E+02 -0.86658734050E+01 -0.34692324923E+01  0.95072022935E+02  0.90238604453E+02 0.  0.
         11    1    3    3    0    0 -0.10295644440E+02  0.18625353324E+02 -0.40422137675E+02  0.45682089437E+02  0.51100000000E-03 0.  1.
         22    1    1    0    0    0  0.28435029018E+02  0.86658734050E+01  0.34692324923E+01  0.29927977065E+02  0.00000000000E+00 0. -1.
</event>
<event>
 5    1  0.8962782E-005  0.9118800E+02  0.7818608E-02  0.1130116E+00
         25   -1    0    0    0    0  0.00000000000E+00  0.00000000000E+00  0.99999998245E-14  0.12500000000E+03  0.12500000000E+03 0.  0.
        -11    1    3    3    0    0  0.23875442594E+02  0.82244862933E+01  0.51731412044E+02  0.57565770439E+02  0.51100000000E-03 0. -1.
         23    2    1    0    0    0  0.20165331132E+02 -0.10423496448E+02  0.19095077857E+02  0.95336691752E+02  0.90604486302E+02 0.  0.
         11    1    3    3    0    0 -0.37101114618E+01 -0.18647982741E+02 -0.32636334188E+02  0.37770921313E+02  0.51100000000E-03 0.  1.
         22    1    1    0    0    0 -0.20165331132E+02  0.10423496448E+02 -0.19095077857E+02  0.29663308248E+02  0.00000000000E+00 0. -1.
</event>
<event>
 5    1  0.8962782E-005  0.9118800E+02  0.7818608E-02  0.1130116E+00
         25   -1    0    0    0    0  0.00000000000E+00  0.00000000000E+00  0.99999998245E-14  0.12500000000E+03  0.12500000000E+03 0.  0.
        -11    1    3    3    0    0 -0.30550640930E+02 -0.18589076113E+02  0.88480896033E+01  0.36839979667E+02  0.51100000000E-03 0. -1.
         23    2    1    0    0    0  0.16850610979E+02  0.15032977672E+02  0.18571415584E+02  0.95762507206E+02  0.91190058677E+02 0.  0.
         11    1    3    3    0    0  0.47401251909E+02  0.33622053785E+02  0.97233259811E+01  0.58922527540E+02  0.51100000000E-03 0.  1.
         22    1    1    0    0    0 -0.16850610979E+02 -0.15032977672E+02 -0.18571415584E+02  0.29237492794E+02  0.00000000000E+00 0.  1.
</event>
<event>
 5    1  0.8962782E-005  0.9118800E+02  0.7818608E-02  0.1130116E+00
         25   -1    0    0    0    0  0.00000000000E+00  0.00000000000E+00  0.99999998245E-14  0.12500000000E+03  0.12500000000E+03 0.  0.
        -11    1    3    3    0    0  0.24035062310E+02 -0.39514572413E+02 -0.78063256210E+01  0.46904417417E+02  0.51100000000E-03 0.  1.
         23    2    1    0    0    0  0.23537240213E+02  0.31753259084E+01  0.16545984314E+02  0.96054292747E+02  0.91589154307E+02 0.  0.
         11    1    3    3    0    0 -0.49782209733E+00  0.42689898321E+02  0.24352309935E+02  0.49149875330E+02  0.51100000000E-03 0. -1.
         22    1    1    0    0    0 -0.23537240213E+02 -0.31753259084E+01 -0.16545984314E+02  0.28945707253E+02  0.00000000000E+00 0.  1.
</event>
<event>
 5    1  0.8962782E-005  0.9118800E+02  0.7818608E-02  0.1130116E+00
         25   -1    0    0    0    0  0.00000000000E+00  0.00000000000E+00  0.99999998245E-14  0.12500000000E+03  0.12500000000E+03 0.  0.
        -11    1    3    3    0    0 -0.41265813426E+01  0.38832006059E+01 -0.50997032683E+02  0.51310868861E+02  0.51100000000E-03 0.  1.
         23    2    1    0    0    0 -0.27279508396E+02 -0.41565869150E+01 -0.19543936387E+02  0.91185591198E+02  0.84684105944E+02 0.  0.
         11    1    3    3    0    0 -0.23152927054E+02 -0.80397875209E+01  0.31453096297E+02  0.39874722337E+02  0.51100000000E-03 0. -1.
         22    1    1    0    0    0  0.27279508396E+02  0.41565869150E+01  0.19543936387E+02  0.33814408802E+02  0.00000000000E+00 0.  1.
</event>
<event>
 5    1  0.8962782E-005  0.9118800E+02  0.7818608E-02  0.1130116E+00
         25   -1    0    0    0    0  0.00000000000E+00  0.00000000000E+00  0.99999998245E-14  0.12500000000E+03  0.12500000000E+03 0.  0.
        -11    1    3    3    0    0 -0.33007982728E+02 -0.38953333995E+02  0.91334357313E+01  0.51868186798E+02  0.51100000000E-03 0. -1.
         23    2    1    0    0    0 -0.60651700567E+01 -0.86868386373E+01  0.26881632155E+02  0.96105889863E+02  0.91659546506E+02 0.  0.
         11    1    3    3    0    0  0.26942812671E+02  0.30266495358E+02  0.17748196424E+02  0.44237703065E+02  0.51100000000E-03 0.  1.
         22    1    1    0    0    0  0.60651700567E+01  0.86868386373E+01 -0.26881632155E+02  0.28894110137E+02  0.00000000000E+00 0.  1.
</event>
<event>
 5    1  0.8962782E-005  0.9118800E+02  0.7818608E-02  0.1130116E+00
         25   -1    0    0    0    0  0.00000000000E+00  0.00000000000E+00  0.99999998245E-14  0.12500000000E+03  0.12500000000E+03 0.  0.
        -11    1    3    3    0    0 -0.16594298174E+02  0.11402468221E+02  0.30405817866E+02  0.36467804620E+02  0.51100000000E-03 0. -1.
         23    2    1    0    0    0  0.16242986052E+02 -0.12086829482E+02 -0.16876402715E+02  0.98642097743E+02  0.95055375627E+02 0.  0.
         11    1    3    3    0    0  0.32837284227E+02 -0.23489297703E+02 -0.47282220581E+02  0.62174293123E+02  0.51100000000E-03 0.  1.
         22    1    1    0    0    0 -0.16242986052E+02  0.12086829482E+02  0.16876402715E+02  0.26357902257E+02  0.00000000000E+00 0.  1.
</event>
<event>
 5    1  0.8962782E-005  0.9118800E+02  0.7818608E-02  0.1130116E+00
         25   -1    0    0    0    0  0.00000000000E+00  0.00000000000E+00  0.99999998245E-14  0.12500000000E+03  0.12500000000E+03 0.  0.
        -11    1    3    3    0    0  0.61120875418E+02  0.11182547036E+02 -0.93784351537E+00  0.62142500117E+02  0.51100000000E-03 0. -1.
         23    2    1    0    0    0  0.34160835211E+02  0.31243299253E+01  0.30457360833E+01  0.90561640456E+02  0.83758045071E+02 0.  0.
         11    1    3    3    0    0 -0.26960040207E+02 -0.80582171105E+01  0.39835795987E+01  0.28419140339E+02  0.51100000000E-03 0.  1.
         22    1    1    0    0    0 -0.34160835211E+02 -0.31243299253E+01 -0.30457360833E+01  0.34438359544E+02  0.00000000000E+00 0. -1.
</event>
<event>
 5    1  0.8962782E-005  0.9118800E+02  0.7818608E-02  0.1130116E+00
         25   -1    0    0    0    0  0.00000000000E+00  0.00000000000E+00  0.99999998245E-14  0.12500000000E+03  0.12500000000E+03 0.  0.
        -11    1    3    3    0    0 -0.32581609812E+02  0.33102337663E+02 -0.40633562323E+02  0.61712336238E+02  0.51100000000E-03 0. -1.
         23    2    1    0    0    0 -0.12265482954E+02  0.92657369546E+01 -0.22018474495E+02  0.98146524014E+02  0.94401435390E+02 0.  0.
         11    1    3    3    0    0  0.20316126858E+02 -0.23836600708E+02  0.18615087828E+02  0.36434187776E+02  0.51100000000E-03 0.  1.
         22    1    1    0    0    0  0.12265482954E+02 -0.92657369546E+01  0.22018474495E+02  0.26853475986E+02  0.00000000000E+00 0. -1.
</event>
<event>
 5    1  0.8962782E-005  0.9118800E+02  0.7818608E-02  0.1130116E+00
         25   -1    0    0    0    0  0.00000000000E+00  0.00000000000E+00  0.99999998245E-14  0.12500000000E+03  0.12500000000E+03 0.  0.
        -11    1    3    3    0    0  0.73247552987E+01 -0.34039667426E+02  0.97362745467E+01  0.36154474702E+02  0.51100000000E-03 0.  1.
         23    2    1    0    0    0  0.73509351860E+01  0.20444335868E+02 -0.17533351094E+02  0.97081806689E+02  0.92980921012E+02 0.  0.
         11    1    3    3    0    0  0.26179887283E-01  0.54484003293E+02 -0.27269625641E+02  0.60927331987E+02  0.51100000000E-03 0. -1.
         22    1    1    0    0    0 -0.73509351860E+01 -0.20444335868E+02  0.17533351094E+02  0.27918193311E+02  0.00000000000E+00 0. -1.
</event>
<event>
 5    1  0.8962782E-005  0.9118800E+02  0.7818608E-02  0.1130116E+00
         25   -1    0    0    0    0  0.00000000000E+00  0.00000000000E+00  0.99999998245E-14  0.12500000000E+03  0.12500000000E+03 0.  0.
        -11    1    3    3    0    0  0.53948510490E+02 -0.15276612696E+02  0.51274463941E+01  0.56303706684E+02  0.51100000000E-03 0. -1.
         23    2    1    0    0    0  0.28066552726E+02  0.11081334292E+02 -0.45324186445E+01  0.94486557546E+02  0.89423930726E+02 0.  0.
         11    1    3    3    0    0 -0.25881957764E+02  0.26357946988E+02 -0.96598650386E+01  0.38182850862E+02  0.51100000000E-03 0.  1.
         22    1    1    0    0    0 -0.28066552726E+02 -0.11081334292E+02  0.45324186445E+01  0.30513442454E+02  0.00000000000E+00 0. -1.
</event>
<event>
 5    1  0.8962782E-005  0.9118800E+02  0.7818608E-02  0.1130116E+00
         25   -1    0    0    0    0  0.00000000000E+00  0.00000000000E+00  0.99999998245E-14  0.12500000000E+03  0.12500000000E+03 0.  0.
        -11    1    3    3    0    0 -0.45843390123E+02  0.12969731515E+02  0.14150146902E+02  0.49699668119E+02  0.51100000000E-03 0. -1.
         23    2    1    0    0    0 -0.91224107094E+01 -0.63901577614E+01  0.29115601268E+02  0.93826762591E+02  0.88496839761E+02 0.  0.
         11    1    3    3    0    0  0.36720979414E+02 -0.19359889277E+02  0.14965454366E+02  0.44127094472E+02  0.51100000000E-03 0.  1.
         22    1    1    0    0    0  0.91224107094E+01  0.63901577614E+01 -0.29115601268E+02  0.31173237409E+02  0.00000000000E+00 0. -1.
</event>
<event>
 5    1  0.8962782E-005  0.9118800E+02  0.7818608E-02  0.1130116E+00
         25   -1    0    0    0    0  0.00000000000E+00  0.00000000000E+00  0.99999998245E-14  0.12500000000E+03  0.12500000000E+03 0.  0.
        -11    1    3    3    0    0  0.19679236538E+02 -0.29756862186E+02  0.34347066879E+01  0.35840485602E+02  0.51100000000E-03 0. -1.
         23    2    1    0    0    0 -0.22255840771E+02 -0.68453049355E+01 -0.24506267039E+02  0.91195595371E+02  0.84698871556E+02 0.  0.
         11    1    3    3    0    0 -0.41935077309E+02  0.22911557251E+02 -0.27940973727E+02  0.55355109770E+02  0.51100000000E-03 0.  1.
         22    1    1    0    0    0  0.22255840771E+02  0.68453049355E+01  0.24506267039E+02  0.33804404629E+02  0.00000000000E+00 0.  1.
</event>
<event>
 5    1  0.8962782E-005  0.9118800E+02  0.7818608E-02  0.1130116E+00
         25   -1    0    0    0    0  0.00000000000E+00  0.00000000000E+00  0.99999998245E-14  0.12500000000E+03  0.12500000000E+03 0.  0.
        -11    1    3    3    0    0  0.10935837741E+02 -0.25103081304E+02 -0.23130628705E+02  0.35843872874E+02  0.51100000000E-03 0.  1.
         23    2    1    0    0    0 -0.10660346397E+02  0.24828003171E+02  0.56596543834E+01  0.97393761312E+02  0.93399359355E+02 0.  0.
         11    1    3    3    0    0 -0.21596184138E+02  0.49931084475E+02  0.28790283088E+02  0.61549888438E+02  0.51100000000E-03 0. -1.
         22    1    1    0    0    0  0.10660346397E+02 -0.24828003171E+02 -0.56596543834E+01  0.27606238688E+02  0.00000000000E+00 0. -1.
</event>
<event>
 5    1  0.8962782E-005  0.9118800E+02  0.7818608E-02  0.1130116E+00
         25   -1    0    0    0    0  0.00000000000E+00  0.00000000000E+00  0.99999998245E-14  0.12500000000E+03  0.12500000000E+03 0.  0.
        -11    1    3    3    0    0 -0.50318173873E+02 -0.15861890906E+02 -0.14466910476E+02  0.54706578252E+02  0.51100000000E-03 0.  1.
         23    2    1    0    0    0 -0.22040969987E+02  0.13880898182E+02 -0.13278029278E+02  0.95763212321E+02  0.91191025217E+02 0.  0.
         11    1    3    3    0    0  0.28277203886E+02  0.29742789087E+02  0.11888811985E+01  0.41056634069E+02  0.51100000000E-03 0. -1.
         22    1    1    0    0    0  0.22040969987E+02 -0.13880898182E+02  0.13278029278E+02  0.29236787679E+02  0.00000000000E+00 0. -1.
</event>
<event>
 5    1  0.8962782E-005  0.9118800E+02  0.7818608E-02  0.1130116E+00
         25   -1    0    0    0    0  0.00000000000E+00  0.00000000000E+00  0.99999998245E-14  0.12500000000E+03  0.12500000000E+03 0.  0.
        -11    1    3    3    0    0 -0.18956353409E+02 -0.10414296448E+02  0.25453615691E+02  0.33401907985E+02  0.51100000000E-03 0. -1.
         23    2    1    0    0    0  0.14061819933E+02  0.59526729981E+01 -0.24894234247E+02  0.95795685346E+02  0.91235526723E+02 0.  0.
         11    1    3    3    0    0  0.33018173342E+02  0.16366969446E+02 -0.50347849938E+02  0.62393777361E+02  0.51100000000E-03 0.  1.
         22    1    1    0    0    0 -0.14061819933E+02 -0.59526729981E+01  0.24894234247E+02  0.29204314654E+02  0.00000000000E+00 0.  1.
</event>
<event>
 5    1  0.8962782E-005  0.9118800E+02  0.7818608E-02  0.1130116E+00
         25   -1    0    0    0    0  0.00000000000E+00  0.00000000000E+00  0.99999998245E-14  0.12500000000E+03  0.12500000000E+03 0.  0.
        -11    1    3    3    0    0 -0.27179404929E+02 -0.21564061470E+02 -0.19980817059E+01  0.34752282373E+02  0.51100000000E-03 0.  1.
         23    2    1    0    0    0  0.13972769688E+02  0.19438609743E+02  0.16735857348E+02  0.95790639126E+02  0.91228612735E+02 0.  0.
         11    1    3    3    0    0  0.41152174617E+02  0.41002671214E+02  0.18733939054E+02  0.61038356753E+02  0.51100000000E-03 0. -1.
         22    1    1    0    0    0 -0.13972769688E+02 -0.19438609743E+02 -0.16735857348E+02  0.29209360874E+02  0.00000000000E+00 0. -1.
</event>
<event>
 5    1  0.8962782E-005  0.9118800E+02  0.7818608E-02  0.1130116E+00
         25   -1    0    0    0    0  0.00000000000E+00  0.00000000000E+00  0.99999998245E-14  0.12500000000E+03  0.12500000000E+03 0.  0.
        -11    1    3    3    0    0 -0.11939933045E+02 -0.14404758151E+02 -0.59025142543E+02  0.61919516399E+02  0.51100000000E-03 0. -1.
         23    2    1    0    0    0 -0.99460112820E+01 -0.25995148593E+01 -0.27354646970E+02  0.95777451706E+02  0.91210541751E+02 0.  0.
         11    1    3    3    0    0  0.19939217626E+01  0.11805243292E+02  0.31670495573E+02  0.33857935307E+02  0.51100000000E-03 0.  1.
         22    1    1    0    0    0  0.99460112820E+01  0.25995148593E+01  0.27354646970E+02  0.29222548294E+02  0.00000000000E+00 0. -1.
</event>
<event>
 5    1  0.8962782E-005  0.9118800E+02  0.7818608E-02  0.1130116E+00
         25   -1    0    0    0    0  0.00000000000E+00  0.00000000000E+00  0.99999998245E-14  0.12500000000E+03  0.12500000000E+03 0.  0.
        -11    1    3    3    0    0  0.11289068632E+02  0.27215945994E+02 -0.22323147977E+02  0.36965845355E+02  0.51100000000E-03 0. -1.
         23    2    1    0    0    0 -0.30298684152E+02 -0.72055556898E+01 -0.70786787729E+01  0.93061966445E+02  0.87409905682E+02 0.  0.
         11    1    3    3    0    0 -0.41587752785E+02 -0.34421501684E+02  0.15244469204E+02  0.56096121091E+02  0.51100000000E-03 0.  1.
         22    1    1    0    0    0  0.30298684152E+02  0.72055556898E+01  0.70786787729E+01  0.31938033555E+02  0.00000000000E+00 0.  1.
</event>
<event>
 5    1  0.8962782E-005  0.9118800E+02  0.7818608E-02  0.1130116E+00
         25   -1    0    0    0    0  0.00000000000E+00  0.00000000000E+00  0.99999998245E-14  0.12500000000E+03  0.12500000000E+03 0.  0.
        -11    1    3    3    0    0 -0.87228780448E+01 -0.18860459804E+01 -0.36598605702E+02  0.37670992958E+02  0.51100000000E-03 0.  1.
         23    2    1    0    0    0  0.80588044137E+01 -0.24905695078E+02  0.13683597786E+02  0.95462247474E+02  0.90777540551E+02 0.  0.
         11    1    3    3    0    0  0.16781682458E+02 -0.23019649098E+02  0.50282203488E+02  0.57791254517E+02  0.51100000000E-03 0. -1.
         22    1    1    0    0    0 -0.80588044137E+01  0.24905695078E+02 -0.13683597786E+02  0.29537752526E+02  0.00000000000E+00 0. -1.
</event>
<event>
 5    1  0.8962782E-005  0.9118800E+02  0.7818608E-02  0.1130116E+00
         25   -1    0    0    0    0  0.00000000000E+00  0.00000000000E+00  0.99999998245E-14  0.12500000000E+03  0.12500000000E+03 0.  0.
        -11    1    3    3    0    0  0.46636341048E+01 -0.13813819979E+02 -0.43467593412E+02  0.45847603894E+02  0.51100000000E-03 0.  1.
         23    2    1    0    0    0  0.16682794695E+02 -0.27817732934E+02 -0.55679558013E+00  0.92558484534E+02  0.86686914430E+02 0.  0.
         11    1    3    3    0    0  0.12019160590E+02 -0.14003912955E+02  0.42910797832E+02  0.46710880640E+02  0.51100000000E-03 0. -1.
         22    1    1    0    0    0 -0.16682794695E+02  0.27817732934E+02  0.55679558013E+00  0.32441515466E+02  0.00000000000E+00 0.  1.
</event>
<event>
 5    1  0.8962782E-005  0.9118800E+02  0.7818608E-02  0.1130116E+00
         25   -1    0    0    0    0  0.00000000000E+00  0.00000000000E+00  0.99999998245E-14  0.12500000000E+03  0.12500000000E+03 0.  0.
        -11    1    3    3    0    0 -0.22430060319E+01  0.19228494763E+02  0.31637166946E+02  0.37090112153E+02  0.51100000000E-03 0. -1.
         23    2    1    0    0    0  0.17449802264E+02 -0.21733545929E+02 -0.64531987941E+01  0.96390798816E+02  0.92047268857E+02 0.  0.
         11    1    3    3    0    0  0.19692808296E+02 -0.40962040692E+02 -0.38090365740E+02  0.59300686663E+02  0.51100000000E-03 0.  1.
         22    1    1    0    0    0 -0.17449802264E+02  0.21733545929E+02  0.64531987941E+01  0.28609201184E+02  0.00000000000E+00 0.  1.
</event>
<event>
 5    1  0.8962782E-005  0.9118800E+02  0.7818608E-02  0.1130116E+00
         25   -1    0    0    0    0  0.00000000000E+00  0.00000000000E+00  0.99999998245E-14  0.12500000000E+03  0.12500000000E+03 0.  0.
        -11    1    3    3    0    0  0.16696832634E+02 -0.81749452307E+01  0.44248660090E+02  0.47995394253E+02  0.51100000000E-03 0. -1.
         23    2    1    0    0    0 -0.22388898939E+02  0.22715304364E+01  0.17443449805E+02  0.96527265896E+02  0.92232404686E+02 0.  0.
         11    1    3    3    0    0 -0.39085731573E+02  0.10446475667E+02 -0.26805210285E+02  0.48531871643E+02  0.51100000000E-03 0.  1.
         22    1    1    0    0    0  0.22388898939E+02 -0.22715304364E+01 -0.17443449805E+02  0.28472734104E+02  0.00000000000E+00 0.  1.
</event>
<event>
 5    1  0.8962782E-005  0.9118800E+02  0.7818608E-02  0.1130116E+00
         25   -1    0    0    0    0  0.00000000000E+00  0.00000000000E+00  0.99999998245E-14  0.12500000000E+03  0.12500000000E+03 0.  0.
        -11    1    3    3    0    0 -0.57891642078E+02 -0.40914482506E+01  0.13344010888E+02  0.59550355147E+02  0.51100000000E-03 0. -1.
         23    2    1    0    0    0 -0.27188797984E+02  0.93567106138E+01 -0.14957497566E+01  0.96207361416E+02  0.91797823253E+02 0.  0.
         11    1    3    3    0    0  0.30702844094E+02  0.13448158864E+02 -0.14839760645E+02  0.36657006269E+02  0.51100000000E-03 0.  1.
         22    1    1    0    0    0  0.27188797984E+02 -0.93567106138E+01  0.14957497566E+01  0.28792638584E+02  0.00000000000E+00 0. -1.
</event>
<event>
 5    1  0.8962782E-005  0.9118800E+02  0.7818608E-02  0.1130116E+00
         25   -1    0    0    0    0  0.00000000000E+00  0.00000000000E+00  0.99999998245E-14  0.12500000000E+03  0.12500000000E+03 0.  0.
        -11    1    3    3    0    0 -0.34872998521E+02 -0.25944104687E+02  0.43266484989E+01  0.43680000931E+02  0.51100000000E-03 0.  1.
         23    2    1    0    0    0 -0.18118276661E+02  0.21412222100E+02  0.11992911521E+02  0.94494506541E+02  0.89435041428E+02 0.  0.
         11    1    3    3    0    0  0.16754721860E+02  0.47356326787E+02  0.76662630225E+01  0.50814505610E+02  0.51100000000E-03 0. -1.
         22    1    1    0    0    0  0.18118276661E+02 -0.21412222100E+02 -0.11992911521E+02  0.30505493459E+02  0.00000000000E+00 0. -1.
</event>
<event>
 5    1  0.8962782E-005  0.9118800E+02  0.7818608E-02  0.1130116E+00
         25   -1    0    0    0    0  0.00000000000E+00  0.00000000000E+00  0.99999998245E-14  0.12500000000E+03  0.12500000000E+03 0.  0.
        -11    1    3    3    0    0  0.54186229371E+02 -0.18695820970E+02  0.24390596230E+01  0.57372730345E+02  0.51100000000E-03 0.  1.
         23    2    1    0    0    0  0.21041727886E+02 -0.81424678046E+01 -0.16565104817E+02  0.97009701824E+02  0.92883935403E+02 0.  0.
         11    1    3    3    0    0 -0.33144501484E+02  0.10553353166E+02 -0.19004164440E+02  0.39636971479E+02  0.51100000000E-03 0. -1.
         22    1    1    0    0    0 -0.21041727886E+02  0.81424678046E+01  0.16565104817E+02  0.27990298176E+02  0.00000000000E+00 0.  1.
</event>
<event>
 5    1  0.8962782E-005  0.9118800E+02  0.7818608E-02  0.1130116E+00
         25   -1    0    0    0    0  0.00000000000E+00  0.00000000000E+00  0.99999998245E-14  0.12500000000E+03  0.12500000000E+03 0.  0.
        -11    1    3    3    0    0  0.30734578733E+02 -0.22502786923E+02 -0.28129111627E+02  0.47352261513E+02  0.51100000000E-03 0.  1.
         23    2    1    0    0    0  0.22761771575E+02 -0.67728048080E+01  0.16993198734E+02  0.95798323106E+02  0.91239140595E+02 0.  0.
         11    1    3    3    0    0 -0.79728071579E+01  0.15729982115E+02  0.45122310361E+02  0.48446061593E+02  0.51100000000E-03 0. -1.
         22    1    1    0    0    0 -0.22761771575E+02  0.67728048080E+01 -0.16993198734E+02  0.29201676894E+02  0.00000000000E+00 0. -1.
</event>
<event>
 5    1  0.8962782E-005  0.9118800E+02  0.7818608E-02  0.1130116E+00
         25   -1    0    0    0    0  0.00000000000E+00  0.00000000000E+00  0.99999998245E-14  0.12500000000E+03  0.12500000000E+03 0.  0.
        -11    1    3    3    0    0  0.12677367118E+02 -0.31796936787E+02 -0.32517925073E+02  0.47214153359E+02  0.51100000000E-03 0.  1.
         23    2    1    0    0    0  0.29806179996E+02  0.32382949949E+01 -0.22602338394E+02  0.87453220893E+02  0.78982942610E+02 0.  0.
         11    1    3    3    0    0  0.17128812878E+02  0.35035231781E+02  0.99155866798E+01  0.40239067534E+02  0.51100000000E-03 0. -1.
         22    1    1    0    0    0 -0.29806179996E+02 -0.32382949949E+01  0.22602338394E+02  0.37546779107E+02  0.00000000000E+00 0.  1.
</event>
<event>
 5    1  0.8962782E-005  0.9118800E+02  0.7818608E-02  0.1130116E+00
         25   -1    0    0    0    0  0.00000000000E+00  0.00000000000E+00  0.99999998245E-14  0.12500000000E+03  0.12500000000E+03 0.  0.
        -11    1    3    3    0    0  0.30151611130E+02  0.94378133410E+00  0.23641411699E+02  0.38326579867E+02  0.51100000000E-03 0. -1.
         23    2    1    0    0    0 -0.25915966736E+02  0.55964178249E+01  0.12535695073E+02  0.95672523544E+02  0.91066628827E+02 0.  0.
         11    1    3    3    0    0 -0.56067577866E+02  0.46526364908E+01 -0.11105716626E+02  0.57345943676E+02  0.51100000000E-03 0.  1.
         22    1    1    0    0    0  0.25915966736E+02 -0.55964178249E+01 -0.12535695073E+02  0.29327476456E+02  0.00000000000E+00 0.  1.
</event>
<event>
 5    1  0.8962782E-005  0.9118800E+02  0.7818608E-02  0.1130116E+00
         25   -1    0    0    0    0  0.00000000000E+00  0.00000000000E+00  0.99999998245E-14  0.12500000000E+03  0.12500000000E+03 0.  0.
        -11    1    3    3    0    0 -0.26607736918E+02  0.27416975681E+02  0.89736251243E+01  0.39245231144E+02  0.51100000000E-03 0.  1.
         23    2    1    0    0    0  0.14153323511E+02  0.74524758773E+01 -0.24569362910E+02  0.95682606581E+02  0.91080467968E+02 0.  0.
         11    1    3    3    0    0  0.40761060429E+02 -0.19964499803E+02 -0.33542988034E+02  0.56437375437E+02  0.51100000000E-03 0. -1.
         22    1    1    0    0    0 -0.14153323511E+02 -0.74524758773E+01  0.24569362910E+02  0.29317393419E+02  0.00000000000E+00 0. -1.
</event>
<event>
 5    1  0.8962782E-005  0.9118800E+02  0.7818608E-02  0.1130116E+00
         25   -1    0    0    0    0  0.00000000000E+00  0.00000000000E+00  0.99999998245E-14  0.12500000000E+03  0.12500000000E+03 0.  0.
        -11    1    3    3    0    0  0.56472341724E+02  0.10753889323E+02 -0.13319337150E+02  0.59009967444E+02  0.51100000000E-03 0. -1.
         23    2    1    0    0    0  0.28258153393E+02 -0.82357646961E+01  0.85831148084E-01  0.95566032882E+02  0.90920339971E+02 0.  0.
         11    1    3    3    0    0 -0.28214188330E+02 -0.18989654019E+02  0.13405168298E+02  0.36556065438E+02  0.51100000000E-03 0.  1.
         22    1    1    0    0    0 -0.28258153393E+02  0.82357646961E+01 -0.85831148084E-01  0.29433967118E+02  0.00000000000E+00 0. -1.
</event>
<event>
 5    1  0.8962782E-005  0.9118800E+02  0.7818608E-02  0.1130116E+00
         25   -1    0    0    0    0  0.00000000000E+00  0.00000000000E+00  0.99999998245E-14  0.12500000000E+03  0.12500000000E+03 0.  0.
        -11    1    3    3    0    0  0.44973073842E+01 -0.46456752892E+02  0.34354560654E+02  0.57954219009E+02  0.51100000000E-03 0. -1.
         23    2    1    0    0    0 -0.98647262397E+01 -0.11455921583E+02  0.23040280095E+02  0.97442687541E+02  0.93464816296E+02 0.  0.
         11    1    3    3    0    0 -0.14362033624E+02  0.35000831310E+02 -0.11314280559E+02  0.39488468532E+02  0.51100000000E-03 0.  1.
         22    1    1    0    0    0  0.98647262397E+01  0.11455921583E+02 -0.23040280095E+02  0.27557312459E+02  0.00000000000E+00 0. -1.
</event>
<event>
 5    1  0.8962782E-005  0.9118800E+02  0.7818608E-02  0.1130116E+00
         25   -1    0    0    0    0  0.00000000000E+00  0.00000000000E+00  0.99999998245E-14  0.12500000000E+03  0.12500000000E+03 0.  0.
        -11    1    3    3    0    0 -0.16068826226E+02 -0.53936219863E+02  0.25491411041E+02  0.61782967123E+02  0.51100000000E-03 0.  1.
         23    2    1    0    0    0 -0.99123133737E+01 -0.26623936168E+02  0.58190535555E+01  0.96000873845E+02  0.91516219662E+02 0.  0.
         11    1    3    3    0    0  0.61565128527E+01  0.27312283695E+02 -0.19672357485E+02  0.34217906722E+02  0.51100000000E-03 0. -1.
         22    1    1    0    0    0  0.99123133737E+01  0.26623936168E+02 -0.58190535555E+01  0.28999126155E+02  0.00000000000E+00 0.  1.
</event>
<event>
 5    1  0.8962782E-005  0.9118800E+02  0.7818608E-02  0.1130116E+00
         25   -1    0    0    0    0  0.00000000000E+00  0.00000000000E+00  0.99999998245E-14  0.12500000000E+03  0.12500000000E+03 0.  0.
        -11    1    3    3    0    0 -0.21885243443E+02  0.37935124896E+02  0.44333478717E+02  0.62317693450E+02  0.51100000000E-03 0. -1.
         23    2    1    0    0    0 -0.15763229618E+02  0.23366669984E+02  0.24686017355E+02  0.87531611631E+02  0.79106908091E+02 0.  0.
         11    1    3    3    0    0  0.61220138247E+01 -0.14568454912E+02 -0.19647461362E+02  0.25213918181E+02  0.51100000000E-03 0.  1.
         22    1    1    0    0    0  0.15763229618E+02 -0.23366669984E+02 -0.24686017355E+02  0.37468388369E+02  0.00000000000E+00 0. -1.
</event>
<event>
 5    1  0.8962782E-005  0.9118800E+02  0.7818608E-02  0.1130116E+00
         25   -1    0    0    0    0  0.00000000000E+00  0.00000000000E+00  0.99999998245E-14  0.12500000000E+03  0.12500000000E+03 0.  0.
        -11    1    3    3    0    0  0.14812394310E+02  0.30239348263E+02 -0.70065994831E+01  0.34393569823E+02  0.51100000000E-03 0. -1.
         23    2    1    0    0    0  0.14234199058E+02 -0.24504538308E+02  0.14443629033E+02  0.93192717184E+02  0.87596685417E+02 0.  0.
         11    1    3    3    0    0 -0.57819525248E+00 -0.54743886571E+02  0.21450228516E+02  0.58799147361E+02  0.51100000000E-03 0.  1.
         22    1    1    0    0    0 -0.14234199058E+02  0.24504538308E+02 -0.14443629033E+02  0.31807282816E+02  0.00000000000E+00 0.  1.
</event>
<event>
 5    1  0.8962782E-005  0.9118800E+02  0.7818608E-02  0.1130116E+00
         25   -1    0    0    0    0  0.00000000000E+00  0.00000000000E+00  0.99999998245E-14  0.12500000000E+03  0.12500000000E+03 0.  0.
        -11    1    3    3    0    0  0.27860020840E+02 -0.23613931046E+02  0.13854768326E+02  0.39060889727E+02  0.51100000000E-03 0.  1.
         23    2    1    0    0    0 -0.54685472350E+01  0.21363468178E+02  0.19809628954E+02  0.95356717781E+02  0.90632110453E+02 0.  0.
         11    1    3    3    0    0 -0.33328568075E+02  0.44977399224E+02  0.59548606282E+01  0.56295828054E+02  0.51100000000E-03 0. -1.
         22    1    1    0    0    0  0.54685472350E+01 -0.21363468178E+02 -0.19809628954E+02  0.29643282219E+02  0.00000000000E+00 0. -1.
</event>
<event>
 5    1  0.8962782E-005  0.9118800E+02  0.7818608E-02  0.1130116E+00
         25   -1    0    0    0    0  0.00000000000E+00  0.00000000000E+00  0.99999998245E-14  0.12500000000E+03  0.12500000000E+03 0.  0.
        -11    1    3    3    0    0 -0.14722201373E+02 -0.37561747695E+01  0.56501322278E+02  0.58508559046E+02  0.51100000000E-03 0.  1.
         23    2    1    0    0    0  0.73977570407E+00  0.12246836455E+02  0.25855059684E+02  0.96381537733E+02  0.92034691466E+02 0.  0.
         11    1    3    3    0    0  0.15461977077E+02  0.16003011225E+02 -0.30646262594E+02  0.37872978687E+02  0.51100000000E-03 0. -1.
         22    1    1    0    0    0 -0.73977570407E+00 -0.12246836455E+02 -0.25855059684E+02  0.28618462267E+02  0.00000000000E+00 0.  1.
</event>
<event>
 5    1  0.8962782E-005  0.9118800E+02  0.7818608E-02  0.1130116E+00
         25   -1    0    0    0    0  0.00000000000E+00  0.00000000000E+00  0.99999998245E-14  0.12500000000E+03  0.12500000000E+03 0.  0.
        -11    1    3    3    0    0  0.26718027091E+02 -0.41633900711E+02 -0.65753127473E+01  0.49904602974E+02  0.51100000000E-03 0.  1.
         23    2    1    0    0    0 -0.10365180148E+02 -0.13108769423E+02 -0.20342547628E+02  0.98673282786E+02  0.95096375833E+02 0.  0.
         11    1    3    3    0    0 -0.37083207238E+02  0.28525131288E+02 -0.13767234880E+02  0.48768679812E+02  0.51100000000E-03 0. -1.
         22    1    1    0    0    0  0.10365180148E+02  0.13108769423E+02  0.20342547628E+02  0.26326717214E+02  0.00000000000E+00 0. -1.
</event>
<event>
 5    1  0.8962782E-005  0.9118800E+02  0.7818608E-02  0.1130116E+00
         25   -1    0    0    0    0  0.00000000000E+00  0.00000000000E+00  0.99999998245E-14  0.12500000000E+03  0.12500000000E+03 0.  0.
        -11    1    3    3    0    0  0.32532534237E+01  0.52189600826E+02  0.24724817357E+02  0.57841634536E+02  0.51100000000E-03 0. -1.
         23    2    1    0    0    0  0.42038699758E+01  0.26312350633E+02 -0.56555861030E+01  0.97760360267E+02  0.93888711072E+02 0.  0.
         11    1    3    3    0    0  0.95061655206E+00 -0.25877250192E+02 -0.30380403460E+02  0.39918725731E+02  0.51100000000E-03 0.  1.
         22    1    1    0    0    0 -0.42038699758E+01 -0.26312350633E+02  0.56555861030E+01  0.27239639733E+02  0.00000000000E+00 0. -1.
</event>
<event>
 5    1  0.8962782E-005  0.9118800E+02  0.7818608E-02  0.1130116E+00
         25   -1    0    0    0    0  0.00000000000E+00  0.00000000000E+00  0.99999998245E-14  0.12500000000E+03  0.12500000000E+03 0.  0.
        -11    1    3    3    0    0 -0.21504701242E+02  0.14926090531E+02  0.41412112724E+02  0.48991871106E+02  0.51100000000E-03 0.  1.
         23    2    1    0    0    0 -0.64206841639E+01 -0.22297590259E+02  0.19161968587E+02  0.94906998212E+02  0.90009719214E+02 0.  0.
         11    1    3    3    0    0  0.15084017078E+02 -0.37223680790E+02 -0.22250144137E+02  0.45915127105E+02  0.51100000000E-03 0. -1.
         22    1    1    0    0    0  0.64206841639E+01  0.22297590259E+02 -0.19161968587E+02  0.30093001788E+02  0.00000000000E+00 0. -1.
</event>
<event>
 5    1  0.8962782E-005  0.9118800E+02  0.7818608E-02  0.1130116E+00
         25   -1    0    0    0    0  0.00000000000E+00  0.00000000000E+00  0.99999998245E-14  0.12500000000E+03  0.12500000000E+03 0.  0.
        -11    1    3    3    0    0  0.25418730631E+02  0.31951360787E+02 -0.12248310434E+02  0.42626546093E+02  0.51100000000E-03 0.  1.
         23    2    1    0    0    0  0.17240639968E+02 -0.20923821213E+02 -0.97488573870E+01  0.96188783764E+02  0.91772522799E+02 0.  0.
         11    1    3    3    0    0 -0.81780906628E+01 -0.52875182001E+02  0.24994530475E+01  0.53562237671E+02  0.51100000000E-03 0. -1.
         22    1    1    0    0    0 -0.17240639968E+02  0.20923821213E+02  0.97488573870E+01  0.28811216236E+02  0.00000000000E+00 0.  1.
</event>
<event>
 5    1  0.8962782E-005  0.9118800E+02  0.7818608E-02  0.1130116E+00
         25   -1    0    0    0    0  0.00000000000E+00  0.00000000000E+00  0.99999998245E-14  0.12500000000E+03  0.12500000000E+03 0.  0.
        -11    1    3    3    0    0 -0.16885500435E+01  0.39502423435E+02 -0.29046635014E+02  0.49061182868E+02  0.51100000000E-03 0.  1.
         23    2    1    0    0    0  0.93859871266E+00  0.22119755896E+02  0.16175870788E+02  0.97580602410E+02  0.93649082230E+02 0.  0.
         11    1    3    3    0    0  0.26271487561E+01 -0.17382667539E+02  0.45222505802E+02  0.48519419542E+02  0.51100000000E-03 0. -1.
         22    1    1    0    0    0 -0.93859871266E+00 -0.22119755896E+02 -0.16175870788E+02  0.27419397590E+02  0.00000000000E+00 0. -1.
</event>
<event>
 5    1  0.8962782E-005  0.9118800E+02  0.7818608E-02  0.1130116E+00
         25   -1    0    0    0    0  0.00000000000E+00  0.00000000000E+00  0.99999998245E-14  0.12500000000E+03  0.12500000000E+03 0.  0.
        -11    1    3    3    0    0 -0.26799321630E+02 -0.29656093186E+02 -0.19330508068E+02  0.44399955465E+02  0.51100000000E-03 0. -1.
         23    2    1    0    0    0  0.55174974012E+01  0.96170697429E+01 -0.26978579234E+02  0.95831960205E+02  0.91285212665E+02 0.  0.
         11    1    3    3    0    0  0.32316819031E+02  0.39273162929E+02 -0.76480711651E+01  0.51432004740E+02  0.51100000000E-03 0.  1.
         22    1    1    0    0    0 -0.55174974012E+01 -0.96170697429E+01  0.26978579234E+02  0.29168039795E+02  0.00000000000E+00 0.  1.
</event>
<event>
 5    1  0.8962782E-005  0.9118800E+02  0.7818608E-02  0.1130116E+00
         25   -1    0    0    0    0  0.00000000000E+00  0.00000000000E+00  0.99999998245E-14  0.12500000000E+03  0.12500000000E+03 0.  0.
        -11    1    3    3    0    0  0.33378537329E+02 -0.15370610304E+02  0.28098608403E+02  0.46259206757E+02  0.51100000000E-03 0. -1.
         23    2    1    0    0    0 -0.55280369474E+01  0.10340779454E+02  0.29852843394E+02  0.92926908928E+02  0.87216553658E+02 0.  0.
         11    1    3    3    0    0 -0.38906574276E+02  0.25711389758E+02  0.17542349909E+01  0.46667702171E+02  0.51100000000E-03 0.  1.
         22    1    1    0    0    0  0.55280369474E+01 -0.10340779454E+02 -0.29852843394E+02  0.32073091072E+02  0.00000000000E+00 0. -1.
</event>
<event>
 5    1  0.8962782E-005  0.9118800E+02  0.7818608E-02  0.1130116E+00
         25   -1    0    0    0    0  0.00000000000E+00  0.00000000000E+00  0.99999998245E-14  0.12500000000E+03  0.12500000000E+03 0.  0.
        -11    1    3    3    0    0 -0.57011835925E+01 -0.56918734953E+02  0.14915038807E+02  0.59116023766E+02  0.51100000000E-03 0.  1.
         23    2    1    0    0    0  0.61741830331E+01 -0.36213371271E+02 -0.17422865260E+01  0.88222773931E+02  0.80191604815E+02 0.  0.
         11    1    3    3    0    0  0.11875366626E+02  0.20705363682E+02 -0.16657325333E+02  0.29106750165E+02  0.51100000000E-03 0. -1.
         22    1    1    0    0    0 -0.61741830331E+01  0.36213371271E+02  0.17422865260E+01  0.36777226069E+02  0.00000000000E+00 0.  1.
</event>
<event>
 5    1  0.8962782E-005  0.9118800E+02  0.7818608E-02  0.1130116E+00
         25   -1    0    0    0    0  0.00000000000E+00  0.00000000000E+00  0.99999998245E-14  0.12500000000E+03  0.12500000000E+03 0.  0.
        -11    1    3    3    0    0  0.36807108970E+01 -0.11987737559E+02  0.49119578418E+02  0.50695033965E+02  0.51100000000E-03 0.  1.
         23    2    1    0    0    0  0.12664446164E+02 -0.26225910768E+02  0.85061937005E+01  0.94659566194E+02  0.89665442331E+02 0.  0.
         11    1    3    3    0    0  0.89837352675E+01 -0.14238173209E+02 -0.40613384717E+02  0.43964532229E+02  0.51100000000E-03 0. -1.
         22    1    1    0    0    0 -0.12664446164E+02  0.26225910768E+02 -0.85061937005E+01  0.30340433806E+02  0.00000000000E+00 0. -1.
</event>
<event>
 5    1  0.8962782E-005  0.9118800E+02  0.7818608E-02  0.1130116E+00
         25   -1    0    0    0    0  0.00000000000E+00  0.00000000000E+00  0.99999998245E-14  0.12500000000E+03  0.12500000000E+03 0.  0.
        -11    1    3    3    0    0 -0.33559567441E+02 -0.27730625458E+01 -0.12939110884E+02  0.36074298793E+02  0.51100000000E-03 0.  1.
         23    2    1    0    0    0 -0.72618706596E+00 -0.35865305735E+02 -0.21073408610E+02  0.83395480371E+02  0.72276345319E+02 0.  0.
         11    1    3    3    0    0  0.32833380375E+02 -0.33092243190E+02 -0.81342977264E+01  0.47321181578E+02  0.51100000000E-03 0. -1.
         22    1    1    0    0    0  0.72618706596E+00  0.35865305735E+02  0.21073408610E+02  0.41604519629E+02  0.00000000000E+00 0. -1.
</event>
<event>
 5    1  0.8962782E-005  0.9118800E+02  0.7818608E-02  0.1130116E+00
         25   -1    0    0    0    0  0.00000000000E+00  0.00000000000E+00  0.99999998245E-14  0.12500000000E+03  0.12500000000E+03 0.  0.
        -11    1    3    3    0    0  0.20862323421E+02 -0.44063635708E+01  0.42429162025E+02  0.47485643818E+02  0.51100000000E-03 0.  1.
         23    2    1    0    0    0  0.29883798794E+02 -0.53685287940E+01 -0.36224783155E+01  0.94422477521E+02  0.89334312447E+02 0.  0.
         11    1    3    3    0    0  0.90214753731E+01 -0.96216522319E+00 -0.46051640340E+02  0.46936833703E+02  0.51100000000E-03 0. -1.
         22    1    1    0    0    0 -0.29883798794E+02  0.53685287940E+01  0.36224783155E+01  0.30577522479E+02  0.00000000000E+00 0.  1.
</event>
<event>
 5    1  0.8962782E-005  0.9118800E+02  0.7818608E-02  0.1130116E+00
         25   -1    0    0    0    0  0.00000000000E+00  0.00000000000E+00  0.99999998245E-14  0.12500000000E+03  0.12500000000E+03 0.  0.
        -11    1    3    3    0    0  0.15681996225E+02 -0.40790573455E+02  0.16910677743E+01  0.43733918174E+02  0.51100000000E-03 0.  1.
         23    2    1    0    0    0 -0.26437385173E+02 -0.92426963930E+01  0.53573681112E+01  0.96485719991E+02  0.92176081483E+02 0.  0.
         11    1    3    3    0    0 -0.42119381397E+02  0.31547877062E+02  0.36663003369E+01  0.52751801816E+02  0.51100000000E-03 0. -1.
         22    1    1    0    0    0  0.26437385173E+02  0.92426963930E+01 -0.53573681112E+01  0.28514280009E+02  0.00000000000E+00 0. -1.
</event>
<event>
 5    1  0.8962782E-005  0.9118800E+02  0.7818608E-02  0.1130116E+00
         25   -1    0    0    0    0  0.00000000000E+00  0.00000000000E+00  0.99999998245E-14  0.12500000000E+03  0.12500000000E+03 0.  0.
        -11    1    3    3    0    0 -0.24934167096E+02 -0.27549358039E+02 -0.28042221029E+02  0.46551541087E+02  0.51100000000E-03 0.  1.
         23    2    1    0    0    0 -0.27493452487E+02  0.10325784447E+02  0.28487152629E+01  0.95493612001E+02  0.90820719003E+02 0.  0.
         11    1    3    3    0    0 -0.25592853913E+01  0.37875142486E+02  0.30890936292E+02  0.48942070913E+02  0.51100000000E-03 0. -1.
         22    1    1    0    0    0  0.27493452487E+02 -0.10325784447E+02 -0.28487152629E+01  0.29506387999E+02  0.00000000000E+00 0. -1.
</event>
<event>
 5    1  0.8962782E-005  0.9118800E+02  0.7818608E-02  0.1130116E+00
         25   -1    0    0    0    0  0.00000000000E+00  0.00000000000E+00  0.99999998245E-14  0.12500000000E+03  0.12500000000E+03 0.  0.
        -11    1    3    3    0    0  0.85546852722E+01  0.29558207941E+02  0.14414813267E+02  0.33980246300E+02  0.51100000000E-03 0. -1.
         23    2    1    0    0    0 -0.12857223723E+02 -0.18473531741E+02 -0.18367239929E+02  0.95949439257E+02  0.91445939299E+02 0.  0.
         11    1    3    3    0    0 -0.21411908995E+02 -0.48031739683E+02 -0.32782053196E+02  0.61969192957E+02  0.51100000000E-03 0.  1.
         22    1    1    0    0    0  0.12857223723E+02  0.18473531741E+02  0.18367239929E+02  0.29050560743E+02  0.00000000000E+00 0.  1.
</event>
<event>
 5    1  0.8962782E-005  0.9118800E+02  0.7818608E-02  0.1130116E+00
         25   -1    0    0    0    0  0.00000000000E+00  0.00000000000E+00  0.99999998245E-14  0.12500000000E+03  0.12500000000E+03 0.  0.
        -11    1    3    3    0    0 -0.11004498504E+02 -0.41586381180E+02  0.34541378229E+02  0.55169129930E+02  0.51100000000E-03 0.  1.
         23    2    1    0    0    0  0.17838758538E+01 -0.29792370640E+02 -0.14233117287E+01  0.95120351781E+02  0.90305525552E+02 0.  0.
         11    1    3    3    0    0  0.12788374358E+02  0.11794010540E+02 -0.35964689958E+02  0.39951221851E+02  0.51100000000E-03 0. -1.
         22    1    1    0    0    0 -0.17838758538E+01  0.29792370640E+02  0.14233117287E+01  0.29879648219E+02  0.00000000000E+00 0.  1.
</event>
<event>
 5    1  0.8962782E-005  0.9118800E+02  0.7818608E-02  0.1130116E+00
         25   -1    0    0    0    0  0.00000000000E+00  0.00000000000E+00  0.99999998245E-14  0.12500000000E+03  0.12500000000E+03 0.  0.
        -11    1    3    3    0    0 -0.25841650482E+02 -0.13348688826E+02 -0.25965224200E+02  0.38989373693E+02  0.51100000000E-03 0.  1.
         23    2    1    0    0    0 -0.15417751802E+02  0.99281174216E+00  0.26475657199E+02  0.94346237264E+02  0.89227570380E+02 0.  0.
         11    1    3    3    0    0  0.10423898680E+02  0.14341500568E+02  0.52440881398E+02  0.55356863570E+02  0.51100000000E-03 0. -1.
         22    1    1    0    0    0  0.15417751802E+02 -0.99281174216E+00 -0.26475657199E+02  0.30653762736E+02  0.00000000000E+00 0. -1.
</event>
<event>
 5    1  0.8962782E-005  0.9118800E+02  0.7818608E-02  0.1130116E+00
         25   -1    0    0    0    0  0.00000000000E+00  0.00000000000E+00  0.99999998245E-14  0.12500000000E+03  0.12500000000E+03 0.  0.
        -11    1    3    3    0    0 -0.37955765741E+01 -0.35910916211E+02  0.18472677963E+01  0.36158162332E+02  0.51100000000E-03 0.  1.
         23    2    1    0    0    0 -0.13834717063E+02  0.23608595988E+02  0.70518887965E+01  0.96742357913E+02  0.92523453665E+02 0.  0.
         11    1    3    3    0    0 -0.10039140489E+02  0.59519512199E+02  0.52046210002E+01  0.60584195581E+02  0.51100000000E-03 0. -1.
         22    1    1    0    0    0  0.13834717063E+02 -0.23608595988E+02 -0.70518887965E+01  0.28257642087E+02  0.00000000000E+00 0. -1.
</event>
<event>
 5    1  0.8962782E-005  0.9118800E+02  0.7818608E-02  0.1130116E+00
         25   -1    0    0    0    0  0.00000000000E+00  0.00000000000E+00  0.99999998245E-14  0.12500000000E+03  0.12500000000E+03 0.  0.
        -11    1    3    3    0    0 -0.61032880765E+01 -0.14111212227E+02 -0.35035314958E+02  0.38260289209E+02  0.51100000000E-03 0. -1.
         23    2    1    0    0    0  0.91462527577E+00 -0.15110705706E+02  0.23403343836E+02  0.97127316795E+02  0.93042082946E+02 0.  0.
         11    1    3    3    0    0  0.70179133523E+01 -0.99949347849E+00  0.58438658794E+02  0.58867027587E+02  0.51100000000E-03 0.  1.
         22    1    1    0    0    0 -0.91462527577E+00  0.15110705706E+02 -0.23403343836E+02  0.27872683205E+02  0.00000000000E+00 0.  1.
</event>
<event>
 5    1  0.8962782E-005  0.9118800E+02  0.7818608E-02  0.1130116E+00
         25   -1    0    0    0    0  0.00000000000E+00  0.00000000000E+00  0.99999998245E-14  0.12500000000E+03  0.12500000000E+03 0.  0.
        -11    1    3    3    0    0 -0.38728258753E+02  0.24640398517E+02  0.23402373866E+02  0.51523765079E+02  0.51100000000E-03 0. -1.
         23    2    1    0    0    0 -0.32431442618E+02  0.20499567573E+02 -0.96611086485E+01  0.85435271248E+02  0.75721977074E+02 0.  0.
         11    1    3    3    0    0  0.62968161352E+01 -0.41408309448E+01 -0.33063482515E+02  0.33911506169E+02  0.51100000000E-03 0.  1.
         22    1    1    0    0    0  0.32431442618E+02 -0.20499567573E+02  0.96611086485E+01  0.39564728752E+02  0.00000000000E+00 0. -1.
</event>
<event>
 5    1  0.8962782E-005  0.9118800E+02  0.7818608E-02  0.1130116E+00
         25   -1    0    0    0    0  0.00000000000E+00  0.00000000000E+00  0.99999998245E-14  0.12500000000E+03  0.12500000000E+03 0.  0.
        -11    1    3    3    0    0  0.41796071097E+02 -0.64267923142E+01  0.51782276360E+01  0.42603160215E+02  0.51100000000E-03 0.  1.
         23    2    1    0    0    0 -0.38124386575E-01  0.24193524926E+02 -0.12992659903E+02  0.97538439353E+02  0.93592787319E+02 0.  0.
         11    1    3    3    0    0 -0.41834195484E+02  0.30620317241E+02 -0.18170887538E+02  0.54935279137E+02  0.51100000000E-03 0. -1.
         22    1    1    0    0    0  0.38124386575E-01 -0.24193524926E+02  0.12992659903E+02  0.27461560647E+02  0.00000000000E+00 0. -1.
</event>
<event>
 5    1  0.8962782E-005  0.9118800E+02  0.7818608E-02  0.1130116E+00
         25   -1    0    0    0    0  0.00000000000E+00  0.00000000000E+00  0.99999998245E-14  0.12500000000E+03  0.12500000000E+03 0.  0.
        -11    1    3    3    0    0 -0.65286819516E+01 -0.68036768024E+01 -0.47183443812E+02  0.48116432498E+02  0.51100000000E-03 0.  1.
         23    2    1    0    0    0  0.16349312705E+02  0.19126124756E+02 -0.13257925225E+02  0.96559162189E+02  0.92275622714E+02 0.  0.
         11    1    3    3    0    0  0.22877994656E+02  0.25929801558E+02  0.33925518587E+02  0.48442729692E+02  0.51100000000E-03 0. -1.
         22    1    1    0    0    0 -0.16349312705E+02 -0.19126124756E+02  0.13257925225E+02  0.28440837811E+02  0.00000000000E+00 0. -1.
</event>
<event>
 5    1  0.8962782E-005  0.9118800E+02  0.7818608E-02  0.1130116E+00
         25   -1    0    0    0    0  0.00000000000E+00  0.00000000000E+00  0.99999998245E-14  0.12500000000E+03  0.12500000000E+03 0.  0.
        -11    1    3    3    0    0  0.25772573894E+02  0.13517111256E+02  0.53814844663E+02  0.61179860806E+02  0.51100000000E-03 0. -1.
         23    2    1    0    0    0  0.40815040306E+01  0.62905771632E+01  0.29526197561E+02  0.94536474619E+02  0.89493679413E+02 0.  0.
         11    1    3    3    0    0 -0.21691069863E+02 -0.72265340925E+01 -0.24288647102E+02  0.33356613814E+02  0.51100000000E-03 0.  1.
         22    1    1    0    0    0 -0.40815040306E+01 -0.62905771632E+01 -0.29526197561E+02  0.30463525381E+02  0.00000000000E+00 0. -1.
</event>
<event>
 5    1  0.8962782E-005  0.9118800E+02  0.7818608E-02  0.1130116E+00
         25   -1    0    0    0    0  0.00000000000E+00  0.00000000000E+00  0.99999998245E-14  0.12500000000E+03  0.12500000000E+03 0.  0.
        -11    1    3    3    0    0  0.34438322202E+02  0.30973902720E+02  0.11513911195E+01  0.46332562929E+02  0.51100000000E-03 0.  1.
         23    2    1    0    0    0 -0.13555834612E+02  0.22457393387E+02 -0.10979511636E+02  0.96563318662E+02  0.92281253055E+02 0.  0.
         11    1    3    3    0    0 -0.47994156815E+02 -0.85165093326E+01 -0.12130902755E+02  0.50230755733E+02  0.51100000000E-03 0. -1.
         22    1    1    0    0    0  0.13555834612E+02 -0.22457393387E+02  0.10979511636E+02  0.28436681338E+02  0.00000000000E+00 0. -1.
</event>
<event>
 5    1  0.8962782E-005  0.9118800E+02  0.7818608E-02  0.1130116E+00
         25   -1    0    0    0    0  0.00000000000E+00  0.00000000000E+00  0.99999998245E-14  0.12500000000E+03  0.12500000000E+03 0.  0.
        -11    1    3    3    0    0  0.35507323585E+02  0.11614251065E+02  0.18064226068E+01  0.37402192701E+02  0.51100000000E-03 0.  1.
         23    2    1    0    0    0 -0.20652259994E+02  0.85837107347E+01  0.18398255458E+02  0.96039824988E+02  0.91569406719E+02 0.  0.
         11    1    3    3    0    0 -0.56159583579E+02 -0.30305403307E+01  0.16591832851E+02  0.58637632286E+02  0.51100000000E-03 0. -1.
         22    1    1    0    0    0  0.20652259994E+02 -0.85837107347E+01 -0.18398255458E+02  0.28960175012E+02  0.00000000000E+00 0. -1.
</event>
<event>
 5    1  0.8962782E-005  0.9118800E+02  0.7818608E-02  0.1130116E+00
         25   -1    0    0    0    0  0.00000000000E+00  0.00000000000E+00  0.99999998245E-14  0.12500000000E+03  0.12500000000E+03 0.  0.
        -11    1    3    3    0    0  0.23945898772E+02  0.40127403285E+02  0.37292635008E+01  0.46877734255E+02  0.51100000000E-03 0. -1.
         23    2    1    0    0    0 -0.19763507702E+02  0.23101832884E+02 -0.37103942986E+01  0.94372268364E+02  0.89264030220E+02 0.  0.
         11    1    3    3    0    0 -0.43709406474E+02 -0.17025570401E+02 -0.74396577994E+01  0.47494534109E+02  0.51100000000E-03 0.  1.
         22    1    1    0    0    0  0.19763507702E+02 -0.23101832884E+02  0.37103942986E+01  0.30627731636E+02  0.00000000000E+00 0. -1.
</event>
<event>
 5    1  0.8962782E-005  0.9118800E+02  0.7818608E-02  0.1130116E+00
         25   -1    0    0    0    0  0.00000000000E+00  0.00000000000E+00  0.99999998245E-14  0.12500000000E+03  0.12500000000E+03 0.  0.
        -11    1    3    3    0    0 -0.26883301902E+02 -0.15995069807E+02  0.51356160809E+02  0.60133263944E+02  0.51100000000E-03 0.  1.
         23    2    1    0    0    0 -0.16719609408E+02  0.39334213773E+01  0.24354827232E+02  0.95197739147E+02  0.90412580909E+02 0.  0.
         11    1    3    3    0    0  0.10163692494E+02  0.19928491184E+02 -0.27001333578E+02  0.35064475202E+02  0.51100000000E-03 0. -1.
         22    1    1    0    0    0  0.16719609408E+02 -0.39334213773E+01 -0.24354827232E+02  0.29802260853E+02  0.00000000000E+00 0.  1.
</event>
<event>
 5    1  0.8962782E-005  0.9118800E+02  0.7818608E-02  0.1130116E+00
         25   -1    0    0    0    0  0.00000000000E+00  0.00000000000E+00  0.99999998245E-14  0.12500000000E+03  0.12500000000E+03 0.  0.
        -11    1    3    3    0    0  0.36194215301E+02  0.12677085138E+02  0.47997848052E+02  0.61437147775E+02  0.51100000000E-03 0.  1.
         23    2    1    0    0    0  0.20186978223E+02 -0.14193376098E+01  0.21122788773E+02  0.95747635744E+02  0.91169671141E+02 0.  0.
         11    1    3    3    0    0 -0.16007237078E+02 -0.14096422748E+02 -0.26875059279E+02  0.34310487969E+02  0.51100000000E-03 0. -1.
         22    1    1    0    0    0 -0.20186978223E+02  0.14193376098E+01 -0.21122788773E+02  0.29252364256E+02  0.00000000000E+00 0.  1.
</event>
<event>
 5    1  0.8962782E-005  0.9118800E+02  0.7818608E-02  0.1130116E+00
         25   -1    0    0    0    0  0.00000000000E+00  0.00000000000E+00  0.99999998245E-14  0.12500000000E+03  0.12500000000E+03 0.  0.
        -11    1    3    3    0    0 -0.13436601110E+02 -0.25315703508E+02  0.38985819603E+02  0.48387201034E+02  0.51100000000E-03 0. -1.
         23    2    1    0    0    0 -0.28066906415E+02  0.71709794785E+01  0.98816067107E+01  0.94392479134E+02  0.89292327686E+02 0.  0.
         11    1    3    3    0    0 -0.14630305305E+02  0.32486682986E+02 -0.29104212893E+02  0.46005278100E+02  0.51100000000E-03 0.  1.
         22    1    1    0    0    0  0.28066906415E+02 -0.71709794785E+01 -0.98816067107E+01  0.30607520866E+02  0.00000000000E+00 0. -1.
</event>
<event>
 5    1  0.8962782E-005  0.9118800E+02  0.7818608E-02  0.1130116E+00
         25   -1    0    0    0    0  0.00000000000E+00  0.00000000000E+00  0.99999998245E-14  0.12500000000E+03  0.12500000000E+03 0.  0.
        -11    1    3    3    0    0 -0.17171241507E+02  0.39721910860E+02  0.12676242554E+02  0.45092891488E+02  0.51100000000E-03 0. -1.
         23    2    1    0    0    0 -0.11233425708E+02  0.94610111912E+01 -0.26350557618E+02  0.94832924029E+02  0.89906790662E+02 0.  0.
         11    1    3    3    0    0  0.59378157991E+01 -0.30260899668E+02 -0.39026800171E+02  0.49740032540E+02  0.51100000000E-03 0.  1.
         22    1    1    0    0    0  0.11233425708E+02 -0.94610111912E+01  0.26350557618E+02  0.30167075971E+02  0.00000000000E+00 0. -1.
</event>
<event>
 5    1  0.8962782E-005  0.9118800E+02  0.7818608E-02  0.1130116E+00
         25   -1    0    0    0    0  0.00000000000E+00  0.00000000000E+00  0.99999998245E-14  0.12500000000E+03  0.12500000000E+03 0.  0.
        -11    1    3    3    0    0 -0.19090932789E+02 -0.23777509662E+02 -0.47924212466E+02  0.56802850467E+02  0.51100000000E-03 0.  1.
         23    2    1    0    0    0 -0.15689087679E+02 -0.23174705182E+02 -0.94060615512E+01  0.95475629958E+02  0.90795966262E+02 0.  0.
         11    1    3    3    0    0  0.34018451102E+01  0.60280447940E+00  0.38518150914E+02  0.38672779490E+02  0.51100000000E-03 0. -1.
         22    1    1    0    0    0  0.15689087679E+02  0.23174705182E+02  0.94060615512E+01  0.29524370042E+02  0.00000000000E+00 0.  1.
</event>
<event>
 5    1  0.8962782E-005  0.9118800E+02  0.7818608E-02  0.1130116E+00
         25   -1    0    0    0    0  0.00000000000E+00  0.00000000000E+00  0.99999998245E-14  0.12500000000E+03  0.12500000000E+03 0.  0.
        -11    1    3    3    0    0 -0.43461098146E+02 -0.90790208177E+01 -0.38338764437E+02  0.58661371701E+02  0.51100000000E-03 0.  1.
         23    2    1    0    0    0 -0.19555864844E+02 -0.18816616607E+02 -0.12721938560E+02  0.95027602180E+02  0.90177051100E+02 0.  0.
         11    1    3    3    0    0  0.23905233302E+02 -0.97375957895E+01  0.25616825877E+02  0.36366230479E+02  0.51100000000E-03 0. -1.
         22    1    1    0    0    0  0.19555864844E+02  0.18816616607E+02  0.12721938560E+02  0.29972397820E+02  0.00000000000E+00 0.  1.
</event>
<event>
 5    1  0.8962782E-005  0.9118800E+02  0.7818608E-02  0.1130116E+00
         25   -1    0    0    0    0  0.00000000000E+00  0.00000000000E+00  0.99999998245E-14  0.12500000000E+03  0.12500000000E+03 0.  0.
        -11    1    3    3    0    0  0.26044430354E+02  0.53224492983E+02  0.17006220029E+02  0.61647145317E+02  0.51100000000E-03 0.  1.
         23    2    1    0    0    0  0.69083554767E+01  0.25667052112E+02  0.21702118245E+01  0.98331052536E+02  0.94645460187E+02 0.  0.
         11    1    3    3    0    0 -0.19136074878E+02 -0.27557440872E+02 -0.14836008204E+02  0.36683907219E+02  0.51100000000E-03 0. -1.
         22    1    1    0    0    0 -0.69083554767E+01 -0.25667052112E+02 -0.21702118245E+01  0.26668947464E+02  0.00000000000E+00 0.  1.
</event>
<event>
 5    1  0.8962782E-005  0.9118800E+02  0.7818608E-02  0.1130116E+00
         25   -1    0    0    0    0  0.00000000000E+00  0.00000000000E+00  0.99999998245E-14  0.12500000000E+03  0.12500000000E+03 0.  0.
        -11    1    3    3    0    0  0.38197838304E+00 -0.77415990052E+01 -0.33122558400E+02  0.34017379938E+02  0.51100000000E-03 0.  1.
         23    2    1    0    0    0  0.92576172407E+01  0.17032692847E+02  0.22348933563E+02  0.95414683811E+02  0.90712022095E+02 0.  0.
         11    1    3    3    0    0  0.88756388577E+01  0.24774291853E+02  0.55471491963E+02  0.61397303872E+02  0.51100000000E-03 0. -1.
         22    1    1    0    0    0 -0.92576172407E+01 -0.17032692847E+02 -0.22348933563E+02  0.29585316189E+02  0.00000000000E+00 0. -1.
</event>
<event>
 5    1  0.8962782E-005  0.9118800E+02  0.7818608E-02  0.1130116E+00
         25   -1    0    0    0    0  0.00000000000E+00  0.00000000000E+00  0.99999998245E-14  0.12500000000E+03  0.12500000000E+03 0.  0.
        -11    1    3    3    0    0 -0.35702716689E+02  0.22226372328E+02 -0.28657263993E+02  0.50891397954E+02  0.51100000000E-03 0. -1.
         23    2    1    0    0    0 -0.29794509069E+02 -0.12856651291E+02 -0.10117882584E+02  0.91009151216E+02  0.84423265775E+02 0.  0.
         11    1    3    3    0    0  0.59082076208E+01 -0.35083023619E+02  0.18539381409E+02  0.40117753263E+02  0.51100000000E-03 0.  1.
         22    1    1    0    0    0  0.29794509069E+02  0.12856651291E+02  0.10117882584E+02  0.33990848784E+02  0.00000000000E+00 0. -1.
</event>
<event>
 5    1  0.8962782E-005  0.9118800E+02  0.7818608E-02  0.1130116E+00
         25   -1    0    0    0    0  0.00000000000E+00  0.00000000000E+00  0.99999998245E-14  0.12500000000E+03  0.12500000000E+03 0.  0.
        -11    1    3    3    0    0  0.54760012811E+01 -0.38661950332E+02  0.44763732218E+02  0.59401386481E+02  0.51100000000E-03 0. -1.
         23    2    1    0    0    0  0.54187655230E+01 -0.71979438189E+01  0.29077217687E+02  0.94558942143E+02  0.89525055352E+02 0.  0.
         11    1    3    3    0    0 -0.57235758095E-01  0.31464006513E+02 -0.15686514530E+02  0.35157555663E+02  0.51100000000E-03 0.  1.
         22    1    1    0    0    0 -0.54187655230E+01  0.71979438189E+01 -0.29077217687E+02  0.30441057857E+02  0.00000000000E+00 0.  1.
</event>
<event>
 5    1  0.8962782E-005  0.9118800E+02  0.7818608E-02  0.1130116E+00
         25   -1    0    0    0    0  0.00000000000E+00  0.00000000000E+00  0.99999998245E-14  0.12500000000E+03  0.12500000000E+03 0.  0.
        -11    1    3    3    0    0  0.38518621864E+02 -0.34139610081E+02  0.30831915154E+02  0.59998368304E+02  0.51100000000E-03 0. -1.
         23    2    1    0    0    0  0.14447560796E+02 -0.83295052431E+01  0.23726035473E+02  0.95999354665E+02  0.91514144624E+02 0.  0.
         11    1    3    3    0    0 -0.24071061068E+02  0.25810104838E+02 -0.71058796809E+01  0.36000986361E+02  0.51100000000E-03 0.  1.
         22    1    1    0    0    0 -0.14447560796E+02  0.83295052431E+01 -0.23726035473E+02  0.29000645335E+02  0.00000000000E+00 0. -1.
</event>
<event>
 5    1  0.8962782E-005  0.9118800E+02  0.7818608E-02  0.1130116E+00
         25   -1    0    0    0    0  0.00000000000E+00  0.00000000000E+00  0.99999998245E-14  0.12500000000E+03  0.12500000000E+03 0.  0.
        -11    1    3    3    0    0 -0.38951943734E+02  0.15361811857E+02 -0.64401693282E+01  0.42364076355E+02  0.51100000000E-03 0. -1.
         23    2    1    0    0    0 -0.48259386843E+01 -0.26541471364E+02 -0.92582615948E+01  0.96478871093E+02  0.92166793225E+02 0.  0.
         11    1    3    3    0    0  0.34126005049E+02 -0.41903283221E+02 -0.28180922667E+01  0.54114794739E+02  0.51100000000E-03 0.  1.
         22    1    1    0    0    0  0.48259386843E+01  0.26541471364E+02  0.92582615948E+01  0.28521128907E+02  0.00000000000E+00 0.  1.
</event>
<event>
 5    1  0.8962782E-005  0.9118800E+02  0.7818608E-02  0.1130116E+00
         25   -1    0    0    0    0  0.00000000000E+00  0.00000000000E+00  0.99999998245E-14  0.12500000000E+03  0.12500000000E+03 0.  0.
        -11    1    3    3    0    0 -0.42958953065E+02  0.11904531227E+02  0.40739714912E+02  0.60389683585E+02  0.51100000000E-03 0.  1.
         23    2    1    0    0    0 -0.27033264052E+02 -0.50705219654E+00  0.12230994999E+02  0.95324223584E+02  0.90587283302E+02 0.  0.
         11    1    3    3    0    0  0.15925689013E+02 -0.12411583423E+02 -0.28508719912E+02  0.34934539999E+02  0.51100000000E-03 0. -1.
         22    1    1    0    0    0  0.27033264052E+02  0.50705219654E+00 -0.12230994999E+02  0.29675776416E+02  0.00000000000E+00 0.  1.
</event>
<event>
 5    1  0.8962782E-005  0.9118800E+02  0.7818608E-02  0.1130116E+00
         25   -1    0    0    0    0  0.00000000000E+00  0.00000000000E+00  0.99999998245E-14  0.12500000000E+03  0.12500000000E+03 0.  0.
        -11    1    3    3    0    0  0.28347809865E+02  0.71224788156E+01  0.30140031816E+02  0.41985111013E+02  0.51100000000E-03 0.  1.
         23    2    1    0    0    0  0.50917277473E+01  0.38072871940E+02  0.11852193370E+02  0.84801197071E+02  0.74667926634E+02 0.  0.
         11    1    3    3    0    0 -0.23256082118E+02  0.30950393125E+02 -0.18287838446E+02  0.42816086058E+02  0.51100000000E-03 0. -1.
         22    1    1    0    0    0 -0.50917277473E+01 -0.38072871940E+02 -0.11852193370E+02  0.40198802929E+02  0.00000000000E+00 0.  1.
</event>
<event>
 5    1  0.8962782E-005  0.9118800E+02  0.7818608E-02  0.1130116E+00
         25   -1    0    0    0    0  0.00000000000E+00  0.00000000000E+00  0.99999998245E-14  0.12500000000E+03  0.12500000000E+03 0.  0.
        -11    1    3    3    0    0  0.25145289441E+02  0.38145582358E+02  0.52571744394E+01  0.45989226107E+02  0.51100000000E-03 0. -1.
         23    2    1    0    0    0  0.87444098161E+01  0.34401165418E+01 -0.27177887027E+02  0.96243493812E+02  0.91847011127E+02 0.  0.
         11    1    3    3    0    0 -0.16400879625E+02 -0.34705465816E+02 -0.32435061467E+02  0.50254267706E+02  0.51100000000E-03 0.  1.
         22    1    1    0    0    0 -0.87444098161E+01 -0.34401165418E+01  0.27177887027E+02  0.28756506188E+02  0.00000000000E+00 0.  1.
</event>
<event>
 5    1  0.8962782E-005  0.9118800E+02  0.7818608E-02  0.1130116E+00
         25   -1    0    0    0    0  0.00000000000E+00  0.00000000000E+00  0.99999998245E-14  0.12500000000E+03  0.12500000000E+03 0.  0.
        -11    1    3    3    0    0  0.51629897784E+02 -0.24363174586E+02 -0.21449329533E+01  0.57129776463E+02  0.51100000000E-03 0. -1.
         23    2    1    0    0    0  0.21537952870E+02 -0.14591895888E+02  0.16823409069E+02  0.94018813255E+02  0.88767692962E+02 0.  0.
         11    1    3    3    0    0 -0.30091944914E+02  0.97712786983E+01  0.18968342022E+02  0.36889036792E+02  0.51100000000E-03 0.  1.
         22    1    1    0    0    0 -0.21537952870E+02  0.14591895888E+02 -0.16823409069E+02  0.30981186745E+02  0.00000000000E+00 0. -1.
</event>
<event>
 5    1  0.8962782E-005  0.9118800E+02  0.7818608E-02  0.1130116E+00
         25   -1    0    0    0    0  0.00000000000E+00  0.00000000000E+00  0.99999998245E-14  0.12500000000E+03  0.12500000000E+03 0.  0.
        -11    1    3    3    0    0 -0.43333044183E+01 -0.36036683631E+02 -0.11663900442E+02  0.38124357936E+02  0.51100000000E-03 0.  1.
         23    2    1    0    0    0 -0.15746631847E+02  0.18293023398E+02 -0.19211681048E+02  0.94150691933E+02  0.88953206706E+02 0.  0.
         11    1    3    3    0    0 -0.11413327428E+02  0.54329707028E+02 -0.75477806064E+01  0.56026333997E+02  0.51100000000E-03 0. -1.
         22    1    1    0    0    0  0.15746631847E+02 -0.18293023398E+02  0.19211681048E+02  0.30849308067E+02  0.00000000000E+00 0. -1.
</event>
<event>
 5    1  0.8962782E-005  0.9118800E+02  0.7818608E-02  0.1130116E+00
         25   -1    0    0    0    0  0.00000000000E+00  0.00000000000E+00  0.99999998245E-14  0.12500000000E+03  0.12500000000E+03 0.  0.
        -11    1    3    3    0    0  0.47943208062E+02 -0.28404577312E+02 -0.26970347717E+02  0.61909376251E+02  0.51100000000E-03 0.  1.
         23    2    1    0    0    0  0.23971166408E+02 -0.19663511747E+02 -0.10561234004E+02  0.92246218892E+02  0.86235460937E+02 0.  0.
         11    1    3    3    0    0 -0.23972041654E+02  0.87410655659E+01  0.16409113714E+02  0.30336842641E+02  0.51100000000E-03 0. -1.
         22    1    1    0    0    0 -0.23971166408E+02  0.19663511747E+02  0.10561234004E+02  0.32753781108E+02  0.00000000000E+00 0.  1.
</event>
<event>
 5    1  0.8962782E-005  0.9118800E+02  0.7818608E-02  0.1130116E+00
         25   -1    0    0    0    0  0.00000000000E+00  0.00000000000E+00  0.99999998245E-14  0.12500000000E+03  0.12500000000E+03 0.  0.
        -11    1    3    3    0    0 -0.25812018001E+02  0.13680212731E+02  0.34375607916E+02  0.45111981929E+02  0.51100000000E-03 0. -1.
         23    2    1    0    0    0  0.10115858492E+01  0.28713004097E+02 -0.57852965831E+01  0.95692499821E+02  0.91094044565E+02 0.  0.
         11    1    3    3    0    0  0.26823603850E+02  0.15032791366E+02 -0.40160904500E+02  0.50580517892E+02  0.51100000000E-03 0.  1.
         22    1    1    0    0    0 -0.10115858492E+01 -0.28713004097E+02  0.57852965831E+01  0.29307500179E+02  0.00000000000E+00 0.  1.
</event>
<event>
 5    1  0.8962782E-005  0.9118800E+02  0.7818608E-02  0.1130116E+00
         25   -1    0    0    0    0  0.00000000000E+00  0.00000000000E+00  0.99999998245E-14  0.12500000000E+03  0.12500000000E+03 0.  0.
        -11    1    3    3    0    0 -0.31267272681E+01 -0.48082356960E+02 -0.38568089980E+02  0.61718611773E+02  0.51100000000E-03 0. -1.
         23    2    1    0    0    0 -0.75543498523E+01 -0.29471508581E+02 -0.18757720072E+02  0.89258006742E+02  0.81789373915E+02 0.  0.
         11    1    3    3    0    0 -0.44276225842E+01  0.18610848379E+02  0.19810369907E+02  0.27539394969E+02  0.51100000000E-03 0.  1.
         22    1    1    0    0    0  0.75543498523E+01  0.29471508581E+02  0.18757720072E+02  0.35741993258E+02  0.00000000000E+00 0. -1.
</event>
<event>
 5    1  0.8962782E-005  0.9118800E+02  0.7818608E-02  0.1130116E+00
         25   -1    0    0    0    0  0.00000000000E+00  0.00000000000E+00  0.99999998245E-14  0.12500000000E+03  0.12500000000E+03 0.  0.
        -11    1    3    3    0    0 -0.46253277442E+02 -0.22895319467E+02  0.25831148112E+02  0.57713166094E+02  0.51100000000E-03 0.  1.
         23    2    1    0    0    0 -0.14341244412E+02 -0.19666227017E+02  0.25441613792E+02  0.89790519903E+02  0.82599212925E+02 0.  0.
         11    1    3    3    0    0  0.31912033030E+02  0.32290924499E+01 -0.38953432057E+00  0.32077353809E+02  0.51100000000E-03 0. -1.
         22    1    1    0    0    0  0.14341244412E+02  0.19666227017E+02 -0.25441613792E+02  0.35209480097E+02  0.00000000000E+00 0.  1.
</event>
<event>
 5    1  0.8962782E-005  0.9118800E+02  0.7818608E-02  0.1130116E+00
         25   -1    0    0    0    0  0.00000000000E+00  0.00000000000E+00  0.99999998245E-14  0.12500000000E+03  0.12500000000E+03 0.  0.
        -11    1    3    3    0    0 -0.18826975328E+02 -0.20626044329E+02 -0.53106356786E+02  0.60001448616E+02  0.51100000000E-03 0. -1.
         23    2    1    0    0    0 -0.13498209128E+02  0.19100463447E+01 -0.25918285905E+02  0.95715064095E+02  0.91125002188E+02 0.  0.
         11    1    3    3    0    0  0.53287662002E+01  0.22536090674E+02  0.27188070881E+02  0.35713615479E+02  0.51100000000E-03 0.  1.
         22    1    1    0    0    0  0.13498209128E+02 -0.19100463447E+01  0.25918285905E+02  0.29284935905E+02  0.00000000000E+00 0. -1.
</event>
<event>
 5    1  0.8962782E-005  0.9118800E+02  0.7818608E-02  0.1130116E+00
         25   -1    0    0    0    0  0.00000000000E+00  0.00000000000E+00  0.99999998245E-14  0.12500000000E+03  0.12500000000E+03 0.  0.
        -11    1    3    3    0    0  0.40290111602E+02 -0.27363529069E+02 -0.35121949403E+02  0.60046708037E+02  0.51100000000E-03 0.  1.
         23    2    1    0    0    0  0.17253704317E+02 -0.21447425362E+02 -0.75543609944E+01  0.96456161132E+02  0.92135987990E+02 0.  0.
         11    1    3    3    0    0 -0.23036407285E+02  0.59161037067E+01  0.27567588409E+02  0.36409453094E+02  0.51100000000E-03 0. -1.
         22    1    1    0    0    0 -0.17253704317E+02  0.21447425362E+02  0.75543609944E+01  0.28543838868E+02  0.00000000000E+00 0.  1.
</event>
<event>
 5    1  0.8962782E-005  0.9118800E+02  0.7818608E-02  0.1130116E+00
         25   -1    0    0    0    0  0.00000000000E+00  0.00000000000E+00  0.99999998245E-14  0.12500000000E+03  0.12500000000E+03 0.  0.
        -11    1    3    3    0    0 -0.19152740985E+02 -0.27524865920E+02  0.45678423925E+02  0.56665369881E+02  0.51100000000E-03 0. -1.
         23    2    1    0    0    0  0.60006462464E+01 -0.48313690200E+01  0.30057593989E+02  0.93970838903E+02  0.88700111193E+02 0.  0.
         11    1    3    3    0    0  0.25153387232E+02  0.22693496900E+02 -0.15620829936E+02  0.37305469022E+02  0.51100000000E-03 0.  1.
         22    1    1    0    0    0 -0.60006462464E+01  0.48313690200E+01 -0.30057593989E+02  0.31029161097E+02  0.00000000000E+00 0. -1.
</event>
<event>
 5    1  0.8962782E-005  0.9118800E+02  0.7818608E-02  0.1130116E+00
         25   -1    0    0    0    0  0.00000000000E+00  0.00000000000E+00  0.99999998245E-14  0.12500000000E+03  0.12500000000E+03 0.  0.
        -11    1    3    3    0    0  0.35276266224E+02 -0.13774183477E+02  0.13883750999E+02  0.40334868678E+02  0.51100000000E-03 0.  1.
         23    2    1    0    0    0  0.15103094093E+02  0.12714479195E+02 -0.26041005325E+02  0.92321331259E+02  0.86344269148E+02 0.  0.
         11    1    3    3    0    0 -0.20173172131E+02  0.26488662672E+02 -0.39924756323E+02  0.51986462582E+02  0.51100000000E-03 0. -1.
         22    1    1    0    0    0 -0.15103094093E+02 -0.12714479195E+02  0.26041005325E+02  0.32678668741E+02  0.00000000000E+00 0. -1.
</event>
<event>
 5    1  0.8962782E-005  0.9118800E+02  0.7818608E-02  0.1130116E+00
         25   -1    0    0    0    0  0.00000000000E+00  0.00000000000E+00  0.99999998245E-14  0.12500000000E+03  0.12500000000E+03 0.  0.
        -11    1    3    3    0    0  0.22371605671E+02  0.19411036860E+02  0.21644932220E+02  0.36684876766E+02  0.51100000000E-03 0.  1.
         23    2    1    0    0    0  0.69943304816E+01 -0.20700230212E+02 -0.19164173818E+02  0.95936522096E+02  0.91428280768E+02 0.  0.
         11    1    3    3    0    0 -0.15377275189E+02 -0.40111267072E+02 -0.40809106039E+02  0.59251645330E+02  0.51100000000E-03 0. -1.
         22    1    1    0    0    0 -0.69943304816E+01  0.20700230212E+02  0.19164173818E+02  0.29063477904E+02  0.00000000000E+00 0. -1.
</event>
<event>
 5    1  0.8962782E-005  0.9118800E+02  0.7818608E-02  0.1130116E+00
         25   -1    0    0    0    0  0.00000000000E+00  0.00000000000E+00  0.99999998245E-14  0.12500000000E+03  0.12500000000E+03 0.  0.
        -11    1    3    3    0    0 -0.33689156654E+02  0.54896863667E+01 -0.33120622266E+01  0.34293814149E+02  0.51100000000E-03 0.  1.
         23    2    1    0    0    0  0.26541684426E+02 -0.82548891896E+01 -0.74859326052E+01  0.96213833276E+02  0.91806635484E+02 0.  0.
         11    1    3    3    0    0  0.60230841080E+02 -0.13744575556E+02 -0.41738703786E+01  0.61920019126E+02  0.51100000000E-03 0. -1.
         22    1    1    0    0    0 -0.26541684426E+02  0.82548891896E+01  0.74859326052E+01  0.28786166724E+02  0.00000000000E+00 0. -1.
</event>
<event>
 5    1  0.8962782E-005  0.9118800E+02  0.7818608E-02  0.1130116E+00
         25   -1    0    0    0    0  0.00000000000E+00  0.00000000000E+00  0.99999998245E-14  0.12500000000E+03  0.12500000000E+03 0.  0.
        -11    1    3    3    0    0 -0.37908804849E+02 -0.44060184666E+02  0.12764862097E+01  0.58137825683E+02  0.51100000000E-03 0. -1.
         23    2    1    0    0    0 -0.44231663920E+01 -0.30331383679E+02  0.10070975048E+00  0.94347636645E+02  0.89229530769E+02 0.  0.
         11    1    3    3    0    0  0.33485638457E+02  0.13728800987E+02 -0.11757764593E+01  0.36209810962E+02  0.51100000000E-03 0.  1.
         22    1    1    0    0    0  0.44231663920E+01  0.30331383679E+02 -0.10070975048E+00  0.30652363355E+02  0.00000000000E+00 0. -1.
</event>
<event>
 5    1  0.8962782E-005  0.9118800E+02  0.7818608E-02  0.1130116E+00
         25   -1    0    0    0    0  0.00000000000E+00  0.00000000000E+00  0.99999998245E-14  0.12500000000E+03  0.12500000000E+03 0.  0.
        -11    1    3    3    0    0 -0.35146406545E+01  0.31747739648E+02  0.51541703882E+02  0.60636778534E+02  0.51100000000E-03 0.  1.
         23    2    1    0    0    0 -0.77016238160E+01  0.23177481970E+02  0.20492234924E+02  0.93118306631E+02  0.87490437522E+02 0.  0.
         11    1    3    3    0    0 -0.41869831616E+01 -0.85702576780E+01 -0.31049468958E+02  0.32481528097E+02  0.51100000000E-03 0. -1.
         22    1    1    0    0    0  0.77016238160E+01 -0.23177481970E+02 -0.20492234924E+02  0.31881693369E+02  0.00000000000E+00 0.  1.
</event>
<event>
 5    1  0.8962782E-005  0.9118800E+02  0.7818608E-02  0.1130116E+00
         25   -1    0    0    0    0  0.00000000000E+00  0.00000000000E+00  0.99999998245E-14  0.12500000000E+03  0.12500000000E+03 0.  0.
        -11    1    3    3    0    0  0.34487539671E+02 -0.84384315178E+01 -0.48862271896E+01  0.35839541508E+02  0.51100000000E-03 0.  1.
         23    2    1    0    0    0 -0.19063254840E+02 -0.73897382896E+01 -0.24689201139E+02  0.92944227198E+02  0.87241370917E+02 0.  0.
         11    1    3    3    0    0 -0.53550794511E+02  0.10486932282E+01 -0.19802973949E+02  0.57104685690E+02  0.51100000000E-03 0. -1.
         22    1    1    0    0    0  0.19063254840E+02  0.73897382896E+01  0.24689201139E+02  0.32055772802E+02  0.00000000000E+00 0. -1.
</event>
<event>
 5    1  0.8962782E-005  0.9118800E+02  0.7818608E-02  0.1130116E+00
         25   -1    0    0    0    0  0.00000000000E+00  0.00000000000E+00  0.99999998245E-14  0.12500000000E+03  0.12500000000E+03 0.  0.
        -11    1    3    3    0    0  0.29874815091E+02  0.38983001408E+01 -0.18187441767E+02  0.35192106487E+02  0.51100000000E-03 0. -1.
         23    2    1    0    0    0 -0.11602169888E+02 -0.20432185243E+02  0.18022658573E+02  0.95387489773E+02  0.90674541317E+02 0.  0.
         11    1    3    3    0    0 -0.41476984979E+02 -0.24330485384E+02  0.36210100341E+02  0.60195383286E+02  0.51100000000E-03 0.  1.
         22    1    1    0    0    0  0.11602169888E+02  0.20432185243E+02 -0.18022658573E+02  0.29612510227E+02  0.00000000000E+00 0.  1.
</event>
<event>
 5    1  0.8962782E-005  0.9118800E+02  0.7818608E-02  0.1130116E+00
         25   -1    0    0    0    0  0.00000000000E+00  0.00000000000E+00  0.99999998245E-14  0.12500000000E+03  0.12500000000E+03 0.  0.
        -11    1    3    3    0    0  0.20531450964E+02  0.32457449647E+01  0.24410153980E+02  0.32061362364E+02  0.51100000000E-03 0. -1.
         23    2    1    0    0    0 -0.27847265990E+02 -0.57793334934E+01 -0.12852338352E+02  0.93790169500E+02  0.88445137655E+02 0.  0.
         11    1    3    3    0    0 -0.48378716954E+02 -0.90250784581E+01 -0.37262492332E+02  0.61728807135E+02  0.51100000000E-03 0.  1.
         22    1    1    0    0    0  0.27847265990E+02  0.57793334934E+01  0.12852338352E+02  0.31209830500E+02  0.00000000000E+00 0.  1.
</event>
<event>
 5    1  0.8962782E-005  0.9118800E+02  0.7818608E-02  0.1130116E+00
         25   -1    0    0    0    0  0.00000000000E+00  0.00000000000E+00  0.99999998245E-14  0.12500000000E+03  0.12500000000E+03 0.  0.
        -11    1    3    3    0    0 -0.22310717847E+02  0.25004992976E+02  0.10188134406E+02  0.35025931644E+02  0.51100000000E-03 0. -1.
         23    2    1    0    0    0  0.95956453510E+01 -0.10929235045E+02 -0.26017435302E+02  0.95193431461E+02  0.90406625118E+02 0.  0.
         11    1    3    3    0    0  0.31906363198E+02 -0.35934228022E+02 -0.36205569708E+02  0.60167499817E+02  0.51100000000E-03 0.  1.
         22    1    1    0    0    0 -0.95956453510E+01  0.10929235045E+02  0.26017435302E+02  0.29806568539E+02  0.00000000000E+00 0.  1.
</event>
<event>
 5    1  0.8962782E-005  0.9118800E+02  0.7818608E-02  0.1130116E+00
         25   -1    0    0    0    0  0.00000000000E+00  0.00000000000E+00  0.99999998245E-14  0.12500000000E+03  0.12500000000E+03 0.  0.
        -11    1    3    3    0    0  0.23935549741E+02 -0.14241360495E+02 -0.10642868770E+02  0.29816061880E+02  0.51100000000E-03 0. -1.
         23    2    1    0    0    0  0.16080844886E+01  0.15129007928E+02  0.34012102701E+02  0.87740156377E+02  0.79435754508E+02 0.  0.
         11    1    3    3    0    0 -0.22327465252E+02  0.29370368423E+02  0.44654971471E+02  0.57924094497E+02  0.51100000000E-03 0.  1.
         22    1    1    0    0    0 -0.16080844886E+01 -0.15129007928E+02 -0.34012102701E+02  0.37259843623E+02  0.00000000000E+00 0.  1.
</event>
<event>
 5    1  0.8962782E-005  0.9118800E+02  0.7818608E-02  0.1130116E+00
         25   -1    0    0    0    0  0.00000000000E+00  0.00000000000E+00  0.99999998245E-14  0.12500000000E+03  0.12500000000E+03 0.  0.
        -11    1    3    3    0    0 -0.65341753032E+01  0.58408400609E+02 -0.16729100253E+02  0.61107278651E+02  0.51100000000E-03 0.  1.
         23    2    1    0    0    0  0.14135237278E+01  0.28617152266E+02  0.33212735993E+00  0.96346034102E+02  0.91986458381E+02 0.  0.
         11    1    3    3    0    0  0.79476990310E+01 -0.29791248344E+02  0.17061227613E+02  0.35238755450E+02  0.51100000000E-03 0. -1.
         22    1    1    0    0    0 -0.14135237278E+01 -0.28617152266E+02 -0.33212735993E+00  0.28653965898E+02  0.00000000000E+00 0.  1.
</event>
<event>
 5    1  0.8962782E-005  0.9118800E+02  0.7818608E-02  0.1130116E+00
         25   -1    0    0    0    0  0.00000000000E+00  0.00000000000E+00  0.99999998245E-14  0.12500000000E+03  0.12500000000E+03 0.  0.
        -11    1    3    3    0    0 -0.33652370312E+02 -0.14652476597E+02  0.79613043602E+01  0.37557415585E+02  0.51100000000E-03 0. -1.
         23    2    1    0    0    0  0.21224159043E+02 -0.14118079355E+02  0.18582477348E+02  0.93454896479E+02  0.87970018300E+02 0.  0.
         11    1    3    3    0    0  0.54876529354E+02  0.53439724146E+00  0.10621172988E+02  0.55897480894E+02  0.51100000000E-03 0.  1.
         22    1    1    0    0    0 -0.21224159043E+02  0.14118079355E+02 -0.18582477348E+02  0.31545103521E+02  0.00000000000E+00 0.  1.
</event>
<event>
 5    1  0.8962782E-005  0.9118800E+02  0.7818608E-02  0.1130116E+00
         25   -1    0    0    0    0  0.00000000000E+00  0.00000000000E+00  0.99999998245E-14  0.12500000000E+03  0.12500000000E+03 0.  0.
        -11    1    3    3    0    0 -0.54281315739E+02  0.21330567912E+01 -0.98239761793E+01  0.55204362852E+02  0.51100000000E-03 0. -1.
         23    2    1    0    0    0 -0.20206110063E+02 -0.16866976966E+02  0.71108365808E+01  0.97735631445E+02  0.93855782247E+02 0.  0.
         11    1    3    3    0    0  0.34075205676E+02 -0.19000033757E+02  0.16934812760E+02  0.42531268593E+02  0.51100000000E-03 0.  1.
         22    1    1    0    0    0  0.20206110063E+02  0.16866976966E+02 -0.71108365808E+01  0.27264368555E+02  0.00000000000E+00 0.  1.
</event>
<event>
 5    1  0.8962782E-005  0.9118800E+02  0.7818608E-02  0.1130116E+00
         25   -1    0    0    0    0  0.00000000000E+00  0.00000000000E+00  0.99999998245E-14  0.12500000000E+03  0.12500000000E+03 0.  0.
        -11    1    3    3    0    0  0.23534692923E+02  0.33439177362E+02 -0.45980970685E+02  0.61532999431E+02  0.51100000000E-03 0.  1.
         23    2    1    0    0    0  0.14210923809E+02  0.98932436183E+01 -0.25861116840E+02  0.93877275360E+02  0.88568159290E+02 0.  0.
         11    1    3    3    0    0 -0.93237691144E+01 -0.23545933743E+02  0.20119853845E+02  0.32344275929E+02  0.51100000000E-03 0. -1.
         22    1    1    0    0    0 -0.14210923809E+02 -0.98932436183E+01  0.25861116840E+02  0.31122724640E+02  0.00000000000E+00 0.  1.
</event>
<event>
 5    1  0.8962782E-005  0.9118800E+02  0.7818608E-02  0.1130116E+00
         25   -1    0    0    0    0  0.00000000000E+00  0.00000000000E+00  0.99999998245E-14  0.12500000000E+03  0.12500000000E+03 0.  0.
        -11    1    3    3    0    0  0.28829004089E+02  0.38083380732E+02  0.30652420742E+02  0.56754085864E+02  0.51100000000E-03 0. -1.
         23    2    1    0    0    0  0.21565987279E+02  0.20484703977E+02 -0.26746471780E+01  0.95135830133E+02  0.90326947990E+02 0.  0.
         11    1    3    3    0    0 -0.72630168102E+01 -0.17598676754E+02 -0.33327067920E+02  0.38381744268E+02  0.51100000000E-03 0.  1.
         22    1    1    0    0    0 -0.21565987279E+02 -0.20484703977E+02  0.26746471780E+01  0.29864169867E+02  0.00000000000E+00 0. -1.
</event>
<event>
 5    1  0.8962782E-005  0.9118800E+02  0.7818608E-02  0.1130116E+00
         25   -1    0    0    0    0  0.00000000000E+00  0.00000000000E+00  0.99999998245E-14  0.12500000000E+03  0.12500000000E+03 0.  0.
        -11    1    3    3    0    0 -0.69888821545E+01  0.38751328364E+02  0.25946315175E+02  0.47156348408E+02  0.51100000000E-03 0. -1.
         23    2    1    0    0    0 -0.29619245548E+02  0.36239976228E+01  0.25381391605E+01  0.95052125017E+02  0.90211037319E+02 0.  0.
         11    1    3    3    0    0 -0.22630363394E+02 -0.35127330741E+02 -0.23408176015E+02  0.47895776609E+02  0.51100000000E-03 0.  1.
         22    1    1    0    0    0  0.29619245548E+02 -0.36239976228E+01 -0.25381391605E+01  0.29947874983E+02  0.00000000000E+00 0.  1.
</event>
<event>
 5    1  0.8962782E-005  0.9118800E+02  0.7818608E-02  0.1130116E+00
         25   -1    0    0    0    0  0.00000000000E+00  0.00000000000E+00  0.99999998245E-14  0.12500000000E+03  0.12500000000E+03 0.  0.
        -11    1    3    3    0    0 -0.21521763157E+02  0.38861930859E+02 -0.16046679175E+02  0.47232741529E+02  0.51100000000E-03 0.  1.
         23    2    1    0    0    0 -0.28897843428E+02 -0.64460241420E+01 -0.16327564565E+01  0.95346965153E+02  0.90618658609E+02 0.  0.
         11    1    3    3    0    0 -0.73760802702E+01 -0.45307955001E+02  0.14413922718E+02  0.48114223624E+02  0.51100000000E-03 0. -1.
         22    1    1    0    0    0  0.28897843428E+02  0.64460241420E+01  0.16327564565E+01  0.29653034847E+02  0.00000000000E+00 0. -1.
</event>
<event>
 5    1  0.8962782E-005  0.9118800E+02  0.7818608E-02  0.1130116E+00
         25   -1    0    0    0    0  0.00000000000E+00  0.00000000000E+00  0.99999998245E-14  0.12500000000E+03  0.12500000000E+03 0.  0.
        -11    1    3    3    0    0 -0.40124797148E+00  0.26812350931E+02  0.17855658558E+02  0.32216264606E+02  0.51100000000E-03 0. -1.
         23    2    1    0    0    0  0.27568696066E+02 -0.15475979516E+02 -0.12148972339E+02  0.91130596792E+02  0.84602891192E+02 0.  0.
         11    1    3    3    0    0  0.27969944038E+02 -0.42288330446E+02 -0.30004630897E+02  0.58914332186E+02  0.51100000000E-03 0.  1.
         22    1    1    0    0    0 -0.27568696066E+02  0.15475979516E+02  0.12148972339E+02  0.33869403208E+02  0.00000000000E+00 0.  1.
</event>
<event>
 5    1  0.8962782E-005  0.9118800E+02  0.7818608E-02  0.1130116E+00
         25   -1    0    0    0    0  0.00000000000E+00  0.00000000000E+00  0.99999998245E-14  0.12500000000E+03  0.12500000000E+03 0.  0.
        -11    1    3    3    0    0 -0.15825761234E+02 -0.48378743200E+02 -0.19294149368E+02  0.54435482109E+02  0.51100000000E-03 0. -1.
         23    2    1    0    0    0 -0.21279982985E+02 -0.72634786994E+01 -0.18440911434E+02  0.95919714355E+02  0.91405298473E+02 0.  0.
         11    1    3    3    0    0 -0.54542217507E+01  0.41115264501E+02  0.85323793431E+00  0.41484232247E+02  0.51100000000E-03 0.  1.
         22    1    1    0    0    0  0.21279982985E+02  0.72634786994E+01  0.18440911434E+02  0.29080285645E+02  0.00000000000E+00 0. -1.
</event>
<event>
 5    1  0.8962782E-005  0.9118800E+02  0.7818608E-02  0.1130116E+00
         25   -1    0    0    0    0  0.00000000000E+00  0.00000000000E+00  0.99999998245E-14  0.12500000000E+03  0.12500000000E+03 0.  0.
        -11    1    3    3    0    0  0.20880395605E+02 -0.26253671676E+02  0.23580081149E+02  0.41003248949E+02  0.51100000000E-03 0.  1.
         23    2    1    0    0    0 -0.17058734886E+02  0.10348526138E+02  0.24086684770E+02  0.93722838806E+02  0.88349927570E+02 0.  0.
         11    1    3    3    0    0 -0.37939130490E+02  0.36602197815E+02  0.50660362089E+00  0.52719589857E+02  0.51100000000E-03 0. -1.
         22    1    1    0    0    0  0.17058734886E+02 -0.10348526138E+02 -0.24086684770E+02  0.31277161194E+02  0.00000000000E+00 0. -1.
</event>
<event>
 5    1  0.8962782E-005  0.9118800E+02  0.7818608E-02  0.1130116E+00
         25   -1    0    0    0    0  0.00000000000E+00  0.00000000000E+00  0.99999998245E-14  0.12500000000E+03  0.12500000000E+03 0.  0.
        -11    1    3    3    0    0  0.40725917739E+02 -0.50192942786E+01 -0.10960765711E+02  0.42472721551E+02  0.51100000000E-03 0. -1.
         23    2    1    0    0    0  0.75910983745E+01  0.75542902505E+01  0.27928738824E+02  0.95088354642E+02  0.90261224568E+02 0.  0.
         11    1    3    3    0    0 -0.33134819365E+02  0.12573584529E+02  0.38889504535E+02  0.52615633090E+02  0.51100000000E-03 0.  1.
         22    1    1    0    0    0 -0.75910983745E+01 -0.75542902505E+01 -0.27928738824E+02  0.29911645358E+02  0.00000000000E+00 0.  1.
</event>
<event>
 5    1  0.8962782E-005  0.9118800E+02  0.7818608E-02  0.1130116E+00
         25   -1    0    0    0    0  0.00000000000E+00  0.00000000000E+00  0.99999998245E-14  0.12500000000E+03  0.12500000000E+03 0.  0.
        -11    1    3    3    0    0  0.30757784495E+02  0.15030137113E+02  0.12104885057E+01  0.34255096137E+02  0.51100000000E-03 0.  1.
         23    2    1    0    0    0 -0.28006965555E+02  0.87943255952E-01  0.94379595001E+01  0.95445424497E+02  0.90754372480E+02 0.  0.
         11    1    3    3    0    0 -0.58764750050E+02 -0.14942193857E+02  0.82274709944E+01  0.61190328361E+02  0.51100000000E-03 0. -1.
         22    1    1    0    0    0  0.28006965555E+02 -0.87943255952E-01 -0.94379595001E+01  0.29554575503E+02  0.00000000000E+00 0. -1.
</event>
<event>
 5    1  0.8962782E-005  0.9118800E+02  0.7818608E-02  0.1130116E+00
         25   -1    0    0    0    0  0.00000000000E+00  0.00000000000E+00  0.99999998245E-14  0.12500000000E+03  0.12500000000E+03 0.  0.
        -11    1    3    3    0    0 -0.57575126552E+01 -0.40206372429E+02  0.34671096148E+02  0.53402118350E+02  0.51100000000E-03 0. -1.
         23    2    1    0    0    0 -0.50077353808E+01 -0.27449513603E+02 -0.63639575891E+01  0.96380895072E+02  0.92033818610E+02 0.  0.
         11    1    3    3    0    0  0.74977727447E+00  0.12756858826E+02 -0.41035053737E+02  0.42978776722E+02  0.51100000000E-03 0.  1.
         22    1    1    0    0    0  0.50077353808E+01  0.27449513603E+02  0.63639575891E+01  0.28619104928E+02  0.00000000000E+00 0. -1.
</event>
<event>
 5    1  0.8962782E-005  0.9118800E+02  0.7818608E-02  0.1130116E+00
         25   -1    0    0    0    0  0.00000000000E+00  0.00000000000E+00  0.99999998245E-14  0.12500000000E+03  0.12500000000E+03 0.  0.
        -11    1    3    3    0    0 -0.27260338328E+02 -0.22905931857E+02  0.41767933057E+01  0.35850430438E+02  0.51100000000E-03 0.  1.
         23    2    1    0    0    0  0.17126510288E+02  0.10420651285E+02  0.23026503552E+02  0.94469241843E+02  0.89399722934E+02 0.  0.
         11    1    3    3    0    0  0.44386848616E+02  0.33326583142E+02  0.18849710246E+02  0.58618811405E+02  0.51100000000E-03 0. -1.
         22    1    1    0    0    0 -0.17126510288E+02 -0.10420651285E+02 -0.23026503552E+02  0.30530758157E+02  0.00000000000E+00 0. -1.
</event>
<event>
 5    1  0.8962782E-005  0.9118800E+02  0.7818608E-02  0.1130116E+00
         25   -1    0    0    0    0  0.00000000000E+00  0.00000000000E+00  0.99999998245E-14  0.12500000000E+03  0.12500000000E+03 0.  0.
        -11    1    3    3    0    0  0.21304596831E+02  0.49911760266E+02 -0.25483343757E+02  0.59953902861E+02  0.51100000000E-03 0. -1.
         23    2    1    0    0    0  0.16714981500E+02  0.15021645264E+02 -0.18637217996E+02  0.95804344028E+02  0.91247389042E+02 0.  0.
         11    1    3    3    0    0 -0.45896153305E+01 -0.34890115002E+02  0.68461257604E+01  0.35850441167E+02  0.51100000000E-03 0.  1.
         22    1    1    0    0    0 -0.16714981500E+02 -0.15021645264E+02  0.18637217996E+02  0.29195655972E+02  0.00000000000E+00 0. -1.
</event>
<event>
 5    1  0.8962782E-005  0.9118800E+02  0.7818608E-02  0.1130116E+00
         25   -1    0    0    0    0  0.00000000000E+00  0.00000000000E+00  0.99999998245E-14  0.12500000000E+03  0.12500000000E+03 0.  0.
        -11    1    3    3    0    0 -0.69123980445E+01  0.40233691129E+02 -0.81122479681E+01  0.41621385320E+02  0.51100000000E-03 0. -1.
         23    2    1    0    0    0 -0.17290786085E+02 -0.15907924209E+01  0.24009964229E+02  0.95369267875E+02  0.90649417918E+02 0.  0.
         11    1    3    3    0    0 -0.10378388041E+02 -0.41824483550E+02  0.32122212197E+02  0.53747882556E+02  0.51100000000E-03 0.  1.
         22    1    1    0    0    0  0.17290786085E+02  0.15907924209E+01 -0.24009964229E+02  0.29630732125E+02  0.00000000000E+00 0.  1.
</event>
<event>
 5    1  0.8962782E-005  0.9118800E+02  0.7818608E-02  0.1130116E+00
         25   -1    0    0    0    0  0.00000000000E+00  0.00000000000E+00  0.99999998245E-14  0.12500000000E+03  0.12500000000E+03 0.  0.
        -11    1    3    3    0    0  0.24098674088E+02  0.18708014875E+02 -0.13377358090E+02  0.33312004189E+02  0.51100000000E-03 0.  1.
         23    2    1    0    0    0 -0.26561815202E+02  0.50862110182E+01  0.16139603479E+02  0.93505772437E+02  0.88042280236E+02 0.  0.
         11    1    3    3    0    0 -0.50660489289E+02 -0.13621803857E+02  0.29516961569E+02  0.60193768248E+02  0.51100000000E-03 0. -1.
         22    1    1    0    0    0  0.26561815202E+02 -0.50862110182E+01 -0.16139603479E+02  0.31494227563E+02  0.00000000000E+00 0. -1.
</event>
<event>
 5    1  0.8962782E-005  0.9118800E+02  0.7818608E-02  0.1130116E+00
         25   -1    0    0    0    0  0.00000000000E+00  0.00000000000E+00  0.99999998245E-14  0.12500000000E+03  0.12500000000E+03 0.  0.
        -11    1    3    3    0    0  0.38948325865E+02  0.20450763846E+02  0.10765781926E+02  0.45289158640E+02  0.51100000000E-03 0.  1.
         23    2    1    0    0    0  0.11805896788E+02 -0.22141996560E+02  0.14648958732E+02  0.95944205353E+02  0.91438784650E+02 0.  0.
         11    1    3    3    0    0 -0.27142429077E+02 -0.42592760406E+02  0.38831768057E+01  0.50655046713E+02  0.51100000000E-03 0. -1.
         22    1    1    0    0    0 -0.11805896788E+02  0.22141996560E+02 -0.14648958732E+02  0.29055794647E+02  0.00000000000E+00 0. -1.
</event>
<event>
 5    1  0.8962782E-005  0.9118800E+02  0.7818608E-02  0.1130116E+00
         25   -1    0    0    0    0  0.00000000000E+00  0.00000000000E+00  0.99999998245E-14  0.12500000000E+03  0.12500000000E+03 0.  0.
        -11    1    3    3    0    0 -0.27438768160E+02 -0.10785744494E+02  0.17761873151E+02  0.34419506396E+02  0.51100000000E-03 0. -1.
         23    2    1    0    0    0  0.28140076336E+02  0.33975231105E+01 -0.51596038090E+01  0.96189783566E+02  0.91773884584E+02 0.  0.
         11    1    3    3    0    0  0.55578844496E+02  0.14183267604E+02 -0.22921476960E+02  0.61770277171E+02  0.51100000000E-03 0.  1.
         22    1    1    0    0    0 -0.28140076336E+02 -0.33975231105E+01  0.51596038090E+01  0.28810216434E+02  0.00000000000E+00 0.  1.
</event>
<event>
 5    1  0.8962782E-005  0.9118800E+02  0.7818608E-02  0.1130116E+00
         25   -1    0    0    0    0  0.00000000000E+00  0.00000000000E+00  0.99999998245E-14  0.12500000000E+03  0.12500000000E+03 0.  0.
        -11    1    3    3    0    0  0.25050670499E+02 -0.52797432406E+01  0.23037171803E+02  0.34440137429E+02  0.51100000000E-03 0. -1.
         23    2    1    0    0    0 -0.30099525859E+02  0.34749222993E+01  0.39154603625E+00  0.94698022338E+02  0.89719036912E+02 0.  0.
         11    1    3    3    0    0 -0.55150196359E+02  0.87546655399E+01 -0.22645625767E+02  0.60257884909E+02  0.51100000000E-03 0.  1.
         22    1    1    0    0    0  0.30099525859E+02 -0.34749222993E+01 -0.39154603625E+00  0.30301977662E+02  0.00000000000E+00 0.  1.
</event>
<event>
 5    1  0.8962782E-005  0.9118800E+02  0.7818608E-02  0.1130116E+00
         25   -1    0    0    0    0  0.00000000000E+00  0.00000000000E+00  0.99999998245E-14  0.12500000000E+03  0.12500000000E+03 0.  0.
        -11    1    3    3    0    0  0.59211887191E+02 -0.28508006614E+01 -0.47949345833E+01  0.59474078782E+02  0.51100000000E-03 0.  1.
         23    2    1    0    0    0  0.24559496915E+02 -0.12545901336E+02 -0.96473571940E+01  0.95782881219E+02  0.91217982354E+02 0.  0.
         11    1    3    3    0    0 -0.34652390276E+02 -0.96951006744E+01 -0.48524226108E+01  0.36308802436E+02  0.51100000000E-03 0. -1.
         22    1    1    0    0    0 -0.24559496915E+02  0.12545901336E+02  0.96473571940E+01  0.29217118781E+02  0.00000000000E+00 0.  1.
</event>
<event>
 5    1  0.8962782E-005  0.9118800E+02  0.7818608E-02  0.1130116E+00
         25   -1    0    0    0    0  0.00000000000E+00  0.00000000000E+00  0.99999998245E-14  0.12500000000E+03  0.12500000000E+03 0.  0.
        -11    1    3    3    0    0  0.38040650046E+01 -0.14049900080E+02  0.32838364666E+02  0.35919754969E+02  0.51100000000E-03 0. -1.
         23    2    1    0    0    0 -0.90741400824E+01  0.27587077951E+02 -0.71754547943E+01  0.95085554666E+02  0.90257346884E+02 0.  0.
         11    1    3    3    0    0 -0.12878205087E+02  0.41636978031E+02 -0.40013819460E+02  0.59165799698E+02  0.51100000000E-03 0.  1.
         22    1    1    0    0    0  0.90741400824E+01 -0.27587077951E+02  0.71754547943E+01  0.29914445334E+02  0.00000000000E+00 0.  1.
</event>
<event>
 5    1  0.8962782E-005  0.9118800E+02  0.7818608E-02  0.1130116E+00
         25   -1    0    0    0    0  0.00000000000E+00  0.00000000000E+00  0.99999998245E-14  0.12500000000E+03  0.12500000000E+03 0.  0.
        -11    1    3    3    0    0  0.27342720413E+01  0.54566653088E+01 -0.37201090541E+02  0.37698442641E+02  0.51100000000E-03 0. -1.
         23    2    1    0    0    0  0.11265212323E+02 -0.25336993168E+02  0.10699564786E+02  0.95278813650E+02  0.90524601145E+02 0.  0.
         11    1    3    3    0    0  0.85309402821E+01 -0.30793658477E+02  0.47900655327E+02  0.57580371008E+02  0.51100000000E-03 0.  1.
         22    1    1    0    0    0 -0.11265212323E+02  0.25336993168E+02 -0.10699564786E+02  0.29721186350E+02  0.00000000000E+00 0.  1.
</event>
<event>
 5    1  0.8962782E-005  0.9118800E+02  0.7818608E-02  0.1130116E+00
         25   -1    0    0    0    0  0.00000000000E+00  0.00000000000E+00  0.99999998245E-14  0.12500000000E+03  0.12500000000E+03 0.  0.
        -11    1    3    3    0    0 -0.24229867056E+02  0.19780143595E+02  0.12564002220E+02  0.33707487154E+02  0.51100000000E-03 0. -1.
         23    2    1    0    0    0  0.18598149086E+02 -0.23151907977E+02  0.22703345482E+01  0.95216507738E+02  0.90438525720E+02 0.  0.
         11    1    3    3    0    0  0.42828016142E+02 -0.42932051572E+02 -0.10293667671E+02  0.61509020584E+02  0.51100000000E-03 0.  1.
         22    1    1    0    0    0 -0.18598149086E+02  0.23151907977E+02 -0.22703345482E+01  0.29783492262E+02  0.00000000000E+00 0.  1.
</event>
<event>
 5    1  0.8962782E-005  0.9118800E+02  0.7818608E-02  0.1130116E+00
         25   -1    0    0    0    0  0.00000000000E+00  0.00000000000E+00  0.99999998245E-14  0.12500000000E+03  0.12500000000E+03 0.  0.
        -11    1    3    3    0    0  0.16808235996E+01 -0.40083484090E+02 -0.33308364207E+02  0.52143628481E+02  0.51100000000E-03 0.  1.
         23    2    1    0    0    0 -0.20732623549E+02 -0.20810402159E+02 -0.14716283037E+01  0.95587754130E+02  0.90950198090E+02 0.  0.
         11    1    3    3    0    0 -0.22413447149E+02  0.19273081931E+02  0.31836735903E+02  0.43444125649E+02  0.51100000000E-03 0. -1.
         22    1    1    0    0    0  0.20732623549E+02  0.20810402159E+02  0.14716283037E+01  0.29412245870E+02  0.00000000000E+00 0.  1.
</event>
<event>
 5    1  0.8962782E-005  0.9118800E+02  0.7818608E-02  0.1130116E+00
         25   -1    0    0    0    0  0.00000000000E+00  0.00000000000E+00  0.99999998245E-14  0.12500000000E+03  0.12500000000E+03 0.  0.
        -11    1    3    3    0    0 -0.38627954725E+02  0.35725313447E+02  0.10689201152E+02  0.53690557165E+02  0.51100000000E-03 0.  1.
         23    2    1    0    0    0  0.38328095054E+01  0.69267098911E+01  0.17830719406E+02  0.10549091768E+03  0.10367125647E+03 0.  0.
         11    1    3    3    0    0  0.42460764231E+02 -0.28798603556E+02  0.71415182533E+01  0.51800360511E+02  0.51100000000E-03 0. -1.
         22    1    1    0    0    0 -0.38328095054E+01 -0.69267098911E+01 -0.17830719406E+02  0.19509082325E+02  0.00000000000E+00 0.  1.
</event>
<event>
 5    1  0.8962782E-005  0.9118800E+02  0.7818608E-02  0.1130116E+00
         25   -1    0    0    0    0  0.00000000000E+00  0.00000000000E+00  0.99999998245E-14  0.12500000000E+03  0.12500000000E+03 0.  0.
        -11    1    3    3    0    0  0.39204601257E+02 -0.37508417896E+02 -0.51648145005E+01  0.54502820861E+02  0.51100000000E-03 0.  1.
         23    2    1    0    0    0  0.26492305496E+01 -0.30410719987E+02 -0.11697615315E+02  0.92309565364E+02  0.86327234063E+02 0.  0.
         11    1    3    3    0    0 -0.36555370707E+02  0.70976979089E+01 -0.65328008147E+01  0.37806744502E+02  0.51100000000E-03 0. -1.
         22    1    1    0    0    0 -0.26492305496E+01  0.30410719987E+02  0.11697615315E+02  0.32690434636E+02  0.00000000000E+00 0.  1.
</event>
<event>
 5    1  0.8962782E-005  0.9118800E+02  0.7818608E-02  0.1130116E+00
         25   -1    0    0    0    0  0.00000000000E+00  0.00000000000E+00  0.99999998245E-14  0.12500000000E+03  0.12500000000E+03 0.  0.
        -11    1    3    3    0    0 -0.48210301049E+01 -0.57387628764E+02 -0.11721795269E+02  0.58770594271E+02  0.51100000000E-03 0.  1.
         23    2    1    0    0    0 -0.12120124274E+02 -0.24979490921E+02  0.62505166728E+01  0.96540531667E+02  0.92250381662E+02 0.  0.
         11    1    3    3    0    0 -0.72990941696E+01  0.32408137843E+02  0.17972311942E+02  0.37769937396E+02  0.51100000000E-03 0. -1.
         22    1    1    0    0    0  0.12120124274E+02  0.24979490921E+02 -0.62505166728E+01  0.28459468333E+02  0.00000000000E+00 0.  1.
</event>
<event>
 5    1  0.8962782E-005  0.9118800E+02  0.7818608E-02  0.1130116E+00
         25   -1    0    0    0    0  0.00000000000E+00  0.00000000000E+00  0.99999998245E-14  0.12500000000E+03  0.12500000000E+03 0.  0.
        -11    1    3    3    0    0  0.36034733705E+02 -0.13331151825E+01  0.47945665499E+02  0.59992216743E+02  0.51100000000E-03 0. -1.
         23    2    1    0    0    0  0.63349114616E+01  0.43314118113E+01  0.27395222130E+02  0.96550212179E+02  0.92263497899E+02 0.  0.
         11    1    3    3    0    0 -0.29699822243E+02  0.56645269938E+01 -0.20550443369E+02  0.36557995436E+02  0.51100000000E-03 0.  1.
         22    1    1    0    0    0 -0.63349114616E+01 -0.43314118113E+01 -0.27395222130E+02  0.28449787821E+02  0.00000000000E+00 0. -1.
</event>
<event>
 5    1  0.8962782E-005  0.9118800E+02  0.7818608E-02  0.1130116E+00
         25   -1    0    0    0    0  0.00000000000E+00  0.00000000000E+00  0.99999998245E-14  0.12500000000E+03  0.12500000000E+03 0.  0.
        -11    1    3    3    0    0  0.79992572895E+01 -0.34787511856E+02 -0.10030145115E+02  0.37077795371E+02  0.51100000000E-03 0. -1.
         23    2    1    0    0    0 -0.17155405967E+02  0.19933096524E+02  0.24649443065E+01  0.98585756847E+02  0.94981257160E+02 0.  0.
         11    1    3    3    0    0 -0.25154663256E+02  0.54720608380E+02  0.12495089421E+02  0.61507961476E+02  0.51100000000E-03 0.  1.
         22    1    1    0    0    0  0.17155405967E+02 -0.19933096524E+02 -0.24649443065E+01  0.26414243153E+02  0.00000000000E+00 0.  1.
</event>
<event>
 5    1  0.8962782E-005  0.9118800E+02  0.7818608E-02  0.1130116E+00
         25   -1    0    0    0    0  0.00000000000E+00  0.00000000000E+00  0.99999998245E-14  0.12500000000E+03  0.12500000000E+03 0.  0.
        -11    1    3    3    0    0  0.19111246737E+01  0.19841960249E+02 -0.57367467605E+02  0.60732051865E+02  0.51100000000E-03 0. -1.
         23    2    1    0    0    0 -0.76737002694E+01  0.34295145436E+01 -0.28433950148E+02  0.95349759413E+02  0.90622512950E+02 0.  0.
         11    1    3    3    0    0 -0.95848249431E+01 -0.16412445706E+02  0.28933517457E+02  0.34617707549E+02  0.51100000000E-03 0.  1.
         22    1    1    0    0    0  0.76737002694E+01 -0.34295145436E+01  0.28433950148E+02  0.29650240587E+02  0.00000000000E+00 0. -1.
</event>
<event>
 5    1  0.8962782E-005  0.9118800E+02  0.7818608E-02  0.1130116E+00
         25   -1    0    0    0    0  0.00000000000E+00  0.00000000000E+00  0.99999998245E-14  0.12500000000E+03  0.12500000000E+03 0.  0.
        -11    1    3    3    0    0 -0.26194753852E+02  0.41165825634E+02  0.13240616134E+02  0.50557929599E+02  0.51100000000E-03 0. -1.
         23    2    1    0    0    0 -0.70572855931E+01  0.36085366582E+01  0.28524038606E+02  0.95395142373E+02  0.90685090247E+02 0.  0.
         11    1    3    3    0    0  0.19137468259E+02 -0.37557288976E+02  0.15283422471E+02  0.44837212773E+02  0.51100000000E-03 0.  1.
         22    1    1    0    0    0  0.70572855931E+01 -0.36085366582E+01 -0.28524038606E+02  0.29604857627E+02  0.00000000000E+00 0. -1.
</event>
<event>
 5    1  0.8962782E-005  0.9118800E+02  0.7818608E-02  0.1130116E+00
         25   -1    0    0    0    0  0.00000000000E+00  0.00000000000E+00  0.99999998245E-14  0.12500000000E+03  0.12500000000E+03 0.  0.
        -11    1    3    3    0    0 -0.20695277207E+02  0.26925689973E+02 -0.23720707966E+01  0.34042825960E+02  0.51100000000E-03 0. -1.
         23    2    1    0    0    0  0.63877585936E+01 -0.26813226041E+02  0.10361820443E+02  0.95553100784E+02  0.90902558797E+02 0.  0.
         11    1    3    3    0    0  0.27083035800E+02 -0.53738916014E+02  0.12733891239E+02  0.61510274824E+02  0.51100000000E-03 0.  1.
         22    1    1    0    0    0 -0.63877585936E+01  0.26813226041E+02 -0.10361820443E+02  0.29446899216E+02  0.00000000000E+00 0.  1.
</event>
<event>
 5    1  0.8962782E-005  0.9118800E+02  0.7818608E-02  0.1130116E+00
         25   -1    0    0    0    0  0.00000000000E+00  0.00000000000E+00  0.99999998245E-14  0.12500000000E+03  0.12500000000E+03 0.  0.
        -11    1    3    3    0    0 -0.24388913238E+02  0.90813432445E+01  0.30520057104E+02  0.40109397527E+02  0.51100000000E-03 0. -1.
         23    2    1    0    0    0  0.16157021280E+02  0.14829842957E+02 -0.12706398973E+02  0.99653873005E+02  0.96376699733E+02 0.  0.
         11    1    3    3    0    0  0.40545934517E+02  0.57484997129E+01 -0.43226456077E+02  0.59544475479E+02  0.51100000000E-03 0.  1.
         22    1    1    0    0    0 -0.16157021280E+02 -0.14829842957E+02  0.12706398973E+02  0.25346126995E+02  0.00000000000E+00 0.  1.
</event>
<event>
 5    1  0.8962782E-005  0.9118800E+02  0.7818608E-02  0.1130116E+00
         25   -1    0    0    0    0  0.00000000000E+00  0.00000000000E+00  0.99999998245E-14  0.12500000000E+03  0.12500000000E+03 0.  0.
        -11    1    3    3    0    0 -0.35763291628E+02  0.14944979425E+02  0.70261380066E+01  0.39392030332E+02  0.51100000000E-03 0.  1.
         23    2    1    0    0    0  0.11357605124E+02 -0.10143184261E+02  0.25006281798E+02  0.95722132754E+02  0.91134698049E+02 0.  0.
         11    1    3    3    0    0  0.47120896752E+02 -0.25088163687E+02  0.17980143792E+02  0.56330102422E+02  0.51100000000E-03 0. -1.
         22    1    1    0    0    0 -0.11357605124E+02  0.10143184261E+02 -0.25006281798E+02  0.29277867246E+02  0.00000000000E+00 0. -1.
</event>
<event>
 5    1  0.8962782E-005  0.9118800E+02  0.7818608E-02  0.1130116E+00
         25   -1    0    0    0    0  0.00000000000E+00  0.00000000000E+00  0.99999998245E-14  0.12500000000E+03  0.12500000000E+03 0.  0.
        -11    1    3    3    0    0 -0.32251557889E+02 -0.30793616617E+02 -0.18164041673E+02  0.48149166356E+02  0.51100000000E-03 0.  1.
         23    2    1    0    0    0 -0.55351716508E+01 -0.20006126867E+02  0.20138631834E+02  0.96078593922E+02  0.91622314315E+02 0.  0.
         11    1    3    3    0    0  0.26716386238E+02  0.10787489751E+02  0.38302673507E+02  0.47929427565E+02  0.51100000000E-03 0. -1.
         22    1    1    0    0    0  0.55351716508E+01  0.20006126867E+02 -0.20138631834E+02  0.28921406078E+02  0.00000000000E+00 0. -1.
</event>
<event>
 5    1  0.8962782E-005  0.9118800E+02  0.7818608E-02  0.1130116E+00
         25   -1    0    0    0    0  0.00000000000E+00  0.00000000000E+00  0.99999998245E-14  0.12500000000E+03  0.12500000000E+03 0.  0.
        -11    1    3    3    0    0  0.45997240863E+02  0.40145875054E+02 -0.40848050970E+01  0.61189239935E+02  0.51100000000E-03 0. -1.
         23    2    1    0    0    0  0.12894809490E+02  0.16738832035E+02  0.61313240309E+01  0.10299868767E+03  0.10062142872E+03 0.  0.
         11    1    3    3    0    0 -0.33102431373E+02 -0.23407043018E+02  0.10216129128E+02  0.41809447740E+02  0.51100000000E-03 0.  1.
         22    1    1    0    0    0 -0.12894809490E+02 -0.16738832035E+02 -0.61313240309E+01  0.22001312326E+02  0.00000000000E+00 0. -1.
</event>
<event>
 5    1  0.8962782E-005  0.9118800E+02  0.7818608E-02  0.1130116E+00
         25   -1    0    0    0    0  0.00000000000E+00  0.00000000000E+00  0.99999998245E-14  0.12500000000E+03  0.12500000000E+03 0.  0.
        -11    1    3    3    0    0 -0.29140310936E+02 -0.67310380434E+01  0.14808938789E+02  0.33373181792E+02  0.51100000000E-03 0.  1.
         23    2    1    0    0    0  0.19493829622E+02  0.14859572114E+02 -0.16817693498E+02  0.95273730618E+02  0.90517582019E+02 0.  0.
         11    1    3    3    0    0  0.48634140559E+02  0.21590610158E+02 -0.31626632287E+02  0.61900548826E+02  0.51100000000E-03 0. -1.
         22    1    1    0    0    0 -0.19493829622E+02 -0.14859572114E+02  0.16817693498E+02  0.29726269382E+02  0.00000000000E+00 0. -1.
</event>
<event>
 5    1  0.8962782E-005  0.9118800E+02  0.7818608E-02  0.1130116E+00
         25   -1    0    0    0    0  0.00000000000E+00  0.00000000000E+00  0.99999998245E-14  0.12500000000E+03  0.12500000000E+03 0.  0.
        -11    1    3    3    0    0  0.26948578279E+02  0.14788677589E+02 -0.26085377680E+02  0.40315974316E+02  0.51100000000E-03 0.  1.
         23    2    1    0    0    0 -0.66184807545E+01 -0.11536597188E+02  0.18625838306E+02  0.10211290288E+03  0.99514952238E+02 0.  0.
         11    1    3    3    0    0 -0.33567059033E+02 -0.26325274776E+02  0.44711215986E+02  0.61796928560E+02  0.51100000000E-03 0. -1.
         22    1    1    0    0    0  0.66184807545E+01  0.11536597188E+02 -0.18625838306E+02  0.22887097124E+02  0.00000000000E+00 0. -1.
</event>
<event>
 5    1  0.8962782E-005  0.9118800E+02  0.7818608E-02  0.1130116E+00
         25   -1    0    0    0    0  0.00000000000E+00  0.00000000000E+00  0.99999998245E-14  0.12500000000E+03  0.12500000000E+03 0.  0.
        -11    1    3    3    0    0  0.14639766392E+02 -0.40658742435E+02 -0.34033405195E+02  0.55006624745E+02  0.51100000000E-03 0. -1.
         23    2    1    0    0    0 -0.11722239113E+02 -0.79657444003E+01 -0.22239076910E+02  0.98628793818E+02  0.95037879051E+02 0.  0.
         11    1    3    3    0    0 -0.26362005505E+02  0.32692998034E+02  0.11794328285E+02  0.43622169073E+02  0.51100000000E-03 0.  1.
         22    1    1    0    0    0  0.11722239113E+02  0.79657444003E+01  0.22239076910E+02  0.26371206182E+02  0.00000000000E+00 0.  1.
</event>
<event>
 5    1  0.8962782E-005  0.9118800E+02  0.7818608E-02  0.1130116E+00
         25   -1    0    0    0    0  0.00000000000E+00  0.00000000000E+00  0.99999998245E-14  0.12500000000E+03  0.12500000000E+03 0.  0.
        -11    1    3    3    0    0  0.57509174041E+02 -0.18099459665E+01 -0.14775078439E+02  0.59404410160E+02  0.51100000000E-03 0.  1.
         23    2    1    0    0    0  0.38853454039E+02  0.11688264598E+02 -0.12506308969E+02  0.82542795852E+02  0.70786290784E+02 0.  0.
         11    1    3    3    0    0 -0.18655720002E+02  0.13498210564E+02  0.22687694707E+01  0.23138385692E+02  0.51100000000E-03 0. -1.
         22    1    1    0    0    0 -0.38853454039E+02 -0.11688264598E+02  0.12506308969E+02  0.42457204148E+02  0.00000000000E+00 0.  1.
</event>
<event>
 5    1  0.8962782E-005  0.9118800E+02  0.7818608E-02  0.1130116E+00
         25   -1    0    0    0    0  0.00000000000E+00  0.00000000000E+00  0.99999998245E-14  0.12500000000E+03  0.12500000000E+03 0.  0.
        -11    1    3    3    0    0  0.37067609218E+02  0.12065728479E+02  0.24369650619E+01  0.39058011416E+02  0.51100000000E-03 0.  1.
         23    2    1    0    0    0 -0.14722129809E+02  0.27879694743E+02  0.39235315909E+01  0.93228745930E+02  0.87648083165E+02 0.  0.
         11    1    3    3    0    0 -0.51789739026E+02  0.15813966263E+02  0.14865665289E+01  0.54170734513E+02  0.51100000000E-03 0. -1.
         22    1    1    0    0    0  0.14722129809E+02 -0.27879694743E+02 -0.39235315909E+01  0.31771254070E+02  0.00000000000E+00 0. -1.
</event>
<event>
 5    1  0.8962782E-005  0.9118800E+02  0.7818608E-02  0.1130116E+00
         25   -1    0    0    0    0  0.00000000000E+00  0.00000000000E+00  0.99999998245E-14  0.12500000000E+03  0.12500000000E+03 0.  0.
        -11    1    3    3    0    0 -0.30991783877E+02 -0.22783694610E+02  0.97544195580E+01  0.39682944814E+02  0.51100000000E-03 0.  1.
         23    2    1    0    0    0  0.23167915946E+02 -0.15128681987E+02 -0.61670808618E+01  0.96651062907E+02  0.92400030989E+02 0.  0.
         11    1    3    3    0    0  0.54159699823E+02  0.76550126227E+01 -0.15921500420E+02  0.56968118093E+02  0.51100000000E-03 0. -1.
         22    1    1    0    0    0 -0.23167915946E+02  0.15128681987E+02  0.61670808618E+01  0.28348937093E+02  0.00000000000E+00 0. -1.
</event>
<event>
 5    1  0.8962782E-005  0.9118800E+02  0.7818608E-02  0.1130116E+00
         25   -1    0    0    0    0  0.00000000000E+00  0.00000000000E+00  0.99999998245E-14  0.12500000000E+03  0.12500000000E+03 0.  0.
        -11    1    3    3    0    0 -0.50841714218E+01  0.54322875338E+01 -0.35292099409E+02  0.36067864199E+02  0.51100000000E-03 0.  1.
         23    2    1    0    0    0  0.14462294714E+02 -0.20165885472E+02  0.15157139098E+02  0.95921489535E+02  0.91407726061E+02 0.  0.
         11    1    3    3    0    0  0.19546466136E+02 -0.25598173005E+02  0.50449238507E+02  0.59853625336E+02  0.51100000000E-03 0. -1.
         22    1    1    0    0    0 -0.14462294714E+02  0.20165885472E+02 -0.15157139098E+02  0.29078510465E+02  0.00000000000E+00 0. -1.
</event>
<event>
 5    1  0.8962782E-005  0.9118800E+02  0.7818608E-02  0.1130116E+00
         25   -1    0    0    0    0  0.00000000000E+00  0.00000000000E+00  0.99999998245E-14  0.12500000000E+03  0.12500000000E+03 0.  0.
        -11    1    3    3    0    0 -0.41239665395E+02  0.23256454254E+02 -0.18777277363E+02  0.50932885367E+02  0.51100000000E-03 0. -1.
         23    2    1    0    0    0 -0.20626974071E+02  0.62442900287E+01  0.18360621755E+02  0.96687888660E+02  0.92449835939E+02 0.  0.
         11    1    3    3    0    0  0.20612691324E+02 -0.17012164226E+02  0.37137899118E+02  0.45755003294E+02  0.51100000000E-03 0.  1.
         22    1    1    0    0    0  0.20626974071E+02 -0.62442900287E+01 -0.18360621755E+02  0.28312111340E+02  0.00000000000E+00 0. -1.
</event>
<event>
 5    1  0.8962782E-005  0.9118800E+02  0.7818608E-02  0.1130116E+00
         25   -1    0    0    0    0  0.00000000000E+00  0.00000000000E+00  0.99999998245E-14  0.12500000000E+03  0.12500000000E+03 0.  0.
        -11    1    3    3    0    0 -0.20516087787E+02 -0.21420052545E+02 -0.62684934215E+01  0.30315384199E+02  0.51100000000E-03 0.  1.
         23    2    1    0    0    0  0.24252398628E+02  0.11840807261E+02  0.19451572396E+02  0.91732189365E+02  0.85487117984E+02 0.  0.
         11    1    3    3    0    0  0.44768486414E+02  0.33260859806E+02  0.25720065817E+02  0.61416805166E+02  0.51100000000E-03 0. -1.
         22    1    1    0    0    0 -0.24252398628E+02 -0.11840807261E+02 -0.19451572396E+02  0.33267810635E+02  0.00000000000E+00 0. -1.
</event>
<event>
 5    1  0.8962782E-005  0.9118800E+02  0.7818608E-02  0.1130116E+00
         25   -1    0    0    0    0  0.00000000000E+00  0.00000000000E+00  0.99999998245E-14  0.12500000000E+03  0.12500000000E+03 0.  0.
        -11    1    3    3    0    0 -0.25323830761E+02 -0.38009217261E+02  0.22666945430E+02  0.50988110542E+02  0.51100000000E-03 0.  1.
         23    2    1    0    0    0 -0.35709140678E+02 -0.57099181232E+01  0.79320062297E+01  0.87977539037E+02  0.79808425365E+02 0.  0.
         11    1    3    3    0    0 -0.10385309917E+02  0.32299299138E+02 -0.14734939201E+02  0.36989428495E+02  0.51100000000E-03 0. -1.
         22    1    1    0    0    0  0.35709140678E+02  0.57099181232E+01 -0.79320062297E+01  0.37022460963E+02  0.00000000000E+00 0.  1.
</event>
<event>
 5    1  0.8962782E-005  0.9118800E+02  0.7818608E-02  0.1130116E+00
         25   -1    0    0    0    0  0.00000000000E+00  0.00000000000E+00  0.99999998245E-14  0.12500000000E+03  0.12500000000E+03 0.  0.
        -11    1    3    3    0    0  0.22990977138E+02  0.11847672152E+02  0.98624977063E+01  0.27680701336E+02  0.51100000000E-03 0.  1.
         23    2    1    0    0    0 -0.33000613806E+02 -0.10748540115E+02 -0.51880798239E+01  0.89907439557E+02  0.82775962025E+02 0.  0.
         11    1    3    3    0    0 -0.55991590945E+02 -0.22596212267E+02 -0.15050577530E+02  0.62226738221E+02  0.51100000000E-03 0. -1.
         22    1    1    0    0    0  0.33000613806E+02  0.10748540115E+02  0.51880798239E+01  0.35092560443E+02  0.00000000000E+00 0. -1.
</event>
<event>
 5    1  0.8962782E-005  0.9118800E+02  0.7818608E-02  0.1130116E+00
         25   -1    0    0    0    0  0.00000000000E+00  0.00000000000E+00  0.99999998245E-14  0.12500000000E+03  0.12500000000E+03 0.  0.
        -11    1    3    3    0    0  0.13640475607E+02 -0.52268379974E+02  0.30270898307E+02  0.61922317499E+02  0.51100000000E-03 0.  1.
         23    2    1    0    0    0  0.26616532607E+01 -0.27099962938E+02  0.10252442102E+02  0.95903523265E+02  0.91383153898E+02 0.  0.
         11    1    3    3    0    0 -0.10978822346E+02  0.25168417036E+02 -0.20018456205E+02  0.33981205766E+02  0.51100000000E-03 0. -1.
         22    1    1    0    0    0 -0.26616532607E+01  0.27099962938E+02 -0.10252442102E+02  0.29096476735E+02  0.00000000000E+00 0.  1.
</event>
<event>
 5    1  0.8962782E-005  0.9118800E+02  0.7818608E-02  0.1130116E+00
         25   -1    0    0    0    0  0.00000000000E+00  0.00000000000E+00  0.99999998245E-14  0.12500000000E+03  0.12500000000E+03 0.  0.
        -11    1    3    3    0    0  0.33479324777E+02  0.15639747996E+02  0.73569184755E+01  0.37677462157E+02  0.51100000000E-03 0. -1.
         23    2    1    0    0    0 -0.40975387870E+01 -0.28613805407E+02  0.38585800804E+01  0.95837895751E+02  0.91293340052E+02 0.  0.
         11    1    3    3    0    0 -0.37576863564E+02 -0.44253553403E+02 -0.34983383951E+01  0.58160433594E+02  0.51100000000E-03 0.  1.
         22    1    1    0    0    0  0.40975387870E+01  0.28613805407E+02 -0.38585800804E+01  0.29162104249E+02  0.00000000000E+00 0.  1.
</event>
<event>
 5    1  0.8962782E-005  0.9118800E+02  0.7818608E-02  0.1130116E+00
         25   -1    0    0    0    0  0.00000000000E+00  0.00000000000E+00  0.99999998245E-14  0.12500000000E+03  0.12500000000E+03 0.  0.
        -11    1    3    3    0    0 -0.53745968538E+02  0.21162926792E+02  0.11138745495E+02  0.58826611801E+02  0.51100000000E-03 0.  1.
         23    2    1    0    0    0 -0.27112045811E+02 -0.44315726120E+01  0.99424098779E+01  0.95784364151E+02  0.91220014459E+02 0.  0.
         11    1    3    3    0    0  0.26633922728E+02 -0.25594499404E+02 -0.11963356172E+01  0.36957752350E+02  0.51100000000E-03 0. -1.
         22    1    1    0    0    0  0.27112045811E+02  0.44315726120E+01 -0.99424098779E+01  0.29215635849E+02  0.00000000000E+00 0.  1.
</event>
<event>
 5    1  0.8962782E-005  0.9118800E+02  0.7818608E-02  0.1130116E+00
         25   -1    0    0    0    0  0.00000000000E+00  0.00000000000E+00  0.99999998245E-14  0.12500000000E+03  0.12500000000E+03 0.  0.
        -11    1    3    3    0    0  0.10506724804E+02 -0.81319823505E+01 -0.28954185238E+02  0.31856949731E+02  0.51100000000E-03 0. -1.
         23    2    1    0    0    0 -0.31783183550E+02  0.20055463661E+02 -0.98813085303E+01  0.86140861596E+02  0.76877925304E+02 0.  0.
         11    1    3    3    0    0 -0.42289908354E+02  0.28187446012E+02  0.19072876708E+02  0.54283911866E+02  0.51100000000E-03 0.  1.
         22    1    1    0    0    0  0.31783183550E+02 -0.20055463661E+02  0.98813085303E+01  0.38859138404E+02  0.00000000000E+00 0.  1.
</event>
<event>
 5    1  0.8962782E-005  0.9118800E+02  0.7818608E-02  0.1130116E+00
         25   -1    0    0    0    0  0.00000000000E+00  0.00000000000E+00  0.99999998245E-14  0.12500000000E+03  0.12500000000E+03 0.  0.
        -11    1    3    3    0    0 -0.31429801512E+01  0.44843497902E+02  0.27188900626E+02  0.52536215564E+02  0.51100000000E-03 0.  1.
         23    2    1    0    0    0  0.12408050220E+01  0.26087748061E+02 -0.12041898239E+02  0.96240349286E+02  0.91842731457E+02 0.  0.
         11    1    3    3    0    0  0.43837851732E+01 -0.18755749841E+02 -0.39230798865E+02  0.43704133721E+02  0.51100000000E-03 0. -1.
         22    1    1    0    0    0 -0.12408050220E+01 -0.26087748061E+02  0.12041898239E+02  0.28759650714E+02  0.00000000000E+00 0. -1.
</event>
<event>
 5    1  0.8962782E-005  0.9118800E+02  0.7818608E-02  0.1130116E+00
         25   -1    0    0    0    0  0.00000000000E+00  0.00000000000E+00  0.99999998245E-14  0.12500000000E+03  0.12500000000E+03 0.  0.
        -11    1    3    3    0    0 -0.35756839561E+02  0.35763123250E+02  0.31313321339E+02  0.59481733781E+02  0.51100000000E-03 0. -1.
         23    2    1    0    0    0 -0.25783259753E+02  0.66220417109E+01  0.12323919199E+02  0.95665602028E+02  0.91057127712E+02 0.  0.
         11    1    3    3    0    0  0.99735798079E+01 -0.29141081539E+02 -0.18989402140E+02  0.36183868248E+02  0.51100000000E-03 0.  1.
         22    1    1    0    0    0  0.25783259753E+02 -0.66220417109E+01 -0.12323919199E+02  0.29334397972E+02  0.00000000000E+00 0. -1.
</event>
<event>
 5    1  0.8962782E-005  0.9118800E+02  0.7818608E-02  0.1130116E+00
         25   -1    0    0    0    0  0.00000000000E+00  0.00000000000E+00  0.99999998245E-14  0.12500000000E+03  0.12500000000E+03 0.  0.
        -11    1    3    3    0    0 -0.12741707574E+02  0.50099909625E+02  0.32313683069E+02  0.60963318234E+02  0.51100000000E-03 0.  1.
         23    2    1    0    0    0 -0.93765953990E+01  0.26156626638E+02  0.62416494338E+01  0.96521098231E+02  0.92224045442E+02 0.  0.
         11    1    3    3    0    0  0.33651121751E+01 -0.23943282988E+02 -0.26072033635E+02  0.35557779997E+02  0.51100000000E-03 0. -1.
         22    1    1    0    0    0  0.93765953990E+01 -0.26156626638E+02 -0.62416494338E+01  0.28478901769E+02  0.00000000000E+00 0.  1.
</event>
<event>
 5    1  0.8962782E-005  0.9118800E+02  0.7818608E-02  0.1130116E+00
         25   -1    0    0    0    0  0.00000000000E+00  0.00000000000E+00  0.99999998245E-14  0.12500000000E+03  0.12500000000E+03 0.  0.
        -11    1    3    3    0    0 -0.28206521677E+02  0.24130965527E+02 -0.39600695806E+02  0.54278232017E+02  0.51100000000E-03 0. -1.
         23    2    1    0    0    0 -0.19629441881E+02 -0.63876657945E+01 -0.32068896072E+02  0.86861681236E+02  0.78041144975E+02 0.  0.
         11    1    3    3    0    0  0.85770797958E+01 -0.30518631321E+02  0.75317997337E+01  0.32583449219E+02  0.51100000000E-03 0.  1.
         22    1    1    0    0    0  0.19629441881E+02  0.63876657945E+01  0.32068896072E+02  0.38138318764E+02  0.00000000000E+00 0. -1.
</event>
<event>
 5    1  0.8962782E-005  0.9118800E+02  0.7818608E-02  0.1130116E+00
         25   -1    0    0    0    0  0.00000000000E+00  0.00000000000E+00  0.99999998245E-14  0.12500000000E+03  0.12500000000E+03 0.  0.
        -11    1    3    3    0    0  0.10153054765E+01  0.13899189545E+01 -0.62396758767E+02  0.62420495230E+02  0.51100000000E-03 0. -1.
         23    2    1    0    0    0 -0.87054528956E+00  0.24059425643E+01 -0.28253986621E+02  0.96630400625E+02  0.92372074548E+02 0.  0.
         11    1    3    3    0    0 -0.18858507660E+01  0.10160236098E+01  0.34142772146E+02  0.34209905395E+02  0.51100000000E-03 0.  1.
         22    1    1    0    0    0  0.87054528956E+00 -0.24059425643E+01  0.28253986621E+02  0.28369599375E+02  0.00000000000E+00 0. -1.
</event>
<event>
 5    1  0.8962782E-005  0.9118800E+02  0.7818608E-02  0.1130116E+00
         25   -1    0    0    0    0  0.00000000000E+00  0.00000000000E+00  0.99999998245E-14  0.12500000000E+03  0.12500000000E+03 0.  0.
        -11    1    3    3    0    0  0.51576678109E+02  0.24230954994E+01  0.29509743668E+02  0.59471422450E+02  0.51100000000E-03 0. -1.
         23    2    1    0    0    0  0.26024900786E+02  0.14940509873E+02  0.16447979443E+02  0.90779387441E+02  0.84082381390E+02 0.  0.
         11    1    3    3    0    0 -0.25551777323E+02  0.12517414373E+02 -0.13061764225E+02  0.31307964992E+02  0.51100000000E-03 0.  1.
         22    1    1    0    0    0 -0.26024900786E+02 -0.14940509873E+02 -0.16447979443E+02  0.34220612559E+02  0.00000000000E+00 0. -1.
</event>
<event>
 5    1  0.8962782E-005  0.9118800E+02  0.7818608E-02  0.1130116E+00
         25   -1    0    0    0    0  0.00000000000E+00  0.00000000000E+00  0.99999998245E-14  0.12500000000E+03  0.12500000000E+03 0.  0.
        -11    1    3    3    0    0  0.17226394972E+02  0.78330838710E+01  0.41098238658E+02  0.45245675017E+02  0.51100000000E-03 0.  1.
         23    2    1    0    0    0  0.19481433815E+02 -0.23932675989E+02  0.44102857356E+01  0.93827097284E+02  0.88497312507E+02 0.  0.
         11    1    3    3    0    0  0.22550388434E+01 -0.31765759860E+02 -0.36687952922E+02  0.48581422268E+02  0.51100000000E-03 0. -1.
         22    1    1    0    0    0 -0.19481433815E+02  0.23932675989E+02 -0.44102857356E+01  0.31172902716E+02  0.00000000000E+00 0.  1.
</event>
<event>
 5    1  0.8962782E-005  0.9118800E+02  0.7818608E-02  0.1130116E+00
         25   -1    0    0    0    0  0.00000000000E+00  0.00000000000E+00  0.99999998245E-14  0.12500000000E+03  0.12500000000E+03 0.  0.
        -11    1    3    3    0    0 -0.21276163123E+02  0.34209250024E+02 -0.23910064810E+02  0.46846975397E+02  0.51100000000E-03 0. -1.
         23    2    1    0    0    0 -0.25860200527E+02  0.82058873245E+01  0.15097823733E+02  0.93951153974E+02  0.88672366009E+02 0.  0.
         11    1    3    3    0    0 -0.45840374040E+01 -0.26003362699E+02  0.39007888543E+02  0.47104178577E+02  0.51100000000E-03 0.  1.
         22    1    1    0    0    0  0.25860200527E+02 -0.82058873245E+01 -0.15097823733E+02  0.31048846026E+02  0.00000000000E+00 0. -1.
</event>
<event>
 5    1  0.8962782E-005  0.9118800E+02  0.7818608E-02  0.1130116E+00
         25   -1    0    0    0    0  0.00000000000E+00  0.00000000000E+00  0.99999998245E-14  0.12500000000E+03  0.12500000000E+03 0.  0.
        -11    1    3    3    0    0  0.28990426876E+02  0.16935836708E+02 -0.21312507739E+02  0.39767956973E+02  0.51100000000E-03 0.  1.
         23    2    1    0    0    0 -0.25613862960E+02  0.78046748612E+01 -0.10841210146E+02  0.96112030829E+02  0.91667920819E+02 0.  0.
         11    1    3    3    0    0 -0.54604289836E+02 -0.91311618463E+01  0.10471297593E+02  0.56344073856E+02  0.51100000000E-03 0. -1.
         22    1    1    0    0    0  0.25613862960E+02 -0.78046748612E+01  0.10841210146E+02  0.28887969171E+02  0.00000000000E+00 0.  1.
</event>
<event>
 5    1  0.8962782E-005  0.9118800E+02  0.7818608E-02  0.1130116E+00
         25   -1    0    0    0    0  0.00000000000E+00  0.00000000000E+00  0.99999998245E-14  0.12500000000E+03  0.12500000000E+03 0.  0.
        -11    1    3    3    0    0 -0.30525693230E+02 -0.27464001030E+02 -0.19478383884E+02  0.45447736343E+02  0.51100000000E-03 0. -1.
         23    2    1    0    0    0 -0.87778541444E+01  0.18281193956E+02 -0.20574413973E+02  0.96111260218E+02  0.91666869994E+02 0.  0.
         11    1    3    3    0    0  0.21747839086E+02  0.45745194986E+02 -0.10960300895E+01  0.50663523875E+02  0.51100000000E-03 0.  1.
         22    1    1    0    0    0  0.87778541444E+01 -0.18281193956E+02  0.20574413973E+02  0.28888739782E+02  0.00000000000E+00 0. -1.
</event>
<event>
 5    1  0.8962782E-005  0.9118800E+02  0.7818608E-02  0.1130116E+00
         25   -1    0    0    0    0  0.00000000000E+00  0.00000000000E+00  0.99999998245E-14  0.12500000000E+03  0.12500000000E+03 0.  0.
        -11    1    3    3    0    0  0.12468651412E+02 -0.29302328733E+02  0.19238459802E+02  0.37205000645E+02  0.51100000000E-03 0.  1.
         23    2    1    0    0    0 -0.11134790166E+02  0.24346744625E+02  0.93315452747E+01  0.96648187658E+02  0.92396141231E+02 0.  0.
         11    1    3    3    0    0 -0.23603441577E+02  0.53649073358E+02 -0.99069145277E+01  0.59443187012E+02  0.51100000000E-03 0. -1.
         22    1    1    0    0    0  0.11134790166E+02 -0.24346744625E+02 -0.93315452747E+01  0.28351812342E+02  0.00000000000E+00 0. -1.
</event>
<event>
 5    1  0.8962782E-005  0.9118800E+02  0.7818608E-02  0.1130116E+00
         25   -1    0    0    0    0  0.00000000000E+00  0.00000000000E+00  0.99999998245E-14  0.12500000000E+03  0.12500000000E+03 0.  0.
        -11    1    3    3    0    0  0.12714853282E+02  0.31907924014E+02  0.33897438294E+02  0.48257843217E+02  0.51100000000E-03 0.  1.
         23    2    1    0    0    0 -0.23456998321E+02  0.86838539237E+01  0.67712370560E+01  0.99086880920E+02  0.95638487179E+02 0.  0.
         11    1    3    3    0    0 -0.36171851603E+02 -0.23224070090E+02 -0.27126201238E+02  0.50829037703E+02  0.51100000000E-03 0. -1.
         22    1    1    0    0    0  0.23456998321E+02 -0.86838539237E+01 -0.67712370560E+01  0.25913119080E+02  0.00000000000E+00 0. -1.
</event>
<event>
 5    1  0.8962782E-005  0.9118800E+02  0.7818608E-02  0.1130116E+00
         25   -1    0    0    0    0  0.00000000000E+00  0.00000000000E+00  0.99999998245E-14  0.12500000000E+03  0.12500000000E+03 0.  0.
        -11    1    3    3    0    0 -0.24288319581E+02  0.31118301994E+02 -0.36387217172E+02  0.53687063254E+02  0.51100000000E-03 0.  1.
         23    2    1    0    0    0  0.11455000190E+02  0.15557824055E+02 -0.23128959274E+02  0.94863449505E+02  0.89949221098E+02 0.  0.
         11    1    3    3    0    0  0.35743319770E+02 -0.15560477939E+02  0.13258257899E+02  0.41176386251E+02  0.51100000000E-03 0. -1.
         22    1    1    0    0    0 -0.11455000190E+02 -0.15557824055E+02  0.23128959274E+02  0.30136550495E+02  0.00000000000E+00 0.  1.
</event>
<event>
 5    1  0.8962782E-005  0.9118800E+02  0.7818608E-02  0.1130116E+00
         25   -1    0    0    0    0  0.00000000000E+00  0.00000000000E+00  0.99999998245E-14  0.12500000000E+03  0.12500000000E+03 0.  0.
        -11    1    3    3    0    0 -0.40329751465E+02  0.44508140773E+02  0.13165107288E+02  0.61488076067E+02  0.51100000000E-03 0. -1.
         23    2    1    0    0    0 -0.20599419830E+02  0.16565108780E+02  0.12642084448E+02  0.95698784574E+02  0.91102668147E+02 0.  0.
         11    1    3    3    0    0  0.19730331635E+02 -0.27943031993E+02 -0.52302283966E+00  0.34210708507E+02  0.51100000000E-03 0.  1.
         22    1    1    0    0    0  0.20599419830E+02 -0.16565108780E+02 -0.12642084448E+02  0.29301215426E+02  0.00000000000E+00 0. -1.
</event>
<event>
 5    1  0.8962782E-005  0.9118800E+02  0.7818608E-02  0.1130116E+00
         25   -1    0    0    0    0  0.00000000000E+00  0.00000000000E+00  0.99999998245E-14  0.12500000000E+03  0.12500000000E+03 0.  0.
        -11    1    3    3    0    0 -0.33271882966E+01  0.38368033252E+02 -0.60213504416E+01  0.38979902758E+02  0.51100000000E-03 0. -1.
         23    2    1    0    0    0  0.48684999366E+01 -0.17574097688E+02 -0.20719437804E+02  0.97398436564E+02  0.93405616218E+02 0.  0.
         11    1    3    3    0    0  0.81956882333E+01 -0.55942130940E+02 -0.14698087362E+02  0.58418533807E+02  0.51100000000E-03 0.  1.
         22    1    1    0    0    0 -0.48684999366E+01  0.17574097688E+02  0.20719437804E+02  0.27601563436E+02  0.00000000000E+00 0.  1.
</event>
<event>
 5    1  0.8962782E-005  0.9118800E+02  0.7818608E-02  0.1130116E+00
         25   -1    0    0    0    0  0.00000000000E+00  0.00000000000E+00  0.99999998245E-14  0.12500000000E+03  0.12500000000E+03 0.  0.
        -11    1    3    3    0    0 -0.36928155080E+02 -0.56801538768E+01 -0.13884048729E+02  0.39858745528E+02  0.51100000000E-03 0.  1.
         23    2    1    0    0    0  0.16986459737E+02  0.10223540156E+02 -0.20527894359E+02  0.96461341403E+02  0.92143015746E+02 0.  0.
         11    1    3    3    0    0  0.53914614817E+02  0.15903694033E+02 -0.66438456298E+01  0.56602595875E+02  0.51100000000E-03 0. -1.
         22    1    1    0    0    0 -0.16986459737E+02 -0.10223540156E+02  0.20527894359E+02  0.28538658597E+02  0.00000000000E+00 0. -1.
</event>
<event>
 5    1  0.8962782E-005  0.9118800E+02  0.7818608E-02  0.1130116E+00
         25   -1    0    0    0    0  0.00000000000E+00  0.00000000000E+00  0.99999998245E-14  0.12500000000E+03  0.12500000000E+03 0.  0.
        -11    1    3    3    0    0  0.10077549251E+02  0.50821445712E+01 -0.49320013791E+02  0.50594949876E+02  0.51100000000E-03 0. -1.
         23    2    1    0    0    0  0.23663266622E+02 -0.66786085332E+01 -0.30596055554E+01  0.10022268809E+03  0.97111647207E+02 0.  0.
         11    1    3    3    0    0  0.13585717371E+02 -0.11760753104E+02  0.46260408236E+02  0.49627738217E+02  0.51100000000E-03 0.  1.
         22    1    1    0    0    0 -0.23663266622E+02  0.66786085332E+01  0.30596055554E+01  0.24777311907E+02  0.00000000000E+00 0.  1.
</event>
<event>
 5    1  0.8962782E-005  0.9118800E+02  0.7818608E-02  0.1130116E+00
         25   -1    0    0    0    0  0.00000000000E+00  0.00000000000E+00  0.99999998245E-14  0.12500000000E+03  0.12500000000E+03 0.  0.
        -11    1    3    3    0    0  0.41460105765E+02  0.34670870251E+02 -0.21845448075E+01  0.54090496857E+02  0.51100000000E-03 0.  1.
         23    2    1    0    0    0  0.16609949333E+01  0.30299546865E+02  0.31886686332E+01  0.94487886798E+02  0.89425788783E+02 0.  0.
         11    1    3    3    0    0 -0.39799110831E+02 -0.43713233860E+01  0.53732134407E+01  0.40397389941E+02  0.51100000000E-03 0. -1.
         22    1    1    0    0    0 -0.16609949333E+01 -0.30299546865E+02 -0.31886686332E+01  0.30512113202E+02  0.00000000000E+00 0.  1.
</event>
<event>
 5    1  0.8962782E-005  0.9118800E+02  0.7818608E-02  0.1130116E+00
         25   -1    0    0    0    0  0.00000000000E+00  0.00000000000E+00  0.99999998245E-14  0.12500000000E+03  0.12500000000E+03 0.  0.
        -11    1    3    3    0    0  0.24810692616E+02 -0.37686809181E+02 -0.34417312647E+02  0.56748722139E+02  0.51100000000E-03 0.  1.
         23    2    1    0    0    0 -0.30818320841E+01 -0.28499440305E+02 -0.11047831539E+02  0.94279154171E+02  0.89133543309E+02 0.  0.
         11    1    3    3    0    0 -0.27892524700E+02  0.91873688752E+01  0.23369481109E+02  0.37530432032E+02  0.51100000000E-03 0. -1.
         22    1    1    0    0    0  0.30818320841E+01  0.28499440305E+02  0.11047831539E+02  0.30720845829E+02  0.00000000000E+00 0.  1.
</event>
<event>
 5    1  0.8962782E-005  0.9118800E+02  0.7818608E-02  0.1130116E+00
         25   -1    0    0    0    0  0.00000000000E+00  0.00000000000E+00  0.99999998245E-14  0.12500000000E+03  0.12500000000E+03 0.  0.
        -11    1    3    3    0    0  0.76054874491E+01  0.53973786577E+02  0.34939597618E+01  0.54618868827E+02  0.51100000000E-03 0.  1.
         23    2    1    0    0    0  0.23721480781E+02  0.14931250271E+02  0.44008036425E+00  0.96967080854E+02  0.92826559850E+02 0.  0.
         11    1    3    3    0    0  0.16115993332E+02 -0.39042536306E+02 -0.30538793975E+01  0.42348212027E+02  0.51100000000E-03 0. -1.
         22    1    1    0    0    0 -0.23721480781E+02 -0.14931250271E+02 -0.44008036425E+00  0.28032919146E+02  0.00000000000E+00 0. -1.
</event>
<event>
 5    1  0.8962782E-005  0.9118800E+02  0.7818608E-02  0.1130116E+00
         25   -1    0    0    0    0  0.00000000000E+00  0.00000000000E+00  0.99999998245E-14  0.12500000000E+03  0.12500000000E+03 0.  0.
        -11    1    3    3    0    0 -0.45817858403E+02  0.16798354224E+02  0.37070527270E+02  0.61283642561E+02  0.51100000000E-03 0.  1.
         23    2    1    0    0    0 -0.24301458740E+02  0.24780917242E+01  0.10315852910E+02  0.98483615316E+02  0.94846738631E+02 0.  0.
         11    1    3    3    0    0  0.21516399663E+02 -0.14320262500E+02 -0.26754674360E+02  0.37199972754E+02  0.51100000000E-03 0. -1.
         22    1    1    0    0    0  0.24301458740E+02 -0.24780917242E+01 -0.10315852910E+02  0.26516384684E+02  0.00000000000E+00 0.  1.
</event>
<event>
 5    1  0.8962782E-005  0.9118800E+02  0.7818608E-02  0.1130116E+00
         25   -1    0    0    0    0  0.00000000000E+00  0.00000000000E+00  0.99999998245E-14  0.12500000000E+03  0.12500000000E+03 0.  0.
        -11    1    3    3    0    0 -0.24619728385E+02 -0.52722353239E+02 -0.13437066525E+02  0.59718776896E+02  0.51100000000E-03 0.  1.
         23    2    1    0    0    0 -0.19147061747E+02 -0.17104307447E+02 -0.13995053597E+02  0.95759123953E+02  0.91185420920E+02 0.  0.
         11    1    3    3    0    0  0.54726666381E+01  0.35618045792E+02 -0.55798707245E+00  0.36040347058E+02  0.51100000000E-03 0. -1.
         22    1    1    0    0    0  0.19147061747E+02  0.17104307447E+02  0.13995053597E+02  0.29240876047E+02  0.00000000000E+00 0.  1.
</event>
<event>
 5    1  0.8962782E-005  0.9118800E+02  0.7818608E-02  0.1130116E+00
         25   -1    0    0    0    0  0.00000000000E+00  0.00000000000E+00  0.99999998245E-14  0.12500000000E+03  0.12500000000E+03 0.  0.
        -11    1    3    3    0    0 -0.77515618231E+01 -0.27404706313E+02  0.20855773874E+02  0.35299687576E+02  0.51100000000E-03 0. -1.
         23    2    1    0    0    0  0.19505523255E+02  0.50138854021E+01 -0.21737290136E+02  0.95367007125E+02  0.90646300428E+02 0.  0.
         11    1    3    3    0    0  0.27257085078E+02  0.32418591715E+02 -0.42593064010E+02  0.60067319549E+02  0.51100000000E-03 0.  1.
         22    1    1    0    0    0 -0.19505523255E+02 -0.50138854021E+01  0.21737290136E+02  0.29632992875E+02  0.00000000000E+00 0.  1.
</event>
<event>
 5    1  0.8962782E-005  0.9118800E+02  0.7818608E-02  0.1130116E+00
         25   -1    0    0    0    0  0.00000000000E+00  0.00000000000E+00  0.99999998245E-14  0.12500000000E+03  0.12500000000E+03 0.  0.
        -11    1    3    3    0    0  0.27699758149E+00 -0.38614703918E+02 -0.41593168802E+02  0.56755297353E+02  0.51100000000E-03 0.  1.
         23    2    1    0    0    0  0.17551917381E+01 -0.22505721486E+01 -0.29874312388E+02  0.94989663219E+02  0.90124446211E+02 0.  0.
         11    1    3    3    0    0  0.14781941566E+01  0.36364131769E+02  0.11718856414E+02  0.38234365866E+02  0.51100000000E-03 0. -1.
         22    1    1    0    0    0 -0.17551917381E+01  0.22505721486E+01  0.29874312388E+02  0.30010336781E+02  0.00000000000E+00 0.  1.
</event>
<event>
 5    1  0.8962782E-005  0.9118800E+02  0.7818608E-02  0.1130116E+00
         25   -1    0    0    0    0  0.00000000000E+00  0.00000000000E+00  0.99999998245E-14  0.12500000000E+03  0.12500000000E+03 0.  0.
        -11    1    3    3    0    0  0.81047322254E+01 -0.32756986159E+02  0.74048641266E+01  0.34547631463E+02  0.51100000000E-03 0. -1.
         23    2    1    0    0    0 -0.89581122309E+01  0.18696494905E+02 -0.20780773917E+02  0.95646171271E+02  0.91030449948E+02 0.  0.
         11    1    3    3    0    0 -0.17062844456E+02  0.51453481064E+02 -0.28185638043E+02  0.61098539808E+02  0.51100000000E-03 0.  1.
         22    1    1    0    0    0  0.89581122309E+01 -0.18696494905E+02  0.20780773917E+02  0.29353828729E+02  0.00000000000E+00 0.  1.
</event>
<event>
 5    1  0.8962782E-005  0.9118800E+02  0.7818608E-02  0.1130116E+00
         25   -1    0    0    0    0  0.00000000000E+00  0.00000000000E+00  0.99999998245E-14  0.12500000000E+03  0.12500000000E+03 0.  0.
        -11    1    3    3    0    0  0.28004346677E+02  0.39468927890E+02 -0.29619608978E+02  0.56739412562E+02  0.51100000000E-03 0.  1.
         23    2    1    0    0    0  0.17146511821E+02  0.17592380497E+01 -0.22556529626E+02  0.96611713420E+02  0.92346783133E+02 0.  0.
         11    1    3    3    0    0 -0.10857834856E+02 -0.37709689840E+02  0.70630793516E+01  0.39872300859E+02  0.51100000000E-03 0. -1.
         22    1    1    0    0    0 -0.17146511821E+02 -0.17592380497E+01  0.22556529626E+02  0.28388286580E+02  0.00000000000E+00 0.  1.
</event>
<event>
 5    1  0.8962782E-005  0.9118800E+02  0.7818608E-02  0.1130116E+00
         25   -1    0    0    0    0  0.00000000000E+00  0.00000000000E+00  0.99999998245E-14  0.12500000000E+03  0.12500000000E+03 0.  0.
        -11    1    3    3    0    0  0.36245330134E+02  0.11805517107E+02  0.91109503587E+01  0.39193157660E+02  0.51100000000E-03 0.  1.
         23    2    1    0    0    0 -0.18572341923E+02  0.20840942263E+02  0.11515736335E+02  0.94802501060E+02  0.89864482778E+02 0.  0.
         11    1    3    3    0    0 -0.54817672057E+02  0.90354251556E+01  0.24047859762E+01  0.55609343400E+02  0.51100000000E-03 0. -1.
         22    1    1    0    0    0  0.18572341923E+02 -0.20840942263E+02 -0.11515736335E+02  0.30197498940E+02  0.00000000000E+00 0. -1.
</event>
<event>
 5    1  0.8962782E-005  0.9118800E+02  0.7818608E-02  0.1130116E+00
         25   -1    0    0    0    0  0.00000000000E+00  0.00000000000E+00  0.99999998245E-14  0.12500000000E+03  0.12500000000E+03 0.  0.
        -11    1    3    3    0    0  0.84954777303E+01 -0.15062253530E+02  0.12247941466E+02  0.21190957829E+02  0.51100000000E-03 0.  1.
         23    2    1    0    0    0  0.91665194228E+01  0.32323181434E+02 -0.26342825719E+02  0.82306234609E+02  0.70367312385E+02 0.  0.
         11    1    3    3    0    0  0.67104169252E+00  0.47385434965E+02 -0.38590767185E+02  0.61115276781E+02  0.51100000000E-03 0. -1.
         22    1    1    0    0    0 -0.91665194228E+01 -0.32323181434E+02  0.26342825719E+02  0.42693765391E+02  0.00000000000E+00 0. -1.
</event>
<event>
 5    1  0.8962782E-005  0.9118800E+02  0.7818608E-02  0.1130116E+00
         25   -1    0    0    0    0  0.00000000000E+00  0.00000000000E+00  0.99999998245E-14  0.12500000000E+03  0.12500000000E+03 0.  0.
        -11    1    3    3    0    0 -0.30311552804E+01 -0.13958826514E+02  0.32026789448E+02  0.35067819758E+02  0.51100000000E-03 0.  1.
         23    2    1    0    0    0  0.31103980164E+02  0.18382697682E+02  0.75132285368E+01  0.88097022354E+02  0.79995347292E+02 0.  0.
         11    1    3    3    0    0  0.34135135445E+02  0.32341524196E+02 -0.24513560911E+02  0.53029202596E+02  0.51100000000E-03 0. -1.
         22    1    1    0    0    0 -0.31103980164E+02 -0.18382697682E+02 -0.75132285368E+01  0.36902977646E+02  0.00000000000E+00 0. -1.
</event>
<event>
 5    1  0.8962782E-005  0.9118800E+02  0.7818608E-02  0.1130116E+00
         25   -1    0    0    0    0  0.00000000000E+00  0.00000000000E+00  0.99999998245E-14  0.12500000000E+03  0.12500000000E+03 0.  0.
        -11    1    3    3    0    0 -0.19756238712E+02 -0.25536313866E+02  0.30557443825E+02  0.44454129924E+02  0.51100000000E-03 0.  1.
         23    2    1    0    0    0  0.20882052601E+02 -0.22062597429E+02  0.14019620364E+01  0.94589741473E+02  0.89568048813E+02 0.  0.
         11    1    3    3    0    0  0.40638291313E+02  0.34737164374E+01 -0.29155481789E+02  0.50135611548E+02  0.51100000000E-03 0. -1.
         22    1    1    0    0    0 -0.20882052601E+02  0.22062597429E+02 -0.14019620364E+01  0.30410258527E+02  0.00000000000E+00 0.  1.
</event>
<event>
 5    1  0.8962782E-005  0.9118800E+02  0.7818608E-02  0.1130116E+00
         25   -1    0    0    0    0  0.00000000000E+00  0.00000000000E+00  0.99999998245E-14  0.12500000000E+03  0.12500000000E+03 0.  0.
        -11    1    3    3    0    0 -0.12814868453E+02  0.97514380973E+01 -0.35256360437E+02  0.38759803275E+02  0.51100000000E-03 0.  1.
         23    2    1    0    0    0 -0.27394784538E+02  0.14446846467E+02  0.14487306239E+02  0.90808368937E+02  0.84125455328E+02 0.  0.
         11    1    3    3    0    0 -0.14579916084E+02  0.46954083698E+01  0.49743666676E+02  0.52048565661E+02  0.51100000000E-03 0. -1.
         22    1    1    0    0    0  0.27394784538E+02 -0.14446846467E+02 -0.14487306239E+02  0.34191631063E+02  0.00000000000E+00 0. -1.
</event>
<event>
 5    1  0.8962782E-005  0.9118800E+02  0.7818608E-02  0.1130116E+00
         25   -1    0    0    0    0  0.00000000000E+00  0.00000000000E+00  0.99999998245E-14  0.12500000000E+03  0.12500000000E+03 0.  0.
        -11    1    3    3    0    0 -0.41110146991E+02 -0.81545068138E+00  0.48715596616E+01  0.41405811660E+02  0.51100000000E-03 0.  1.
         23    2    1    0    0    0  0.96229909368E+01 -0.14737583518E+02  0.22085104048E+02  0.96759069716E+02  0.92546028704E+02 0.  0.
         11    1    3    3    0    0  0.50733137928E+02 -0.13922132836E+02  0.17213544387E+02  0.55353258055E+02  0.51100000000E-03 0. -1.
         22    1    1    0    0    0 -0.96229909368E+01  0.14737583518E+02 -0.22085104048E+02  0.28240930284E+02  0.00000000000E+00 0. -1.
</event>
<event>
 5    1  0.8962782E-005  0.9118800E+02  0.7818608E-02  0.1130116E+00
         25   -1    0    0    0    0  0.00000000000E+00  0.00000000000E+00  0.99999998245E-14  0.12500000000E+03  0.12500000000E+03 0.  0.
        -11    1    3    3    0    0  0.47743618175E+01  0.31305606479E+02 -0.48011274945E+02  0.57514502953E+02  0.51100000000E-03 0. -1.
         23    2    1    0    0    0 -0.10179665092E+02  0.23902855007E+02 -0.13790588843E+02  0.95586526904E+02  0.90948511401E+02 0.  0.
         11    1    3    3    0    0 -0.14954026910E+02 -0.74027514721E+01  0.34220686102E+02  0.38072023951E+02  0.51100000000E-03 0.  1.
         22    1    1    0    0    0  0.10179665092E+02 -0.23902855007E+02  0.13790588843E+02  0.29413473096E+02  0.00000000000E+00 0. -1.
</event>
<event>
 5    1  0.8962782E-005  0.9118800E+02  0.7818608E-02  0.1130116E+00
         25   -1    0    0    0    0  0.00000000000E+00  0.00000000000E+00  0.99999998245E-14  0.12500000000E+03  0.12500000000E+03 0.  0.
        -11    1    3    3    0    0 -0.21059530263E+00 -0.32768604939E+02 -0.11695956241E+02  0.34793982420E+02  0.51100000000E-03 0.  1.
         23    2    1    0    0    0 -0.30507216180E+00  0.27422878295E+02 -0.12191716335E+02  0.94987581400E+02  0.90121558742E+02 0.  0.
         11    1    3    3    0    0 -0.94476859170E-01  0.60191483234E+02 -0.49576009373E+00  0.60193598980E+02  0.51100000000E-03 0. -1.
         22    1    1    0    0    0  0.30507216180E+00 -0.27422878295E+02  0.12191716335E+02  0.30012418600E+02  0.00000000000E+00 0. -1.
</event>
<event>
 5    1  0.8962782E-005  0.9118800E+02  0.7818608E-02  0.1130116E+00
         25   -1    0    0    0    0  0.00000000000E+00  0.00000000000E+00  0.99999998245E-14  0.12500000000E+03  0.12500000000E+03 0.  0.
        -11    1    3    3    0    0  0.51210760324E+01 -0.48217450416E+02 -0.26421637198E+02  0.55220022246E+02  0.51100000000E-03 0.  1.
         23    2    1    0    0    0 -0.14273770629E+02 -0.26995912523E+02  0.28747438372E+00  0.94461459392E+02  0.89388840736E+02 0.  0.
         11    1    3    3    0    0 -0.19394846662E+02  0.21221537892E+02  0.26709111582E+02  0.39241437147E+02  0.51100000000E-03 0. -1.
         22    1    1    0    0    0  0.14273770629E+02  0.26995912523E+02 -0.28747438372E+00  0.30538540608E+02  0.00000000000E+00 0.  1.
</event>
<event>
 5    1  0.8962782E-005  0.9118800E+02  0.7818608E-02  0.1130116E+00
         25   -1    0    0    0    0  0.00000000000E+00  0.00000000000E+00  0.99999998245E-14  0.12500000000E+03  0.12500000000E+03 0.  0.
        -11    1    3    3    0    0  0.29862348126E+02 -0.43094765539E+02 -0.33825940641E+02  0.62394814793E+02  0.51100000000E-03 0.  1.
         23    2    1    0    0    0  0.11839651104E+02 -0.21011484910E+02 -0.16975807852E+02  0.95506985766E+02  0.90839123958E+02 0.  0.
         11    1    3    3    0    0 -0.18022697022E+02  0.22083280629E+02  0.16850132789E+02  0.33112170973E+02  0.51100000000E-03 0. -1.
         22    1    1    0    0    0 -0.11839651104E+02  0.21011484910E+02  0.16975807852E+02  0.29493014234E+02  0.00000000000E+00 0.  1.
</event>
<event>
 5    1  0.8962782E-005  0.9118800E+02  0.7818608E-02  0.1130116E+00
         25   -1    0    0    0    0  0.00000000000E+00  0.00000000000E+00  0.99999998245E-14  0.12500000000E+03  0.12500000000E+03 0.  0.
        -11    1    3    3    0    0 -0.20937653122E+02  0.10319011276E+02  0.24413107882E+02  0.33776724955E+02  0.51100000000E-03 0. -1.
         23    2    1    0    0    0  0.28595193723E+02  0.86583631322E+01 -0.92904223222E+01  0.93711594749E+02  0.88334017724E+02 0.  0.
         11    1    3    3    0    0  0.49532846845E+02 -0.16606481433E+01 -0.33703530204E+02  0.59934869795E+02  0.51100000000E-03 0.  1.
         22    1    1    0    0    0 -0.28595193723E+02 -0.86583631322E+01  0.92904223222E+01  0.31288405251E+02  0.00000000000E+00 0.  1.
</event>
<event>
 5    1  0.8962782E-005  0.9118800E+02  0.7818608E-02  0.1130116E+00
         25   -1    0    0    0    0  0.00000000000E+00  0.00000000000E+00  0.99999998245E-14  0.12500000000E+03  0.12500000000E+03 0.  0.
        -11    1    3    3    0    0  0.37522483351E+02  0.77122194152E+01 -0.11194872907E+02  0.39909150139E+02  0.51100000000E-03 0. -1.
         23    2    1    0    0    0 -0.14297189107E+02  0.23949153211E+02  0.51857540347E+01  0.96629881904E+02  0.92371372600E+02 0.  0.
         11    1    3    3    0    0 -0.51819672458E+02  0.16236933796E+02  0.16380626942E+02  0.56720731765E+02  0.51100000000E-03 0.  1.
         22    1    1    0    0    0  0.14297189107E+02 -0.23949153211E+02 -0.51857540347E+01  0.28370118096E+02  0.00000000000E+00 0.  1.
</event>
<event>
 5    1  0.8962782E-005  0.9118800E+02  0.7818608E-02  0.1130116E+00
         25   -1    0    0    0    0  0.00000000000E+00  0.00000000000E+00  0.99999998245E-14  0.12500000000E+03  0.12500000000E+03 0.  0.
        -11    1    3    3    0    0 -0.42663343802E+02 -0.40651843531E+02  0.18600887073E+02  0.61795843606E+02  0.51100000000E-03 0.  1.
         23    2    1    0    0    0 -0.17926262704E+02 -0.18073939965E+02  0.14931535906E+02  0.95487816670E+02  0.90812742319E+02 0.  0.
         11    1    3    3    0    0  0.24737081098E+02  0.22577903566E+02 -0.36693511675E+01  0.33691973064E+02  0.51100000000E-03 0. -1.
         22    1    1    0    0    0  0.17926262704E+02  0.18073939965E+02 -0.14931535906E+02  0.29512183330E+02  0.00000000000E+00 0.  1.
</event>
<event>
 5    1  0.8962782E-005  0.9118800E+02  0.7818608E-02  0.1130116E+00
         25   -1    0    0    0    0  0.00000000000E+00  0.00000000000E+00  0.99999998245E-14  0.12500000000E+03  0.12500000000E+03 0.  0.
        -11    1    3    3    0    0  0.40074740024E+02 -0.90017401653E+01  0.41981496387E+02  0.58732121988E+02  0.51100000000E-03 0.  1.
         23    2    1    0    0    0  0.13833962594E+02  0.85478971412E+01  0.26538494252E+02  0.93875463959E+02  0.88565602746E+02 0.  0.
         11    1    3    3    0    0 -0.26240777430E+02  0.17549637307E+02 -0.15443002135E+02  0.35143341971E+02  0.51100000000E-03 0. -1.
         22    1    1    0    0    0 -0.13833962594E+02 -0.85478971412E+01 -0.26538494252E+02  0.31124536041E+02  0.00000000000E+00 0. -1.
</event>
<event>
 5    1  0.8962782E-005  0.9118800E+02  0.7818608E-02  0.1130116E+00
         25   -1    0    0    0    0  0.00000000000E+00  0.00000000000E+00  0.99999998245E-14  0.12500000000E+03  0.12500000000E+03 0.  0.
        -11    1    3    3    0    0 -0.51505007354E+00  0.36778850156E+02 -0.27031464702E+02  0.45647006249E+02  0.51100000000E-03 0. -1.
         23    2    1    0    0    0 -0.96751859732E+01  0.21023281877E+02  0.18937275682E+02  0.95096688900E+02  0.90272765688E+02 0.  0.
         11    1    3    3    0    0 -0.91601358996E+01 -0.15755568279E+02  0.45968740384E+02  0.49449682651E+02  0.51100000000E-03 0.  1.
         22    1    1    0    0    0  0.96751859732E+01 -0.21023281877E+02 -0.18937275682E+02  0.29903311100E+02  0.00000000000E+00 0. -1.
</event>
<event>
 5    1  0.8962782E-005  0.9118800E+02  0.7818608E-02  0.1130116E+00
         25   -1    0    0    0    0  0.00000000000E+00  0.00000000000E+00  0.99999998245E-14  0.12500000000E+03  0.12500000000E+03 0.  0.
        -11    1    3    3    0    0  0.35061678478E+02  0.27721868849E+02  0.19716597427E+02  0.48852507863E+02  0.51100000000E-03 0. -1.
         23    2    1    0    0    0 -0.11132218727E+02  0.24352401289E+02  0.11344489893E+02  0.95919711259E+02  0.91405294238E+02 0.  0.
         11    1    3    3    0    0 -0.46193897205E+02 -0.33694675601E+01 -0.83721075337E+01  0.47067203396E+02  0.51100000000E-03 0.  1.
         22    1    1    0    0    0  0.11132218727E+02 -0.24352401289E+02 -0.11344489893E+02  0.29080288741E+02  0.00000000000E+00 0. -1.
</event>
<event>
 5    1  0.8962782E-005  0.9118800E+02  0.7818608E-02  0.1130116E+00
         25   -1    0    0    0    0  0.00000000000E+00  0.00000000000E+00  0.99999998245E-14  0.12500000000E+03  0.12500000000E+03 0.  0.
        -11    1    3    3    0    0  0.39450407708E+02  0.42973186874E+01  0.24039142628E+02  0.46397004157E+02  0.51100000000E-03 0. -1.
         23    2    1    0    0    0 -0.92111118212E+01 -0.12101835811E+02 -0.88757336732E+01  0.10739097790E+03  0.10593745549E+03 0.  0.
         11    1    3    3    0    0 -0.48661519529E+02 -0.16399154498E+02 -0.32914876301E+02  0.60993973746E+02  0.51100000000E-03 0.  1.
         22    1    1    0    0    0  0.92111118212E+01  0.12101835811E+02  0.88757336732E+01  0.17609022097E+02  0.00000000000E+00 0.  1.
</event>
<event>
 5    1  0.8962782E-005  0.9118800E+02  0.7818608E-02  0.1130116E+00
         25   -1    0    0    0    0  0.00000000000E+00  0.00000000000E+00  0.99999998245E-14  0.12500000000E+03  0.12500000000E+03 0.  0.
        -11    1    3    3    0    0 -0.13661768126E+02  0.33236206435E+02  0.47536168216E+01  0.36247568190E+02  0.51100000000E-03 0. -1.
         23    2    1    0    0    0 -0.51572680875E+01 -0.21917210947E+02 -0.17658947889E+02  0.96385318621E+02  0.92039826463E+02 0.  0.
         11    1    3    3    0    0  0.85045000383E+01 -0.55153417382E+02 -0.22412564711E+02  0.60137750432E+02  0.51100000000E-03 0.  1.
         22    1    1    0    0    0  0.51572680875E+01  0.21917210947E+02  0.17658947889E+02  0.28614681379E+02  0.00000000000E+00 0.  1.
</event>
<event>
 5    1  0.8962782E-005  0.9118800E+02  0.7818608E-02  0.1130116E+00
         25   -1    0    0    0    0  0.00000000000E+00  0.00000000000E+00  0.99999998245E-14  0.12500000000E+03  0.12500000000E+03 0.  0.
        -11    1    3    3    0    0 -0.31249368824E+02 -0.68255285670E+01 -0.59987342606E+00  0.31991729251E+02  0.51100000000E-03 0. -1.
         23    2    1    0    0    0  0.17025224361E+02  0.28227230173E+02  0.38282574959E+01  0.91814305141E+02  0.85607104176E+02 0.  0.
         11    1    3    3    0    0  0.48274593184E+02  0.35052758740E+02  0.44281309220E+01  0.59822575890E+02  0.51100000000E-03 0.  1.
         22    1    1    0    0    0 -0.17025224361E+02 -0.28227230173E+02 -0.38282574959E+01  0.33185694859E+02  0.00000000000E+00 0.  1.
</event>
<event>
 5    1  0.8962782E-005  0.9118800E+02  0.7818608E-02  0.1130116E+00
         25   -1    0    0    0    0  0.00000000000E+00  0.00000000000E+00  0.99999998245E-14  0.12500000000E+03  0.12500000000E+03 0.  0.
        -11    1    3    3    0    0  0.25709029706E+02 -0.24147411153E+01 -0.35124821862E+02  0.43595163656E+02  0.51100000000E-03 0.  1.
         23    2    1    0    0    0  0.10327910655E+02  0.26995598576E+02  0.49992065282E+01  0.95667080833E+02  0.91059157739E+02 0.  0.
         11    1    3    3    0    0 -0.15381119052E+02  0.29410339691E+02  0.40124028390E+02  0.52071917177E+02  0.51100000000E-03 0. -1.
         22    1    1    0    0    0 -0.10327910655E+02 -0.26995598576E+02 -0.49992065282E+01  0.29332919167E+02  0.00000000000E+00 0. -1.
</event>
<event>
 5    1  0.8962782E-005  0.9118800E+02  0.7818608E-02  0.1130116E+00
         25   -1    0    0    0    0  0.00000000000E+00  0.00000000000E+00  0.99999998245E-14  0.12500000000E+03  0.12500000000E+03 0.  0.
        -11    1    3    3    0    0  0.29526466282E+02  0.21777647481E+02  0.43956846133E+01  0.36951321822E+02  0.51100000000E-03 0.  1.
         23    2    1    0    0    0 -0.23349362123E+02 -0.28996555333E+01 -0.13358720733E+02  0.97943464128E+02  0.94132173204E+02 0.  0.
         11    1    3    3    0    0 -0.52875828405E+02 -0.24677303014E+02 -0.17754405346E+02  0.60992142306E+02  0.51100000000E-03 0. -1.
         22    1    1    0    0    0  0.23349362123E+02  0.28996555333E+01  0.13358720733E+02  0.27056535872E+02  0.00000000000E+00 0. -1.
</event>
<event>
 5    1  0.8962782E-005  0.9118800E+02  0.7818608E-02  0.1130116E+00
         25   -1    0    0    0    0  0.00000000000E+00  0.00000000000E+00  0.99999998245E-14  0.12500000000E+03  0.12500000000E+03 0.  0.
        -11    1    3    3    0    0  0.38156585110E+02 -0.16651645749E+02 -0.14162677625E+02  0.43974807915E+02  0.51100000000E-03 0.  1.
         23    2    1    0    0    0  0.12085087904E+02 -0.56029993316E+01  0.27554684666E+02  0.94394386165E+02  0.89294997292E+02 0.  0.
         11    1    3    3    0    0 -0.26071497206E+02  0.11048646417E+02  0.41717362291E+02  0.50419578251E+02  0.51100000000E-03 0. -1.
         22    1    1    0    0    0 -0.12085087904E+02  0.56029993316E+01 -0.27554684666E+02  0.30605613835E+02  0.00000000000E+00 0. -1.
</event>
<event>
 5    1  0.8962782E-005  0.9118800E+02  0.7818608E-02  0.1130116E+00
         25   -1    0    0    0    0  0.00000000000E+00  0.00000000000E+00  0.99999998245E-14  0.12500000000E+03  0.12500000000E+03 0.  0.
        -11    1    3    3    0    0 -0.85365756181E+01  0.55130966299E+02 -0.19133448088E+02  0.58977838247E+02  0.51100000000E-03 0. -1.
         23    2    1    0    0    0  0.10721996558E+02  0.26049780522E+02 -0.63776214184E+01  0.96117023520E+02  0.91674728687E+02 0.  0.
         11    1    3    3    0    0  0.19258572176E+02 -0.29081185777E+02  0.12755826669E+02  0.37139185273E+02  0.51100000000E-03 0.  1.
         22    1    1    0    0    0 -0.10721996558E+02 -0.26049780522E+02  0.63776214184E+01  0.28882976480E+02  0.00000000000E+00 0. -1.
</event>
<event>
 5    1  0.8962782E-005  0.9118800E+02  0.7818608E-02  0.1130116E+00
         25   -1    0    0    0    0  0.00000000000E+00  0.00000000000E+00  0.99999998245E-14  0.12500000000E+03  0.12500000000E+03 0.  0.
        -11    1    3    3    0    0 -0.43816893650E+02  0.17972700671E+02 -0.22357318734E+02  0.52371632014E+02  0.51100000000E-03 0. -1.
         23    2    1    0    0    0 -0.17223680951E+02 -0.17465804198E+02 -0.11036472964E+02  0.98101798624E+02  0.94342194462E+02 0.  0.
         11    1    3    3    0    0  0.26593212699E+02 -0.35438504869E+02  0.11320845770E+02  0.45730166610E+02  0.51100000000E-03 0.  1.
         22    1    1    0    0    0  0.17223680951E+02  0.17465804198E+02  0.11036472964E+02  0.26898201376E+02  0.00000000000E+00 0. -1.
</event>
<event>
 5    1  0.8962782E-005  0.9118800E+02  0.7818608E-02  0.1130116E+00
         25   -1    0    0    0    0  0.00000000000E+00  0.00000000000E+00  0.99999998245E-14  0.12500000000E+03  0.12500000000E+03 0.  0.
        -11    1    3    3    0    0  0.81931147633E+00 -0.56371264219E+01 -0.49677080952E+02  0.50002608309E+02  0.51100000000E-03 0. -1.
         23    2    1    0    0    0  0.14823832738E+02 -0.23174403221E+02 -0.97344147746E+01  0.95818536488E+02  0.91266829254E+02 0.  0.
         11    1    3    3    0    0  0.14004521261E+02 -0.17537276799E+02  0.39942666177E+02  0.45815928179E+02  0.51100000000E-03 0.  1.
         22    1    1    0    0    0 -0.14823832738E+02  0.23174403221E+02  0.97344147746E+01  0.29181463512E+02  0.00000000000E+00 0. -1.
</event>
<event>
 5    1  0.8962782E-005  0.9118800E+02  0.7818608E-02  0.1130116E+00
         25   -1    0    0    0    0  0.00000000000E+00  0.00000000000E+00  0.99999998245E-14  0.12500000000E+03  0.12500000000E+03 0.  0.
        -11    1    3    3    0    0 -0.13922794076E+02 -0.38697192045E+02  0.67581907753E+01  0.41677212118E+02  0.51100000000E-03 0.  1.
         23    2    1    0    0    0 -0.22071689948E+02  0.15396213523E+02  0.95306019182E+01  0.96451177591E+02  0.92129226621E+02 0.  0.
         11    1    3    3    0    0 -0.81488958712E+01  0.54093405568E+02  0.27724111430E+01  0.54773965474E+02  0.51100000000E-03 0. -1.
         22    1    1    0    0    0  0.22071689948E+02 -0.15396213523E+02 -0.95306019182E+01  0.28548822409E+02  0.00000000000E+00 0. -1.
</event>
<event>
 5    1  0.8962782E-005  0.9118800E+02  0.7818608E-02  0.1130116E+00
         25   -1    0    0    0    0  0.00000000000E+00  0.00000000000E+00  0.99999998245E-14  0.12500000000E+03  0.12500000000E+03 0.  0.
        -11    1    3    3    0    0  0.31442354856E+02 -0.53191438647E+02  0.52258119930E+01  0.62010159938E+02  0.51100000000E-03 0.  1.
         23    2    1    0    0    0  0.11767517080E+02 -0.28848101200E+02 -0.55285009047E+00  0.93839238708E+02  0.88514460270E+02 0.  0.
         11    1    3    3    0    0 -0.19674837776E+02  0.24343337447E+02 -0.57786620835E+01  0.31829078770E+02  0.51100000000E-03 0. -1.
         22    1    1    0    0    0 -0.11767517080E+02  0.28848101200E+02  0.55285009047E+00  0.31160761292E+02  0.00000000000E+00 0.  1.
</event>
<event>
 5    1  0.8962782E-005  0.9118800E+02  0.7818608E-02  0.1130116E+00
         25   -1    0    0    0    0  0.00000000000E+00  0.00000000000E+00  0.99999998245E-14  0.12500000000E+03  0.12500000000E+03 0.  0.
        -11    1    3    3    0    0 -0.18914122108E+02  0.29685300316E+02  0.72251584927E+01  0.35932770357E+02  0.51100000000E-03 0. -1.
         23    2    1    0    0    0  0.24836477257E+02 -0.12133813890E+02 -0.25547633829E+01  0.97240193480E+02  0.93193606916E+02 0.  0.
         11    1    3    3    0    0  0.43750599365E+02 -0.41819114207E+02 -0.97799218756E+01  0.61307423123E+02  0.51100000000E-03 0.  1.
         22    1    1    0    0    0 -0.24836477257E+02  0.12133813890E+02  0.25547633829E+01  0.27759806520E+02  0.00000000000E+00 0.  1.
</event>
<event>
 5    1  0.8962782E-005  0.9118800E+02  0.7818608E-02  0.1130116E+00
         25   -1    0    0    0    0  0.00000000000E+00  0.00000000000E+00  0.99999998245E-14  0.12500000000E+03  0.12500000000E+03 0.  0.
        -11    1    3    3    0    0  0.19141056538E+02 -0.11815329069E+02  0.29172663572E+02  0.36837838516E+02  0.51100000000E-03 0.  1.
         23    2    1    0    0    0 -0.18933359732E+02 -0.22643467302E+02 -0.11248405493E+02  0.93413209275E+02  0.87910763383E+02 0.  0.
         11    1    3    3    0    0 -0.38074416270E+02 -0.10828138234E+02 -0.40421069065E+02  0.56575370759E+02  0.51100000000E-03 0. -1.
         22    1    1    0    0    0  0.18933359732E+02  0.22643467302E+02  0.11248405493E+02  0.31586790725E+02  0.00000000000E+00 0. -1.
</event>
<event>
 5    1  0.8962782E-005  0.9118800E+02  0.7818608E-02  0.1130116E+00
         25   -1    0    0    0    0  0.00000000000E+00  0.00000000000E+00  0.99999998245E-14  0.12500000000E+03  0.12500000000E+03 0.  0.
        -11    1    3    3    0    0  0.10077208139E+02  0.20450348301E+02  0.50470627890E+02  0.55380963782E+02  0.51100000000E-03 0.  1.
         23    2    1    0    0    0 -0.15726420474E+02  0.38617319601E+01  0.24801813476E+02  0.95379682204E+02  0.90663777502E+02 0.  0.
         11    1    3    3    0    0 -0.25803628613E+02 -0.16588616341E+02 -0.25668814414E+02  0.39998718422E+02  0.51100000000E-03 0. -1.
         22    1    1    0    0    0  0.15726420474E+02 -0.38617319601E+01 -0.24801813476E+02  0.29620317796E+02  0.00000000000E+00 0.  1.
</event>
<event>
 5    1  0.8962782E-005  0.9118800E+02  0.7818608E-02  0.1130116E+00
         25   -1    0    0    0    0  0.00000000000E+00  0.00000000000E+00  0.99999998245E-14  0.12500000000E+03  0.12500000000E+03 0.  0.
        -11    1    3    3    0    0 -0.89064841076E+01 -0.17332740486E+02  0.38070351908E+02  0.42767990911E+02  0.51100000000E-03 0. -1.
         23    2    1    0    0    0 -0.27506651933E+02  0.10884068900E+02 -0.21954722673E+01  0.95336909216E+02  0.90604786320E+02 0.  0.
         11    1    3    3    0    0 -0.18600167825E+02  0.28216809386E+02 -0.40265824175E+02  0.52568918305E+02  0.51100000000E-03 0.  1.
         22    1    1    0    0    0  0.27506651933E+02 -0.10884068900E+02  0.21954722673E+01  0.29663090784E+02  0.00000000000E+00 0. -1.
</event>
<event>
 5    1  0.8962782E-005  0.9118800E+02  0.7818608E-02  0.1130116E+00
         25   -1    0    0    0    0  0.00000000000E+00  0.00000000000E+00  0.99999998245E-14  0.12500000000E+03  0.12500000000E+03 0.  0.
        -11    1    3    3    0    0  0.26322609710E+02  0.43268759023E+02 -0.83311020409E+01  0.51327113213E+02  0.51100000000E-03 0. -1.
         23    2    1    0    0    0 -0.13549033815E+02  0.26484491101E+02 -0.60117793411E+01  0.94649611584E+02  0.89651563823E+02 0.  0.
         11    1    3    3    0    0 -0.39871643524E+02 -0.16784267923E+02  0.23193226998E+01  0.43322498371E+02  0.51100000000E-03 0.  1.
         22    1    1    0    0    0  0.13549033815E+02 -0.26484491101E+02  0.60117793411E+01  0.30350388416E+02  0.00000000000E+00 0. -1.
</event>
<event>
 5    1  0.8962782E-005  0.9118800E+02  0.7818608E-02  0.1130116E+00
         25   -1    0    0    0    0  0.00000000000E+00  0.00000000000E+00  0.99999998245E-14  0.12500000000E+03  0.12500000000E+03 0.  0.
        -11    1    3    3    0    0 -0.49937785498E+01 -0.57520038903E+02  0.20520088883E+02  0.61274519563E+02  0.51100000000E-03 0.  1.
         23    2    1    0    0    0 -0.11125959962E+02 -0.27663955856E+02  0.90705300310E+01  0.93833416072E+02  0.88506237170E+02 0.  0.
         11    1    3    3    0    0 -0.61321814117E+01  0.29856083047E+02 -0.11449558852E+02  0.32558896510E+02  0.51100000000E-03 0. -1.
         22    1    1    0    0    0  0.11125959962E+02  0.27663955856E+02 -0.90705300310E+01  0.31166583928E+02  0.00000000000E+00 0.  1.
</event>
<event>
 5    1  0.8962782E-005  0.9118800E+02  0.7818608E-02  0.1130116E+00
         25   -1    0    0    0    0  0.00000000000E+00  0.00000000000E+00  0.99999998245E-14  0.12500000000E+03  0.12500000000E+03 0.  0.
        -11    1    3    3    0    0  0.12587145226E+02  0.23689153997E+02 -0.30549190327E+02  0.40655445785E+02  0.51100000000E-03 0. -1.
         23    2    1    0    0    0 -0.25418155959E+02 -0.10492387048E+02 -0.11081183747E+02  0.95352648152E+02  0.90626497439E+02 0.  0.
         11    1    3    3    0    0 -0.38005301186E+02 -0.34181541045E+02  0.19468006580E+02  0.54697202368E+02  0.51100000000E-03 0.  1.
         22    1    1    0    0    0  0.25418155959E+02  0.10492387048E+02  0.11081183747E+02  0.29647351848E+02  0.00000000000E+00 0.  1.
</event>
<event>
 4    1  0.8962782E-005  0.9118800E+02  0.7818608E-02  0.1130116E+00
         25   -1    0    0    0    0  0.00000000000E+00  0.00000000000E+00  0.99999998245E-14  0.12500000000E+03  0.12500000000E+03 0.  0.
        -11    1    1    0    0    0 -0.20551182428E+02  0.57841402262E+01  0.30146514494E+01  0.21561435503E+02  0.51100000000E-03 0. -1.
         11    1    1    0    0    0 -0.87686540964E+01 -0.41539114391E+02  0.25103465849E+02  0.49321104174E+02  0.51100000000E-03 0.  1.
         22    1    1    0    0    0  0.29319836524E+02  0.35754974165E+02 -0.28118117298E+02  0.54117460322E+02  0.00000000000E+00 0.  1.
</event>
<event>
 5    1  0.8962782E-005  0.9118800E+02  0.7818608E-02  0.1130116E+00
         25   -1    0    0    0    0  0.00000000000E+00  0.00000000000E+00  0.99999998245E-14  0.12500000000E+03  0.12500000000E+03 0.  0.
        -11    1    3    3    0    0 -0.28822997418E+02 -0.43097966256E+01 -0.45413074100E+02  0.53960048430E+02  0.51100000000E-03 0.  1.
         23    2    1    0    0    0 -0.18291052840E+02 -0.22491327981E+02 -0.11588450949E+02  0.93779579699E+02  0.88430169766E+02 0.  0.
         11    1    3    3    0    0  0.10531944578E+02 -0.18181531355E+02  0.33824623150E+02  0.39819531269E+02  0.51100000000E-03 0. -1.
         22    1    1    0    0    0  0.18291052840E+02  0.22491327981E+02  0.11588450949E+02  0.31220420301E+02  0.00000000000E+00 0.  1.
</event>
<event>
 5    1  0.8962782E-005  0.9118800E+02  0.7818608E-02  0.1130116E+00
         25   -1    0    0    0    0  0.00000000000E+00  0.00000000000E+00  0.99999998245E-14  0.12500000000E+03  0.12500000000E+03 0.  0.
        -11    1    3    3    0    0  0.23883142955E+02  0.20019841469E+01  0.57483417003E+02  0.62279657100E+02  0.51100000000E-03 0.  1.
         23    2    1    0    0    0  0.11415043186E+02 -0.27582847764E+01  0.26749872755E+02  0.95785841819E+02  0.91222039303E+02 0.  0.
         11    1    3    3    0    0 -0.12468099769E+02 -0.47602689233E+01 -0.30733544248E+02  0.33506184718E+02  0.51100000000E-03 0. -1.
         22    1    1    0    0    0 -0.11415043186E+02  0.27582847764E+01 -0.26749872755E+02  0.29214158181E+02  0.00000000000E+00 0.  1.
</event>
<event>
 5    1  0.8962782E-005  0.9118800E+02  0.7818608E-02  0.1130116E+00
         25   -1    0    0    0    0  0.00000000000E+00  0.00000000000E+00  0.99999998245E-14  0.12500000000E+03  0.12500000000E+03 0.  0.
        -11    1    3    3    0    0  0.15084596426E+02 -0.31711387372E+02 -0.14755141091E+02  0.38090304899E+02  0.51100000000E-03 0.  1.
         23    2    1    0    0    0 -0.25406237791E+02 -0.28812936541E+00  0.13088951851E+02  0.96418876898E+02  0.92085390939E+02 0.  0.
         11    1    3    3    0    0 -0.40490834217E+02  0.31423258007E+02  0.27844092942E+02  0.58328571999E+02  0.51100000000E-03 0. -1.
         22    1    1    0    0    0  0.25406237791E+02  0.28812936541E+00 -0.13088951851E+02  0.28581123102E+02  0.00000000000E+00 0. -1.
</event>
<event>
 5    1  0.8962782E-005  0.9118800E+02  0.7818608E-02  0.1130116E+00
         25   -1    0    0    0    0  0.00000000000E+00  0.00000000000E+00  0.99999998245E-14  0.12500000000E+03  0.12500000000E+03 0.  0.
        -11    1    3    3    0    0 -0.15622411502E+02  0.19222951029E+00 -0.29901777164E+02  0.33737412040E+02  0.51100000000E-03 0. -1.
         23    2    1    0    0    0 -0.10736475331E+00 -0.16942744675E+02  0.25850558409E+02  0.94091756854E+02  0.88870350587E+02 0.  0.
         11    1    3    3    0    0  0.15515046748E+02 -0.17134974186E+02  0.55752335573E+02  0.60354344815E+02  0.51100000000E-03 0.  1.
         22    1    1    0    0    0  0.10736475331E+00  0.16942744675E+02 -0.25850558409E+02  0.30908243146E+02  0.00000000000E+00 0.  1.
</event>
<event>
 5    1  0.8962782E-005  0.9118800E+02  0.7818608E-02  0.1130116E+00
         25   -1    0    0    0    0  0.00000000000E+00  0.00000000000E+00  0.99999998245E-14  0.12500000000E+03  0.12500000000E+03 0.  0.
        -11    1    3    3    0    0 -0.32885815055E+00 -0.26879315116E+01  0.45298904652E+02  0.45379773979E+02  0.51100000000E-03 0.  1.
         23    2    1    0    0    0  0.19796446692E+02 -0.21633900684E+02  0.35328963250E+01  0.95463474868E+02  0.90779230648E+02 0.  0.
         11    1    3    3    0    0  0.20125304842E+02 -0.18945969173E+02 -0.41766008327E+02  0.50083700889E+02  0.51100000000E-03 0. -1.
         22    1    1    0    0    0 -0.19796446692E+02  0.21633900684E+02 -0.35328963250E+01  0.29536525132E+02  0.00000000000E+00 0.  1.
</event>
<event>
 5    1  0.8962782E-005  0.9118800E+02  0.7818608E-02  0.1130116E+00
         25   -1    0    0    0    0  0.00000000000E+00  0.00000000000E+00  0.99999998245E-14  0.12500000000E+03  0.12500000000E+03 0.  0.
        -11    1    3    3    0    0 -0.26106929323E+02 -0.17250467761E+02  0.19482532614E+02  0.36860812172E+02  0.51100000000E-03 0.  1.
         23    2    1    0    0    0  0.26990172411E+02 -0.77215209212E+01 -0.56350213783E+01  0.96367068644E+02  0.92015037689E+02 0.  0.
         11    1    3    3    0    0  0.53097101734E+02  0.95289468397E+01 -0.25117553992E+02  0.59506256472E+02  0.51100000000E-03 0. -1.
         22    1    1    0    0    0 -0.26990172411E+02  0.77215209212E+01  0.56350213783E+01  0.28632931356E+02  0.00000000000E+00 0. -1.
</event>
<event>
 5    1  0.8962782E-005  0.9118800E+02  0.7818608E-02  0.1130116E+00
         25   -1    0    0    0    0  0.00000000000E+00  0.00000000000E+00  0.99999998245E-14  0.12500000000E+03  0.12500000000E+03 0.  0.
        -11    1    3    3    0    0 -0.34799851236E+02 -0.42340907123E+02  0.20279384335E+02  0.58438305001E+02  0.51100000000E-03 0.  1.
         23    2    1    0    0    0 -0.18922733598E+02 -0.81965282451E+00  0.57433190175E+01  0.10520789574E+03  0.10332944370E+03 0.  0.
         11    1    3    3    0    0  0.15877117638E+02  0.41521254299E+02 -0.14536065317E+02  0.46769590742E+02  0.51100000000E-03 0. -1.
         22    1    1    0    0    0  0.18922733598E+02  0.81965282451E+00 -0.57433190175E+01  0.19792104257E+02  0.00000000000E+00 0.  1.
</event>
<event>
 5    1  0.8962782E-005  0.9118800E+02  0.7818608E-02  0.1130116E+00
         25   -1    0    0    0    0  0.00000000000E+00  0.00000000000E+00  0.99999998245E-14  0.12500000000E+03  0.12500000000E+03 0.  0.
        -11    1    3    3    0    0 -0.13767248490E+02  0.12834362351E+02  0.47177130044E+02  0.50793105707E+02  0.51100000000E-03 0.  1.
         23    2    1    0    0    0 -0.27457248586E+02  0.65409220686E+01  0.40390029951E+01  0.96486885358E+02  0.92177661825E+02 0.  0.
         11    1    3    3    0    0 -0.13690000096E+02 -0.62934402825E+01 -0.43138127049E+02  0.45693779651E+02  0.51100000000E-03 0. -1.
         22    1    1    0    0    0  0.27457248586E+02 -0.65409220686E+01 -0.40390029951E+01  0.28513114642E+02  0.00000000000E+00 0.  1.
</event>
<event>
 5    1  0.8962782E-005  0.9118800E+02  0.7818608E-02  0.1130116E+00
         25   -1    0    0    0    0  0.00000000000E+00  0.00000000000E+00  0.99999998245E-14  0.12500000000E+03  0.12500000000E+03 0.  0.
        -11    1    3    3    0    0 -0.35114075527E+02  0.25062520434E+02 -0.18215477136E+02  0.46828750124E+02  0.51100000000E-03 0.  1.
         23    2    1    0    0    0  0.13652878426E+02  0.22857563299E+02 -0.11070157220E+02  0.96165685890E+02  0.91741056635E+02 0.  0.
         11    1    3    3    0    0  0.48766953953E+02 -0.22049571347E+01  0.71453199166E+01  0.49336935766E+02  0.51100000000E-03 0. -1.
         22    1    1    0    0    0 -0.13652878426E+02 -0.22857563299E+02  0.11070157220E+02  0.28834314110E+02  0.00000000000E+00 0. -1.
</event>
<event>
 5    1  0.8962782E-005  0.9118800E+02  0.7818608E-02  0.1130116E+00
         25   -1    0    0    0    0  0.00000000000E+00  0.00000000000E+00  0.99999998245E-14  0.12500000000E+03  0.12500000000E+03 0.  0.
        -11    1    3    3    0    0  0.23024593676E+02 -0.55263051056E+02 -0.86569402397E+01  0.60490324354E+02  0.51100000000E-03 0. -1.
         23    2    1    0    0    0  0.90609488769E+01 -0.23372934188E+02 -0.14869944288E+02  0.95853643620E+02  0.91314899687E+02 0.  0.
         11    1    3    3    0    0 -0.13963644799E+02  0.31890116867E+02 -0.62130040485E+01  0.35363319265E+02  0.51100000000E-03 0.  1.
         22    1    1    0    0    0 -0.90609488769E+01  0.23372934188E+02  0.14869944288E+02  0.29146356380E+02  0.00000000000E+00 0. -1.
</event>
<event>
 5    1  0.8962782E-005  0.9118800E+02  0.7818608E-02  0.1130116E+00
         25   -1    0    0    0    0  0.00000000000E+00  0.00000000000E+00  0.99999998245E-14  0.12500000000E+03  0.12500000000E+03 0.  0.
        -11    1    3    3    0    0  0.10965414475E+02  0.10835249076E+02 -0.38646329866E+02  0.41607472280E+02  0.51100000000E-03 0.  1.
         23    2    1    0    0    0 -0.21836435067E+02  0.10538389760E+02  0.87283011761E+01  0.99230428863E+02  0.95825921419E+02 0.  0.
         11    1    3    3    0    0 -0.32801849542E+02 -0.29685931650E+00  0.47374631042E+02  0.57622956584E+02  0.51100000000E-03 0. -1.
         22    1    1    0    0    0  0.21836435067E+02 -0.10538389760E+02 -0.87283011761E+01  0.25769571137E+02  0.00000000000E+00 0. -1.
</event>
<event>
 5    1  0.8962782E-005  0.9118800E+02  0.7818608E-02  0.1130116E+00
         25   -1    0    0    0    0  0.00000000000E+00  0.00000000000E+00  0.99999998245E-14  0.12500000000E+03  0.12500000000E+03 0.  0.
        -11    1    3    3    0    0 -0.18857172626E+02  0.29908497944E+02 -0.44723130975E+02  0.57011136221E+02  0.51100000000E-03 0.  1.
         23    2    1    0    0    0 -0.17085614088E+02  0.62641966535E+00 -0.31435754369E+02  0.89215684119E+02  0.81724665981E+02 0.  0.
         11    1    3    3    0    0  0.17715585379E+01 -0.29282078279E+02  0.13287376606E+02  0.32204547898E+02  0.51100000000E-03 0. -1.
         22    1    1    0    0    0  0.17085614088E+02 -0.62641966535E+00  0.31435754369E+02  0.35784315881E+02  0.00000000000E+00 0.  1.
</event>
<event>
 5    1  0.8962782E-005  0.9118800E+02  0.7818608E-02  0.1130116E+00
         25   -1    0    0    0    0  0.00000000000E+00  0.00000000000E+00  0.99999998245E-14  0.12500000000E+03  0.12500000000E+03 0.  0.
        -11    1    3    3    0    0 -0.36718399822E+02  0.77325353041E+00 -0.12662233751E+01  0.36748362255E+02  0.51100000000E-03 0. -1.
         23    2    1    0    0    0  0.10433583979E+02  0.28384331590E+02 -0.12054902170E+02  0.92444652962E+02  0.86522616930E+02 0.  0.
         11    1    3    3    0    0  0.47151983802E+02  0.27611078060E+02 -0.10788678795E+02  0.55696290706E+02  0.51100000000E-03 0.  1.
         22    1    1    0    0    0 -0.10433583979E+02 -0.28384331590E+02  0.12054902170E+02  0.32555347038E+02  0.00000000000E+00 0.  1.
</event>
<event>
 5    1  0.8962782E-005  0.9118800E+02  0.7818608E-02  0.1130116E+00
         25   -1    0    0    0    0  0.00000000000E+00  0.00000000000E+00  0.99999998245E-14  0.12500000000E+03  0.12500000000E+03 0.  0.
        -11    1    3    3    0    0 -0.75386873419E+01  0.43717743272E+01  0.35462509711E+02  0.36517582243E+02  0.51100000000E-03 0. -1.
         23    2    1    0    0    0  0.14672034640E+02  0.18151170905E+02 -0.17666592967E+02  0.95728134450E+02  0.91142929580E+02 0.  0.
         11    1    3    3    0    0  0.22210721982E+02  0.13779396578E+02 -0.53129102678E+02  0.59210552207E+02  0.51100000000E-03 0.  1.
         22    1    1    0    0    0 -0.14672034640E+02 -0.18151170905E+02  0.17666592967E+02  0.29271865550E+02  0.00000000000E+00 0.  1.
</event>
<event>
 5    1  0.8962782E-005  0.9118800E+02  0.7818608E-02  0.1130116E+00
         25   -1    0    0    0    0  0.00000000000E+00  0.00000000000E+00  0.99999998245E-14  0.12500000000E+03  0.12500000000E+03 0.  0.
        -11    1    3    3    0    0 -0.32260535341E+02 -0.16331109616E+02 -0.48738757182E+02  0.60687014539E+02  0.51100000000E-03 0. -1.
         23    2    1    0    0    0 -0.68963976326E+01 -0.42879446406E+01 -0.28676006288E+02  0.95196307172E+02  0.90410601110E+02 0.  0.
         11    1    3    3    0    0  0.25364137708E+02  0.12043164975E+02  0.20062750894E+02  0.34509292633E+02  0.51100000000E-03 0.  1.
         22    1    1    0    0    0  0.68963976326E+01  0.42879446406E+01  0.28676006288E+02  0.29803692828E+02  0.00000000000E+00 0. -1.
</event>
<event>
 5    1  0.8962782E-005  0.9118800E+02  0.7818608E-02  0.1130116E+00
         25   -1    0    0    0    0  0.00000000000E+00  0.00000000000E+00  0.99999998245E-14  0.12500000000E+03  0.12500000000E+03 0.  0.
        -11    1    3    3    0    0 -0.49173552285E+02  0.20329777767E+02 -0.28489727174E+01  0.53286534455E+02  0.51100000000E-03 0. -1.
         23    2    1    0    0    0 -0.57273458200E+01  0.24319950000E+02 -0.11051088493E+02  0.97679878935E+02  0.93781499955E+02 0.  0.
         11    1    3    3    0    0  0.43446206465E+02  0.39901722332E+01 -0.82021157754E+01  0.44393344480E+02  0.51100000000E-03 0.  1.
         22    1    1    0    0    0  0.57273458200E+01 -0.24319950000E+02  0.11051088493E+02  0.27320121065E+02  0.00000000000E+00 0. -1.
</event>
<event>
 5    1  0.8962782E-005  0.9118800E+02  0.7818608E-02  0.1130116E+00
         25   -1    0    0    0    0  0.00000000000E+00  0.00000000000E+00  0.99999998245E-14  0.12500000000E+03  0.12500000000E+03 0.  0.
        -11    1    3    3    0    0  0.82489664129E+01 -0.33155529883E+02  0.43645719505E+01  0.34443926856E+02  0.51100000000E-03 0.  1.
         23    2    1    0    0    0 -0.20425349987E+02  0.20207315401E+02 -0.52830170736E+01  0.95786291108E+02  0.91222654955E+02 0.  0.
         11    1    3    3    0    0 -0.28674316400E+02  0.53362845284E+02 -0.96475890241E+01  0.61342364252E+02  0.51100000000E-03 0. -1.
         22    1    1    0    0    0  0.20425349987E+02 -0.20207315401E+02  0.52830170736E+01  0.29213708892E+02  0.00000000000E+00 0. -1.
</event>
<event>
 5    1  0.8962782E-005  0.9118800E+02  0.7818608E-02  0.1130116E+00
         25   -1    0    0    0    0  0.00000000000E+00  0.00000000000E+00  0.99999998245E-14  0.12500000000E+03  0.12500000000E+03 0.  0.
        -11    1    3    3    0    0  0.13136820228E+02 -0.36760020053E+02 -0.28844237235E+02  0.48537255196E+02  0.51100000000E-03 0.  1.
         23    2    1    0    0    0 -0.17298078986E+01  0.11320141367E+02 -0.23134680059E+02  0.99186219623E+02  0.95768235369E+02 0.  0.
         11    1    3    3    0    0 -0.14866628126E+02  0.48080161421E+02  0.57095571769E+01  0.50648964427E+02  0.51100000000E-03 0. -1.
         22    1    1    0    0    0  0.17298078986E+01 -0.11320141367E+02  0.23134680059E+02  0.25813780377E+02  0.00000000000E+00 0. -1.
</event>
<event>
 5    1  0.8962782E-005  0.9118800E+02  0.7818608E-02  0.1130116E+00
         25   -1    0    0    0    0  0.00000000000E+00  0.00000000000E+00  0.99999998245E-14  0.12500000000E+03  0.12500000000E+03 0.  0.
        -11    1    3    3    0    0  0.38830456166E+02  0.25554750582E+02 -0.11577717628E+02  0.47905043045E+02  0.51100000000E-03 0. -1.
         23    2    1    0    0    0 -0.52223795408E+01  0.15853435289E+02 -0.24974871465E+02  0.94960877788E+02  0.90084512804E+02 0.  0.
         11    1    3    3    0    0 -0.44052835707E+02 -0.97013152930E+01 -0.13397153837E+02  0.47055834744E+02  0.51100000000E-03 0.  1.
         22    1    1    0    0    0  0.52223795408E+01 -0.15853435289E+02  0.24974871465E+02  0.30039122212E+02  0.00000000000E+00 0. -1.
</event>
<event>
 5    1  0.8962782E-005  0.9118800E+02  0.7818608E-02  0.1130116E+00
         25   -1    0    0    0    0  0.00000000000E+00  0.00000000000E+00  0.99999998245E-14  0.12500000000E+03  0.12500000000E+03 0.  0.
        -11    1    3    3    0    0  0.17818829758E+02  0.12773011423E+02  0.22549146536E+02  0.31450350149E+02  0.51100000000E-03 0.  1.
         23    2    1    0    0    0 -0.19157032307E+02  0.11272375765E+02 -0.24898810300E+02  0.91623225193E+02  0.85327640880E+02 0.  0.
         11    1    3    3    0    0 -0.36975862065E+02 -0.15006356582E+01 -0.47447956835E+02  0.60172875043E+02  0.51100000000E-03 0. -1.
         22    1    1    0    0    0  0.19157032307E+02 -0.11272375765E+02  0.24898810300E+02  0.33376774807E+02  0.00000000000E+00 0. -1.
</event>
<event>
 5    1  0.8962782E-005  0.9118800E+02  0.7818608E-02  0.1130116E+00
         25   -1    0    0    0    0  0.00000000000E+00  0.00000000000E+00  0.99999998245E-14  0.12500000000E+03  0.12500000000E+03 0.  0.
        -11    1    3    3    0    0  0.25757513234E+02 -0.20289992275E+02  0.55097846679E+01  0.33248924823E+02  0.51100000000E-03 0. -1.
         23    2    1    0    0    0 -0.21926444815E+02  0.13174712537E+02 -0.15398897084E+02  0.95142537548E+02  0.90336229649E+02 0.  0.
         11    1    3    3    0    0 -0.47683958049E+02  0.33464704812E+02 -0.20908681752E+02  0.61893612726E+02  0.51100000000E-03 0.  1.
         22    1    1    0    0    0  0.21926444815E+02 -0.13174712537E+02  0.15398897084E+02  0.29857462452E+02  0.00000000000E+00 0.  1.
</event>
<event>
 5    1  0.8962782E-005  0.9118800E+02  0.7818608E-02  0.1130116E+00
         25   -1    0    0    0    0  0.00000000000E+00  0.00000000000E+00  0.99999998245E-14  0.12500000000E+03  0.12500000000E+03 0.  0.
        -11    1    3    3    0    0  0.39762813776E+02 -0.98928565691E+00  0.18119707814E+02  0.43707938147E+02  0.51100000000E-03 0.  1.
         23    2    1    0    0    0 -0.27170988516E+01 -0.24479166890E+02  0.21416106329E+02  0.92361650653E+02  0.86402619539E+02 0.  0.
         11    1    3    3    0    0 -0.42479912628E+02 -0.23489881233E+02  0.32963985147E+01  0.48653712506E+02  0.51100000000E-03 0. -1.
         22    1    1    0    0    0  0.27170988516E+01  0.24479166890E+02 -0.21416106329E+02  0.32638349347E+02  0.00000000000E+00 0.  1.
</event>
<event>
 5    1  0.8962782E-005  0.9118800E+02  0.7818608E-02  0.1130116E+00
         25   -1    0    0    0    0  0.00000000000E+00  0.00000000000E+00  0.99999998245E-14  0.12500000000E+03  0.12500000000E+03 0.  0.
        -11    1    3    3    0    0 -0.24482719435E+02 -0.14486674539E+02  0.34256635261E+02  0.44528466735E+02  0.51100000000E-03 0.  1.
         23    2    1    0    0    0  0.10601143685E+02  0.20104850497E+02  0.16556053861E+02  0.96880750715E+02  0.92710235026E+02 0.  0.
         11    1    3    3    0    0  0.35083863120E+02  0.34591525036E+02 -0.17700581400E+02  0.52352283980E+02  0.51100000000E-03 0. -1.
         22    1    1    0    0    0 -0.10601143685E+02 -0.20104850497E+02 -0.16556053861E+02  0.28119249285E+02  0.00000000000E+00 0. -1.
</event>
<event>
 5    1  0.8962782E-005  0.9118800E+02  0.7818608E-02  0.1130116E+00
         25   -1    0    0    0    0  0.00000000000E+00  0.00000000000E+00  0.99999998245E-14  0.12500000000E+03  0.12500000000E+03 0.  0.
        -11    1    3    3    0    0 -0.28391281600E+02  0.78223510431E+01  0.49046779542E+02  0.57208746101E+02  0.51100000000E-03 0. -1.
         23    2    1    0    0    0  0.81145732724E+00 -0.47846504322E+01  0.30680094283E+02  0.93938455802E+02  0.88654463793E+02 0.  0.
         11    1    3    3    0    0  0.29202738927E+02 -0.12607001475E+02 -0.18366685259E+02  0.36729709701E+02  0.51100000000E-03 0.  1.
         22    1    1    0    0    0 -0.81145732724E+00  0.47846504322E+01 -0.30680094283E+02  0.31061544198E+02  0.00000000000E+00 0. -1.
</event>
<event>
 5    1  0.8962782E-005  0.9118800E+02  0.7818608E-02  0.1130116E+00
         25   -1    0    0    0    0  0.00000000000E+00  0.00000000000E+00  0.99999998245E-14  0.12500000000E+03  0.12500000000E+03 0.  0.
        -11    1    3    3    0    0 -0.10934551625E+02 -0.56721669412E+02 -0.20413773474E+02  0.61266910709E+02  0.51100000000E-03 0.  1.
         23    2    1    0    0    0 -0.91907172175E+01 -0.25545487993E+02 -0.17659989478E+02  0.92613020083E+02  0.86765517464E+02 0.  0.
         11    1    3    3    0    0  0.17438344077E+01  0.31176181419E+02  0.27537839959E+01  0.31346109374E+02  0.51100000000E-03 0. -1.
         22    1    1    0    0    0  0.91907172175E+01  0.25545487993E+02  0.17659989478E+02  0.32386979917E+02  0.00000000000E+00 0.  1.
</event>
<event>
 5    1  0.8962782E-005  0.9118800E+02  0.7818608E-02  0.1130116E+00
         25   -1    0    0    0    0  0.00000000000E+00  0.00000000000E+00  0.99999998245E-14  0.12500000000E+03  0.12500000000E+03 0.  0.
        -11    1    3    3    0    0  0.36229403216E+02 -0.10329204932E+02  0.10013920457E+00  0.37673228692E+02  0.51100000000E-03 0.  1.
         23    2    1    0    0    0 -0.23735139524E+02 -0.13164772055E+02 -0.23662273962E+01  0.97755420657E+02  0.93882134426E+02 0.  0.
         11    1    3    3    0    0 -0.59964542740E+02 -0.28355671236E+01 -0.24663666008E+01  0.60082191966E+02  0.51100000000E-03 0. -1.
         22    1    1    0    0    0  0.23735139524E+02  0.13164772055E+02  0.23662273962E+01  0.27244579343E+02  0.00000000000E+00 0. -1.
</event>
<event>
 5    1  0.8962782E-005  0.9118800E+02  0.7818608E-02  0.1130116E+00
         25   -1    0    0    0    0  0.00000000000E+00  0.00000000000E+00  0.99999998245E-14  0.12500000000E+03  0.12500000000E+03 0.  0.
        -11    1    3    3    0    0 -0.11898035043E+02 -0.50823135396E+02 -0.31611305696E+02  0.61023183935E+02  0.51100000000E-03 0.  1.
         23    2    1    0    0    0  0.28062396966E+01 -0.22918751263E+02 -0.19385679027E+02  0.94851224038E+02  0.89932230093E+02 0.  0.
         11    1    3    3    0    0  0.14704274740E+02  0.27904384134E+02  0.12225626669E+02  0.33828040103E+02  0.51100000000E-03 0. -1.
         22    1    1    0    0    0 -0.28062396966E+01  0.22918751263E+02  0.19385679027E+02  0.30148775962E+02  0.00000000000E+00 0.  1.
</event>
<event>
 5    1  0.8962782E-005  0.9118800E+02  0.7818608E-02  0.1130116E+00
         25   -1    0    0    0    0  0.00000000000E+00  0.00000000000E+00  0.99999998245E-14  0.12500000000E+03  0.12500000000E+03 0.  0.
        -11    1    3    3    0    0  0.31201419017E+01 -0.14247322899E+01 -0.22733011012E+02  0.22990322693E+02  0.51100000000E-03 0. -1.
         23    2    1    0    0    0 -0.43043734379E+02 -0.74766693700E+01  0.10345512268E+02  0.80103527107E+02  0.66339142116E+02 0.  0.
         11    1    3    3    0    0 -0.46163876281E+02 -0.60519370801E+01  0.33078523280E+02  0.57113204413E+02  0.51100000000E-03 0.  1.
         22    1    1    0    0    0  0.43043734379E+02  0.74766693700E+01 -0.10345512268E+02  0.44896472893E+02  0.00000000000E+00 0.  1.
</event>
<event>
 5    1  0.8962782E-005  0.9118800E+02  0.7818608E-02  0.1130116E+00
         25   -1    0    0    0    0  0.00000000000E+00  0.00000000000E+00  0.99999998245E-14  0.12500000000E+03  0.12500000000E+03 0.  0.
        -11    1    3    3    0    0 -0.39570842204E+02  0.40944524393E+02 -0.80169325566E+01  0.57502842003E+02  0.51100000000E-03 0.  1.
         23    2    1    0    0    0 -0.25748690483E+01  0.27525091255E+02 -0.25064398313E+01  0.97241346578E+02  0.93195153546E+02 0.  0.
         11    1    3    3    0    0  0.36995973156E+02 -0.13419433139E+02  0.55104927253E+01  0.39738504575E+02  0.51100000000E-03 0. -1.
         22    1    1    0    0    0  0.25748690483E+01 -0.27525091255E+02  0.25064398313E+01  0.27758653422E+02  0.00000000000E+00 0.  1.
</event>
<event>
 5    1  0.8962782E-005  0.9118800E+02  0.7818608E-02  0.1130116E+00
         25   -1    0    0    0    0  0.00000000000E+00  0.00000000000E+00  0.99999998245E-14  0.12500000000E+03  0.12500000000E+03 0.  0.
        -11    1    3    3    0    0  0.39079907327E+01 -0.22747951551E+02  0.29675489985E+02  0.37594898556E+02  0.51100000000E-03 0. -1.
         23    2    1    0    0    0 -0.16287494422E+02  0.24808627658E+02  0.48054629681E+01  0.94936018974E+02  0.90050012457E+02 0.  0.
         11    1    3    3    0    0 -0.20195485155E+02  0.47556579209E+02 -0.24870027017E+02  0.57341120418E+02  0.51100000000E-03 0.  1.
         22    1    1    0    0    0  0.16287494422E+02 -0.24808627658E+02 -0.48054629681E+01  0.30063981026E+02  0.00000000000E+00 0.  1.
</event>
<event>
 5    1  0.8962782E-005  0.9118800E+02  0.7818608E-02  0.1130116E+00
         25   -1    0    0    0    0  0.00000000000E+00  0.00000000000E+00  0.99999998245E-14  0.12500000000E+03  0.12500000000E+03 0.  0.
        -11    1    3    3    0    0 -0.28190222568E+02  0.55894609139E+01  0.38134568477E+02  0.47751188833E+02  0.51100000000E-03 0.  1.
         23    2    1    0    0    0 -0.13830140774E+02 -0.25558486082E+02  0.48642817486E+01  0.95535271229E+02  0.90878038090E+02 0.  0.
         11    1    3    3    0    0  0.14360081794E+02 -0.31147946996E+02 -0.33270286728E+02  0.47784082396E+02  0.51100000000E-03 0. -1.
         22    1    1    0    0    0  0.13830140774E+02  0.25558486082E+02 -0.48642817486E+01  0.29464728771E+02  0.00000000000E+00 0. -1.
</event>
<event>
 5    1  0.8962782E-005  0.9118800E+02  0.7818608E-02  0.1130116E+00
         25   -1    0    0    0    0  0.00000000000E+00  0.00000000000E+00  0.99999998245E-14  0.12500000000E+03  0.12500000000E+03 0.  0.
        -11    1    3    3    0    0  0.40111396538E+02  0.32033475734E+02 -0.18576775871E+02  0.54590881123E+02  0.51100000000E-03 0.  1.
         23    2    1    0    0    0  0.15874015192E+02 -0.26524122867E+00 -0.24904912310E+02  0.95465116076E+02  0.90781490509E+02 0.  0.
         11    1    3    3    0    0 -0.24237381346E+02 -0.32298716962E+02 -0.63281364394E+01  0.40874234953E+02  0.51100000000E-03 0. -1.
         22    1    1    0    0    0 -0.15874015192E+02  0.26524122867E+00  0.24904912310E+02  0.29534883924E+02  0.00000000000E+00 0.  1.
</event>
<event>
 5    1  0.8962782E-005  0.9118800E+02  0.7818608E-02  0.1130116E+00
         25   -1    0    0    0    0  0.00000000000E+00  0.00000000000E+00  0.99999998245E-14  0.12500000000E+03  0.12500000000E+03 0.  0.
        -11    1    3    3    0    0 -0.18707582108E+02  0.31007036799E+02 -0.44440000009E+02  0.57326464748E+02  0.51100000000E-03 0. -1.
         23    2    1    0    0    0 -0.19038827234E+02 -0.48036423226E+00 -0.21452067885E+02  0.96313785388E+02  0.91942625300E+02 0.  0.
         11    1    3    3    0    0 -0.33124512575E+00 -0.31487401032E+02  0.22987932125E+02  0.38987320640E+02  0.51100000000E-03 0.  1.
         22    1    1    0    0    0  0.19038827234E+02  0.48036423226E+00  0.21452067885E+02  0.28686214612E+02  0.00000000000E+00 0. -1.
</event>
<event>
 5    1  0.8962782E-005  0.9118800E+02  0.7818608E-02  0.1130116E+00
         25   -1    0    0    0    0  0.00000000000E+00  0.00000000000E+00  0.99999998245E-14  0.12500000000E+03  0.12500000000E+03 0.  0.
        -11    1    3    3    0    0 -0.33334918894E+02 -0.22041145700E+02 -0.77608576224E+01  0.40709456306E+02  0.51100000000E-03 0. -1.
         23    2    1    0    0    0 -0.40635549331E+01  0.14066746440E+02  0.23915174132E+02  0.96958577285E+02  0.92815108260E+02 0.  0.
         11    1    3    3    0    0  0.29271363961E+02  0.36107892140E+02  0.31676031754E+02  0.56249120979E+02  0.51100000000E-03 0.  1.
         22    1    1    0    0    0  0.40635549331E+01 -0.14066746440E+02 -0.23915174132E+02  0.28041422715E+02  0.00000000000E+00 0.  1.
</event>
<event>
 5    1  0.8962782E-005  0.9118800E+02  0.7818608E-02  0.1130116E+00
         25   -1    0    0    0    0  0.00000000000E+00  0.00000000000E+00  0.99999998245E-14  0.12500000000E+03  0.12500000000E+03 0.  0.
        -11    1    3    3    0    0  0.22897559949E+02 -0.30788105678E+02  0.30365732533E+02  0.48931415423E+02  0.51100000000E-03 0.  1.
         23    2    1    0    0    0  0.77619107263E+01  0.14262291129E+02  0.22729992157E+02  0.97065921354E+02  0.92959562921E+02 0.  0.
         11    1    3    3    0    0 -0.15135649223E+02  0.45050396807E+02 -0.76357403761E+01  0.48134505930E+02  0.51100000000E-03 0. -1.
         22    1    1    0    0    0 -0.77619107263E+01 -0.14262291129E+02 -0.22729992157E+02  0.27934078646E+02  0.00000000000E+00 0. -1.
</event>
<event>
 5    1  0.8962782E-005  0.9118800E+02  0.7818608E-02  0.1130116E+00
         25   -1    0    0    0    0  0.00000000000E+00  0.00000000000E+00  0.99999998245E-14  0.12500000000E+03  0.12500000000E+03 0.  0.
        -11    1    3    3    0    0  0.24160576674E+02  0.17179841595E+02  0.26154709255E+02  0.39534152817E+02  0.51100000000E-03 0. -1.
         23    2    1    0    0    0  0.14153038287E+01  0.15469350619E+02 -0.25013153412E+02  0.95555786016E+02  0.90906251183E+02 0.  0.
         11    1    3    3    0    0 -0.22745272845E+02 -0.17104909759E+01 -0.51167862667E+02  0.56021633200E+02  0.51100000000E-03 0.  1.
         22    1    1    0    0    0 -0.14153038287E+01 -0.15469350619E+02  0.25013153412E+02  0.29444213984E+02  0.00000000000E+00 0.  1.
</event>
<event>
 5    1  0.8962782E-005  0.9118800E+02  0.7818608E-02  0.1130116E+00
         25   -1    0    0    0    0  0.00000000000E+00  0.00000000000E+00  0.99999998245E-14  0.12500000000E+03  0.12500000000E+03 0.  0.
        -11    1    3    3    0    0 -0.23173740597E+02 -0.24713120151E+02  0.25869870033E+02  0.42626408911E+02  0.51100000000E-03 0. -1.
         23    2    1    0    0    0 -0.18228398015E+02  0.15088486381E+02 -0.12591649880E+02  0.98195400354E+02  0.94466131966E+02 0.  0.
         11    1    3    3    0    0  0.49453425821E+01  0.39801606532E+02 -0.38461519913E+02  0.55568991444E+02  0.51100000000E-03 0.  1.
         22    1    1    0    0    0  0.18228398015E+02 -0.15088486381E+02  0.12591649880E+02  0.26804599646E+02  0.00000000000E+00 0.  1.
</event>
<event>
 5    1  0.8962782E-005  0.9118800E+02  0.7818608E-02  0.1130116E+00
         25   -1    0    0    0    0  0.00000000000E+00  0.00000000000E+00  0.99999998245E-14  0.12500000000E+03  0.12500000000E+03 0.  0.
        -11    1    3    3    0    0 -0.16567048376E+02 -0.50127321397E+02  0.22375083687E+02  0.57339862335E+02  0.51100000000E-03 0.  1.
         23    2    1    0    0    0 -0.15392310775E+02 -0.24194545471E+02 -0.58991655163E+01  0.95723739731E+02  0.91136902146E+02 0.  0.
         11    1    3    3    0    0  0.11747376015E+01  0.25932775926E+02 -0.28274249203E+02  0.38383877396E+02  0.51100000000E-03 0. -1.
         22    1    1    0    0    0  0.15392310775E+02  0.24194545471E+02  0.58991655163E+01  0.29276260269E+02  0.00000000000E+00 0.  1.
</event>
<event>
 5    1  0.8962782E-005  0.9118800E+02  0.7818608E-02  0.1130116E+00
         25   -1    0    0    0    0  0.00000000000E+00  0.00000000000E+00  0.99999998245E-14  0.12500000000E+03  0.12500000000E+03 0.  0.
        -11    1    3    3    0    0  0.25030023967E+02  0.40128786474E+02  0.62471281431E+01  0.47705850941E+02  0.51100000000E-03 0. -1.
         23    2    1    0    0    0  0.11244537196E+02  0.69181181298E+01 -0.25893794311E+02  0.95934753415E+02  0.91425862608E+02 0.  0.
         11    1    3    3    0    0 -0.13785486771E+02 -0.33210668344E+02 -0.32140922454E+02  0.48228902474E+02  0.51100000000E-03 0.  1.
         22    1    1    0    0    0 -0.11244537196E+02 -0.69181181298E+01  0.25893794311E+02  0.29065246585E+02  0.00000000000E+00 0. -1.
</event>
<event>
 5    1  0.8962782E-005  0.9118800E+02  0.7818608E-02  0.1130116E+00
         25   -1    0    0    0    0  0.00000000000E+00  0.00000000000E+00  0.99999998245E-14  0.12500000000E+03  0.12500000000E+03 0.  0.
        -11    1    3    3    0    0 -0.42817038378E+02 -0.14676905773E+02 -0.99349376991E+01  0.46340191259E+02  0.51100000000E-03 0.  1.
         23    2    1    0    0    0 -0.17189326620E+02  0.24305020906E+02  0.38428353693E+01  0.94983764817E+02  0.90116264927E+02 0.  0.
         11    1    3    3    0    0  0.25627711759E+02  0.38981926679E+02  0.13777773068E+02  0.48643573559E+02  0.51100000000E-03 0. -1.
         22    1    1    0    0    0  0.17189326620E+02 -0.24305020906E+02 -0.38428353693E+01  0.30016235183E+02  0.00000000000E+00 0.  1.
</event>
<event>
 5    1  0.8962782E-005  0.9118800E+02  0.7818608E-02  0.1130116E+00
         25   -1    0    0    0    0  0.00000000000E+00  0.00000000000E+00  0.99999998245E-14  0.12500000000E+03  0.12500000000E+03 0.  0.
        -11    1    3    3    0    0 -0.16176631748E+01 -0.17681932070E+02 -0.35629316530E+02  0.39808488449E+02  0.51100000000E-03 0. -1.
         23    2    1    0    0    0 -0.15251860370E+02 -0.44409108841E+02 -0.17350674754E+02  0.74941692925E+02  0.55771168458E+02 0.  0.
         11    1    3    3    0    0 -0.13634197195E+02 -0.26727176771E+02  0.18278641776E+02  0.35133204476E+02  0.51100000000E-03 0.  1.
         22    1    1    0    0    0  0.15251860370E+02  0.44409108841E+02  0.17350674754E+02  0.50058307075E+02  0.00000000000E+00 0.  1.
</event>
<event>
 5    1  0.8962782E-005  0.9118800E+02  0.7818608E-02  0.1130116E+00
         25   -1    0    0    0    0  0.00000000000E+00  0.00000000000E+00  0.99999998245E-14  0.12500000000E+03  0.12500000000E+03 0.  0.
        -11    1    3    3    0    0  0.47997135216E+02 -0.12714803051E+02  0.40318680168E+01  0.49816133587E+02  0.51100000000E-03 0. -1.
         23    2    1    0    0    0  0.73282286737E+01 -0.29685330098E+02 -0.23034925998E+01  0.94336865185E+02  0.89214439954E+02 0.  0.
         11    1    3    3    0    0 -0.40668906543E+02 -0.16970527047E+02 -0.63353606166E+01  0.44520731598E+02  0.51100000000E-03 0.  1.
         22    1    1    0    0    0 -0.73282286737E+01  0.29685330098E+02  0.23034925998E+01  0.30663134815E+02  0.00000000000E+00 0. -1.
</event>
<event>
 5    1  0.8962782E-005  0.9118800E+02  0.7818608E-02  0.1130116E+00
         25   -1    0    0    0    0  0.00000000000E+00  0.00000000000E+00  0.99999998245E-14  0.12500000000E+03  0.12500000000E+03 0.  0.
        -11    1    3    3    0    0  0.25964463034E+02 -0.12572528572E+02  0.19078232617E+02  0.34586135595E+02  0.51100000000E-03 0. -1.
         23    2    1    0    0    0 -0.30680683143E+02 -0.62937424026E+01  0.84474815587E+01  0.92561204457E+02  0.86690836392E+02 0.  0.
         11    1    3    3    0    0 -0.56645146178E+02  0.62787861697E+01 -0.10630751058E+02  0.57975068862E+02  0.51100000000E-03 0.  1.
         22    1    1    0    0    0  0.30680683143E+02  0.62937424026E+01 -0.84474815587E+01  0.32438795543E+02  0.00000000000E+00 0.  1.
</event>
<event>
 5    1  0.8962782E-005  0.9118800E+02  0.7818608E-02  0.1130116E+00
         25   -1    0    0    0    0  0.00000000000E+00  0.00000000000E+00  0.99999998245E-14  0.12500000000E+03  0.12500000000E+03 0.  0.
        -11    1    3    3    0    0  0.24925970066E+01 -0.14950531865E+02  0.36374830785E+02  0.39406341593E+02  0.51100000000E-03 0.  1.
         23    2    1    0    0    0 -0.27632328471E+02 -0.49116425864E+00 -0.91585447395E+01  0.95885299919E+02  0.91358223383E+02 0.  0.
         11    1    3    3    0    0 -0.30124925478E+02  0.14459367606E+02 -0.45533375525E+02  0.56478958325E+02  0.51100000000E-03 0. -1.
         22    1    1    0    0    0  0.27632328471E+02  0.49116425864E+00  0.91585447395E+01  0.29114700081E+02  0.00000000000E+00 0. -1.
</event>
<event>
 5    1  0.8962782E-005  0.9118800E+02  0.7818608E-02  0.1130116E+00
         25   -1    0    0    0    0  0.00000000000E+00  0.00000000000E+00  0.99999998245E-14  0.12500000000E+03  0.12500000000E+03 0.  0.
        -11    1    3    3    0    0  0.66021607056E+01  0.11386945859E+02 -0.31645988322E+02  0.34274183274E+02  0.51100000000E-03 0. -1.
         23    2    1    0    0    0 -0.25462679870E+02 -0.29018548268E+01  0.16987407165E+02  0.94253604605E+02  0.89097705645E+02 0.  0.
         11    1    3    3    0    0 -0.32064840576E+02 -0.14288800686E+02  0.48633395487E+02  0.59979421330E+02  0.51100000000E-03 0.  1.
         22    1    1    0    0    0  0.25462679870E+02  0.29018548268E+01 -0.16987407165E+02  0.30746395395E+02  0.00000000000E+00 0.  1.
</event>
<event>
 5    1  0.8962782E-005  0.9118800E+02  0.7818608E-02  0.1130116E+00
         25   -1    0    0    0    0  0.00000000000E+00  0.00000000000E+00  0.99999998245E-14  0.12500000000E+03  0.12500000000E+03 0.  0.
        -11    1    3    3    0    0  0.42070826345E+02  0.40172628297E+01  0.17727372068E+02  0.45829603432E+02  0.51100000000E-03 0.  1.
         23    2    1    0    0    0  0.18319187604E+02 -0.38854613311E+01 -0.24041982788E+02  0.94525315742E+02  0.89478091931E+02 0.  0.
         11    1    3    3    0    0 -0.23751638742E+02 -0.79027241609E+01 -0.41769354856E+02  0.48695712311E+02  0.51100000000E-03 0. -1.
         22    1    1    0    0    0 -0.18319187604E+02  0.38854613311E+01  0.24041982788E+02  0.30474684258E+02  0.00000000000E+00 0.  1.
</event>
<event>
 5    1  0.8962782E-005  0.9118800E+02  0.7818608E-02  0.1130116E+00
         25   -1    0    0    0    0  0.00000000000E+00  0.00000000000E+00  0.99999998245E-14  0.12500000000E+03  0.12500000000E+03 0.  0.
        -11    1    3    3    0    0 -0.20713844483E+02 -0.26136056056E+02 -0.51379699333E+02  0.61253818520E+02  0.51100000000E-03 0. -1.
         23    2    1    0    0    0 -0.40944325022E+01 -0.14484761452E+01 -0.20127976084E+02  0.10440879115E+03  0.10235818378E+03 0.  0.
         11    1    3    3    0    0  0.16619411981E+02  0.24687579911E+02  0.31251723249E+02  0.43154972630E+02  0.51100000000E-03 0.  1.
         22    1    1    0    0    0  0.40944325022E+01  0.14484761452E+01  0.20127976084E+02  0.20591208850E+02  0.00000000000E+00 0. -1.
</event>
<event>
 5    1  0.8962782E-005  0.9118800E+02  0.7818608E-02  0.1130116E+00
         25   -1    0    0    0    0  0.00000000000E+00  0.00000000000E+00  0.99999998245E-14  0.12500000000E+03  0.12500000000E+03 0.  0.
        -11    1    3    3    0    0 -0.92940626449E+01 -0.26479791357E+02  0.21216756793E+02  0.35181098901E+02  0.51100000000E-03 0. -1.
         23    2    1    0    0    0  0.16205114483E+02  0.23849603260E+02 -0.17863316213E+01  0.96110550512E+02  0.91665902210E+02 0.  0.
         11    1    3    3    0    0  0.25499177128E+02  0.50329394618E+02 -0.23003088414E+02  0.60929451611E+02  0.51100000000E-03 0.  1.
         22    1    1    0    0    0 -0.16205114483E+02 -0.23849603260E+02  0.17863316213E+01  0.28889449488E+02  0.00000000000E+00 0.  1.
</event>
<event>
 5    1  0.8962782E-005  0.9118800E+02  0.7818608E-02  0.1130116E+00
         25   -1    0    0    0    0  0.00000000000E+00  0.00000000000E+00  0.99999998245E-14  0.12500000000E+03  0.12500000000E+03 0.  0.
        -11    1    3    3    0    0  0.20836709636E+02 -0.55053224836E+02 -0.34451959049E+01  0.58965205066E+02  0.51100000000E-03 0. -1.
         23    2    1    0    0    0  0.12817634507E+01 -0.36535566470E+02 -0.10794949753E+02  0.86881481206E+02  0.78072852526E+02 0.  0.
         11    1    3    3    0    0 -0.19554946185E+02  0.18517658366E+02 -0.73497538480E+01  0.27916276141E+02  0.51100000000E-03 0.  1.
         22    1    1    0    0    0 -0.12817634507E+01  0.36535566470E+02  0.10794949753E+02  0.38118518794E+02  0.00000000000E+00 0. -1.
</event>
<event>
 5    1  0.8962782E-005  0.9118800E+02  0.7818608E-02  0.1130116E+00
         25   -1    0    0    0    0  0.00000000000E+00  0.00000000000E+00  0.99999998245E-14  0.12500000000E+03  0.12500000000E+03 0.  0.
        -11    1    3    3    0    0  0.56670945304E+02 -0.77004288393E+01  0.24888474122E+02  0.62372500273E+02  0.51100000000E-03 0. -1.
         23    2    1    0    0    0  0.25307911578E+02 -0.53776026810E+01  0.13473972954E+02  0.95828833650E+02  0.91280931264E+02 0.  0.
         11    1    3    3    0    0 -0.31363033726E+02  0.23228261582E+01 -0.11414501168E+02  0.33456333377E+02  0.51100000000E-03 0.  1.
         22    1    1    0    0    0 -0.25307911578E+02  0.53776026810E+01 -0.13473972954E+02  0.29171166350E+02  0.00000000000E+00 0. -1.
</event>
<event>
 5    1  0.8962782E-005  0.9118800E+02  0.7818608E-02  0.1130116E+00
         25   -1    0    0    0    0  0.00000000000E+00  0.00000000000E+00  0.99999998245E-14  0.12500000000E+03  0.12500000000E+03 0.  0.
        -11    1    3    3    0    0 -0.38048612193E+02 -0.34732786169E+01 -0.13900560217E+02  0.40656932112E+02  0.51100000000E-03 0. -1.
         23    2    1    0    0    0  0.99728830201E+01 -0.26799961660E+02  0.19235989435E+01  0.96339983014E+02  0.91978235217E+02 0.  0.
         11    1    3    3    0    0  0.48021495213E+02 -0.23326683043E+02  0.15824159160E+02  0.55683050902E+02  0.51100000000E-03 0.  1.
         22    1    1    0    0    0 -0.99728830201E+01  0.26799961660E+02 -0.19235989435E+01  0.28660016986E+02  0.00000000000E+00 0.  1.
</event>
<event>
 4    1  0.8962782E-005  0.9118800E+02  0.7818608E-02  0.1130116E+00
         25   -1    0    0    0    0  0.00000000000E+00  0.00000000000E+00  0.99999998245E-14  0.12500000000E+03  0.12500000000E+03 0.  0.
        -11    1    1    0    0    0 -0.71185803578E+01 -0.17392578664E+01  0.11348908830E+02  0.13509142687E+02  0.51100000000E-03 0.  1.
         11    1    1    0    0    0  0.38361812448E+02 -0.10375126413E+02  0.35907358725E+02  0.53559409194E+02  0.51100000000E-03 0. -1.
         22    1    1    0    0    0 -0.31243232090E+02  0.12114384280E+02 -0.47256267555E+02  0.57931448119E+02  0.00000000000E+00 0. -1.
</event>
<event>
 5    1  0.8962782E-005  0.9118800E+02  0.7818608E-02  0.1130116E+00
         25   -1    0    0    0    0  0.00000000000E+00  0.00000000000E+00  0.99999998245E-14  0.12500000000E+03  0.12500000000E+03 0.  0.
        -11    1    3    3    0    0 -0.94031999666E+01 -0.48633290232E+02  0.34806207134E+02  0.60539979713E+02  0.51100000000E-03 0. -1.
         23    2    1    0    0    0  0.13223039318E+01 -0.29583045715E+02  0.96807370529E+01  0.93845196977E+02  0.88522874131E+02 0.  0.
         11    1    3    3    0    0  0.10725503898E+02  0.19050244516E+02 -0.25125470081E+02  0.33305217264E+02  0.51100000000E-03 0.  1.
         22    1    1    0    0    0 -0.13223039318E+01  0.29583045715E+02 -0.96807370529E+01  0.31154803023E+02  0.00000000000E+00 0. -1.
</event>
<event>
 5    1  0.8962782E-005  0.9118800E+02  0.7818608E-02  0.1130116E+00
         25   -1    0    0    0    0  0.00000000000E+00  0.00000000000E+00  0.99999998245E-14  0.12500000000E+03  0.12500000000E+03 0.  0.
        -11    1    3    3    0    0  0.18934710658E+02  0.15667625541E+02 -0.42676279840E+02  0.49246955429E+02  0.51100000000E-03 0. -1.
         23    2    1    0    0    0  0.25677248969E+02 -0.12973244828E+02 -0.71870642644E+01  0.95347342637E+02  0.90619179312E+02 0.  0.
         11    1    3    3    0    0  0.67425383108E+01 -0.28640870368E+02  0.35489215575E+02  0.46100387208E+02  0.51100000000E-03 0.  1.
         22    1    1    0    0    0 -0.25677248969E+02  0.12973244828E+02  0.71870642644E+01  0.29652657363E+02  0.00000000000E+00 0. -1.
</event>
<event>
 5    1  0.8962782E-005  0.9118800E+02  0.7818608E-02  0.1130116E+00
         25   -1    0    0    0    0  0.00000000000E+00  0.00000000000E+00  0.99999998245E-14  0.12500000000E+03  0.12500000000E+03 0.  0.
        -11    1    3    3    0    0  0.13576680558E+02  0.40138678987E+01 -0.45063641308E+02  0.47235253346E+02  0.51100000000E-03 0. -1.
         23    2    1    0    0    0  0.27524633236E+02 -0.10963745515E+02 -0.15384065410E+01  0.95332242330E+02  0.90598347571E+02 0.  0.
         11    1    3    3    0    0  0.13947952678E+02 -0.14977613414E+02  0.43525234767E+02  0.48096988984E+02  0.51100000000E-03 0.  1.
         22    1    1    0    0    0 -0.27524633236E+02  0.10963745515E+02  0.15384065410E+01  0.29667757670E+02  0.00000000000E+00 0.  1.
</event>
<event>
 5    1  0.8962782E-005  0.9118800E+02  0.7818608E-02  0.1130116E+00
         25   -1    0    0    0    0  0.00000000000E+00  0.00000000000E+00  0.99999998245E-14  0.12500000000E+03  0.12500000000E+03 0.  0.
        -11    1    3    3    0    0  0.36057681825E+02  0.23437919248E+02 -0.13255737387E+02  0.45002300511E+02  0.51100000000E-03 0. -1.
         23    2    1    0    0    0  0.17331072753E+02 -0.19147873900E+02  0.10358290567E+02  0.97173729299E+02  0.93104416247E+02 0.  0.
         11    1    3    3    0    0 -0.18726609072E+02 -0.42585793147E+02  0.23614027954E+02  0.52171428788E+02  0.51100000000E-03 0.  1.
         22    1    1    0    0    0 -0.17331072753E+02  0.19147873900E+02 -0.10358290567E+02  0.27826270701E+02  0.00000000000E+00 0. -1.
</event>
<event>
 5    1  0.8962782E-005  0.9118800E+02  0.7818608E-02  0.1130116E+00
         25   -1    0    0    0    0  0.00000000000E+00  0.00000000000E+00  0.99999998245E-14  0.12500000000E+03  0.12500000000E+03 0.  0.
        -11    1    3    3    0    0 -0.32849633606E+02 -0.18170633349E+02 -0.33854280864E+01  0.37692591685E+02  0.51100000000E-03 0. -1.
         23    2    1    0    0    0  0.25850434281E+02 -0.64418650842E+01 -0.63013470472E+01  0.97623923713E+02  0.93706888371E+02 0.  0.
         11    1    3    3    0    0  0.58700067887E+02  0.11728768265E+02 -0.29159189607E+01  0.59931332028E+02  0.51100000000E-03 0.  1.
         22    1    1    0    0    0 -0.25850434281E+02  0.64418650842E+01  0.63013470472E+01  0.27376076287E+02  0.00000000000E+00 0.  1.
</event>
<event>
 5    1  0.8962782E-005  0.9118800E+02  0.7818608E-02  0.1130116E+00
         25   -1    0    0    0    0  0.00000000000E+00  0.00000000000E+00  0.99999998245E-14  0.12500000000E+03  0.12500000000E+03 0.  0.
        -11    1    3    3    0    0 -0.68090769576E+01  0.37881321314E+02  0.16202609514E+01  0.38522503544E+02  0.51100000000E-03 0.  1.
         23    2    1    0    0    0 -0.37273126265E+01 -0.25294492174E+01  0.34189144777E+02  0.90515386136E+02  0.83688986934E+02 0.  0.
         11    1    3    3    0    0  0.30817643310E+01 -0.40410770531E+02  0.32568883826E+02  0.51992882592E+02  0.51100000000E-03 0. -1.
         22    1    1    0    0    0  0.37273126265E+01  0.25294492174E+01 -0.34189144777E+02  0.34484613864E+02  0.00000000000E+00 0. -1.
</event>
<event>
 5    1  0.8962782E-005  0.9118800E+02  0.7818608E-02  0.1130116E+00
         25   -1    0    0    0    0  0.00000000000E+00  0.00000000000E+00  0.99999998245E-14  0.12500000000E+03  0.12500000000E+03 0.  0.
        -11    1    3    3    0    0  0.42696882585E+02  0.66732499970E+01  0.94367068865E+01  0.44233556099E+02  0.51100000000E-03 0. -1.
         23    2    1    0    0    0 -0.27081213341E+01  0.11132974502E+00  0.30262786484E+02  0.94616080549E+02  0.89604799744E+02 0.  0.
         11    1    3    3    0    0 -0.45405003919E+02 -0.65619202520E+01  0.20826079597E+02  0.50382524450E+02  0.51100000000E-03 0.  1.
         22    1    1    0    0    0  0.27081213341E+01 -0.11132974502E+00 -0.30262786484E+02  0.30383919451E+02  0.00000000000E+00 0. -1.
</event>
<event>
 5    1  0.8962782E-005  0.9118800E+02  0.7818608E-02  0.1130116E+00
         25   -1    0    0    0    0  0.00000000000E+00  0.00000000000E+00  0.99999998245E-14  0.12500000000E+03  0.12500000000E+03 0.  0.
        -11    1    3    3    0    0  0.48584730107E+02 -0.12906932484E+02 -0.25725107948E+02  0.56469868823E+02  0.51100000000E-03 0. -1.
         23    2    1    0    0    0  0.13665894805E+02  0.67568392199E+01 -0.23982075483E+02  0.96582549348E+02  0.92307298395E+02 0.  0.
         11    1    3    3    0    0 -0.34918835302E+02  0.19663771704E+02  0.17430324646E+01  0.40112680525E+02  0.51100000000E-03 0.  1.
         22    1    1    0    0    0 -0.13665894805E+02 -0.67568392199E+01  0.23982075483E+02  0.28417450652E+02  0.00000000000E+00 0. -1.
</event>
<event>
 5    1  0.8962782E-005  0.9118800E+02  0.7818608E-02  0.1130116E+00
         25   -1    0    0    0    0  0.00000000000E+00  0.00000000000E+00  0.99999998245E-14  0.12500000000E+03  0.12500000000E+03 0.  0.
        -11    1    3    3    0    0  0.97920372538E+01  0.31884654466E+02 -0.27069711330E+02  0.42956774271E+02  0.51100000000E-03 0. -1.
         23    2    1    0    0    0 -0.25987240268E+02  0.98076125862E+01  0.61637650372E+01  0.96547971587E+02  0.92260462262E+02 0.  0.
         11    1    3    3    0    0 -0.35779277522E+02 -0.22077041880E+02  0.33233476367E+02  0.53591197316E+02  0.51100000000E-03 0.  1.
         22    1    1    0    0    0  0.25987240268E+02 -0.98076125862E+01 -0.61637650372E+01  0.28452028413E+02  0.00000000000E+00 0.  1.
</event>
<event>
 5    1  0.8962782E-005  0.9118800E+02  0.7818608E-02  0.1130116E+00
         25   -1    0    0    0    0  0.00000000000E+00  0.00000000000E+00  0.99999998245E-14  0.12500000000E+03  0.12500000000E+03 0.  0.
        -11    1    3    3    0    0  0.18196867806E+02  0.30714534991E+02  0.29173613328E+02  0.46104320540E+02  0.51100000000E-03 0. -1.
         23    2    1    0    0    0 -0.16975415611E+02  0.77688410364E+01 -0.10248051352E+02  0.10370347017E+03  0.10149318964E+03 0.  0.
         11    1    3    3    0    0 -0.35172283417E+02 -0.22945693954E+02 -0.39421664680E+02  0.57599149631E+02  0.51100000000E-03 0.  1.
         22    1    1    0    0    0  0.16975415611E+02 -0.77688410364E+01  0.10248051352E+02  0.21296529829E+02  0.00000000000E+00 0.  1.
</event>
<event>
 5    1  0.8962782E-005  0.9118800E+02  0.7818608E-02  0.1130116E+00
         25   -1    0    0    0    0  0.00000000000E+00  0.00000000000E+00  0.99999998245E-14  0.12500000000E+03  0.12500000000E+03 0.  0.
        -11    1    3    3    0    0  0.26321609897E+02 -0.40808389208E+02 -0.61142056765E+01  0.48944205874E+02  0.51100000000E-03 0.  1.
         23    2    1    0    0    0 -0.13461145208E+02 -0.17623269486E+02 -0.17930324995E+02  0.96481959883E+02  0.92170982260E+02 0.  0.
         11    1    3    3    0    0 -0.39782755105E+02  0.23185119722E+02 -0.11816119318E+02  0.47537754009E+02  0.51100000000E-03 0. -1.
         22    1    1    0    0    0  0.13461145208E+02  0.17623269486E+02  0.17930324995E+02  0.28518040117E+02  0.00000000000E+00 0. -1.
</event>
<event>
 5    1  0.8962782E-005  0.9118800E+02  0.7818608E-02  0.1130116E+00
         25   -1    0    0    0    0  0.00000000000E+00  0.00000000000E+00  0.99999998245E-14  0.12500000000E+03  0.12500000000E+03 0.  0.
        -11    1    3    3    0    0 -0.15424774864E+02  0.32917865470E+02 -0.30184290469E+02  0.47250406750E+02  0.51100000000E-03 0. -1.
         23    2    1    0    0    0 -0.10909253577E+02  0.22740171122E+02  0.16247254349E+02  0.94998325544E+02  0.90136459804E+02 0.  0.
         11    1    3    3    0    0  0.45155212874E+01 -0.10177694348E+02  0.46431544818E+02  0.47747918794E+02  0.51100000000E-03 0.  1.
         22    1    1    0    0    0  0.10909253577E+02 -0.22740171122E+02 -0.16247254349E+02  0.30001674456E+02  0.00000000000E+00 0.  1.
</event>
<event>
 5    1  0.8962782E-005  0.9118800E+02  0.7818608E-02  0.1130116E+00
         25   -1    0    0    0    0  0.00000000000E+00  0.00000000000E+00  0.99999998245E-14  0.12500000000E+03  0.12500000000E+03 0.  0.
        -11    1    3    3    0    0 -0.11298265949E+02  0.51706432587E+01  0.33270764904E+02  0.35515210301E+02  0.51100000000E-03 0.  1.
         23    2    1    0    0    0 -0.22394851455E+01  0.23955175109E+02 -0.20628079717E+02  0.93307991843E+02  0.87761027573E+02 0.  0.
         11    1    3    3    0    0  0.90587808036E+01  0.18784531851E+02 -0.53898844621E+02  0.57792781541E+02  0.51100000000E-03 0. -1.
         22    1    1    0    0    0  0.22394851455E+01 -0.23955175109E+02  0.20628079717E+02  0.31692008157E+02  0.00000000000E+00 0. -1.
</event>
<event>
 5    1  0.8962782E-005  0.9118800E+02  0.7818608E-02  0.1130116E+00
         25   -1    0    0    0    0  0.00000000000E+00  0.00000000000E+00  0.99999998245E-14  0.12500000000E+03  0.12500000000E+03 0.  0.
        -11    1    3    3    0    0 -0.28119830524E+01 -0.27818608499E+02  0.26047174684E+02  0.38213054534E+02  0.51100000000E-03 0.  1.
         23    2    1    0    0    0 -0.19974277735E+02  0.20539625542E+02 -0.12245814897E+01  0.96323396500E+02  0.91955691097E+02 0.  0.
         11    1    3    3    0    0 -0.17162294683E+02  0.48358234041E+02 -0.27271756174E+02  0.58110341966E+02  0.51100000000E-03 0. -1.
         22    1    1    0    0    0  0.19974277735E+02 -0.20539625542E+02  0.12245814897E+01  0.28676603500E+02  0.00000000000E+00 0. -1.
</event>
<event>
 5    1  0.8962782E-005  0.9118800E+02  0.7818608E-02  0.1130116E+00
         25   -1    0    0    0    0  0.00000000000E+00  0.00000000000E+00  0.99999998245E-14  0.12500000000E+03  0.12500000000E+03 0.  0.
        -11    1    3    3    0    0  0.33611360126E+02 -0.12115453497E+02  0.16379698547E+02  0.39303972671E+02  0.51100000000E-03 0.  1.
         23    2    1    0    0    0 -0.19559634936E+02  0.93353757186E+01  0.18245632498E+02  0.96669245264E+02  0.92424625052E+02 0.  0.
         11    1    3    3    0    0 -0.53170995062E+02  0.21450829215E+02  0.18659339513E+01  0.57365272593E+02  0.51100000000E-03 0. -1.
         22    1    1    0    0    0  0.19559634936E+02 -0.93353757186E+01 -0.18245632498E+02  0.28330754736E+02  0.00000000000E+00 0. -1.
</event>
<event>
 5    1  0.8962782E-005  0.9118800E+02  0.7818608E-02  0.1130116E+00
         25   -1    0    0    0    0  0.00000000000E+00  0.00000000000E+00  0.99999998245E-14  0.12500000000E+03  0.12500000000E+03 0.  0.
        -11    1    3    3    0    0 -0.21637621579E+02  0.22463737038E+02 -0.19542102199E+02  0.36806248218E+02  0.51100000000E-03 0.  1.
         23    2    1    0    0    0 -0.91356696950E+01 -0.19960762879E+02  0.19376432907E+02  0.95719653901E+02  0.91131298000E+02 0.  0.
         11    1    3    3    0    0  0.12501951884E+02 -0.42424499916E+02  0.38918535106E+02  0.58913405683E+02  0.51100000000E-03 0. -1.
         22    1    1    0    0    0  0.91356696950E+01  0.19960762879E+02 -0.19376432907E+02  0.29280346099E+02  0.00000000000E+00 0. -1.
</event>
<event>
 5    1  0.8962782E-005  0.9118800E+02  0.7818608E-02  0.1130116E+00
         25   -1    0    0    0    0  0.00000000000E+00  0.00000000000E+00  0.99999998245E-14  0.12500000000E+03  0.12500000000E+03 0.  0.
        -11    1    3    3    0    0 -0.48572296844E+01  0.61102728215E+01  0.61698601258E+02  0.62190397263E+02  0.51100000000E-03 0.  1.
         23    2    1    0    0    0  0.44813187075E+00 -0.59879675429E+00  0.29036823554E+02  0.95953545796E+02  0.91451552469E+02 0.  0.
         11    1    3    3    0    0  0.53053615551E+01 -0.67090695757E+01 -0.32661777704E+02  0.33763148533E+02  0.51100000000E-03 0. -1.
         22    1    1    0    0    0 -0.44813187075E+00  0.59879675429E+00 -0.29036823554E+02  0.29046454204E+02  0.00000000000E+00 0.  1.
</event>
<event>
 5    1  0.8962782E-005  0.9118800E+02  0.7818608E-02  0.1130116E+00
         25   -1    0    0    0    0  0.00000000000E+00  0.00000000000E+00  0.99999998245E-14  0.12500000000E+03  0.12500000000E+03 0.  0.
        -11    1    3    3    0    0 -0.39598066067E+02 -0.17019929406E+01 -0.15156001529E+02  0.42433571601E+02  0.51100000000E-03 0.  1.
         23    2    1    0    0    0  0.12249010461E+02  0.11566151003E+01 -0.26677302535E+02  0.95622211004E+02  0.90997542555E+02 0.  0.
         11    1    3    3    0    0  0.51847076528E+02  0.28586080409E+01 -0.11521301006E+02  0.53188639403E+02  0.51100000000E-03 0. -1.
         22    1    1    0    0    0 -0.12249010461E+02 -0.11566151003E+01  0.26677302535E+02  0.29377788996E+02  0.00000000000E+00 0. -1.
</event>
<event>
 5    1  0.8962782E-005  0.9118800E+02  0.7818608E-02  0.1130116E+00
         25   -1    0    0    0    0  0.00000000000E+00  0.00000000000E+00  0.99999998245E-14  0.12500000000E+03  0.12500000000E+03 0.  0.
        -11    1    3    3    0    0 -0.12483785696E+02 -0.26005870281E+02  0.29207681614E+02  0.41051660867E+02  0.51100000000E-03 0.  1.
         23    2    1    0    0    0 -0.26470529867E+01 -0.10410601853E+02 -0.24721395988E+02  0.98045687913E+02  0.94267820482E+02 0.  0.
         11    1    3    3    0    0  0.98367327090E+01  0.15595268428E+02 -0.53929077602E+02  0.56994027047E+02  0.51100000000E-03 0. -1.
         22    1    1    0    0    0  0.26470529867E+01  0.10410601853E+02  0.24721395988E+02  0.26954312087E+02  0.00000000000E+00 0. -1.
</event>
<event>
 5    1  0.8962782E-005  0.9118800E+02  0.7818608E-02  0.1130116E+00
         25   -1    0    0    0    0  0.00000000000E+00  0.00000000000E+00  0.99999998245E-14  0.12500000000E+03  0.12500000000E+03 0.  0.
        -11    1    3    3    0    0  0.71308560147E+01  0.22022388545E+02  0.31178505856E+02  0.38832125004E+02  0.51100000000E-03 0. -1.
         23    2    1    0    0    0  0.14813654194E+02  0.70285592043E+01 -0.23667666211E+02  0.96207580530E+02  0.91798121618E+02 0.  0.
         11    1    3    3    0    0  0.76827981790E+01 -0.14993829340E+02 -0.54846172067E+02  0.57375455526E+02  0.51100000000E-03 0.  1.
         22    1    1    0    0    0 -0.14813654194E+02 -0.70285592043E+01  0.23667666211E+02  0.28792419470E+02  0.00000000000E+00 0.  1.
</event>
<event>
 5    1  0.8962782E-005  0.9118800E+02  0.7818608E-02  0.1130116E+00
         25   -1    0    0    0    0  0.00000000000E+00  0.00000000000E+00  0.99999998245E-14  0.12500000000E+03  0.12500000000E+03 0.  0.
        -11    1    3    3    0    0 -0.26570690570E+02  0.20693448524E+02 -0.15024561073E+02  0.36877606279E+02  0.51100000000E-03 0.  1.
         23    2    1    0    0    0  0.18609360972E+02  0.11151084405E+02  0.20510674492E+02  0.95144635870E+02  0.90339133090E+02 0.  0.
         11    1    3    3    0    0  0.45180051543E+02 -0.95423641192E+01  0.35535235565E+02  0.58267029590E+02  0.51100000000E-03 0. -1.
         22    1    1    0    0    0 -0.18609360972E+02 -0.11151084405E+02 -0.20510674492E+02  0.29855364130E+02  0.00000000000E+00 0.  1.
</event>
<event>
 5    1  0.8962782E-005  0.9118800E+02  0.7818608E-02  0.1130116E+00
         25   -1    0    0    0    0  0.00000000000E+00  0.00000000000E+00  0.99999998245E-14  0.12500000000E+03  0.12500000000E+03 0.  0.
        -11    1    3    3    0    0 -0.27340020031E+02  0.23584323286E+02 -0.25044824859E+02  0.43942465255E+02  0.51100000000E-03 0.  1.
         23    2    1    0    0    0 -0.17535051677E+02  0.72258323696E+01  0.22737946338E+02  0.95390797133E+02  0.90679100587E+02 0.  0.
         11    1    3    3    0    0  0.98049683536E+01 -0.16358490917E+02  0.47782771197E+02  0.51448331878E+02  0.51100000000E-03 0. -1.
         22    1    1    0    0    0  0.17535051677E+02 -0.72258323696E+01 -0.22737946338E+02  0.29609202867E+02  0.00000000000E+00 0. -1.
</event>
<event>
 5    1  0.8962782E-005  0.9118800E+02  0.7818608E-02  0.1130116E+00
         25   -1    0    0    0    0  0.00000000000E+00  0.00000000000E+00  0.99999998245E-14  0.12500000000E+03  0.12500000000E+03 0.  0.
        -11    1    3    3    0    0 -0.40644869280E+02 -0.18593536849E+02  0.17482528689E+02  0.47993372678E+02  0.51100000000E-03 0.  1.
         23    2    1    0    0    0 -0.23193292988E+01  0.29502580753E+01  0.30831521537E+02  0.93940926747E+02  0.88657947679E+02 0.  0.
         11    1    3    3    0    0  0.38325539981E+02  0.21543794925E+02  0.13348992847E+02  0.45947554069E+02  0.51100000000E-03 0. -1.
         22    1    1    0    0    0  0.23193292988E+01 -0.29502580753E+01 -0.30831521537E+02  0.31059073253E+02  0.00000000000E+00 0.  1.
</event>
<event>
 5    1  0.8962782E-005  0.9118800E+02  0.7818608E-02  0.1130116E+00
         25   -1    0    0    0    0  0.00000000000E+00  0.00000000000E+00  0.99999998245E-14  0.12500000000E+03  0.12500000000E+03 0.  0.
        -11    1    3    3    0    0 -0.25096480515E+00 -0.53030877373E+01 -0.55900150390E+02  0.56151692199E+02  0.51100000000E-03 0.  1.
         23    2    1    0    0    0 -0.18608043520E+02  0.47148796554E+01 -0.24569096168E+02  0.93821002897E+02  0.88488703936E+02 0.  0.
         11    1    3    3    0    0 -0.18357078715E+02  0.10017967393E+02  0.31331054222E+02  0.37669310699E+02  0.51100000000E-03 0. -1.
         22    1    1    0    0    0  0.18608043520E+02 -0.47148796554E+01  0.24569096168E+02  0.31178997103E+02  0.00000000000E+00 0. -1.
</event>
<event>
 5    1  0.8962782E-005  0.9118800E+02  0.7818608E-02  0.1130116E+00
         25   -1    0    0    0    0  0.00000000000E+00  0.00000000000E+00  0.99999998245E-14  0.12500000000E+03  0.12500000000E+03 0.  0.
        -11    1    3    3    0    0  0.37549622338E+02  0.12010531321E+02 -0.45460560488E+02  0.60173827869E+02  0.51100000000E-03 0. -1.
         23    2    1    0    0    0  0.85244154986E+01  0.13910989241E+02 -0.22372306631E+02  0.97310626853E+02  0.93288030922E+02 0.  0.
         11    1    3    3    0    0 -0.29025206839E+02  0.19004579195E+01  0.23088253856E+02  0.37136798984E+02  0.51100000000E-03 0.  1.
         22    1    1    0    0    0 -0.85244154986E+01 -0.13910989241E+02  0.22372306631E+02  0.27689373147E+02  0.00000000000E+00 0. -1.
</event>
<event>
 5    1  0.8962782E-005  0.9118800E+02  0.7818608E-02  0.1130116E+00
         25   -1    0    0    0    0  0.00000000000E+00  0.00000000000E+00  0.99999998245E-14  0.12500000000E+03  0.12500000000E+03 0.  0.
        -11    1    3    3    0    0 -0.27940485463E+02 -0.10927102985E+02  0.16678655072E+02  0.34325644099E+02  0.51100000000E-03 0. -1.
         23    2    1    0    0    0  0.28966013810E+02 -0.77251566905E+01 -0.35647705005E+01  0.94810339673E+02  0.89875385497E+02 0.  0.
         11    1    3    3    0    0  0.56906499273E+02  0.32019462944E+01 -0.20243425573E+02  0.60484695574E+02  0.51100000000E-03 0.  1.
         22    1    1    0    0    0 -0.28966013810E+02  0.77251566905E+01  0.35647705005E+01  0.30189660327E+02  0.00000000000E+00 0.  1.
</event>
<event>
 5    1  0.8962782E-005  0.9118800E+02  0.7818608E-02  0.1130116E+00
         25   -1    0    0    0    0  0.00000000000E+00  0.00000000000E+00  0.99999998245E-14  0.12500000000E+03  0.12500000000E+03 0.  0.
        -11    1    3    3    0    0 -0.22939672808E+02  0.30753468590E+02 -0.45643569859E+01  0.38637258881E+02  0.51100000000E-03 0. -1.
         23    2    1    0    0    0  0.67209992919E+01 -0.10010817058E+02 -0.28210640227E+02  0.94320552292E+02  0.89191580730E+02 0.  0.
         11    1    3    3    0    0  0.29660672099E+02 -0.40764285648E+02 -0.23646283241E+02  0.55683293412E+02  0.51100000000E-03 0.  1.
         22    1    1    0    0    0 -0.67209992919E+01  0.10010817058E+02  0.28210640227E+02  0.30679447708E+02  0.00000000000E+00 0.  1.
</event>
<event>
 5    1  0.8962782E-005  0.9118800E+02  0.7818608E-02  0.1130116E+00
         25   -1    0    0    0    0  0.00000000000E+00  0.00000000000E+00  0.99999998245E-14  0.12500000000E+03  0.12500000000E+03 0.  0.
        -11    1    3    3    0    0 -0.35122441762E+02  0.96719432937E+01  0.11276364987E+02  0.38135138783E+02  0.51100000000E-03 0. -1.
         23    2    1    0    0    0  0.17484391044E+02  0.25740978999E+02  0.45663301740E+01  0.93549192360E+02  0.88103905077E+02 0.  0.
         11    1    3    3    0    0  0.52606832806E+02  0.16069035705E+02 -0.67100348129E+01  0.55414053577E+02  0.51100000000E-03 0.  1.
         22    1    1    0    0    0 -0.17484391044E+02 -0.25740978999E+02 -0.45663301740E+01  0.31450807640E+02  0.00000000000E+00 0.  1.
</event>
<event>
 5    1  0.8962782E-005  0.9118800E+02  0.7818608E-02  0.1130116E+00
         25   -1    0    0    0    0  0.00000000000E+00  0.00000000000E+00  0.99999998245E-14  0.12500000000E+03  0.12500000000E+03 0.  0.
        -11    1    3    3    0    0  0.64344717779E+01 -0.45135552937E+02 -0.15005129813E+02  0.47997650848E+02  0.51100000000E-03 0. -1.
         23    2    1    0    0    0 -0.10359263872E+02 -0.35012378085E+02  0.16361356493E+02  0.84989064576E+02  0.74981772079E+02 0.  0.
         11    1    3    3    0    0 -0.16793735650E+02  0.10123174852E+02  0.31366486306E+02  0.36991413728E+02  0.51100000000E-03 0.  1.
         22    1    1    0    0    0  0.10359263872E+02  0.35012378085E+02 -0.16361356493E+02  0.40010935424E+02  0.00000000000E+00 0. -1.
</event>
<event>
 5    1  0.8962782E-005  0.9118800E+02  0.7818608E-02  0.1130116E+00
         25   -1    0    0    0    0  0.00000000000E+00  0.00000000000E+00  0.99999998245E-14  0.12500000000E+03  0.12500000000E+03 0.  0.
        -11    1    3    3    0    0  0.24534285613E+02 -0.13130877818E+02 -0.25470480408E+02  0.37723951216E+02  0.51100000000E-03 0.  1.
         23    2    1    0    0    0 -0.49862716305E+01  0.30436249202E+02 -0.88235588613E+01  0.92920670810E+02  0.87207612641E+02 0.  0.
         11    1    3    3    0    0 -0.29520557244E+02  0.43567127020E+02  0.16646921547E+02  0.55196719595E+02  0.51100000000E-03 0. -1.
         22    1    1    0    0    0  0.49862716305E+01 -0.30436249202E+02  0.88235588613E+01  0.32079329190E+02  0.00000000000E+00 0. -1.
</event>
<event>
 5    1  0.8962782E-005  0.9118800E+02  0.7818608E-02  0.1130116E+00
         25   -1    0    0    0    0  0.00000000000E+00  0.00000000000E+00  0.99999998245E-14  0.12500000000E+03  0.12500000000E+03 0.  0.
        -11    1    3    3    0    0 -0.16680750605E+02  0.61367568415E+01 -0.29879920362E+02  0.34766605621E+02  0.51100000000E-03 0. -1.
         23    2    1    0    0    0  0.11090332787E+02 -0.12996209479E+02  0.22307126063E+02  0.96901871676E+02  0.92738707771E+02 0.  0.
         11    1    3    3    0    0  0.27771083391E+02 -0.19132966320E+02  0.52187046425E+02  0.62135266055E+02  0.51100000000E-03 0.  1.
         22    1    1    0    0    0 -0.11090332787E+02  0.12996209479E+02 -0.22307126063E+02  0.28098128324E+02  0.00000000000E+00 0.  1.
</event>
<event>
 5    1  0.8962782E-005  0.9118800E+02  0.7818608E-02  0.1130116E+00
         25   -1    0    0    0    0  0.00000000000E+00  0.00000000000E+00  0.99999998245E-14  0.12500000000E+03  0.12500000000E+03 0.  0.
        -11    1    3    3    0    0 -0.33528961845E+02 -0.49831582842E+02 -0.52610284067E+00  0.60063755422E+02  0.51100000000E-03 0. -1.
         23    2    1    0    0    0 -0.23134477459E+02 -0.15551799967E+02  0.60289263243E+01  0.96479647931E+02  0.92167846794E+02 0.  0.
         11    1    3    3    0    0  0.10394484385E+02  0.34279782875E+02  0.65550291650E+01  0.36415892509E+02  0.51100000000E-03 0.  1.
         22    1    1    0    0    0  0.23134477459E+02  0.15551799967E+02 -0.60289263243E+01  0.28520352069E+02  0.00000000000E+00 0. -1.
</event>
<event>
 5    1  0.8962782E-005  0.9118800E+02  0.7818608E-02  0.1130116E+00
         25   -1    0    0    0    0  0.00000000000E+00  0.00000000000E+00  0.99999998245E-14  0.12500000000E+03  0.12500000000E+03 0.  0.
        -11    1    3    3    0    0 -0.41312145569E+01 -0.53598161082E+02 -0.23701670760E+02  0.58750310656E+02  0.51100000000E-03 0.  1.
         23    2    1    0    0    0 -0.11241289282E+02 -0.26984307622E+02  0.10001652301E+01  0.95750730385E+02  0.91173914012E+02 0.  0.
         11    1    3    3    0    0 -0.71100747248E+01  0.26613853460E+02  0.24701835990E+02  0.37000419729E+02  0.51100000000E-03 0. -1.
         22    1    1    0    0    0  0.11241289282E+02  0.26984307622E+02 -0.10001652301E+01  0.29249269615E+02  0.00000000000E+00 0.  1.
</event>
<event>
 5    1  0.8962782E-005  0.9118800E+02  0.7818608E-02  0.1130116E+00
         25   -1    0    0    0    0  0.00000000000E+00  0.00000000000E+00  0.99999998245E-14  0.12500000000E+03  0.12500000000E+03 0.  0.
        -11    1    3    3    0    0 -0.10454112897E+02 -0.27672113554E+02  0.35507687841E+02  0.46215043451E+02  0.51100000000E-03 0.  1.
         23    2    1    0    0    0  0.26557818919E+02 -0.11942179787E+02  0.84734385512E+01  0.94672907085E+02  0.89684038553E+02 0.  0.
         11    1    3    3    0    0  0.37011931816E+02  0.15729933767E+02 -0.27034249290E+02  0.48457863634E+02  0.51100000000E-03 0. -1.
         22    1    1    0    0    0 -0.26557818919E+02  0.11942179787E+02 -0.84734385512E+01  0.30327092915E+02  0.00000000000E+00 0. -1.
</event>
<event>
 5    1  0.8962782E-005  0.9118800E+02  0.7818608E-02  0.1130116E+00
         25   -1    0    0    0    0  0.00000000000E+00  0.00000000000E+00  0.99999998245E-14  0.12500000000E+03  0.12500000000E+03 0.  0.
        -11    1    3    3    0    0 -0.63717362200E+00 -0.33447853172E+02  0.17524028899E+01  0.33499787883E+02  0.51100000000E-03 0.  1.
         23    2    1    0    0    0  0.16574450343E+02  0.25296782494E+02  0.16112293877E+01  0.94714101154E+02  0.89741435740E+02 0.  0.
         11    1    3    3    0    0  0.17211623965E+02  0.58744635666E+02 -0.14117350227E+00  0.61214313272E+02  0.51100000000E-03 0. -1.
         22    1    1    0    0    0 -0.16574450343E+02 -0.25296782494E+02 -0.16112293877E+01  0.30285898846E+02  0.00000000000E+00 0. -1.
</event>
<event>
 5    1  0.8962782E-005  0.9118800E+02  0.7818608E-02  0.1130116E+00
         25   -1    0    0    0    0  0.00000000000E+00  0.00000000000E+00  0.99999998245E-14  0.12500000000E+03  0.12500000000E+03 0.  0.
        -11    1    3    3    0    0  0.22429439319E+02 -0.24442349653E+02 -0.25616483848E+02  0.41913153660E+02  0.51100000000E-03 0. -1.
         23    2    1    0    0    0  0.70699709224E+01 -0.22427206918E+02  0.22495488324E+02  0.92457549356E+02  0.86541246461E+02 0.  0.
         11    1    3    3    0    0 -0.15359468396E+02  0.20151427350E+01  0.48111972172E+02  0.50544395696E+02  0.51100000000E-03 0.  1.
         22    1    1    0    0    0 -0.70699709224E+01  0.22427206918E+02 -0.22495488324E+02  0.32542450644E+02  0.00000000000E+00 0.  1.
</event>
<event>
 5    1  0.8962782E-005  0.9118800E+02  0.7818608E-02  0.1130116E+00
         25   -1    0    0    0    0  0.00000000000E+00  0.00000000000E+00  0.99999998245E-14  0.12500000000E+03  0.12500000000E+03 0.  0.
        -11    1    3    3    0    0 -0.30994643238E+02 -0.14872498779E+02  0.51956366062E+01  0.34768574451E+02  0.51100000000E-03 0.  1.
         23    2    1    0    0    0  0.15746198957E+02  0.18796952066E+02 -0.15514468974E+02  0.95983333477E+02  0.91492258521E+02 0.  0.
         11    1    3    3    0    0  0.46740842195E+02  0.33669450844E+02 -0.20710105580E+02  0.61214759026E+02  0.51100000000E-03 0. -1.
         22    1    1    0    0    0 -0.15746198957E+02 -0.18796952066E+02  0.15514468974E+02  0.29016666523E+02  0.00000000000E+00 0. -1.
</event>
<event>
 5    1  0.8962782E-005  0.9118800E+02  0.7818608E-02  0.1130116E+00
         25   -1    0    0    0    0  0.00000000000E+00  0.00000000000E+00  0.99999998245E-14  0.12500000000E+03  0.12500000000E+03 0.  0.
        -11    1    3    3    0    0 -0.18652889442E+02 -0.31642117783E+02 -0.36109855109E+01  0.36907900495E+02  0.51100000000E-03 0. -1.
         23    2    1    0    0    0  0.13099081388E+01  0.21949522264E+02 -0.18789613776E+02  0.96076878232E+02  0.91619973576E+02 0.  0.
         11    1    3    3    0    0  0.19962797581E+02  0.53591640047E+02 -0.15178628266E+02  0.59168977737E+02  0.51100000000E-03 0.  1.
         22    1    1    0    0    0 -0.13099081388E+01 -0.21949522264E+02  0.18789613776E+02  0.28923121768E+02  0.00000000000E+00 0.  1.
</event>
<event>
 5    1  0.8962782E-005  0.9118800E+02  0.7818608E-02  0.1130116E+00
         25   -1    0    0    0    0  0.00000000000E+00  0.00000000000E+00  0.99999998245E-14  0.12500000000E+03  0.12500000000E+03 0.  0.
        -11    1    3    3    0    0  0.15725267509E+02 -0.98251084730E+01  0.41187654150E+02  0.45169012048E+02  0.51100000000E-03 0.  1.
         23    2    1    0    0    0 -0.14455929059E+02  0.20816578480E+02  0.14093448299E+02  0.96001222275E+02  0.91516695574E+02 0.  0.
         11    1    3    3    0    0 -0.30181196568E+02  0.30641686953E+02 -0.27094205851E+02  0.50832210227E+02  0.51100000000E-03 0. -1.
         22    1    1    0    0    0  0.14455929059E+02 -0.20816578480E+02 -0.14093448299E+02  0.28998777725E+02  0.00000000000E+00 0. -1.
</event>
<event>
 5    1  0.8962782E-005  0.9118800E+02  0.7818608E-02  0.1130116E+00
         25   -1    0    0    0    0  0.00000000000E+00  0.00000000000E+00  0.99999998245E-14  0.12500000000E+03  0.12500000000E+03 0.  0.
        -11    1    3    3    0    0  0.10060121921E+02 -0.18319429772E+02 -0.28126705399E+02  0.35041676859E+02  0.51100000000E-03 0.  1.
         23    2    1    0    0    0  0.18935921917E+02  0.42190057391E+01  0.24956156797E+02  0.93390208632E+02  0.87878052766E+02 0.  0.
         11    1    3    3    0    0  0.88757999960E+01  0.22538435512E+02  0.53082862196E+02  0.58348531773E+02  0.51100000000E-03 0. -1.
         22    1    1    0    0    0 -0.18935921917E+02 -0.42190057391E+01 -0.24956156797E+02  0.31609791368E+02  0.00000000000E+00 0. -1.
</event>
<event>
 5    1  0.8962782E-005  0.9118800E+02  0.7818608E-02  0.1130116E+00
         25   -1    0    0    0    0  0.00000000000E+00  0.00000000000E+00  0.99999998245E-14  0.12500000000E+03  0.12500000000E+03 0.  0.
        -11    1    3    3    0    0  0.24445718717E+02 -0.25177145695E+01  0.21591583670E+02  0.32712819137E+02  0.51100000000E-03 0.  1.
         23    2    1    0    0    0 -0.91286472419E+01  0.21211985571E+02 -0.22331426657E+02  0.92875661114E+02  0.87143073611E+02 0.  0.
         11    1    3    3    0    0 -0.33574365959E+02  0.23729700141E+02 -0.43923010327E+02  0.60162841977E+02  0.51100000000E-03 0. -1.
         22    1    1    0    0    0  0.91286472419E+01 -0.21211985571E+02  0.22331426657E+02  0.32124338886E+02  0.00000000000E+00 0. -1.
</event>
<event>
 5    1  0.8962782E-005  0.9118800E+02  0.7818608E-02  0.1130116E+00
         25   -1    0    0    0    0  0.00000000000E+00  0.00000000000E+00  0.99999998245E-14  0.12500000000E+03  0.12500000000E+03 0.  0.
        -11    1    3    3    0    0  0.14196686942E+02 -0.45180948740E+02 -0.89876784999E+01  0.48204174241E+02  0.51100000000E-03 0.  1.
         23    2    1    0    0    0  0.16768084681E+02  0.63196682340E+01 -0.16895120478E+02  0.10037172425E+03  0.97303294201E+02 0.  0.
         11    1    3    3    0    0  0.25713977391E+01  0.51500616974E+02 -0.79074419786E+01  0.52167550009E+02  0.51100000000E-03 0. -1.
         22    1    1    0    0    0 -0.16768084681E+02 -0.63196682340E+01  0.16895120478E+02  0.24628275750E+02  0.00000000000E+00 0. -1.
</event>
<event>
 5    1  0.8962782E-005  0.9118800E+02  0.7818608E-02  0.1130116E+00
         25   -1    0    0    0    0  0.00000000000E+00  0.00000000000E+00  0.99999998245E-14  0.12500000000E+03  0.12500000000E+03 0.  0.
        -11    1    3    3    0    0  0.12302459370E+02 -0.43212797473E+02  0.31968615043E+02  0.55142440279E+02  0.51100000000E-03 0.  1.
         23    2    1    0    0    0 -0.12507678282E+02 -0.12895678693E+02  0.23835267193E+02  0.95152713572E+02  0.90350309313E+02 0.  0.
         11    1    3    3    0    0 -0.24810137652E+02  0.30317118779E+02 -0.81333478492E+01  0.40010273292E+02  0.51100000000E-03 0. -1.
         22    1    1    0    0    0  0.12507678282E+02  0.12895678693E+02 -0.23835267193E+02  0.29847286428E+02  0.00000000000E+00 0.  1.
</event>
<event>
 5    1  0.8962782E-005  0.9118800E+02  0.7818608E-02  0.1130116E+00
         25   -1    0    0    0    0  0.00000000000E+00  0.00000000000E+00  0.99999998245E-14  0.12500000000E+03  0.12500000000E+03 0.  0.
        -11    1    3    3    0    0  0.43002738514E+02 -0.17650977767E+02 -0.41066602611E+02  0.62026271741E+02  0.51100000000E-03 0.  1.
         23    2    1    0    0    0  0.16093146065E+02 -0.10935754766E+02 -0.21704452244E+02  0.95851014944E+02  0.91311301250E+02 0.  0.
         11    1    3    3    0    0 -0.26909592448E+02  0.67152230005E+01  0.19362150367E+02  0.33824743203E+02  0.51100000000E-03 0. -1.
         22    1    1    0    0    0 -0.16093146065E+02  0.10935754766E+02  0.21704452244E+02  0.29148985056E+02  0.00000000000E+00 0.  1.
</event>
<event>
 5    1  0.8962782E-005  0.9118800E+02  0.7818608E-02  0.1130116E+00
         25   -1    0    0    0    0  0.00000000000E+00  0.00000000000E+00  0.99999998245E-14  0.12500000000E+03  0.12500000000E+03 0.  0.
        -11    1    3    3    0    0 -0.98390725161E+01  0.47774576989E+02 -0.26022152439E+02  0.55284446025E+02  0.51100000000E-03 0. -1.
         23    2    1    0    0    0  0.20074951920E+01  0.29761338423E+02  0.66593720903E+01  0.94436712573E+02  0.89354228458E+02 0.  0.
         11    1    3    3    0    0  0.11846567708E+02 -0.18013238566E+02  0.32681524529E+02  0.39152266548E+02  0.51100000000E-03 0.  1.
         22    1    1    0    0    0 -0.20074951920E+01 -0.29761338423E+02 -0.66593720903E+01  0.30563287427E+02  0.00000000000E+00 0. -1.
</event>
<event>
 5    1  0.8962782E-005  0.9118800E+02  0.7818608E-02  0.1130116E+00
         25   -1    0    0    0    0  0.00000000000E+00  0.00000000000E+00  0.99999998245E-14  0.12500000000E+03  0.12500000000E+03 0.  0.
        -11    1    3    3    0    0  0.18082331966E+02  0.76303713463E+01  0.33940126772E+02  0.39206192136E+02  0.51100000000E-03 0. -1.
         23    2    1    0    0    0  0.10896332578E+02 -0.27373151975E+02 -0.81619189127E+01  0.94428175831E+02  0.89342285384E+02 0.  0.
         11    1    3    3    0    0 -0.71859993886E+01 -0.35003523321E+02 -0.42102045685E+02  0.55221983695E+02  0.51100000000E-03 0.  1.
         22    1    1    0    0    0 -0.10896332578E+02  0.27373151975E+02  0.81619189127E+01  0.30571824169E+02  0.00000000000E+00 0.  1.
</event>
<event>
 5    1  0.8962782E-005  0.9118800E+02  0.7818608E-02  0.1130116E+00
         25   -1    0    0    0    0  0.00000000000E+00  0.00000000000E+00  0.99999998245E-14  0.12500000000E+03  0.12500000000E+03 0.  0.
        -11    1    3    3    0    0 -0.17620832071E+02 -0.17588722033E+02 -0.48012728496E+02  0.54083999145E+02  0.51100000000E-03 0.  1.
         23    2    1    0    0    0  0.33084282052E+01 -0.24902554465E+02 -0.10262047131E+02  0.97863446656E+02  0.94025856358E+02 0.  0.
         11    1    3    3    0    0  0.20929260276E+02 -0.73138324324E+01  0.37750681365E+02  0.43779447511E+02  0.51100000000E-03 0. -1.
         22    1    1    0    0    0 -0.33084282052E+01  0.24902554465E+02  0.10262047131E+02  0.27136553344E+02  0.00000000000E+00 0. -1.
</event>
<event>
 5    1  0.8962782E-005  0.9118800E+02  0.7818608E-02  0.1130116E+00
         25   -1    0    0    0    0  0.00000000000E+00  0.00000000000E+00  0.99999998245E-14  0.12500000000E+03  0.12500000000E+03 0.  0.
        -11    1    3    3    0    0 -0.44817376606E+02 -0.29380842759E+02  0.31311861646E+02  0.62066608149E+02  0.51100000000E-03 0.  1.
         23    2    1    0    0    0 -0.22338428932E+02 -0.90578037449E+01  0.16435564361E+02  0.95825062268E+02  0.91275766592E+02 0.  0.
         11    1    3    3    0    0  0.22478947674E+02  0.20323039014E+02 -0.14876297285E+02  0.33758454119E+02  0.51100000000E-03 0. -1.
         22    1    1    0    0    0  0.22338428932E+02  0.90578037449E+01 -0.16435564361E+02  0.29174937732E+02  0.00000000000E+00 0.  1.
</event>
<event>
 5    1  0.8962782E-005  0.9118800E+02  0.7818608E-02  0.1130116E+00
         25   -1    0    0    0    0  0.00000000000E+00  0.00000000000E+00  0.99999998245E-14  0.12500000000E+03  0.12500000000E+03 0.  0.
        -11    1    3    3    0    0 -0.25135064750E+02 -0.24388424468E+02 -0.46559675503E+02  0.58261223049E+02  0.51100000000E-03 0.  1.
         23    2    1    0    0    0 -0.42815884549E+01 -0.26255747947E+02 -0.22471369845E+02  0.90176749683E+02  0.83181653150E+02 0.  0.
         11    1    3    3    0    0  0.20853476295E+02 -0.18673234788E+01  0.24088305658E+02  0.31915526633E+02  0.51100000000E-03 0. -1.
         22    1    1    0    0    0  0.42815884549E+01  0.26255747947E+02  0.22471369845E+02  0.34823250317E+02  0.00000000000E+00 0.  1.
</event>
<event>
 5    1  0.8962782E-005  0.9118800E+02  0.7818608E-02  0.1130116E+00
         25   -1    0    0    0    0  0.00000000000E+00  0.00000000000E+00  0.99999998245E-14  0.12500000000E+03  0.12500000000E+03 0.  0.
        -11    1    3    3    0    0 -0.35126700154E+02 -0.47768164759E+01  0.89519816930E+01  0.36562836540E+02  0.51100000000E-03 0. -1.
         23    2    1    0    0    0  0.22866992306E+02  0.12913215714E+02  0.91365488718E+01  0.97194838564E+02  0.93132752783E+02 0.  0.
         11    1    3    3    0    0  0.57993692460E+02  0.17690032190E+02  0.18456717883E+00  0.60632002024E+02  0.51100000000E-03 0.  1.
         22    1    1    0    0    0 -0.22866992306E+02 -0.12913215714E+02 -0.91365488718E+01  0.27805161436E+02  0.00000000000E+00 0. -1.
</event>
<event>
 5    1  0.8962782E-005  0.9118800E+02  0.7818608E-02  0.1130116E+00
         25   -1    0    0    0    0  0.00000000000E+00  0.00000000000E+00  0.99999998245E-14  0.12500000000E+03  0.12500000000E+03 0.  0.
        -11    1    3    3    0    0  0.61826987352E+01 -0.67641204294E+01  0.49380294475E+02  0.50223426521E+02  0.51100000000E-03 0.  1.
         23    2    1    0    0    0  0.10752951568E+02 -0.25985322316E+02  0.85104745690E+01  0.95618183844E+02  0.90992010423E+02 0.  0.
         11    1    3    3    0    0  0.45702528325E+01 -0.19221201886E+02 -0.40869819906E+02  0.45394757322E+02  0.51100000000E-03 0. -1.
         22    1    1    0    0    0 -0.10752951568E+02  0.25985322316E+02 -0.85104745690E+01  0.29381816156E+02  0.00000000000E+00 0.  1.
</event>
<event>
 5    1  0.8962782E-005  0.9118800E+02  0.7818608E-02  0.1130116E+00
         25   -1    0    0    0    0  0.00000000000E+00  0.00000000000E+00  0.99999998245E-14  0.12500000000E+03  0.12500000000E+03 0.  0.
        -11    1    3    3    0    0  0.31126144078E+02  0.24186132325E+02 -0.12175480884E+02  0.41255886574E+02  0.51100000000E-03 0.  1.
         23    2    1    0    0    0 -0.23287228900E+02  0.96964335495E+01 -0.10739393880E+02  0.97583756013E+02  0.93653291471E+02 0.  0.
         11    1    3    3    0    0 -0.54413372978E+02 -0.14489698775E+02  0.14360870043E+01  0.56327869439E+02  0.51100000000E-03 0. -1.
         22    1    1    0    0    0  0.23287228900E+02 -0.96964335495E+01  0.10739393880E+02  0.27416243987E+02  0.00000000000E+00 0. -1.
</event>
<event>
 5    1  0.8962782E-005  0.9118800E+02  0.7818608E-02  0.1130116E+00
         25   -1    0    0    0    0  0.00000000000E+00  0.00000000000E+00  0.99999998245E-14  0.12500000000E+03  0.12500000000E+03 0.  0.
        -11    1    3    3    0    0  0.93573854982E+01  0.33168888898E+02  0.36734088699E+02  0.50369922840E+02  0.51100000000E-03 0.  1.
         23    2    1    0    0    0  0.22269592054E+02  0.17578635764E+02 -0.44704162819E+01  0.96278443857E+02  0.91894564388E+02 0.  0.
         11    1    3    3    0    0  0.12912206556E+02 -0.15590253134E+02 -0.41204504981E+02  0.45908521017E+02  0.51100000000E-03 0. -1.
         22    1    1    0    0    0 -0.22269592054E+02 -0.17578635764E+02  0.44704162819E+01  0.28721556143E+02  0.00000000000E+00 0.  1.
</event>
<event>
 5    1  0.8962782E-005  0.9118800E+02  0.7818608E-02  0.1130116E+00
         25   -1    0    0    0    0  0.00000000000E+00  0.00000000000E+00  0.99999998245E-14  0.12500000000E+03  0.12500000000E+03 0.  0.
        -11    1    3    3    0    0 -0.49597210615E+02  0.27625856366E+02 -0.14009709745E+02  0.58475150348E+02  0.51100000000E-03 0.  1.
         23    2    1    0    0    0 -0.29483155447E+02  0.78088834967E+00  0.15778444931E+01  0.95464329448E+02  0.90780407368E+02 0.  0.
         11    1    3    3    0    0  0.20114055168E+02 -0.26844968016E+02  0.15587554239E+02  0.36989179100E+02  0.51100000000E-03 0. -1.
         22    1    1    0    0    0  0.29483155447E+02 -0.78088834967E+00 -0.15778444931E+01  0.29535670552E+02  0.00000000000E+00 0.  1.
</event>
<event>
 5    1  0.8962782E-005  0.9118800E+02  0.7818608E-02  0.1130116E+00
         25   -1    0    0    0    0  0.00000000000E+00  0.00000000000E+00  0.99999998245E-14  0.12500000000E+03  0.12500000000E+03 0.  0.
        -11    1    3    3    0    0  0.18790405020E+02 -0.33975168219E+02  0.28855661737E+01  0.38932221472E+02  0.51100000000E-03 0.  1.
         23    2    1    0    0    0 -0.22111451233E+02 -0.40535087454E+01 -0.20344625265E+02  0.94680847869E+02  0.89695105592E+02 0.  0.
         11    1    3    3    0    0 -0.40901856252E+02  0.29921659474E+02 -0.23230191439E+02  0.55748626397E+02  0.51100000000E-03 0. -1.
         22    1    1    0    0    0  0.22111451233E+02  0.40535087454E+01  0.20344625265E+02  0.30319152131E+02  0.00000000000E+00 0. -1.
</event>
<event>
 5    1  0.8962782E-005  0.9118800E+02  0.7818608E-02  0.1130116E+00
         25   -1    0    0    0    0  0.00000000000E+00  0.00000000000E+00  0.99999998245E-14  0.12500000000E+03  0.12500000000E+03 0.  0.
        -11    1    3    3    0    0 -0.10321774731E+02 -0.18894317232E+02  0.30875242905E+02  0.37640601509E+02  0.51100000000E-03 0.  1.
         23    2    1    0    0    0 -0.11640771387E+02 -0.30745453881E+01 -0.25817039235E+02  0.96513513683E+02  0.92213764811E+02 0.  0.
         11    1    3    3    0    0 -0.13189966566E+01  0.15819771844E+02 -0.56692282140E+02  0.58872912174E+02  0.51100000000E-03 0. -1.
         22    1    1    0    0    0  0.11640771387E+02  0.30745453881E+01  0.25817039235E+02  0.28486486317E+02  0.00000000000E+00 0. -1.
</event>
<event>
 5    1  0.8962782E-005  0.9118800E+02  0.7818608E-02  0.1130116E+00
         25   -1    0    0    0    0  0.00000000000E+00  0.00000000000E+00  0.99999998245E-14  0.12500000000E+03  0.12500000000E+03 0.  0.
        -11    1    3    3    0    0 -0.42005163718E+02  0.12749303367E+01  0.11127301239E+02  0.43472704764E+02  0.51100000000E-03 0.  1.
         23    2    1    0    0    0 -0.22396081036E+02  0.32627296373E+02 -0.72502652001E+01  0.84767037645E+02  0.74610719145E+02 0.  0.
         11    1    3    3    0    0  0.19609082682E+02  0.31352366036E+02 -0.18377566439E+02  0.41294332882E+02  0.51100000000E-03 0. -1.
         22    1    1    0    0    0  0.22396081036E+02 -0.32627296373E+02  0.72502652001E+01  0.40232962355E+02  0.00000000000E+00 0. -1.
</event>
<event>
 5    1  0.8962782E-005  0.9118800E+02  0.7818608E-02  0.1130116E+00
         25   -1    0    0    0    0  0.00000000000E+00  0.00000000000E+00  0.99999998245E-14  0.12500000000E+03  0.12500000000E+03 0.  0.
        -11    1    3    3    0    0 -0.13199472047E+02  0.36202665471E+02  0.32635561660E+02  0.50496920051E+02  0.51100000000E-03 0.  1.
         23    2    1    0    0    0 -0.14994717155E+02 -0.75749330757E+01  0.24860113827E+02  0.94995893395E+02  0.90133086870E+02 0.  0.
         11    1    3    3    0    0 -0.17952451078E+01 -0.43777598546E+02 -0.77754478323E+01  0.44498973345E+02  0.51100000000E-03 0. -1.
         22    1    1    0    0    0  0.14994717155E+02  0.75749330757E+01 -0.24860113827E+02  0.30004106605E+02  0.00000000000E+00 0.  1.
</event>
<event>
 5    1  0.8962782E-005  0.9118800E+02  0.7818608E-02  0.1130116E+00
         25   -1    0    0    0    0  0.00000000000E+00  0.00000000000E+00  0.99999998245E-14  0.12500000000E+03  0.12500000000E+03 0.  0.
        -11    1    3    3    0    0 -0.77670521265E+01 -0.83038729803E+01  0.37684954675E+02  0.39362891336E+02  0.51100000000E-03 0.  1.
         23    2    1    0    0    0  0.19787259721E+02  0.21460471667E+02 -0.15148670493E+01  0.95770181088E+02  0.91200577147E+02 0.  0.
         11    1    3    3    0    0  0.27554311847E+02  0.29764344648E+02 -0.39199821724E+02  0.56407289752E+02  0.51100000000E-03 0. -1.
         22    1    1    0    0    0 -0.19787259721E+02 -0.21460471667E+02  0.15148670493E+01  0.29229818912E+02  0.00000000000E+00 0. -1.
</event>
<event>
 5    1  0.8962782E-005  0.9118800E+02  0.7818608E-02  0.1130116E+00
         25   -1    0    0    0    0  0.00000000000E+00  0.00000000000E+00  0.99999998245E-14  0.12500000000E+03  0.12500000000E+03 0.  0.
        -11    1    3    3    0    0  0.28368840547E+02 -0.17327315266E+02 -0.11422147378E+02  0.35149572107E+02  0.51100000000E-03 0.  1.
         23    2    1    0    0    0 -0.16338526119E+02  0.12894306531E+02  0.18759185787E+02  0.96980049464E+02  0.92844021703E+02 0.  0.
         11    1    3    3    0    0 -0.44707366666E+02  0.30221621797E+02  0.30181333166E+02  0.61830477357E+02  0.51100000000E-03 0. -1.
         22    1    1    0    0    0  0.16338526119E+02 -0.12894306531E+02 -0.18759185787E+02  0.28019950536E+02  0.00000000000E+00 0. -1.
</event>
<event>
 5    1  0.8962782E-005  0.9118800E+02  0.7818608E-02  0.1130116E+00
         25   -1    0    0    0    0  0.00000000000E+00  0.00000000000E+00  0.99999998245E-14  0.12500000000E+03  0.12500000000E+03 0.  0.
        -11    1    3    3    0    0 -0.53307412361E+02  0.19863531435E+02 -0.62705802912E+01  0.57232510614E+02  0.51100000000E-03 0.  1.
         23    2    1    0    0    0 -0.27401598182E+02 -0.85673530920E+01 -0.58617697170E+01  0.95697995527E+02  0.91101585506E+02 0.  0.
         11    1    3    3    0    0  0.25905814179E+02 -0.28430884527E+02  0.40881057413E+00  0.38465484913E+02  0.51100000000E-03 0. -1.
         22    1    1    0    0    0  0.27401598182E+02  0.85673530920E+01  0.58617697170E+01  0.29302004473E+02  0.00000000000E+00 0.  1.
</event>
<event>
 5    1  0.8962782E-005  0.9118800E+02  0.7818608E-02  0.1130116E+00
         25   -1    0    0    0    0  0.00000000000E+00  0.00000000000E+00  0.99999998245E-14  0.12500000000E+03  0.12500000000E+03 0.  0.
        -11    1    3    3    0    0  0.21662387632E+02 -0.65705272728E+01  0.52914604499E+02  0.57553333840E+02  0.51100000000E-03 0.  1.
         23    2    1    0    0    0  0.11195319666E+02 -0.19547362204E+02  0.18287363644E+02  0.95985137935E+02  0.91494723803E+02 0.  0.
         11    1    3    3    0    0 -0.10467067966E+02 -0.12976834931E+02 -0.34627240854E+02  0.38431804096E+02  0.51100000000E-03 0. -1.
         22    1    1    0    0    0 -0.11195319666E+02  0.19547362204E+02 -0.18287363644E+02  0.29014862065E+02  0.00000000000E+00 0.  1.
</event>
<event>
 5    1  0.8962782E-005  0.9118800E+02  0.7818608E-02  0.1130116E+00
         25   -1    0    0    0    0  0.00000000000E+00  0.00000000000E+00  0.99999998245E-14  0.12500000000E+03  0.12500000000E+03 0.  0.
        -11    1    3    3    0    0 -0.33048779296E+02  0.52165766455E+02 -0.72178768174E+01  0.62173842963E+02  0.51100000000E-03 0.  1.
         23    2    1    0    0    0 -0.11606201840E+02  0.23221268068E+02  0.59431199147E+00  0.99033012909E+02  0.95568055475E+02 0.  0.
         11    1    3    3    0    0  0.21442577455E+02 -0.28944498388E+02  0.78121888089E+01  0.36859169946E+02  0.51100000000E-03 0. -1.
         22    1    1    0    0    0  0.11606201840E+02 -0.23221268068E+02 -0.59431199147E+00  0.25966987091E+02  0.00000000000E+00 0.  1.
</event>
<event>
 5    1  0.8962782E-005  0.9118800E+02  0.7818608E-02  0.1130116E+00
         25   -1    0    0    0    0  0.00000000000E+00  0.00000000000E+00  0.99999998245E-14  0.12500000000E+03  0.12500000000E+03 0.  0.
        -11    1    3    3    0    0 -0.33479021263E+02 -0.19143720839E+02  0.92048387236E+01  0.39649161006E+02  0.51100000000E-03 0.  1.
         23    2    1    0    0    0  0.24541603816E+01  0.23599871206E+02  0.16691828442E+02  0.95989761103E+02  0.91501039753E+02 0.  0.
         11    1    3    3    0    0  0.35933181645E+02  0.42743592045E+02  0.74869897181E+01  0.56340600097E+02  0.51100000000E-03 0. -1.
         22    1    1    0    0    0 -0.24541603816E+01 -0.23599871206E+02 -0.16691828442E+02  0.29010238897E+02  0.00000000000E+00 0. -1.
</event>
<event>
 5    1  0.8962782E-005  0.9118800E+02  0.7818608E-02  0.1130116E+00
         25   -1    0    0    0    0  0.00000000000E+00  0.00000000000E+00  0.99999998245E-14  0.12500000000E+03  0.12500000000E+03 0.  0.
        -11    1    3    3    0    0  0.26017586742E+02  0.27915265214E+02  0.74234212050E+01  0.38875236777E+02  0.51100000000E-03 0.  1.
         23    2    1    0    0    0 -0.23230260560E+02  0.76041934415E+01  0.19773845743E+02  0.93559997789E+02  0.88119234263E+02 0.  0.
         11    1    3    3    0    0 -0.49247847302E+02 -0.20311071772E+02  0.12350424538E+02  0.54684761012E+02  0.51100000000E-03 0. -1.
         22    1    1    0    0    0  0.23230260560E+02 -0.76041934415E+01 -0.19773845743E+02  0.31440002211E+02  0.00000000000E+00 0. -1.
</event>
<event>
 5    1  0.8962782E-005  0.9118800E+02  0.7818608E-02  0.1130116E+00
         25   -1    0    0    0    0  0.00000000000E+00  0.00000000000E+00  0.99999998245E-14  0.12500000000E+03  0.12500000000E+03 0.  0.
        -11    1    3    3    0    0 -0.15481662771E+02  0.96825661002E+01 -0.55060170086E+02  0.58009105308E+02  0.51100000000E-03 0. -1.
         23    2    1    0    0    0 -0.82866759892E+01  0.20165503537E+02 -0.19587760362E+02  0.95691351313E+02  0.91092468559E+02 0.  0.
         11    1    3    3    0    0  0.71949867820E+01  0.10482937437E+02  0.35472409724E+02  0.37682246005E+02  0.51100000000E-03 0.  1.
         22    1    1    0    0    0  0.82866759892E+01 -0.20165503537E+02  0.19587760362E+02  0.29308648687E+02  0.00000000000E+00 0. -1.
</event>
<event>
 5    1  0.8962782E-005  0.9118800E+02  0.7818608E-02  0.1130116E+00
         25   -1    0    0    0    0  0.00000000000E+00  0.00000000000E+00  0.99999998245E-14  0.12500000000E+03  0.12500000000E+03 0.  0.
        -11    1    3    3    0    0  0.17834624472E+02 -0.55275842550E+02  0.15132220867E+02  0.60020635687E+02  0.51100000000E-03 0. -1.
         23    2    1    0    0    0 -0.34133065690E+01 -0.28391629556E+02  0.10191480111E+02  0.94642108811E+02  0.89641102195E+02 0.  0.
         11    1    3    3    0    0 -0.21247931041E+02  0.26884212993E+02 -0.49407407561E+01  0.34621473124E+02  0.51100000000E-03 0.  1.
         22    1    1    0    0    0  0.34133065690E+01  0.28391629556E+02 -0.10191480111E+02  0.30357891189E+02  0.00000000000E+00 0. -1.
</event>
<event>
 5    1  0.8962782E-005  0.9118800E+02  0.7818608E-02  0.1130116E+00
         25   -1    0    0    0    0  0.00000000000E+00  0.00000000000E+00  0.99999998245E-14  0.12500000000E+03  0.12500000000E+03 0.  0.
        -11    1    3    3    0    0 -0.98505443292E+01 -0.23791092591E+02  0.31015804680E+02  0.40311654028E+02  0.51100000000E-03 0.  1.
         23    2    1    0    0    0 -0.28552410566E+02  0.16657818440E+02  0.60405668702E+01  0.91396257464E+02  0.84994496093E+02 0.  0.
         11    1    3    3    0    0 -0.18701866237E+02  0.40448911031E+02 -0.24975237809E+02  0.51084603436E+02  0.51100000000E-03 0. -1.
         22    1    1    0    0    0  0.28552410566E+02 -0.16657818440E+02 -0.60405668702E+01  0.33603742536E+02  0.00000000000E+00 0. -1.
</event>
<event>
 5    1  0.8962782E-005  0.9118800E+02  0.7818608E-02  0.1130116E+00
         25   -1    0    0    0    0  0.00000000000E+00  0.00000000000E+00  0.99999998245E-14  0.12500000000E+03  0.12500000000E+03 0.  0.
        -11    1    3    3    0    0  0.12719184395E+02  0.27557373584E+02  0.44771931254E+02  0.54089854123E+02  0.51100000000E-03 0. -1.
         23    2    1    0    0    0 -0.33959403792E+01 -0.75848690603E+01  0.27203535590E+02  0.96555404761E+02  0.92270532622E+02 0.  0.
         11    1    3    3    0    0 -0.16115124774E+02 -0.35142242644E+02 -0.17568395664E+02  0.42465550639E+02  0.51100000000E-03 0.  1.
         22    1    1    0    0    0  0.33959403792E+01  0.75848690603E+01 -0.27203535590E+02  0.28444595239E+02  0.00000000000E+00 0.  1.
</event>
<event>
 5    1  0.8962782E-005  0.9118800E+02  0.7818608E-02  0.1130116E+00
         25   -1    0    0    0    0  0.00000000000E+00  0.00000000000E+00  0.99999998245E-14  0.12500000000E+03  0.12500000000E+03 0.  0.
        -11    1    3    3    0    0 -0.29028757927E+02  0.56146494010E+01  0.41567646710E+02  0.51010413916E+02  0.51100000000E-03 0. -1.
         23    2    1    0    0    0  0.12571957379E+02  0.59033010739E+01  0.26174822518E+02  0.95368523328E+02  0.90648391227E+02 0.  0.
         11    1    3    3    0    0  0.41600715306E+02  0.28865167293E+00 -0.15392824192E+02  0.44358109412E+02  0.51100000000E-03 0.  1.
         22    1    1    0    0    0 -0.12571957379E+02 -0.59033010739E+01 -0.26174822518E+02  0.29631476672E+02  0.00000000000E+00 0.  1.
</event>
<event>
 5    1  0.8962782E-005  0.9118800E+02  0.7818608E-02  0.1130116E+00
         25   -1    0    0    0    0  0.00000000000E+00  0.00000000000E+00  0.99999998245E-14  0.12500000000E+03  0.12500000000E+03 0.  0.
        -11    1    3    3    0    0  0.75189026332E+01 -0.92660895380E+01  0.33215983228E+02  0.35294416757E+02  0.51100000000E-03 0. -1.
         23    2    1    0    0    0  0.11435408692E+02  0.25843409343E+02 -0.13350475100E+02  0.93744831407E+02  0.88381037852E+02 0.  0.
         11    1    3    3    0    0  0.39165060585E+01  0.35109498881E+02 -0.46566458328E+02  0.58450414650E+02  0.51100000000E-03 0.  1.
         22    1    1    0    0    0 -0.11435408692E+02 -0.25843409343E+02  0.13350475100E+02  0.31255168593E+02  0.00000000000E+00 0.  1.
</event>
<event>
 5    1  0.8962782E-005  0.9118800E+02  0.7818608E-02  0.1130116E+00
         25   -1    0    0    0    0  0.00000000000E+00  0.00000000000E+00  0.99999998245E-14  0.12500000000E+03  0.12500000000E+03 0.  0.
        -11    1    3    3    0    0 -0.37295184972E+02  0.18381769950E+01  0.46837773498E+02  0.59900640592E+02  0.51100000000E-03 0. -1.
         23    2    1    0    0    0 -0.95558886675E+01 -0.81632478575E+01  0.26348554152E+02  0.95807536423E+02  0.91251762206E+02 0.  0.
         11    1    3    3    0    0  0.27739296304E+02 -0.10001424853E+02 -0.20489219347E+02  0.35906895831E+02  0.51100000000E-03 0.  1.
         22    1    1    0    0    0  0.95558886675E+01  0.81632478575E+01 -0.26348554152E+02  0.29192463577E+02  0.00000000000E+00 0. -1.
</event>
<event>
 5    1  0.8962782E-005  0.9118800E+02  0.7818608E-02  0.1130116E+00
         25   -1    0    0    0    0  0.00000000000E+00  0.00000000000E+00  0.99999998245E-14  0.12500000000E+03  0.12500000000E+03 0.  0.
        -11    1    3    3    0    0 -0.12993831129E+02 -0.52707648075E+01 -0.60784305245E+02  0.62380705137E+02  0.51100000000E-03 0.  1.
         23    2    1    0    0    0 -0.36884453401E+01 -0.18307477515E+01 -0.29859854441E+02  0.94857551964E+02  0.89941025072E+02 0.  0.
         11    1    3    3    0    0  0.93053857889E+01  0.34400170560E+01  0.30924450803E+02  0.32476846826E+02  0.51100000000E-03 0. -1.
         22    1    1    0    0    0  0.36884453401E+01  0.18307477515E+01  0.29859854441E+02  0.30142448036E+02  0.00000000000E+00 0.  1.
</event>
<event>
 5    1  0.8962782E-005  0.9118800E+02  0.7818608E-02  0.1130116E+00
         25   -1    0    0    0    0  0.00000000000E+00  0.00000000000E+00  0.99999998245E-14  0.12500000000E+03  0.12500000000E+03 0.  0.
        -11    1    3    3    0    0 -0.64100369449E+01  0.49363865130E+01 -0.42187611205E+02  0.42956385147E+02  0.51100000000E-03 0.  1.
         23    2    1    0    0    0  0.14980118578E+02  0.27833770185E+02 -0.28289629873E+01  0.93264755445E+02  0.87699423381E+02 0.  0.
         11    1    3    3    0    0  0.21390155523E+02  0.22897383672E+02  0.39358648217E+02  0.50308370299E+02  0.51100000000E-03 0. -1.
         22    1    1    0    0    0 -0.14980118578E+02 -0.27833770185E+02  0.28289629873E+01  0.31735244555E+02  0.00000000000E+00 0. -1.
</event>
<event>
 5    1  0.8962782E-005  0.9118800E+02  0.7818608E-02  0.1130116E+00
         25   -1    0    0    0    0  0.00000000000E+00  0.00000000000E+00  0.99999998245E-14  0.12500000000E+03  0.12500000000E+03 0.  0.
        -11    1    3    3    0    0  0.55360238824E+01  0.19508610752E+02 -0.35821482892E+02  0.41163237127E+02  0.51100000000E-03 0.  1.
         23    2    1    0    0    0  0.29271637459E+02 -0.14597036987E+01  0.74246149839E+01  0.94766171230E+02  0.89813934373E+02 0.  0.
         11    1    3    3    0    0  0.23735613577E+02 -0.20968314451E+02  0.43246097876E+02  0.53602934104E+02  0.51100000000E-03 0. -1.
         22    1    1    0    0    0 -0.29271637459E+02  0.14597036987E+01 -0.74246149839E+01  0.30233828770E+02  0.00000000000E+00 0.  1.
</event>
<event>
 5    1  0.8962782E-005  0.9118800E+02  0.7818608E-02  0.1130116E+00
         25   -1    0    0    0    0  0.00000000000E+00  0.00000000000E+00  0.99999998245E-14  0.12500000000E+03  0.12500000000E+03 0.  0.
        -11    1    3    3    0    0  0.12077741279E+02 -0.27478425051E+02 -0.50471164094E+02  0.58722006803E+02  0.51100000000E-03 0.  1.
         23    2    1    0    0    0  0.11384435223E+02 -0.23599566519E+02 -0.14217400818E+02  0.95189273889E+02  0.90400876502E+02 0.  0.
         11    1    3    3    0    0 -0.69330605575E+00  0.38788585320E+01  0.36253763277E+02  0.36467267087E+02  0.51100000000E-03 0. -1.
         22    1    1    0    0    0 -0.11384435223E+02  0.23599566519E+02  0.14217400818E+02  0.29810726111E+02  0.00000000000E+00 0.  1.
</event>
<event>
 5    1  0.8962782E-005  0.9118800E+02  0.7818608E-02  0.1130116E+00
         25   -1    0    0    0    0  0.00000000000E+00  0.00000000000E+00  0.99999998245E-14  0.12500000000E+03  0.12500000000E+03 0.  0.
        -11    1    3    3    0    0 -0.33167680876E+02  0.43168775855E+01  0.19952690106E+02  0.38946634380E+02  0.51100000000E-03 0.  1.
         23    2    1    0    0    0  0.21153871345E+01 -0.30009692624E+02 -0.55835342364E+01  0.94402085550E+02  0.89305774660E+02 0.  0.
         11    1    3    3    0    0  0.35283068011E+02 -0.34326570209E+02 -0.25536224342E+02  0.55455451170E+02  0.51100000000E-03 0. -1.
         22    1    1    0    0    0 -0.21153871345E+01  0.30009692624E+02  0.55835342364E+01  0.30597914450E+02  0.00000000000E+00 0. -1.
</event>
<event>
 5    1  0.8962782E-005  0.9118800E+02  0.7818608E-02  0.1130116E+00
         25   -1    0    0    0    0  0.00000000000E+00  0.00000000000E+00  0.99999998245E-14  0.12500000000E+03  0.12500000000E+03 0.  0.
        -11    1    3    3    0    0 -0.39204210365E+02 -0.78048559982E+01 -0.32664538915E+02  0.51622262545E+02  0.51100000000E-03 0. -1.
         23    2    1    0    0    0  0.32484164523E+01 -0.79022610115E+01 -0.29606891499E+02  0.94184971803E+02  0.89001364881E+02 0.  0.
         11    1    3    3    0    0  0.42452626817E+02 -0.97405013251E-01  0.30576474159E+01  0.42562709258E+02  0.51100000000E-03 0.  1.
         22    1    1    0    0    0 -0.32484164523E+01  0.79022610115E+01  0.29606891499E+02  0.30815028197E+02  0.00000000000E+00 0.  1.
</event>
<event>
 5    1  0.8962782E-005  0.9118800E+02  0.7818608E-02  0.1130116E+00
         25   -1    0    0    0    0  0.00000000000E+00  0.00000000000E+00  0.99999998245E-14  0.12500000000E+03  0.12500000000E+03 0.  0.
        -11    1    3    3    0    0  0.12321178769E+02  0.15533558411E+02  0.36640957429E+02  0.41661284723E+02  0.51100000000E-03 0. -1.
         23    2    1    0    0    0 -0.14379414478E+02  0.31800407644E+02 -0.35324879193E+00  0.90097875828E+02  0.83063042064E+02 0.  0.
         11    1    3    3    0    0 -0.26700593247E+02  0.16266849232E+02 -0.36994206221E+02  0.48436591105E+02  0.51100000000E-03 0.  1.
         22    1    1    0    0    0  0.14379414478E+02 -0.31800407644E+02  0.35324879193E+00  0.34902124172E+02  0.00000000000E+00 0.  1.
</event>
<event>
 5    1  0.8962782E-005  0.9118800E+02  0.7818608E-02  0.1130116E+00
         25   -1    0    0    0    0  0.00000000000E+00  0.00000000000E+00  0.99999998245E-14  0.12500000000E+03  0.12500000000E+03 0.  0.
        -11    1    3    3    0    0  0.98514355474E+00  0.29015879087E+02  0.17839210094E+02  0.34075345399E+02  0.51100000000E-03 0.  1.
         23    2    1    0    0    0  0.18144153535E+01 -0.15863342697E+02 -0.24484641615E+02  0.95769272680E+02  0.91199332070E+02 0.  0.
         11    1    3    3    0    0  0.82927179874E+00 -0.44879221784E+02 -0.42323851709E+02  0.61693927282E+02  0.51100000000E-03 0. -1.
         22    1    1    0    0    0 -0.18144153535E+01  0.15863342697E+02  0.24484641615E+02  0.29230727320E+02  0.00000000000E+00 0. -1.
</event>
<event>
 5    1  0.8962782E-005  0.9118800E+02  0.7818608E-02  0.1130116E+00
         25   -1    0    0    0    0  0.00000000000E+00  0.00000000000E+00  0.99999998245E-14  0.12500000000E+03  0.12500000000E+03 0.  0.
        -11    1    3    3    0    0  0.61255957108E+01 -0.54837926438E+02  0.17091057301E+02  0.57765260657E+02  0.51100000000E-03 0. -1.
         23    2    1    0    0    0  0.58250679723E+01 -0.17212531661E+02  0.22823613552E+02  0.95826039031E+02  0.91277104237E+02 0.  0.
         11    1    3    3    0    0 -0.30052773846E+00  0.37625394777E+02  0.57325562503E+01  0.38060778375E+02  0.51100000000E-03 0.  1.
         22    1    1    0    0    0 -0.58250679723E+01  0.17212531661E+02 -0.22823613552E+02  0.29173960969E+02  0.00000000000E+00 0. -1.
</event>
<event>
 5    1  0.8962782E-005  0.9118800E+02  0.7818608E-02  0.1130116E+00
         25   -1    0    0    0    0  0.00000000000E+00  0.00000000000E+00  0.99999998245E-14  0.12500000000E+03  0.12500000000E+03 0.  0.
        -11    1    3    3    0    0 -0.25394805907E+02 -0.12242908830E+02 -0.21732380296E+02  0.35596085983E+02  0.51100000000E-03 0.  1.
         23    2    1    0    0    0  0.28566996119E+02  0.50858966252E+01 -0.93067309695E+00  0.95968882830E+02  0.91472513398E+02 0.  0.
         11    1    3    3    0    0  0.53961802026E+02  0.17328805456E+02  0.20801707199E+02  0.60372796847E+02  0.51100000000E-03 0. -1.
         22    1    1    0    0    0 -0.28566996119E+02 -0.50858966252E+01  0.93067309695E+00  0.29031117170E+02  0.00000000000E+00 0. -1.
</event>
<event>
 5    1  0.8962782E-005  0.9118800E+02  0.7818608E-02  0.1130116E+00
         25   -1    0    0    0    0  0.00000000000E+00  0.00000000000E+00  0.99999998245E-14  0.12500000000E+03  0.12500000000E+03 0.  0.
        -11    1    3    3    0    0 -0.37092952037E+02  0.63286636016E+01  0.53693330603E+01  0.38010114596E+02  0.51100000000E-03 0.  1.
         23    2    1    0    0    0  0.17211495275E+02  0.16331726928E+02  0.18671122708E+02  0.94807754353E+02  0.89871789724E+02 0.  0.
         11    1    3    3    0    0  0.54304447312E+02  0.10003063326E+02  0.13301789648E+02  0.56797639757E+02  0.51100000000E-03 0. -1.
         22    1    1    0    0    0 -0.17211495275E+02 -0.16331726928E+02 -0.18671122708E+02  0.30192245647E+02  0.00000000000E+00 0. -1.
</event>
<event>
 5    1  0.8962782E-005  0.9118800E+02  0.7818608E-02  0.1130116E+00
         25   -1    0    0    0    0  0.00000000000E+00  0.00000000000E+00  0.99999998245E-14  0.12500000000E+03  0.12500000000E+03 0.  0.
        -11    1    3    3    0    0 -0.54030820884E+02  0.28417201131E+02  0.12339554294E+02  0.62282674364E+02  0.51100000000E-03 0.  1.
         23    2    1    0    0    0 -0.24581001316E+02  0.14163581821E+02  0.93162356072E+01  0.95139910891E+02  0.90332595019E+02 0.  0.
         11    1    3    3    0    0  0.29449819568E+02 -0.14253619310E+02 -0.30233186868E+01  0.32857236527E+02  0.51100000000E-03 0. -1.
         22    1    1    0    0    0  0.24581001316E+02 -0.14163581821E+02 -0.93162356072E+01  0.29860089109E+02  0.00000000000E+00 0.  1.
</event>
<event>
 5    1  0.8962782E-005  0.9118800E+02  0.7818608E-02  0.1130116E+00
         25   -1    0    0    0    0  0.00000000000E+00  0.00000000000E+00  0.99999998245E-14  0.12500000000E+03  0.12500000000E+03 0.  0.
        -11    1    3    3    0    0 -0.33597539107E+02  0.33846253184E+02 -0.24856085572E+02  0.53779071011E+02  0.51100000000E-03 0. -1.
         23    2    1    0    0    0  0.44937662538E+01  0.27694969424E+02 -0.85388504835E+01  0.95672244646E+02  0.91066246005E+02 0.  0.
         11    1    3    3    0    0  0.38091305361E+02 -0.61512837598E+01  0.16317235088E+02  0.41893173634E+02  0.51100000000E-03 0.  1.
         22    1    1    0    0    0 -0.44937662538E+01 -0.27694969424E+02  0.85388504835E+01  0.29327755354E+02  0.00000000000E+00 0. -1.
</event>
<event>
 5    1  0.8962782E-005  0.9118800E+02  0.7818608E-02  0.1130116E+00
         25   -1    0    0    0    0  0.00000000000E+00  0.00000000000E+00  0.99999998245E-14  0.12500000000E+03  0.12500000000E+03 0.  0.
        -11    1    3    3    0    0 -0.15232546910E+02 -0.21152215595E+02 -0.47598603756E+02  0.54268534066E+02  0.51100000000E-03 0. -1.
         23    2    1    0    0    0 -0.24864030064E+02  0.32770739531E+01 -0.16458163696E+02  0.95002827517E+02  0.90142702863E+02 0.  0.
         11    1    3    3    0    0 -0.96314831541E+01  0.24429289548E+02  0.31140440060E+02  0.40734293451E+02  0.51100000000E-03 0.  1.
         22    1    1    0    0    0  0.24864030064E+02 -0.32770739531E+01  0.16458163696E+02  0.29997172483E+02  0.00000000000E+00 0. -1.
</event>
<event>
 5    1  0.8962782E-005  0.9118800E+02  0.7818608E-02  0.1130116E+00
         25   -1    0    0    0    0  0.00000000000E+00  0.00000000000E+00  0.99999998245E-14  0.12500000000E+03  0.12500000000E+03 0.  0.
        -11    1    3    3    0    0 -0.19813461898E+02  0.51336045647E+02  0.18018083950E+02  0.57901763398E+02  0.51100000000E-03 0. -1.
         23    2    1    0    0    0 -0.12646562695E+02  0.25644992779E+02 -0.81504437521E+01  0.95267342264E+02  0.90508759610E+02 0.  0.
         11    1    3    3    0    0  0.71668992030E+01 -0.25691052868E+02 -0.26168527702E+02  0.37365578866E+02  0.51100000000E-03 0.  1.
         22    1    1    0    0    0  0.12646562695E+02 -0.25644992779E+02  0.81504437521E+01  0.29732657736E+02  0.00000000000E+00 0. -1.
</event>
<event>
 5    1  0.8962782E-005  0.9118800E+02  0.7818608E-02  0.1130116E+00
         25   -1    0    0    0    0  0.00000000000E+00  0.00000000000E+00  0.99999998245E-14  0.12500000000E+03  0.12500000000E+03 0.  0.
        -11    1    3    3    0    0  0.43047867471E+02  0.20470805251E+02  0.90233475515E+01  0.48513849185E+02  0.51100000000E-03 0.  1.
         23    2    1    0    0    0  0.25796425638E+01  0.81999917887E+01  0.28616627602E+02  0.95120143970E+02  0.90305237901E+02 0.  0.
         11    1    3    3    0    0 -0.40468224907E+02 -0.12270813463E+02  0.19593280050E+02  0.46606294785E+02  0.51100000000E-03 0. -1.
         22    1    1    0    0    0 -0.25796425638E+01 -0.81999917887E+01 -0.28616627602E+02  0.29879856030E+02  0.00000000000E+00 0.  1.
</event>
<event>
 5    1  0.8962782E-005  0.9118800E+02  0.7818608E-02  0.1130116E+00
         25   -1    0    0    0    0  0.00000000000E+00  0.00000000000E+00  0.99999998245E-14  0.12500000000E+03  0.12500000000E+03 0.  0.
        -11    1    3    3    0    0 -0.48458256004E+01  0.30580428125E+02 -0.17082130946E+02  0.35361614895E+02  0.51100000000E-03 0.  1.
         23    2    1    0    0    0 -0.11385376337E+02 -0.18904716625E+02  0.18123562608E+02  0.96443413604E+02  0.92118691920E+02 0.  0.
         11    1    3    3    0    0 -0.65395507367E+01 -0.49485144749E+02  0.35205693554E+02  0.61081798709E+02  0.51100000000E-03 0. -1.
         22    1    1    0    0    0  0.11385376337E+02  0.18904716625E+02 -0.18123562608E+02  0.28556586396E+02  0.00000000000E+00 0. -1.
</event>
<event>
 5    1  0.8962782E-005  0.9118800E+02  0.7818608E-02  0.1130116E+00
         25   -1    0    0    0    0  0.00000000000E+00  0.00000000000E+00  0.99999998245E-14  0.12500000000E+03  0.12500000000E+03 0.  0.
        -11    1    3    3    0    0 -0.38415144708E+02 -0.53564845924E+01  0.21207320210E+02  0.44205946442E+02  0.51100000000E-03 0. -1.
         23    2    1    0    0    0 -0.13185318141E+02 -0.17100876485E+02 -0.21076013266E+02  0.94825657816E+02  0.89896687670E+02 0.  0.
         11    1    3    3    0    0  0.25229826566E+02 -0.11744391892E+02 -0.42283333476E+02  0.50619711374E+02  0.51100000000E-03 0.  1.
         22    1    1    0    0    0  0.13185318141E+02  0.17100876485E+02  0.21076013266E+02  0.30174342184E+02  0.00000000000E+00 0.  1.
</event>
<event>
 5    1  0.8962782E-005  0.9118800E+02  0.7818608E-02  0.1130116E+00
         25   -1    0    0    0    0  0.00000000000E+00  0.00000000000E+00  0.99999998245E-14  0.12500000000E+03  0.12500000000E+03 0.  0.
        -11    1    3    3    0    0  0.11592731092E+02 -0.35471790255E+02 -0.32046366414E+02  0.49189520415E+02  0.51100000000E-03 0.  1.
         23    2    1    0    0    0 -0.23346635062E+02 -0.96804454905E+01 -0.12105090112E+02  0.96976624039E+02  0.92839409788E+02 0.  0.
         11    1    3    3    0    0 -0.34939366154E+02  0.25791344765E+02  0.19941276301E+02  0.47787103624E+02  0.51100000000E-03 0. -1.
         22    1    1    0    0    0  0.23346635062E+02  0.96804454905E+01  0.12105090112E+02  0.28023375961E+02  0.00000000000E+00 0.  1.
</event>
<event>
 5    1  0.8962782E-005  0.9118800E+02  0.7818608E-02  0.1130116E+00
         25   -1    0    0    0    0  0.00000000000E+00  0.00000000000E+00  0.99999998245E-14  0.12500000000E+03  0.12500000000E+03 0.  0.
        -11    1    3    3    0    0 -0.49012224346E+02 -0.67350994279E+01 -0.13196642897E+02  0.51202647233E+02  0.51100000000E-03 0.  1.
         23    2    1    0    0    0 -0.10045573844E+02 -0.24211528325E+02  0.61322980313E+01  0.98079436543E+02  0.94312560859E+02 0.  0.
         11    1    3    3    0    0  0.38966650502E+02 -0.17476428897E+02  0.19328940929E+02  0.46876789310E+02  0.51100000000E-03 0. -1.
         22    1    1    0    0    0  0.10045573844E+02  0.24211528325E+02 -0.61322980313E+01  0.26920563457E+02  0.00000000000E+00 0.  1.
</event>
<event>
 5    1  0.8962782E-005  0.9118800E+02  0.7818608E-02  0.1130116E+00
         25   -1    0    0    0    0  0.00000000000E+00  0.00000000000E+00  0.99999998245E-14  0.12500000000E+03  0.12500000000E+03 0.  0.
        -11    1    3    3    0    0  0.56734199158E+02 -0.21334362417E+02 -0.73733457492E+00  0.60617390544E+02  0.51100000000E-03 0. -1.
         23    2    1    0    0    0  0.23348716148E+02 -0.11687478190E+02  0.10076878796E+02  0.97012446008E+02  0.92887628358E+02 0.  0.
         11    1    3    3    0    0 -0.33385483010E+02  0.96468842272E+01  0.10814213371E+02  0.36395055464E+02  0.51100000000E-03 0.  1.
         22    1    1    0    0    0 -0.23348716148E+02  0.11687478190E+02 -0.10076878796E+02  0.27987553992E+02  0.00000000000E+00 0. -1.
</event>
<event>
 5    1  0.8962782E-005  0.9118800E+02  0.7818608E-02  0.1130116E+00
         25   -1    0    0    0    0  0.00000000000E+00  0.00000000000E+00  0.99999998245E-14  0.12500000000E+03  0.12500000000E+03 0.  0.
        -11    1    3    3    0    0 -0.19702256060E+02  0.45514301562E+02 -0.24248401543E+02  0.55206118485E+02  0.51100000000E-03 0.  1.
         23    2    1    0    0    0 -0.24626114763E+02  0.13462661777E+02  0.19101004693E+01  0.96869282373E+02  0.92694771121E+02 0.  0.
         11    1    3    3    0    0 -0.49238587025E+01 -0.32051639785E+02  0.26158502012E+02  0.41663163888E+02  0.51100000000E-03 0. -1.
         22    1    1    0    0    0  0.24626114763E+02 -0.13462661777E+02 -0.19101004693E+01  0.28130717627E+02  0.00000000000E+00 0.  1.
</event>
<event>
 5    1  0.8962782E-005  0.9118800E+02  0.7818608E-02  0.1130116E+00
         25   -1    0    0    0    0  0.00000000000E+00  0.00000000000E+00  0.99999998245E-14  0.12500000000E+03  0.12500000000E+03 0.  0.
        -11    1    3    3    0    0 -0.13453809879E+02 -0.20794518747E+02  0.27779078910E+02  0.37216854186E+02  0.51100000000E-03 0. -1.
         23    2    1    0    0    0 -0.15665465497E+02  0.10421402599E+02 -0.22022433516E+02  0.96034502950E+02  0.91562141399E+02 0.  0.
         11    1    3    3    0    0 -0.22116556183E+01  0.31215921345E+02 -0.49801512426E+02  0.58817648765E+02  0.51100000000E-03 0.  1.
         22    1    1    0    0    0  0.15665465497E+02 -0.10421402599E+02  0.22022433516E+02  0.28965497050E+02  0.00000000000E+00 0.  1.
</event>
<event>
 5    1  0.8962782E-005  0.9118800E+02  0.7818608E-02  0.1130116E+00
         25   -1    0    0    0    0  0.00000000000E+00  0.00000000000E+00  0.99999998245E-14  0.12500000000E+03  0.12500000000E+03 0.  0.
        -11    1    3    3    0    0 -0.28912265979E+02  0.10237791543E+02  0.45923113824E+02  0.55223761944E+02  0.51100000000E-03 0.  1.
         23    2    1    0    0    0 -0.24517519093E+02 -0.11502496892E+02  0.12903154182E+02  0.95001540622E+02  0.90140918319E+02 0.  0.
         11    1    3    3    0    0  0.43947468859E+01 -0.21740288435E+02 -0.33019959643E+02  0.39777778677E+02  0.51100000000E-03 0. -1.
         22    1    1    0    0    0  0.24517519093E+02  0.11502496892E+02 -0.12903154182E+02  0.29998459378E+02  0.00000000000E+00 0.  1.
</event>
<event>
 5    1  0.8962782E-005  0.9118800E+02  0.7818608E-02  0.1130116E+00
         25   -1    0    0    0    0  0.00000000000E+00  0.00000000000E+00  0.99999998245E-14  0.12500000000E+03  0.12500000000E+03 0.  0.
        -11    1    3    3    0    0 -0.33042368209E+02  0.23545674765E+02 -0.17941014548E+02  0.44363012751E+02  0.51100000000E-03 0.  1.
         23    2    1    0    0    0 -0.94333882549E+01 -0.23479550830E+02 -0.10890378186E+02  0.97452251304E+02  0.93477606014E+02 0.  0.
         11    1    3    3    0    0  0.23608979954E+02 -0.47025225596E+02  0.70506363616E+01  0.53089238554E+02  0.51100000000E-03 0. -1.
         22    1    1    0    0    0  0.94333882549E+01  0.23479550830E+02  0.10890378186E+02  0.27547748696E+02  0.00000000000E+00 0.  1.
</event>
<event>
 5    1  0.8962782E-005  0.9118800E+02  0.7818608E-02  0.1130116E+00
         25   -1    0    0    0    0  0.00000000000E+00  0.00000000000E+00  0.99999998245E-14  0.12500000000E+03  0.12500000000E+03 0.  0.
        -11    1    3    3    0    0  0.10439903687E+00 -0.33372348754E+02  0.13411586109E+02  0.35966584530E+02  0.51100000000E-03 0. -1.
         23    2    1    0    0    0 -0.23849661624E+02  0.18796303914E+02  0.14864206957E+01  0.94597420391E+02  0.89578764770E+02 0.  0.
         11    1    3    3    0    0 -0.23954060661E+02  0.52168652668E+02 -0.11925165413E+02  0.58630835861E+02  0.51100000000E-03 0.  1.
         22    1    1    0    0    0  0.23849661624E+02 -0.18796303914E+02 -0.14864206957E+01  0.30402579609E+02  0.00000000000E+00 0.  1.
</event>
<event>
 5    1  0.8962782E-005  0.9118800E+02  0.7818608E-02  0.1130116E+00
         25   -1    0    0    0    0  0.00000000000E+00  0.00000000000E+00  0.99999998245E-14  0.12500000000E+03  0.12500000000E+03 0.  0.
        -11    1    3    3    0    0 -0.33395774697E+02  0.49353696425E+02 -0.14346341360E+01  0.59608080776E+02  0.51100000000E-03 0.  1.
         23    2    1    0    0    0 -0.30047371191E+02  0.21555582650E+02 -0.43814756799E+01  0.87761780547E+02  0.79469774989E+02 0.  0.
         11    1    3    3    0    0  0.33484035066E+01 -0.27798113775E+02 -0.29468415439E+01  0.28153699771E+02  0.51100000000E-03 0. -1.
         22    1    1    0    0    0  0.30047371191E+02 -0.21555582650E+02  0.43814756799E+01  0.37238219453E+02  0.00000000000E+00 0.  1.
</event>
<event>
 5    1  0.8962782E-005  0.9118800E+02  0.7818608E-02  0.1130116E+00
         25   -1    0    0    0    0  0.00000000000E+00  0.00000000000E+00  0.99999998245E-14  0.12500000000E+03  0.12500000000E+03 0.  0.
        -11    1    3    3    0    0  0.30346089420E+02 -0.45940309519E+02  0.23810109319E+02  0.59985985762E+02  0.51100000000E-03 0.  1.
         23    2    1    0    0    0  0.20332414947E+02 -0.18572945857E+02  0.24969008078E+00  0.97460505442E+02  0.93488642950E+02 0.  0.
         11    1    3    3    0    0 -0.10013674474E+02  0.27367363662E+02 -0.23560419239E+02  0.37474519680E+02  0.51100000000E-03 0. -1.
         22    1    1    0    0    0 -0.20332414947E+02  0.18572945857E+02 -0.24969008078E+00  0.27539494558E+02  0.00000000000E+00 0.  1.
</event>
<event>
 5    1  0.8962782E-005  0.9118800E+02  0.7818608E-02  0.1130116E+00
         25   -1    0    0    0    0  0.00000000000E+00  0.00000000000E+00  0.99999998245E-14  0.12500000000E+03  0.12500000000E+03 0.  0.
        -11    1    3    3    0    0 -0.22664784226E+02 -0.88335237956E+01  0.28804474552E+02  0.37701741884E+02  0.51100000000E-03 0.  1.
         23    2    1    0    0    0 -0.47170602328E+01  0.20950551149E+02 -0.18666347353E+02  0.96546375025E+02  0.92258299119E+02 0.  0.
         11    1    3    3    0    0  0.17947723993E+02  0.29784074945E+02 -0.47470821905E+02  0.58844633141E+02  0.51100000000E-03 0. -1.
         22    1    1    0    0    0  0.47170602328E+01 -0.20950551149E+02  0.18666347353E+02  0.28453624975E+02  0.00000000000E+00 0. -1.
</event>
<event>
 5    1  0.8962782E-005  0.9118800E+02  0.7818608E-02  0.1130116E+00
         25   -1    0    0    0    0  0.00000000000E+00  0.00000000000E+00  0.99999998245E-14  0.12500000000E+03  0.12500000000E+03 0.  0.
        -11    1    3    3    0    0 -0.40012899388E+02  0.18768835652E+02 -0.25512038823E+00  0.44196904822E+02  0.51100000000E-03 0.  1.
         23    2    1    0    0    0 -0.36364454584E+01 -0.52673944474E+01  0.28082707387E+02  0.96197089834E+02  0.91783835497E+02 0.  0.
         11    1    3    3    0    0  0.36376453930E+02 -0.24036230100E+02  0.28337827776E+02  0.52000185011E+02  0.51100000000E-03 0. -1.
         22    1    1    0    0    0  0.36364454584E+01  0.52673944474E+01 -0.28082707387E+02  0.28802910166E+02  0.00000000000E+00 0. -1.
</event>
<event>
 5    1  0.8962782E-005  0.9118800E+02  0.7818608E-02  0.1130116E+00
         25   -1    0    0    0    0  0.00000000000E+00  0.00000000000E+00  0.99999998245E-14  0.12500000000E+03  0.12500000000E+03 0.  0.
        -11    1    3    3    0    0 -0.35140941691E+02 -0.24664275062E+01 -0.32390863821E+02  0.47855376991E+02  0.51100000000E-03 0. -1.
         23    2    1    0    0    0  0.11702833332E+02 -0.14624141629E+02 -0.19549742097E+02  0.97925764232E+02  0.94108666221E+02 0.  0.
         11    1    3    3    0    0  0.46843775023E+02 -0.12157714123E+02  0.12841121724E+02  0.50070387241E+02  0.51100000000E-03 0.  1.
         22    1    1    0    0    0 -0.11702833332E+02  0.14624141629E+02  0.19549742097E+02  0.27074235768E+02  0.00000000000E+00 0.  1.
</event>
<event>
 5    1  0.8962782E-005  0.9118800E+02  0.7818608E-02  0.1130116E+00
         25   -1    0    0    0    0  0.00000000000E+00  0.00000000000E+00  0.99999998245E-14  0.12500000000E+03  0.12500000000E+03 0.  0.
        -11    1    3    3    0    0 -0.39116974592E+02 -0.31368027560E+02 -0.32099302053E+02  0.59535334440E+02  0.51100000000E-03 0.  1.
         23    2    1    0    0    0 -0.22479276251E+02 -0.22545286589E+02 -0.46481401739E+01  0.92825273657E+02  0.87070766703E+02 0.  0.
         11    1    3    3    0    0  0.16637698341E+02  0.88227409713E+01  0.27451161879E+02  0.33289939217E+02  0.51100000000E-03 0. -1.
         22    1    1    0    0    0  0.22479276251E+02  0.22545286589E+02  0.46481401739E+01  0.32174726343E+02  0.00000000000E+00 0.  1.
</event>
<event>
 5    1  0.8962782E-005  0.9118800E+02  0.7818608E-02  0.1130116E+00
         25   -1    0    0    0    0  0.00000000000E+00  0.00000000000E+00  0.99999998245E-14  0.12500000000E+03  0.12500000000E+03 0.  0.
        -11    1    3    3    0    0  0.60085521874E+01 -0.32722733547E+02 -0.23126000819E+02  0.40517797377E+02  0.51100000000E-03 0. -1.
         23    2    1    0    0    0 -0.14529210050E+02  0.19025751551E+02 -0.14914372036E+02  0.96795112835E+02  0.92594698600E+02 0.  0.
         11    1    3    3    0    0 -0.20537762237E+02  0.51748485098E+02  0.82116287839E+01  0.56277315458E+02  0.51100000000E-03 0.  1.
         22    1    1    0    0    0  0.14529210050E+02 -0.19025751551E+02  0.14914372036E+02  0.28204887165E+02  0.00000000000E+00 0.  1.
</event>
<event>
 5    1  0.8962782E-005  0.9118800E+02  0.7818608E-02  0.1130116E+00
         25   -1    0    0    0    0  0.00000000000E+00  0.00000000000E+00  0.99999998245E-14  0.12500000000E+03  0.12500000000E+03 0.  0.
        -11    1    3    3    0    0 -0.59706816681E+01  0.45217222670E+02  0.31224724954E+02  0.55274132415E+02  0.51100000000E-03 0.  1.
         23    2    1    0    0    0 -0.22147378210E+02  0.19376405118E+02  0.57204816789E+01  0.95022085671E+02  0.90169404001E+02 0.  0.
         11    1    3    3    0    0 -0.16176696541E+02 -0.25840817552E+02 -0.25504243275E+02  0.39747953256E+02  0.51100000000E-03 0. -1.
         22    1    1    0    0    0  0.22147378210E+02 -0.19376405118E+02 -0.57204816789E+01  0.29977914329E+02  0.00000000000E+00 0.  1.
</event>
<event>
 5    1  0.8962782E-005  0.9118800E+02  0.7818608E-02  0.1130116E+00
         25   -1    0    0    0    0  0.00000000000E+00  0.00000000000E+00  0.99999998245E-14  0.12500000000E+03  0.12500000000E+03 0.  0.
        -11    1    3    3    0    0  0.17871787060E+02  0.33467964301E+02  0.74049623001E+01  0.38656679553E+02  0.51100000000E-03 0. -1.
         23    2    1    0    0    0 -0.78003958943E+01 -0.32042990931E+01 -0.28017185289E+02  0.95741217040E+02  0.91160870224E+02 0.  0.
         11    1    3    3    0    0 -0.25672182954E+02 -0.36672263394E+02 -0.35422147589E+02  0.57084537487E+02  0.51100000000E-03 0.  1.
         22    1    1    0    0    0  0.78003958943E+01  0.32042990931E+01  0.28017185289E+02  0.29258782960E+02  0.00000000000E+00 0.  1.
</event>
<event>
 5    1  0.8962782E-005  0.9118800E+02  0.7818608E-02  0.1130116E+00
         25   -1    0    0    0    0  0.00000000000E+00  0.00000000000E+00  0.99999998245E-14  0.12500000000E+03  0.12500000000E+03 0.  0.
        -11    1    3    3    0    0  0.31751666472E+02  0.11315758024E+02  0.25851373668E+02  0.42479503578E+02  0.51100000000E-03 0.  1.
         23    2    1    0    0    0 -0.11602983399E+02  0.29233804704E+02  0.10021556329E+02  0.91989756855E+02  0.85862909418E+02 0.  0.
         11    1    3    3    0    0 -0.43354649871E+02  0.17918046681E+02 -0.15829817339E+02  0.49510253277E+02  0.51100000000E-03 0. -1.
         22    1    1    0    0    0  0.11602983399E+02 -0.29233804704E+02 -0.10021556329E+02  0.33010243145E+02  0.00000000000E+00 0. -1.
</event>
<event>
 5    1  0.8962782E-005  0.9118800E+02  0.7818608E-02  0.1130116E+00
         25   -1    0    0    0    0  0.00000000000E+00  0.00000000000E+00  0.99999998245E-14  0.12500000000E+03  0.12500000000E+03 0.  0.
        -11    1    3    3    0    0  0.14378697440E+02  0.28013898169E+02  0.18592926871E+02  0.36568051091E+02  0.51100000000E-03 0. -1.
         23    2    1    0    0    0  0.75503430316E+01 -0.17308357390E+02 -0.20729959446E+02  0.96958635303E+02  0.92815186396E+02 0.  0.
         11    1    3    3    0    0 -0.68283544082E+01 -0.45322255559E+02 -0.39322886317E+02  0.60390584212E+02  0.51100000000E-03 0.  1.
         22    1    1    0    0    0 -0.75503430316E+01  0.17308357390E+02  0.20729959446E+02  0.28041364697E+02  0.00000000000E+00 0.  1.
</event>
<event>
 5    1  0.8962782E-005  0.9118800E+02  0.7818608E-02  0.1130116E+00
         25   -1    0    0    0    0  0.00000000000E+00  0.00000000000E+00  0.99999998245E-14  0.12500000000E+03  0.12500000000E+03 0.  0.
        -11    1    3    3    0    0 -0.11843866074E+02  0.51354591663E+02 -0.25387522953E+02  0.58498697168E+02  0.51100000000E-03 0. -1.
         23    2    1    0    0    0 -0.88933552201E+01  0.14532219249E+02 -0.24131052931E+02  0.95460452290E+02  0.90775068562E+02 0.  0.
         11    1    3    3    0    0  0.29505108541E+01 -0.36822372414E+02  0.12564700222E+01  0.36961755122E+02  0.51100000000E-03 0.  1.
         22    1    1    0    0    0  0.88933552201E+01 -0.14532219249E+02  0.24131052931E+02  0.29539547710E+02  0.00000000000E+00 0.  1.
</event>
<event>
 5    1  0.8962782E-005  0.9118800E+02  0.7818608E-02  0.1130116E+00
         25   -1    0    0    0    0  0.00000000000E+00  0.00000000000E+00  0.99999998245E-14  0.12500000000E+03  0.12500000000E+03 0.  0.
        -11    1    3    3    0    0 -0.37110757761E+02 -0.29218406381E+02 -0.36721905178E+02  0.59828270351E+02  0.51100000000E-03 0.  1.
         23    2    1    0    0    0 -0.14113401389E+02 -0.69538917112E+01 -0.27798260216E+02  0.93058052975E+02  0.87404309069E+02 0.  0.
         11    1    3    3    0    0  0.22997356372E+02  0.22264514670E+02  0.89236449620E+01  0.33229782624E+02  0.51100000000E-03 0. -1.
         22    1    1    0    0    0  0.14113401389E+02  0.69538917112E+01  0.27798260216E+02  0.31941947025E+02  0.00000000000E+00 0.  1.
</event>
<event>
 5    1  0.8962782E-005  0.9118800E+02  0.7818608E-02  0.1130116E+00
         25   -1    0    0    0    0  0.00000000000E+00  0.00000000000E+00  0.99999998245E-14  0.12500000000E+03  0.12500000000E+03 0.  0.
        -11    1    3    3    0    0 -0.12473557356E+02 -0.43570013086E+02  0.94101637746E+01  0.46287005261E+02  0.51100000000E-03 0.  1.
         23    2    1    0    0    0 -0.12801637451E+02  0.69862701916E+00  0.27924952356E+02  0.94272602368E+02  0.89124354652E+02 0.  0.
         11    1    3    3    0    0 -0.32808009449E+00  0.44268640105E+02  0.18514788581E+02  0.47985597108E+02  0.51100000000E-03 0. -1.
         22    1    1    0    0    0  0.12801637451E+02 -0.69862701916E+00 -0.27924952356E+02  0.30727397632E+02  0.00000000000E+00 0. -1.
</event>
<event>
 5    1  0.8962782E-005  0.9118800E+02  0.7818608E-02  0.1130116E+00
         25   -1    0    0    0    0  0.00000000000E+00  0.00000000000E+00  0.99999998245E-14  0.12500000000E+03  0.12500000000E+03 0.  0.
        -11    1    3    3    0    0 -0.25384597027E+02 -0.19370430890E+02 -0.36673599945E+02  0.48626580101E+02  0.51100000000E-03 0.  1.
         23    2    1    0    0    0 -0.87444581658E+01  0.20728547281E+02 -0.19191809876E+02  0.95428666122E+02  0.90731287495E+02 0.  0.
         11    1    3    3    0    0  0.16640138861E+02  0.40098978171E+02  0.17481790069E+02  0.46802086021E+02  0.51100000000E-03 0. -1.
         22    1    1    0    0    0  0.87444581658E+01 -0.20728547281E+02  0.19191809876E+02  0.29571333878E+02  0.00000000000E+00 0.  1.
</event>
<event>
 5    1  0.8962782E-005  0.9118800E+02  0.7818608E-02  0.1130116E+00
         25   -1    0    0    0    0  0.00000000000E+00  0.00000000000E+00  0.99999998245E-14  0.12500000000E+03  0.12500000000E+03 0.  0.
        -11    1    3    3    0    0 -0.32498625084E+02 -0.39115003428E+01 -0.14319960142E+02  0.35728444215E+02  0.51100000000E-03 0. -1.
         23    2    1    0    0    0  0.15527389799E+02  0.26294966523E+02  0.82824386113E+00  0.94451496169E+02  0.89374907229E+02 0.  0.
         11    1    3    3    0    0  0.48026014883E+02  0.30206466866E+02  0.15148204003E+02  0.58723051954E+02  0.51100000000E-03 0.  1.
         22    1    1    0    0    0 -0.15527389799E+02 -0.26294966523E+02 -0.82824386113E+00  0.30548503831E+02  0.00000000000E+00 0.  1.
</event>
<event>
 5    1  0.8962782E-005  0.9118800E+02  0.7818608E-02  0.1130116E+00
         25   -1    0    0    0    0  0.00000000000E+00  0.00000000000E+00  0.99999998245E-14  0.12500000000E+03  0.12500000000E+03 0.  0.
        -11    1    3    3    0    0 -0.45532448403E+02  0.31944811992E+02  0.28494082606E+02  0.62494700692E+02  0.51100000000E-03 0.  1.
         23    2    1    0    0    0 -0.20686697271E+02  0.13821441321E+02  0.12651424700E+02  0.97088886960E+02  0.92990438971E+02 0.  0.
         11    1    3    3    0    0  0.24845751132E+02 -0.18123370671E+02 -0.15842657906E+02  0.34594186268E+02  0.51100000000E-03 0. -1.
         22    1    1    0    0    0  0.20686697271E+02 -0.13821441321E+02 -0.12651424700E+02  0.27911113040E+02  0.00000000000E+00 0.  1.
</event>
<event>
 5    1  0.8962782E-005  0.9118800E+02  0.7818608E-02  0.1130116E+00
         25   -1    0    0    0    0  0.00000000000E+00  0.00000000000E+00  0.99999998245E-14  0.12500000000E+03  0.12500000000E+03 0.  0.
        -11    1    3    3    0    0  0.42382598733E+02  0.24849679510E+02 -0.16539517681E+02  0.51839626663E+02  0.51100000000E-03 0.  1.
         23    2    1    0    0    0  0.60752676742E+01  0.23825925238E+02  0.11625430393E+02  0.97801944508E+02  0.93944058497E+02 0.  0.
         11    1    3    3    0    0 -0.36307331059E+02 -0.10237542721E+01  0.28164948073E+02  0.45962317845E+02  0.51100000000E-03 0. -1.
         22    1    1    0    0    0 -0.60752676742E+01 -0.23825925238E+02 -0.11625430393E+02  0.27198055492E+02  0.00000000000E+00 0.  1.
</event>
<event>
 5    1  0.8962782E-005  0.9118800E+02  0.7818608E-02  0.1130116E+00
         25   -1    0    0    0    0  0.00000000000E+00  0.00000000000E+00  0.99999998245E-14  0.12500000000E+03  0.12500000000E+03 0.  0.
        -11    1    3    3    0    0  0.33727922089E+02  0.25558618336E+02 -0.19156699338E-01  0.42318034771E+02  0.51100000000E-03 0.  1.
         23    2    1    0    0    0 -0.20708401609E+02  0.52676750329E+01  0.10228789439E+02  0.10131003523E+03  0.98501313734E+02 0.  0.
         11    1    3    3    0    0 -0.54436323697E+02 -0.20290943303E+02  0.10247946139E+02  0.58992000459E+02  0.51100000000E-03 0. -1.
         22    1    1    0    0    0  0.20708401609E+02 -0.52676750329E+01 -0.10228789439E+02  0.23689964771E+02  0.00000000000E+00 0. -1.
</event>
<event>
 5    1  0.8962782E-005  0.9118800E+02  0.7818608E-02  0.1130116E+00
         25   -1    0    0    0    0  0.00000000000E+00  0.00000000000E+00  0.99999998245E-14  0.12500000000E+03  0.12500000000E+03 0.  0.
        -11    1    3    3    0    0  0.82004652084E+01  0.10194433535E+02  0.36866868225E+02  0.39119561318E+02  0.51100000000E-03 0. -1.
         23    2    1    0    0    0  0.87803764319E+01 -0.27439505848E+02 -0.53703045236E+01  0.95693658329E+02  0.91095634266E+02 0.  0.
         11    1    3    3    0    0  0.57991122343E+00 -0.37633939383E+02 -0.42237172749E+02  0.56574097011E+02  0.51100000000E-03 0.  1.
         22    1    1    0    0    0 -0.87803764319E+01  0.27439505848E+02  0.53703045236E+01  0.29306341671E+02  0.00000000000E+00 0.  1.
</event>
<event>
 5    1  0.8962782E-005  0.9118800E+02  0.7818608E-02  0.1130116E+00
         25   -1    0    0    0    0  0.00000000000E+00  0.00000000000E+00  0.99999998245E-14  0.12500000000E+03  0.12500000000E+03 0.  0.
        -11    1    3    3    0    0 -0.90194640600E+01  0.34813937558E+02  0.13702658480E+02  0.38485371636E+02  0.51100000000E-03 0.  1.
         23    2    1    0    0    0  0.11054373495E+01 -0.22351056415E+02  0.17393069168E+02  0.96657266016E+02  0.92408422257E+02 0.  0.
         11    1    3    3    0    0  0.10124901409E+02 -0.57164993973E+02  0.36904106880E+01  0.58171894380E+02  0.51100000000E-03 0. -1.
         22    1    1    0    0    0 -0.11054373495E+01  0.22351056415E+02 -0.17393069168E+02  0.28342733984E+02  0.00000000000E+00 0. -1.
</event>
<event>
 5    1  0.8962782E-005  0.9118800E+02  0.7818608E-02  0.1130116E+00
         25   -1    0    0    0    0  0.00000000000E+00  0.00000000000E+00  0.99999998245E-14  0.12500000000E+03  0.12500000000E+03 0.  0.
        -11    1    3    3    0    0  0.28364885688E+02 -0.14972667063E+02  0.82581945812E+01  0.33120164207E+02  0.51100000000E-03 0.  1.
         23    2    1    0    0    0 -0.10244159306E+02  0.27967775847E+02 -0.98342229944E+01  0.93633597152E+02  0.88223575579E+02 0.  0.
         11    1    3    3    0    0 -0.38609044995E+02  0.42940442911E+02 -0.18092417576E+02  0.60513432945E+02  0.51100000000E-03 0. -1.
         22    1    1    0    0    0  0.10244159306E+02 -0.27967775847E+02  0.98342229944E+01  0.31366402848E+02  0.00000000000E+00 0. -1.
</event>
<event>
 5    1  0.8962782E-005  0.9118800E+02  0.7818608E-02  0.1130116E+00
         25   -1    0    0    0    0  0.00000000000E+00  0.00000000000E+00  0.99999998245E-14  0.12500000000E+03  0.12500000000E+03 0.  0.
        -11    1    3    3    0    0 -0.38939397981E+02 -0.11316457081E+02  0.37756993446E+02  0.55406944242E+02  0.51100000000E-03 0. -1.
         23    2    1    0    0    0 -0.18079358727E+02 -0.23205543938E+02  0.64099889371E+01  0.94892717831E+02  0.89989885308E+02 0.  0.
         11    1    3    3    0    0  0.20860039254E+02 -0.11889086857E+02 -0.31347004509E+02  0.39485773589E+02  0.51100000000E-03 0.  1.
         22    1    1    0    0    0  0.18079358727E+02  0.23205543938E+02 -0.64099889371E+01  0.30107282169E+02  0.00000000000E+00 0. -1.
</event>
<event>
 5    1  0.8962782E-005  0.9118800E+02  0.7818608E-02  0.1130116E+00
         25   -1    0    0    0    0  0.00000000000E+00  0.00000000000E+00  0.99999998245E-14  0.12500000000E+03  0.12500000000E+03 0.  0.
        -11    1    3    3    0    0 -0.60417795734E+02 -0.60385311149E+01  0.12424082501E+02  0.61976864439E+02  0.51100000000E-03 0.  1.
         23    2    1    0    0    0 -0.28515543603E+02 -0.22692716368E+01  0.71226098135E-01  0.96394215727E+02  0.92051908898E+02 0.  0.
         11    1    3    3    0    0  0.31902252132E+02  0.37692594781E+01 -0.12352856403E+02  0.34417351288E+02  0.51100000000E-03 0. -1.
         22    1    1    0    0    0  0.28515543603E+02  0.22692716368E+01 -0.71226098135E-01  0.28605784273E+02  0.00000000000E+00 0.  1.
</event>
<event>
 5    1  0.8962782E-005  0.9118800E+02  0.7818608E-02  0.1130116E+00
         25   -1    0    0    0    0  0.00000000000E+00  0.00000000000E+00  0.99999998245E-14  0.12500000000E+03  0.12500000000E+03 0.  0.
        -11    1    3    3    0    0  0.66088289828E+00 -0.10046451048E+02  0.51133672430E+02  0.52115452615E+02  0.51100000000E-03 0.  1.
         23    2    1    0    0    0 -0.14108370677E+02 -0.22224671561E+02  0.11216216276E+02  0.96385569083E+02  0.92040166617E+02 0.  0.
         11    1    3    3    0    0 -0.14769253575E+02 -0.12178220513E+02 -0.39917456154E+02  0.44270116468E+02  0.51100000000E-03 0. -1.
         22    1    1    0    0    0  0.14108370677E+02  0.22224671561E+02 -0.11216216276E+02  0.28614430917E+02  0.00000000000E+00 0.  1.
</event>
<event>
 5    1  0.8962782E-005  0.9118800E+02  0.7818608E-02  0.1130116E+00
         25   -1    0    0    0    0  0.00000000000E+00  0.00000000000E+00  0.99999998245E-14  0.12500000000E+03  0.12500000000E+03 0.  0.
        -11    1    3    3    0    0 -0.83877548219E+01  0.28602018522E+02 -0.35090549898E+02  0.46041031558E+02  0.51100000000E-03 0. -1.
         23    2    1    0    0    0 -0.20781270902E+02 -0.14596088772E+02 -0.16739933079E+02  0.94584010994E+02  0.89560051074E+02 0.  0.
         11    1    3    3    0    0 -0.12393516080E+02 -0.43198107294E+02  0.18350616819E+02  0.48542979436E+02  0.51100000000E-03 0.  1.
         22    1    1    0    0    0  0.20781270902E+02  0.14596088772E+02  0.16739933079E+02  0.30415989006E+02  0.00000000000E+00 0.  1.
</event>
<event>
 5    1  0.8962782E-005  0.9118800E+02  0.7818608E-02  0.1130116E+00
         25   -1    0    0    0    0  0.00000000000E+00  0.00000000000E+00  0.99999998245E-14  0.12500000000E+03  0.12500000000E+03 0.  0.
        -11    1    3    3    0    0  0.22771739038E+02  0.32594077253E+02 -0.18576950130E+02  0.43886547451E+02  0.51100000000E-03 0.  1.
         23    2    1    0    0    0 -0.16268165230E+02  0.21614510354E+02  0.12713310282E+02  0.95109056286E+02  0.90289889088E+02 0.  0.
         11    1    3    3    0    0 -0.39039904268E+02 -0.10979566899E+02  0.31290260412E+02  0.51222508836E+02  0.51100000000E-03 0. -1.
         22    1    1    0    0    0  0.16268165230E+02 -0.21614510354E+02 -0.12713310282E+02  0.29890943714E+02  0.00000000000E+00 0. -1.
</event>
<event>
 5    1  0.8962782E-005  0.9118800E+02  0.7818608E-02  0.1130116E+00
         25   -1    0    0    0    0  0.00000000000E+00  0.00000000000E+00  0.99999998245E-14  0.12500000000E+03  0.12500000000E+03 0.  0.
        -11    1    3    3    0    0  0.27754193037E+02  0.15069548241E+02 -0.10631193116E+02  0.33322796741E+02  0.51100000000E-03 0. -1.
         23    2    1    0    0    0 -0.14103884443E+02 -0.39598198118E+01  0.28014206627E+02  0.93386782792E+02  0.87873179628E+02 0.  0.
         11    1    3    3    0    0 -0.41858077480E+02 -0.19029368052E+02  0.38645399743E+02  0.60063986051E+02  0.51100000000E-03 0.  1.
         22    1    1    0    0    0  0.14103884443E+02  0.39598198118E+01 -0.28014206627E+02  0.31613217208E+02  0.00000000000E+00 0.  1.
</event>
<event>
 5    1  0.8962782E-005  0.9118800E+02  0.7818608E-02  0.1130116E+00
         25   -1    0    0    0    0  0.00000000000E+00  0.00000000000E+00  0.99999998245E-14  0.12500000000E+03  0.12500000000E+03 0.  0.
        -11    1    3    3    0    0  0.82665464211E+01 -0.37510597577E+02  0.48676727113E+02  0.62006487427E+02  0.51100000000E-03 0.  1.
         23    2    1    0    0    0  0.89376571695E+01 -0.15061848564E+02  0.22084848114E+02  0.96813451541E+02  0.92619451981E+02 0.  0.
         11    1    3    3    0    0  0.67111074833E+00  0.22448749013E+02 -0.26591878999E+02  0.34806964114E+02  0.51100000000E-03 0. -1.
         22    1    1    0    0    0 -0.89376571695E+01  0.15061848564E+02 -0.22084848114E+02  0.28186548459E+02  0.00000000000E+00 0.  1.
</event>
<event>
 5    1  0.8962782E-005  0.9118800E+02  0.7818608E-02  0.1130116E+00
         25   -1    0    0    0    0  0.00000000000E+00  0.00000000000E+00  0.99999998245E-14  0.12500000000E+03  0.12500000000E+03 0.  0.
        -11    1    3    3    0    0 -0.30801616573E+02  0.15245775058E+02 -0.10282701185E+02  0.35873488603E+02  0.51100000000E-03 0.  1.
         23    2    1    0    0    0  0.23544366344E+02  0.87824702326E+01  0.14538861015E+02  0.95968164896E+02  0.91471532314E+02 0.  0.
         11    1    3    3    0    0  0.54345982916E+02 -0.64633048255E+01  0.24821562200E+02  0.60094676293E+02  0.51100000000E-03 0. -1.
         22    1    1    0    0    0 -0.23544366344E+02 -0.87824702326E+01 -0.14538861015E+02  0.29031835104E+02  0.00000000000E+00 0. -1.
</event>
<event>
 5    1  0.8962782E-005  0.9118800E+02  0.7818608E-02  0.1130116E+00
         25   -1    0    0    0    0  0.00000000000E+00  0.00000000000E+00  0.99999998245E-14  0.12500000000E+03  0.12500000000E+03 0.  0.
        -11    1    3    3    0    0  0.59434647118E+01  0.21943406514E+02  0.38404249431E+02  0.44628737791E+02  0.51100000000E-03 0. -1.
         23    2    1    0    0    0  0.33890208212E+02  0.14679659164E+01  0.94323770604E+01  0.89791039868E+02  0.82599999800E+02 0.  0.
         11    1    3    3    0    0  0.27946743500E+02 -0.20475440598E+02 -0.28971872371E+02  0.45162302076E+02  0.51100000000E-03 0.  1.
         22    1    1    0    0    0 -0.33890208212E+02 -0.14679659164E+01 -0.94323770604E+01  0.35208960132E+02  0.00000000000E+00 0.  1.
</event>
<event>
 5    1  0.8962782E-005  0.9118800E+02  0.7818608E-02  0.1130116E+00
         25   -1    0    0    0    0  0.00000000000E+00  0.00000000000E+00  0.99999998245E-14  0.12500000000E+03  0.12500000000E+03 0.  0.
        -11    1    3    3    0    0  0.34410982024E+01  0.50522306698E+02 -0.34271505859E+02  0.61146387833E+02  0.51100000000E-03 0. -1.
         23    2    1    0    0    0  0.34696513544E+01  0.22473072898E+02 -0.26146331481E+02  0.90348764294E+02  0.83439745167E+02 0.  0.
         11    1    3    3    0    0  0.28553152015E-01 -0.28049233800E+02  0.81251743777E+01  0.29202376461E+02  0.51100000000E-03 0.  1.
         22    1    1    0    0    0 -0.34696513544E+01 -0.22473072898E+02  0.26146331481E+02  0.34651235706E+02  0.00000000000E+00 0. -1.
</event>
<event>
 5    1  0.8962782E-005  0.9118800E+02  0.7818608E-02  0.1130116E+00
         25   -1    0    0    0    0  0.00000000000E+00  0.00000000000E+00  0.99999998245E-14  0.12500000000E+03  0.12500000000E+03 0.  0.
        -11    1    3    3    0    0 -0.30631264427E+02 -0.11293655222E+02 -0.33045671512E+02  0.46452528614E+02  0.51100000000E-03 0. -1.
         23    2    1    0    0    0 -0.60676525540E+01  0.23757671332E+02 -0.24959507489E+02  0.90011139362E+02  0.82932411278E+02 0.  0.
         11    1    3    3    0    0  0.24563611873E+02  0.35051326554E+02  0.80861640225E+01  0.43558610748E+02  0.51100000000E-03 0.  1.
         22    1    1    0    0    0  0.60676525540E+01 -0.23757671332E+02  0.24959507489E+02  0.34988860638E+02  0.00000000000E+00 0.  1.
</event>
<event>
 5    1  0.8962782E-005  0.9118800E+02  0.7818608E-02  0.1130116E+00
         25   -1    0    0    0    0  0.00000000000E+00  0.00000000000E+00  0.99999998245E-14  0.12500000000E+03  0.12500000000E+03 0.  0.
        -11    1    3    3    0    0  0.60125248656E+01  0.15297681300E+02  0.30404383052E+02  0.34562928369E+02  0.51100000000E-03 0.  1.
         23    2    1    0    0    0 -0.20902852258E+02 -0.11929137147E+02 -0.17027738320E+02  0.95518184963E+02  0.90854533408E+02 0.  0.
         11    1    3    3    0    0 -0.26915377123E+02 -0.27226818447E+02 -0.47432121371E+02  0.60955256594E+02  0.51100000000E-03 0. -1.
         22    1    1    0    0    0  0.20902852258E+02  0.11929137147E+02  0.17027738320E+02  0.29481815037E+02  0.00000000000E+00 0. -1.
</event>
<event>
 5    1  0.8962782E-005  0.9118800E+02  0.7818608E-02  0.1130116E+00
         25   -1    0    0    0    0  0.00000000000E+00  0.00000000000E+00  0.99999998245E-14  0.12500000000E+03  0.12500000000E+03 0.  0.
        -11    1    3    3    0    0  0.21168130863E+02  0.36522323729E+02 -0.39953499192E+02  0.58122732151E+02  0.51100000000E-03 0.  1.
         23    2    1    0    0    0  0.19451523269E+02  0.20413416127E+02 -0.53927211794E+01  0.96291973994E+02  0.91912966977E+02 0.  0.
         11    1    3    3    0    0 -0.17166075938E+01 -0.16108907602E+02  0.34560778012E+02  0.38169241843E+02  0.51100000000E-03 0. -1.
         22    1    1    0    0    0 -0.19451523269E+02 -0.20413416127E+02  0.53927211794E+01  0.28708026006E+02  0.00000000000E+00 0.  1.
</event>
<event>
 5    1  0.8962782E-005  0.9118800E+02  0.7818608E-02  0.1130116E+00
         25   -1    0    0    0    0  0.00000000000E+00  0.00000000000E+00  0.99999998245E-14  0.12500000000E+03  0.12500000000E+03 0.  0.
        -11    1    3    3    0    0 -0.34057075328E+02 -0.25588695767E+01 -0.55057787805E+01  0.34594013841E+02  0.51100000000E-03 0.  1.
         23    2    1    0    0    0  0.22521945566E+02  0.18135192606E+02  0.47232242919E+01  0.95700988231E+02  0.91105691687E+02 0.  0.
         11    1    3    3    0    0  0.56579020894E+02  0.20694062183E+02  0.10229003072E+02  0.61106974390E+02  0.51100000000E-03 0. -1.
         22    1    1    0    0    0 -0.22521945566E+02 -0.18135192606E+02 -0.47232242919E+01  0.29299011769E+02  0.00000000000E+00 0. -1.
</event>
<event>
 5    1  0.8962782E-005  0.9118800E+02  0.7818608E-02  0.1130116E+00
         25   -1    0    0    0    0  0.00000000000E+00  0.00000000000E+00  0.99999998245E-14  0.12500000000E+03  0.12500000000E+03 0.  0.
        -11    1    3    3    0    0  0.94746748983E+01 -0.19393391665E+01 -0.31768318423E+02  0.33207778555E+02  0.51100000000E-03 0.  1.
         23    2    1    0    0    0 -0.94722411007E+00 -0.48225502049E+01  0.29332777300E+02  0.95258344899E+02  0.90496332659E+02 0.  0.
         11    1    3    3    0    0 -0.10421899008E+02 -0.28832110384E+01  0.61101095723E+02  0.62050566345E+02  0.51100000000E-03 0. -1.
         22    1    1    0    0    0  0.94722411007E+00  0.48225502049E+01 -0.29332777300E+02  0.29741655101E+02  0.00000000000E+00 0. -1.
</event>
<event>
 5    1  0.8962782E-005  0.9118800E+02  0.7818608E-02  0.1130116E+00
         25   -1    0    0    0    0  0.00000000000E+00  0.00000000000E+00  0.99999998245E-14  0.12500000000E+03  0.12500000000E+03 0.  0.
        -11    1    3    3    0    0  0.24991617394E+02 -0.21421979815E+02 -0.92519960161E+01  0.34191835132E+02  0.51100000000E-03 0. -1.
         23    2    1    0    0    0 -0.44402227286E+01  0.24511083922E+02  0.17108897571E+02  0.94780417127E+02  0.89833759143E+02 0.  0.
         11    1    3    3    0    0 -0.29431840122E+02  0.45933063737E+02  0.26360893587E+02  0.60588581995E+02  0.51100000000E-03 0.  1.
         22    1    1    0    0    0  0.44402227286E+01 -0.24511083922E+02 -0.17108897571E+02  0.30219582873E+02  0.00000000000E+00 0.  1.
</event>
<event>
 5    1  0.8962782E-005  0.9118800E+02  0.7818608E-02  0.1130116E+00
         25   -1    0    0    0    0  0.00000000000E+00  0.00000000000E+00  0.99999998245E-14  0.12500000000E+03  0.12500000000E+03 0.  0.
        -11    1    3    3    0    0 -0.26270916836E+02 -0.11703241606E+02  0.36271475646E+02  0.46289814012E+02  0.51100000000E-03 0. -1.
         23    2    1    0    0    0 -0.16041072811E+02  0.25658912480E+02  0.98621265676E+01  0.93173009143E+02  0.87568557632E+02 0.  0.
         11    1    3    3    0    0  0.10229844025E+02  0.37362154086E+02 -0.26409349078E+02  0.46883195131E+02  0.51100000000E-03 0.  1.
         22    1    1    0    0    0  0.16041072811E+02 -0.25658912480E+02 -0.98621265676E+01  0.31826990857E+02  0.00000000000E+00 0.  1.
</event>
<event>
 5    1  0.8962782E-005  0.9118800E+02  0.7818608E-02  0.1130116E+00
         25   -1    0    0    0    0  0.00000000000E+00  0.00000000000E+00  0.99999998245E-14  0.12500000000E+03  0.12500000000E+03 0.  0.
        -11    1    3    3    0    0 -0.53655500942E+01 -0.46613245502E+02  0.99936162181E+01  0.47973494238E+02  0.51100000000E-03 0. -1.
         23    2    1    0    0    0 -0.14968393400E+02 -0.52423422548E+01 -0.19636425586E+02  0.99758681432E+02  0.96512539900E+02 0.  0.
         11    1    3    3    0    0 -0.96028433056E+01  0.41370903247E+02 -0.29630041804E+02  0.51785187193E+02  0.51100000000E-03 0.  1.
         22    1    1    0    0    0  0.14968393400E+02  0.52423422548E+01  0.19636425586E+02  0.25241318568E+02  0.00000000000E+00 0. -1.
</event>
<event>
 5    1  0.8962782E-005  0.9118800E+02  0.7818608E-02  0.1130116E+00
         25   -1    0    0    0    0  0.00000000000E+00  0.00000000000E+00  0.99999998245E-14  0.12500000000E+03  0.12500000000E+03 0.  0.
        -11    1    3    3    0    0  0.10091685075E+02  0.55891861259E+02  0.62439031492E-01  0.56795652664E+02  0.51100000000E-03 0. -1.
         23    2    1    0    0    0 -0.51923936463E+01  0.24550097439E+02  0.16109537292E+02  0.95180787606E+02  0.90389141503E+02 0.  0.
         11    1    3    3    0    0 -0.15284078722E+02 -0.31341763820E+02  0.16047098260E+02  0.38385134943E+02  0.51100000000E-03 0.  1.
         22    1    1    0    0    0  0.51923936463E+01 -0.24550097439E+02 -0.16109537292E+02  0.29819212394E+02  0.00000000000E+00 0. -1.
</event>
<event>
 5    1  0.8962782E-005  0.9118800E+02  0.7818608E-02  0.1130116E+00
         25   -1    0    0    0    0  0.00000000000E+00  0.00000000000E+00  0.99999998245E-14  0.12500000000E+03  0.12500000000E+03 0.  0.
        -11    1    3    3    0    0  0.33091678003E+02  0.63961884666E+01  0.51242951069E+01  0.34091476656E+02  0.51100000000E-03 0. -1.
         23    2    1    0    0    0 -0.22448299503E+02 -0.18335047523E+02 -0.45717382691E+01  0.95657183007E+02  0.91045569644E+02 0.  0.
         11    1    3    3    0    0 -0.55539977507E+02 -0.24731235990E+02 -0.96960333760E+01  0.61565706351E+02  0.51100000000E-03 0.  1.
         22    1    1    0    0    0  0.22448299503E+02  0.18335047523E+02  0.45717382691E+01  0.29342816993E+02  0.00000000000E+00 0.  1.
</event>
<event>
 5    1  0.8962782E-005  0.9118800E+02  0.7818608E-02  0.1130116E+00
         25   -1    0    0    0    0  0.00000000000E+00  0.00000000000E+00  0.99999998245E-14  0.12500000000E+03  0.12500000000E+03 0.  0.
        -11    1    3    3    0    0 -0.28588136834E+02  0.33477623704E+02 -0.33440805468E+00  0.44024364681E+02  0.51100000000E-03 0.  1.
         23    2    1    0    0    0 -0.11523435345E+02 -0.20696313663E+02  0.39542601550E+01  0.10098410662E+03  0.98086832223E+02 0.  0.
         11    1    3    3    0    0  0.17064701489E+02 -0.54173937367E+02  0.42886682097E+01  0.56959741941E+02  0.51100000000E-03 0. -1.
         22    1    1    0    0    0  0.11523435345E+02  0.20696313663E+02 -0.39542601550E+01  0.24015893378E+02  0.00000000000E+00 0. -1.
</event>
<event>
 5    1  0.8962782E-005  0.9118800E+02  0.7818608E-02  0.1130116E+00
         25   -1    0    0    0    0  0.00000000000E+00  0.00000000000E+00  0.99999998245E-14  0.12500000000E+03  0.12500000000E+03 0.  0.
        -11    1    3    3    0    0 -0.87185906558E+01 -0.14714068462E+02  0.10448575883E+02  0.20042214747E+02  0.51100000000E-03 0. -1.
         23    2    1    0    0    0  0.53547347942E+00  0.42360325118E+02 -0.10177687386E+02  0.81430868766E+02  0.68794746831E+02 0.  0.
         11    1    3    3    0    0  0.92540641352E+01  0.57074393580E+02 -0.20626263269E+02  0.61388654019E+02  0.51100000000E-03 0.  1.
         22    1    1    0    0    0 -0.53547347942E+00 -0.42360325118E+02  0.10177687386E+02  0.43569131234E+02  0.00000000000E+00 0.  1.
</event>
<event>
 5    1  0.8962782E-005  0.9118800E+02  0.7818608E-02  0.1130116E+00
         25   -1    0    0    0    0  0.00000000000E+00  0.00000000000E+00  0.99999998245E-14  0.12500000000E+03  0.12500000000E+03 0.  0.
        -11    1    3    3    0    0 -0.54700483661E+02 -0.11873363012E+01 -0.16104512608E+02  0.57034270459E+02  0.51100000000E-03 0.  1.
         23    2    1    0    0    0 -0.27731371038E+02 -0.13798053820E+02  0.51309225497E+01  0.93603477978E+02  0.88180890756E+02 0.  0.
         11    1    3    3    0    0  0.26969112623E+02 -0.12610717518E+02  0.21235435158E+02  0.36569207519E+02  0.51100000000E-03 0. -1.
         22    1    1    0    0    0  0.27731371038E+02  0.13798053820E+02 -0.51309225497E+01  0.31396522022E+02  0.00000000000E+00 0.  1.
</event>
<event>
 5    1  0.8962782E-005  0.9118800E+02  0.7818608E-02  0.1130116E+00
         25   -1    0    0    0    0  0.00000000000E+00  0.00000000000E+00  0.99999998245E-14  0.12500000000E+03  0.12500000000E+03 0.  0.
        -11    1    3    3    0    0 -0.11658582653E+02  0.95702137169E+01  0.35033220620E+02  0.38142339825E+02  0.51100000000E-03 0.  1.
         23    2    1    0    0    0 -0.22082209090E+02 -0.62104468538E+01 -0.18888909171E+02  0.95284944925E+02  0.90533067060E+02 0.  0.
         11    1    3    3    0    0 -0.10423626437E+02 -0.15780660571E+02 -0.53922129791E+02  0.57142605100E+02  0.51100000000E-03 0. -1.
         22    1    1    0    0    0  0.22082209090E+02  0.62104468538E+01  0.18888909171E+02  0.29715055075E+02  0.00000000000E+00 0. -1.
</event>
<event>
 5    1  0.8962782E-005  0.9118800E+02  0.7818608E-02  0.1130116E+00
         25   -1    0    0    0    0  0.00000000000E+00  0.00000000000E+00  0.99999998245E-14  0.12500000000E+03  0.12500000000E+03 0.  0.
        -11    1    3    3    0    0 -0.50500199980E+01  0.10096184738E+02  0.36382458514E+02  0.38093555046E+02  0.51100000000E-03 0. -1.
         23    2    1    0    0    0  0.26499941992E+02 -0.84225166508E+01 -0.84314300910E+01  0.95943594068E+02  0.91437948999E+02 0.  0.
         11    1    3    3    0    0  0.31549961990E+02 -0.18518701388E+02 -0.44813888605E+02  0.57850039022E+02  0.51100000000E-03 0.  1.
         22    1    1    0    0    0 -0.26499941992E+02  0.84225166508E+01  0.84314300910E+01  0.29056405932E+02  0.00000000000E+00 0.  1.
</event>
<event>
 5    1  0.8962782E-005  0.9118800E+02  0.7818608E-02  0.1130116E+00
         25   -1    0    0    0    0  0.00000000000E+00  0.00000000000E+00  0.99999998245E-14  0.12500000000E+03  0.12500000000E+03 0.  0.
        -11    1    3    3    0    0 -0.12858799453E+02 -0.41064476304E+02  0.27753149484E+02  0.51204269783E+02  0.51100000000E-03 0.  1.
         23    2    1    0    0    0 -0.13645861690E+01 -0.29600648660E+02 -0.11135035197E+02  0.93344834460E+02  0.87813487661E+02 0.  0.
         11    1    3    3    0    0  0.11494213284E+02  0.11463827644E+02 -0.38888184681E+02  0.42140564677E+02  0.51100000000E-03 0. -1.
         22    1    1    0    0    0  0.13645861690E+01  0.29600648660E+02  0.11135035197E+02  0.31655165540E+02  0.00000000000E+00 0.  1.
</event>
<event>
 5    1  0.8962782E-005  0.9118800E+02  0.7818608E-02  0.1130116E+00
         25   -1    0    0    0    0  0.00000000000E+00  0.00000000000E+00  0.99999998245E-14  0.12500000000E+03  0.12500000000E+03 0.  0.
        -11    1    3    3    0    0  0.48160771852E+02 -0.11145454406E+00  0.11975293814E+02  0.49627412080E+02  0.51100000000E-03 0.  1.
         23    2    1    0    0    0  0.17927065126E+02  0.12464562275E+02 -0.19996603443E+02  0.95392414384E+02  0.90681329920E+02 0.  0.
         11    1    3    3    0    0 -0.30233706726E+02  0.12576016819E+02 -0.31971897258E+02  0.45765002305E+02  0.51100000000E-03 0. -1.
         22    1    1    0    0    0 -0.17927065126E+02 -0.12464562275E+02  0.19996603443E+02  0.29607585616E+02  0.00000000000E+00 0. -1.
</event>
<event>
 5    1  0.8962782E-005  0.9118800E+02  0.7818608E-02  0.1130116E+00
         25   -1    0    0    0    0  0.00000000000E+00  0.00000000000E+00  0.99999998245E-14  0.12500000000E+03  0.12500000000E+03 0.  0.
        -11    1    3    3    0    0  0.24281429744E+02  0.44335733632E+02  0.10065480642E+02  0.51541818050E+02  0.51100000000E-03 0.  1.
         23    2    1    0    0    0 -0.11855112232E+02  0.17469640791E+02  0.17989212523E+02  0.97262952525E+02  0.93224128483E+02 0.  0.
         11    1    3    3    0    0 -0.36136541976E+02 -0.26866092841E+02  0.79237318812E+01  0.45721134475E+02  0.51100000000E-03 0. -1.
         22    1    1    0    0    0  0.11855112232E+02 -0.17469640791E+02 -0.17989212523E+02  0.27737047475E+02  0.00000000000E+00 0.  1.
</event>
<event>
 5    1  0.8962782E-005  0.9118800E+02  0.7818608E-02  0.1130116E+00
         25   -1    0    0    0    0  0.00000000000E+00  0.00000000000E+00  0.99999998245E-14  0.12500000000E+03  0.12500000000E+03 0.  0.
        -11    1    3    3    0    0  0.46906314937E+02  0.23406933718E+02  0.17215938897E+02  0.55176765757E+02  0.51100000000E-03 0. -1.
         23    2    1    0    0    0  0.13151529394E+02  0.26309428956E+02 -0.42456503783E+01  0.95281750985E+02  0.90528657044E+02 0.  0.
         11    1    3    3    0    0 -0.33754785543E+02  0.29024952385E+01 -0.21461589275E+02  0.40104985228E+02  0.51100000000E-03 0.  1.
         22    1    1    0    0    0 -0.13151529394E+02 -0.26309428956E+02  0.42456503783E+01  0.29718249015E+02  0.00000000000E+00 0.  1.
</event>
<event>
 5    1  0.8962782E-005  0.9118800E+02  0.7818608E-02  0.1130116E+00
         25   -1    0    0    0    0  0.00000000000E+00  0.00000000000E+00  0.99999998245E-14  0.12500000000E+03  0.12500000000E+03 0.  0.
        -11    1    3    3    0    0 -0.35777432066E+02  0.95246375781E+01  0.15490926092E+02  0.40133678597E+02  0.51100000000E-03 0.  1.
         23    2    1    0    0    0  0.85320879111E+01 -0.25164252541E+02  0.97398346586E+01  0.96699814325E+02  0.92465959040E+02 0.  0.
         11    1    3    3    0    0  0.44309519977E+02 -0.34688890119E+02 -0.57510914331E+01  0.56566135728E+02  0.51100000000E-03 0. -1.
         22    1    1    0    0    0 -0.85320879111E+01  0.25164252541E+02 -0.97398346586E+01  0.28300185675E+02  0.00000000000E+00 0. -1.
</event>
<event>
 5    1  0.8962782E-005  0.9118800E+02  0.7818608E-02  0.1130116E+00
         25   -1    0    0    0    0  0.00000000000E+00  0.00000000000E+00  0.99999998245E-14  0.12500000000E+03  0.12500000000E+03 0.  0.
        -11    1    3    3    0    0 -0.14771510173E+02 -0.13882942726E+02  0.32444575300E+02  0.38256817408E+02  0.51100000000E-03 0.  1.
         23    2    1    0    0    0  0.29817284218E+02  0.39202521812E+01  0.25422485591E+01  0.94818849540E+02  0.89887220366E+02 0.  0.
         11    1    3    3    0    0  0.44588794392E+02  0.17803194907E+02 -0.29902326741E+02  0.56562032133E+02  0.51100000000E-03 0. -1.
         22    1    1    0    0    0 -0.29817284218E+02 -0.39202521812E+01 -0.25422485591E+01  0.30181150460E+02  0.00000000000E+00 0. -1.
</event>
<event>
 5    1  0.8962782E-005  0.9118800E+02  0.7818608E-02  0.1130116E+00
         25   -1    0    0    0    0  0.00000000000E+00  0.00000000000E+00  0.99999998245E-14  0.12500000000E+03  0.12500000000E+03 0.  0.
        -11    1    3    3    0    0 -0.36961211332E+02 -0.11024313449E+02  0.13966362858E+02  0.41021042428E+02  0.51100000000E-03 0.  1.
         23    2    1    0    0    0 -0.77677815352E+01  0.26589479378E+02 -0.11487848551E+02  0.95011510410E+02  0.90154742540E+02 0.  0.
         11    1    3    3    0    0  0.29193429797E+02  0.37613792827E+02 -0.25454211409E+02  0.53990467981E+02  0.51100000000E-03 0. -1.
         22    1    1    0    0    0  0.77677815352E+01 -0.26589479378E+02  0.11487848551E+02  0.29988489590E+02  0.00000000000E+00 0. -1.
</event>
<event>
 5    1  0.8962782E-005  0.9118800E+02  0.7818608E-02  0.1130116E+00
         25   -1    0    0    0    0  0.00000000000E+00  0.00000000000E+00  0.99999998245E-14  0.12500000000E+03  0.12500000000E+03 0.  0.
        -11    1    3    3    0    0 -0.56205016083E+02  0.56615562317E+01 -0.16798491123E+02  0.58934254522E+02  0.51100000000E-03 0. -1.
         23    2    1    0    0    0 -0.26946943331E+02  0.30151003072E+01  0.72867117853E+01  0.96922878471E+02  0.92767017941E+02 0.  0.
         11    1    3    3    0    0  0.29258072752E+02 -0.26464559246E+01  0.24085202908E+02  0.37988623949E+02  0.51100000000E-03 0.  1.
         22    1    1    0    0    0  0.26946943331E+02 -0.30151003072E+01 -0.72867117853E+01  0.28077121529E+02  0.00000000000E+00 0. -1.
</event>
<event>
 5    1  0.8962782E-005  0.9118800E+02  0.7818608E-02  0.1130116E+00
         25   -1    0    0    0    0  0.00000000000E+00  0.00000000000E+00  0.99999998245E-14  0.12500000000E+03  0.12500000000E+03 0.  0.
        -11    1    3    3    0    0  0.19628208665E+02 -0.53426076660E+02 -0.72904951115E+01  0.57382606789E+02  0.51100000000E-03 0. -1.
         23    2    1    0    0    0  0.21236044524E+02 -0.21997905327E+02  0.94103064294E+01  0.93008887282E+02  0.87333967164E+02 0.  0.
         11    1    3    3    0    0  0.16078358594E+01  0.31428171332E+02  0.16700801541E+02  0.35626280493E+02  0.51100000000E-03 0.  1.
         22    1    1    0    0    0 -0.21236044524E+02  0.21997905327E+02 -0.94103064294E+01  0.31991112718E+02  0.00000000000E+00 0. -1.
</event>
<event>
 5    1  0.8962782E-005  0.9118800E+02  0.7818608E-02  0.1130116E+00
         25   -1    0    0    0    0  0.00000000000E+00  0.00000000000E+00  0.99999998245E-14  0.12500000000E+03  0.12500000000E+03 0.  0.
        -11    1    3    3    0    0 -0.42144343490E+02 -0.21803010305E+02 -0.62251749322E+01  0.47856762842E+02  0.51100000000E-03 0. -1.
         23    2    1    0    0    0 -0.25856346774E+02  0.11359107587E+02 -0.23138330559E+02  0.88490243294E+02  0.80607448933E+02 0.  0.
         11    1    3    3    0    0  0.16287996716E+02  0.33162117892E+02 -0.16913155627E+02  0.40633480451E+02  0.51100000000E-03 0.  1.
         22    1    1    0    0    0  0.25856346774E+02 -0.11359107587E+02  0.23138330559E+02  0.36509756706E+02  0.00000000000E+00 0. -1.
</event>
<event>
 5    1  0.8962782E-005  0.9118800E+02  0.7818608E-02  0.1130116E+00
         25   -1    0    0    0    0  0.00000000000E+00  0.00000000000E+00  0.99999998245E-14  0.12500000000E+03  0.12500000000E+03 0.  0.
        -11    1    3    3    0    0  0.75290437641E+01 -0.29282484787E+02 -0.39804557044E+02  0.49985529677E+02  0.51100000000E-03 0. -1.
         23    2    1    0    0    0 -0.23653623670E+02 -0.53981122399E+01 -0.16532845377E+02  0.95640699860E+02  0.91022936477E+02 0.  0.
         11    1    3    3    0    0 -0.31182667434E+02  0.23884372547E+02  0.23271711667E+02  0.45655170183E+02  0.51100000000E-03 0.  1.
         22    1    1    0    0    0  0.23653623670E+02  0.53981122399E+01  0.16532845377E+02  0.29359300140E+02  0.00000000000E+00 0. -1.
</event>
<event>
 5    1  0.8962782E-005  0.9118800E+02  0.7818608E-02  0.1130116E+00
         25   -1    0    0    0    0  0.00000000000E+00  0.00000000000E+00  0.99999998245E-14  0.12500000000E+03  0.12500000000E+03 0.  0.
        -11    1    3    3    0    0 -0.19798331822E+02 -0.22727711336E+02 -0.13788942443E+02  0.33146006388E+02  0.51100000000E-03 0. -1.
         23    2    1    0    0    0 -0.40327618967E+00  0.32173950007E+02 -0.75050285241E+00  0.92814771319E+02  0.87055688095E+02 0.  0.
         11    1    3    3    0    0  0.19395055632E+02  0.54901661343E+02  0.13038439590E+02  0.59668764931E+02  0.51100000000E-03 0.  1.
         22    1    1    0    0    0  0.40327618967E+00 -0.32173950007E+02  0.75050285241E+00  0.32185228681E+02  0.00000000000E+00 0.  1.
</event>
<event>
 5    1  0.8962782E-005  0.9118800E+02  0.7818608E-02  0.1130116E+00
         25   -1    0    0    0    0  0.00000000000E+00  0.00000000000E+00  0.99999998245E-14  0.12500000000E+03  0.12500000000E+03 0.  0.
        -11    1    3    3    0    0 -0.37883914580E+02 -0.10402927808E+02 -0.71178634323E+01  0.39925879714E+02  0.51100000000E-03 0.  1.
         23    2    1    0    0    0 -0.11758303730E+01  0.30091068431E+02 -0.20408792664E+01  0.94816889415E+02  0.89884494513E+02 0.  0.
         11    1    3    3    0    0  0.36708084207E+02  0.40493996239E+02  0.50769841659E+01  0.54891009701E+02  0.51100000000E-03 0. -1.
         22    1    1    0    0    0  0.11758303730E+01 -0.30091068431E+02  0.20408792664E+01  0.30183110585E+02  0.00000000000E+00 0. -1.
</event>
<event>
 5    1  0.8962782E-005  0.9118800E+02  0.7818608E-02  0.1130116E+00
         25   -1    0    0    0    0  0.00000000000E+00  0.00000000000E+00  0.99999998245E-14  0.12500000000E+03  0.12500000000E+03 0.  0.
        -11    1    3    3    0    0 -0.22502755698E+02 -0.96344119349E+00  0.39368451042E+02  0.45356115030E+02  0.51100000000E-03 0.  1.
         23    2    1    0    0    0 -0.31311927860E+02 -0.13158661585E+02 -0.35648841972E+01  0.90848929734E+02  0.84185702072E+02 0.  0.
         11    1    3    3    0    0 -0.88091721619E+01 -0.12195220392E+02 -0.42933335239E+02  0.45492814703E+02  0.51100000000E-03 0. -1.
         22    1    1    0    0    0  0.31311927860E+02  0.13158661585E+02  0.35648841972E+01  0.34151070266E+02  0.00000000000E+00 0. -1.
</event>
<event>
 5    1  0.8962782E-005  0.9118800E+02  0.7818608E-02  0.1130116E+00
         25   -1    0    0    0    0  0.00000000000E+00  0.00000000000E+00  0.99999998245E-14  0.12500000000E+03  0.12500000000E+03 0.  0.
        -11    1    3    3    0    0  0.60992278304E+01 -0.45657070919E+02 -0.38138891959E+02  0.59802539955E+02  0.51100000000E-03 0. -1.
         23    2    1    0    0    0 -0.64440454484E+01 -0.31920995831E+02 -0.16006054214E+02  0.88714059636E+02  0.80953782549E+02 0.  0.
         11    1    3    3    0    0 -0.12543273279E+02  0.13736075088E+02  0.22132837745E+02  0.28911519681E+02  0.51100000000E-03 0.  1.
         22    1    1    0    0    0  0.64440454484E+01  0.31920995831E+02  0.16006054214E+02  0.36285940364E+02  0.00000000000E+00 0. -1.
</event>
<event>
 5    1  0.8962782E-005  0.9118800E+02  0.7818608E-02  0.1130116E+00
         25   -1    0    0    0    0  0.00000000000E+00  0.00000000000E+00  0.99999998245E-14  0.12500000000E+03  0.12500000000E+03 0.  0.
        -11    1    3    3    0    0 -0.29177698538E+01  0.26265574021E+02 -0.51691261494E+02  0.58054976313E+02  0.51100000000E-03 0.  1.
         23    2    1    0    0    0 -0.14067132616E+02  0.11635861608E+01 -0.24623650803E+02  0.96617570019E+02  0.92354710247E+02 0.  0.
         11    1    3    3    0    0 -0.11149362762E+02 -0.25101987861E+02  0.27067610691E+02  0.38562593706E+02  0.51100000000E-03 0. -1.
         22    1    1    0    0    0  0.14067132616E+02 -0.11635861608E+01  0.24623650803E+02  0.28382429981E+02  0.00000000000E+00 0.  1.
</event>
<event>
 5    1  0.8962782E-005  0.9118800E+02  0.7818608E-02  0.1130116E+00
         25   -1    0    0    0    0  0.00000000000E+00  0.00000000000E+00  0.99999998245E-14  0.12500000000E+03  0.12500000000E+03 0.  0.
        -11    1    3    3    0    0  0.28618897491E+01  0.26032568174E+02 -0.52670125320E+01  0.26713787450E+02  0.51100000000E-03 0. -1.
         23    2    1    0    0    0 -0.21590038115E+02 -0.26299282550E+02  0.14843452335E+02  0.87877094865E+02  0.79650949248E+02 0.  0.
         11    1    3    3    0    0 -0.24451927864E+02 -0.52331850724E+02  0.20110464867E+02  0.61163307415E+02  0.51100000000E-03 0.  1.
         22    1    1    0    0    0  0.21590038115E+02  0.26299282550E+02 -0.14843452335E+02  0.37122905135E+02  0.00000000000E+00 0.  1.
</event>
<event>
 5    1  0.8962782E-005  0.9118800E+02  0.7818608E-02  0.1130116E+00
         25   -1    0    0    0    0  0.00000000000E+00  0.00000000000E+00  0.99999998245E-14  0.12500000000E+03  0.12500000000E+03 0.  0.
        -11    1    3    3    0    0  0.41296347422E+02  0.14762515527E+02 -0.48031941220E+01  0.44117919818E+02  0.51100000000E-03 0.  1.
         23    2    1    0    0    0  0.17623944909E+02 -0.17360554619E+02  0.21759279124E+02  0.92053702502E+02  0.85955951659E+02 0.  0.
         11    1    3    3    0    0 -0.23672402513E+02 -0.32123070146E+02  0.26562473246E+02  0.47935782684E+02  0.51100000000E-03 0. -1.
         22    1    1    0    0    0 -0.17623944909E+02  0.17360554619E+02 -0.21759279124E+02  0.32946297498E+02  0.00000000000E+00 0. -1.
</event>
<event>
 5    1  0.8962782E-005  0.9118800E+02  0.7818608E-02  0.1130116E+00
         25   -1    0    0    0    0  0.00000000000E+00  0.00000000000E+00  0.99999998245E-14  0.12500000000E+03  0.12500000000E+03 0.  0.
        -11    1    3    3    0    0  0.13584581850E+02 -0.34689822796E+02  0.22727908613E+02  0.43640376945E+02  0.51100000000E-03 0.  1.
         23    2    1    0    0    0  0.21274050373E+02 -0.10548215411E+02 -0.20423048090E+02  0.93679863332E+02  0.88289103705E+02 0.  0.
         11    1    3    3    0    0  0.76894685226E+01  0.24141607385E+02 -0.43150956703E+02  0.50039486387E+02  0.51100000000E-03 0. -1.
         22    1    1    0    0    0 -0.21274050373E+02  0.10548215411E+02  0.20423048090E+02  0.31320136668E+02  0.00000000000E+00 0. -1.
</event>
<event>
 5    1  0.8962782E-005  0.9118800E+02  0.7818608E-02  0.1130116E+00
         25   -1    0    0    0    0  0.00000000000E+00  0.00000000000E+00  0.99999998245E-14  0.12500000000E+03  0.12500000000E+03 0.  0.
        -11    1    3    3    0    0  0.40197327052E+02 -0.45741669581E+01 -0.35813411223E+02  0.54030996004E+02  0.51100000000E-03 0.  1.
         23    2    1    0    0    0  0.27221779634E+02 -0.40789649394E+01  0.51442606928E+01  0.96997738315E+02  0.92867833929E+02 0.  0.
         11    1    3    3    0    0 -0.12975547418E+02  0.49520201877E+00  0.40957671916E+02  0.42966742311E+02  0.51100000000E-03 0. -1.
         22    1    1    0    0    0 -0.27221779634E+02  0.40789649394E+01 -0.51442606928E+01  0.28002261685E+02  0.00000000000E+00 0.  1.
</event>
<event>
 5    1  0.8962782E-005  0.9118800E+02  0.7818608E-02  0.1130116E+00
         25   -1    0    0    0    0  0.00000000000E+00  0.00000000000E+00  0.99999998245E-14  0.12500000000E+03  0.12500000000E+03 0.  0.
        -11    1    3    3    0    0 -0.23253479431E+02  0.23601279111E+02 -0.19948137778E+02  0.38673930268E+02  0.51100000000E-03 0.  1.
         23    2    1    0    0    0 -0.10856090004E+02 -0.16928290439E+02  0.19799177119E+02  0.96778924153E+02  0.92572841797E+02 0.  0.
         11    1    3    3    0    0  0.12397389427E+02 -0.40529569550E+02  0.39747314897E+02  0.58104993885E+02  0.51100000000E-03 0. -1.
         22    1    1    0    0    0  0.10856090004E+02  0.16928290439E+02 -0.19799177119E+02  0.28221075847E+02  0.00000000000E+00 0. -1.
</event>
<event>
 5    1  0.8962782E-005  0.9118800E+02  0.7818608E-02  0.1130116E+00
         25   -1    0    0    0    0  0.00000000000E+00  0.00000000000E+00  0.99999998245E-14  0.12500000000E+03  0.12500000000E+03 0.  0.
        -11    1    3    3    0    0  0.26176610669E+02  0.24400226106E+02  0.10750918600E+02  0.37365334619E+02  0.51100000000E-03 0.  1.
         23    2    1    0    0    0 -0.26935518041E+02  0.55934218996E+01 -0.73142477929E+01  0.96534113021E+02  0.92241683936E+02 0.  0.
         11    1    3    3    0    0 -0.53112128710E+02 -0.18806804207E+02 -0.18065166393E+02  0.59168778403E+02  0.51100000000E-03 0. -1.
         22    1    1    0    0    0  0.26935518041E+02 -0.55934218996E+01  0.73142477929E+01  0.28465886979E+02  0.00000000000E+00 0. -1.
</event>
<event>
 5    1  0.8962782E-005  0.9118800E+02  0.7818608E-02  0.1130116E+00
         25   -1    0    0    0    0  0.00000000000E+00  0.00000000000E+00  0.99999998245E-14  0.12500000000E+03  0.12500000000E+03 0.  0.
        -11    1    3    3    0    0 -0.27330704172E+02 -0.29637606380E+02  0.63877063946E+01  0.40818597425E+02  0.51100000000E-03 0.  1.
         23    2    1    0    0    0  0.48317693412E+00  0.17468754824E+02 -0.17279995821E+02  0.10042381009E+03  0.97370182920E+02 0.  0.
         11    1    3    3    0    0  0.27813881106E+02  0.47106361204E+02 -0.23667702216E+02  0.59605212662E+02  0.51100000000E-03 0. -1.
         22    1    1    0    0    0 -0.48317693412E+00 -0.17468754824E+02  0.17279995821E+02  0.24576189913E+02  0.00000000000E+00 0. -1.
</event>
<event>
 5    1  0.8962782E-005  0.9118800E+02  0.7818608E-02  0.1130116E+00
         25   -1    0    0    0    0  0.00000000000E+00  0.00000000000E+00  0.99999998245E-14  0.12500000000E+03  0.12500000000E+03 0.  0.
        -11    1    3    3    0    0 -0.20783676054E+02  0.40987476648E+02 -0.15575909107E+02  0.48523637302E+02  0.51100000000E-03 0.  1.
         23    2    1    0    0    0  0.19883561174E+02  0.21302767516E+02 -0.16043804867E+01  0.95815450225E+02  0.91262602178E+02 0.  0.
         11    1    3    3    0    0  0.40667237227E+02 -0.19684709131E+02  0.13971528621E+02  0.47291812923E+02  0.51100000000E-03 0. -1.
         22    1    1    0    0    0 -0.19883561174E+02 -0.21302767516E+02  0.16043804867E+01  0.29184549775E+02  0.00000000000E+00 0. -1.
</event>
<event>
 5    1  0.8962782E-005  0.9118800E+02  0.7818608E-02  0.1130116E+00
         25   -1    0    0    0    0  0.00000000000E+00  0.00000000000E+00  0.99999998245E-14  0.12500000000E+03  0.12500000000E+03 0.  0.
        -11    1    3    3    0    0 -0.62975079817E+01  0.32814321446E+02  0.22530091253E+02  0.40299420726E+02  0.51100000000E-03 0.  1.
         23    2    1    0    0    0  0.27737678124E+02 -0.56052860594E+01  0.17156769239E+02  0.91906907817E+02  0.85742212208E+02 0.  0.
         11    1    3    3    0    0  0.34035186105E+02 -0.38419607506E+02 -0.53733220141E+01  0.51607487091E+02  0.51100000000E-03 0. -1.
         22    1    1    0    0    0 -0.27737678124E+02  0.56052860594E+01 -0.17156769239E+02  0.33093092183E+02  0.00000000000E+00 0. -1.
</event>
<event>
 5    1  0.8962782E-005  0.9118800E+02  0.7818608E-02  0.1130116E+00
         25   -1    0    0    0    0  0.00000000000E+00  0.00000000000E+00  0.99999998245E-14  0.12500000000E+03  0.12500000000E+03 0.  0.
        -11    1    3    3    0    0  0.32406434964E+02  0.19030631974E+02  0.18969462045E+02  0.42097297668E+02  0.51100000000E-03 0.  1.
         23    2    1    0    0    0  0.69250636144E+01  0.76410959646E+01 -0.27123552623E+02  0.95982247494E+02  0.91490774801E+02 0.  0.
         11    1    3    3    0    0 -0.25481371350E+02 -0.11389536009E+02 -0.46093014668E+02  0.53884949826E+02  0.51100000000E-03 0. -1.
         22    1    1    0    0    0 -0.69250636144E+01 -0.76410959646E+01  0.27123552623E+02  0.29017752506E+02  0.00000000000E+00 0. -1.
</event>
<event>
 5    1  0.8962782E-005  0.9118800E+02  0.7818608E-02  0.1130116E+00
         25   -1    0    0    0    0  0.00000000000E+00  0.00000000000E+00  0.99999998245E-14  0.12500000000E+03  0.12500000000E+03 0.  0.
        -11    1    3    3    0    0 -0.28205613328E+02  0.41348563920E+02 -0.16026910074E+02  0.52555896037E+02  0.51100000000E-03 0.  1.
         23    2    1    0    0    0  0.70451204350E+01  0.27422314533E+02  0.55196172644E+01  0.96154147074E+02  0.91725333297E+02 0.  0.
         11    1    3    3    0    0  0.35250733763E+02 -0.13926249387E+02  0.21546527339E+02  0.43598251036E+02  0.51100000000E-03 0. -1.
         22    1    1    0    0    0 -0.70451204350E+01 -0.27422314533E+02 -0.55196172644E+01  0.28845852926E+02  0.00000000000E+00 0.  1.
</event>
<event>
 5    1  0.8962782E-005  0.9118800E+02  0.7818608E-02  0.1130116E+00
         25   -1    0    0    0    0  0.00000000000E+00  0.00000000000E+00  0.99999998245E-14  0.12500000000E+03  0.12500000000E+03 0.  0.
        -11    1    3    3    0    0  0.10203140150E+02 -0.31036547998E+00  0.33447265041E+02  0.34970272155E+02  0.51100000000E-03 0.  1.
         23    2    1    0    0    0  0.11255074410E+02 -0.11016592614E+02 -0.25574849972E+02  0.94964771286E+02  0.90089915205E+02 0.  0.
         11    1    3    3    0    0  0.10519342594E+01 -0.10706227134E+02 -0.59022115013E+02  0.59994499131E+02  0.51100000000E-03 0. -1.
         22    1    1    0    0    0 -0.11255074410E+02  0.11016592614E+02  0.25574849972E+02  0.30035228714E+02  0.00000000000E+00 0. -1.
</event>
<event>
 5    1  0.8962782E-005  0.9118800E+02  0.7818608E-02  0.1130116E+00
         25   -1    0    0    0    0  0.00000000000E+00  0.00000000000E+00  0.99999998245E-14  0.12500000000E+03  0.12500000000E+03 0.  0.
        -11    1    3    3    0    0 -0.25774282078E+02  0.13979992104E+02 -0.41368668770E+02  0.50706218080E+02  0.51100000000E-03 0.  1.
         23    2    1    0    0    0 -0.31173214761E+02  0.13284817956E+01 -0.53561089721E+00  0.93793893844E+02  0.88450401135E+02 0.  0.
         11    1    3    3    0    0 -0.53989326822E+01 -0.12651510309E+02  0.40833057873E+02  0.43087675764E+02  0.51100000000E-03 0. -1.
         22    1    1    0    0    0  0.31173214761E+02 -0.13284817956E+01  0.53561089721E+00  0.31206106156E+02  0.00000000000E+00 0.  1.
</event>
<event>
 5    1  0.8962782E-005  0.9118800E+02  0.7818608E-02  0.1130116E+00
         25   -1    0    0    0    0  0.00000000000E+00  0.00000000000E+00  0.99999998245E-14  0.12500000000E+03  0.12500000000E+03 0.  0.
        -11    1    3    3    0    0 -0.39359259874E+02 -0.32485374477E+02  0.33693760058E+02  0.61153253061E+02  0.51100000000E-03 0. -1.
         23    2    1    0    0    0 -0.12456098023E+02 -0.19005352357E+02  0.21801396521E+02  0.93509387329E+02  0.88047412410E+02 0.  0.
         11    1    3    3    0    0  0.26903161852E+02  0.13480022121E+02 -0.11892363537E+02  0.32356134268E+02  0.51100000000E-03 0.  1.
         22    1    1    0    0    0  0.12456098023E+02  0.19005352357E+02 -0.21801396521E+02  0.31490612671E+02  0.00000000000E+00 0. -1.
</event>
<event>
 5    1  0.8962782E-005  0.9118800E+02  0.7818608E-02  0.1130116E+00
         25   -1    0    0    0    0  0.00000000000E+00  0.00000000000E+00  0.99999998245E-14  0.12500000000E+03  0.12500000000E+03 0.  0.
        -11    1    3    3    0    0 -0.12487973908E+02 -0.33803277552E+02  0.13631258562E+02  0.38528201046E+02  0.51100000000E-03 0.  1.
         23    2    1    0    0    0  0.19760619909E+02  0.14999173119E+02  0.12923273158E+02  0.97027365470E+02  0.92907703488E+02 0.  0.
         11    1    3    3    0    0  0.32248593817E+02  0.48802450671E+02 -0.70798540428E+00  0.58499164424E+02  0.51100000000E-03 0. -1.
         22    1    1    0    0    0 -0.19760619909E+02 -0.14999173119E+02 -0.12923273158E+02  0.27972634530E+02  0.00000000000E+00 0. -1.
</event>
<event>
 5    1  0.8962782E-005  0.9118800E+02  0.7818608E-02  0.1130116E+00
         25   -1    0    0    0    0  0.00000000000E+00  0.00000000000E+00  0.99999998245E-14  0.12500000000E+03  0.12500000000E+03 0.  0.
        -11    1    3    3    0    0  0.20325475302E+02  0.35588270814E+02  0.79166085216E+01  0.41741138658E+02  0.51100000000E-03 0.  1.
         23    2    1    0    0    0  0.21357122236E+02 -0.17636081874E+02 -0.57722084687E+01  0.96707307575E+02  0.92476088226E+02 0.  0.
         11    1    3    3    0    0  0.10316469336E+01 -0.53224352688E+02 -0.13688816990E+02  0.54966168916E+02  0.51100000000E-03 0. -1.
         22    1    1    0    0    0 -0.21357122236E+02  0.17636081874E+02  0.57722084687E+01  0.28292692425E+02  0.00000000000E+00 0. -1.
</event>
<event>
 5    1  0.8962782E-005  0.9118800E+02  0.7818608E-02  0.1130116E+00
         25   -1    0    0    0    0  0.00000000000E+00  0.00000000000E+00  0.99999998245E-14  0.12500000000E+03  0.12500000000E+03 0.  0.
        -11    1    3    3    0    0 -0.17348097541E+01  0.10039567066E+02 -0.35382111030E+02  0.36819780730E+02  0.51100000000E-03 0.  1.
         23    2    1    0    0    0  0.17624444407E+02  0.12210973163E+02  0.20092662916E+02  0.95615582202E+02  0.90988436356E+02 0.  0.
         11    1    3    3    0    0  0.19359254161E+02  0.21714060968E+01  0.55474773946E+02  0.58795801472E+02  0.51100000000E-03 0. -1.
         22    1    1    0    0    0 -0.17624444407E+02 -0.12210973163E+02 -0.20092662916E+02  0.29384417798E+02  0.00000000000E+00 0. -1.
</event>
<event>
 5    1  0.8962782E-005  0.9118800E+02  0.7818608E-02  0.1130116E+00
         25   -1    0    0    0    0  0.00000000000E+00  0.00000000000E+00  0.99999998245E-14  0.12500000000E+03  0.12500000000E+03 0.  0.
        -11    1    3    3    0    0  0.38436984684E+02  0.20357735269E+02  0.24069657944E+02  0.49711041135E+02  0.51100000000E-03 0. -1.
         23    2    1    0    0    0 -0.69126017733E+01  0.23484494367E+02  0.15658216462E+02  0.95939971064E+02  0.91432996046E+02 0.  0.
         11    1    3    3    0    0 -0.45349586458E+02  0.31267590989E+01 -0.84114414820E+01  0.46228929929E+02  0.51100000000E-03 0.  1.
         22    1    1    0    0    0  0.69126017733E+01 -0.23484494367E+02 -0.15658216462E+02  0.29060028936E+02  0.00000000000E+00 0. -1.
</event>
<event>
 5    1  0.8962782E-005  0.9118800E+02  0.7818608E-02  0.1130116E+00
         25   -1    0    0    0    0  0.00000000000E+00  0.00000000000E+00  0.99999998245E-14  0.12500000000E+03  0.12500000000E+03 0.  0.
        -11    1    3    3    0    0  0.81217685629E+01 -0.42551587480E+02  0.16276449608E+01  0.43350316609E+02  0.51100000000E-03 0.  1.
         23    2    1    0    0    0 -0.20830831720E+02 -0.34596936592E+01 -0.19380042950E+02  0.96338543388E+02  0.91976278720E+02 0.  0.
         11    1    3    3    0    0 -0.28952600283E+02  0.39091893821E+02 -0.21007687911E+02  0.52988226780E+02  0.51100000000E-03 0. -1.
         22    1    1    0    0    0  0.20830831720E+02  0.34596936592E+01  0.19380042950E+02  0.28661456612E+02  0.00000000000E+00 0. -1.
</event>
<event>
 5    1  0.8962782E-005  0.9118800E+02  0.7818608E-02  0.1130116E+00
         25   -1    0    0    0    0  0.00000000000E+00  0.00000000000E+00  0.99999998245E-14  0.12500000000E+03  0.12500000000E+03 0.  0.
        -11    1    3    3    0    0 -0.36951685329E+01  0.10204504007E+02 -0.28219989040E+02  0.30234978985E+02  0.51100000000E-03 0. -1.
         23    2    1    0    0    0 -0.21154255581E+02 -0.11277366780E+02  0.25086841237E+02  0.90300848225E+02  0.83367931822E+02 0.  0.
         11    1    3    3    0    0 -0.17459087048E+02 -0.21481870787E+02  0.53306830277E+02  0.60065869240E+02  0.51100000000E-03 0.  1.
         22    1    1    0    0    0  0.21154255581E+02  0.11277366780E+02 -0.25086841237E+02  0.34699151775E+02  0.00000000000E+00 0.  1.
</event>
<event>
 5    1  0.8962782E-005  0.9118800E+02  0.7818608E-02  0.1130116E+00
         25   -1    0    0    0    0  0.00000000000E+00  0.00000000000E+00  0.99999998245E-14  0.12500000000E+03  0.12500000000E+03 0.  0.
        -11    1    3    3    0    0 -0.43573507825E+00 -0.37113927629E+02  0.85296138390E-02  0.37116486393E+02  0.51100000000E-03 0. -1.
         23    2    1    0    0    0  0.98063711531E+01  0.14582723580E+02  0.24189747907E+02  0.95100758438E+02  0.90278400570E+02 0.  0.
         11    1    3    3    0    0  0.10242106231E+02  0.51696651209E+02  0.24181218293E+02  0.57984272045E+02  0.51100000000E-03 0.  1.
         22    1    1    0    0    0 -0.98063711531E+01 -0.14582723580E+02 -0.24189747907E+02  0.29899241562E+02  0.00000000000E+00 0.  1.
</event>
<event>
 5    1  0.8962782E-005  0.9118800E+02  0.7818608E-02  0.1130116E+00
         25   -1    0    0    0    0  0.00000000000E+00  0.00000000000E+00  0.99999998245E-14  0.12500000000E+03  0.12500000000E+03 0.  0.
        -11    1    3    3    0    0  0.94594979592E+01  0.10854332364E+02 -0.27415755234E+02  0.30966470060E+02  0.51100000000E-03 0. -1.
         23    2    1    0    0    0  0.20417977060E+02  0.12631579297E+02  0.28363068100E+02  0.87839345877E+02  0.79591685931E+02 0.  0.
         11    1    3    3    0    0  0.10958479101E+02  0.17772469334E+01  0.55778823334E+02  0.56872875817E+02  0.51100000000E-03 0.  1.
         22    1    1    0    0    0 -0.20417977060E+02 -0.12631579297E+02 -0.28363068100E+02  0.37160654123E+02  0.00000000000E+00 0.  1.
</event>
<event>
 5    1  0.8962782E-005  0.9118800E+02  0.7818608E-02  0.1130116E+00
         25   -1    0    0    0    0  0.00000000000E+00  0.00000000000E+00  0.99999998245E-14  0.12500000000E+03  0.12500000000E+03 0.  0.
        -11    1    3    3    0    0  0.21335382538E+01 -0.25711513512E+01  0.33978860615E+02  0.34142726512E+02  0.51100000000E-03 0.  1.
         23    2    1    0    0    0 -0.11462245750E+01 -0.27157927702E+02 -0.18453132699E+02  0.92146005201E+02  0.86090076666E+02 0.  0.
         11    1    3    3    0    0 -0.32797628288E+01 -0.24586776351E+02 -0.52431993314E+02  0.58003278689E+02  0.51100000000E-03 0. -1.
         22    1    1    0    0    0  0.11462245750E+01  0.27157927702E+02  0.18453132699E+02  0.32853994799E+02  0.00000000000E+00 0. -1.
</event>
<event>
 5    1  0.8962782E-005  0.9118800E+02  0.7818608E-02  0.1130116E+00
         25   -1    0    0    0    0  0.00000000000E+00  0.00000000000E+00  0.99999998245E-14  0.12500000000E+03  0.12500000000E+03 0.  0.
        -11    1    3    3    0    0 -0.15137409210E+02 -0.58180114517E+01  0.42488713506E+02  0.45478359584E+02  0.51100000000E-03 0.  1.
         23    2    1    0    0    0 -0.46744655943E+01 -0.27919783057E+02 -0.23943841931E+01  0.96590529921E+02  0.92318104834E+02 0.  0.
         11    1    3    3    0    0  0.10462943616E+02 -0.22101771605E+02 -0.44883097699E+02  0.51112170336E+02  0.51100000000E-03 0. -1.
         22    1    1    0    0    0  0.46744655943E+01  0.27919783057E+02  0.23943841931E+01  0.28409470079E+02  0.00000000000E+00 0.  1.
</event>
<event>
 5    1  0.8962782E-005  0.9118800E+02  0.7818608E-02  0.1130116E+00
         25   -1    0    0    0    0  0.00000000000E+00  0.00000000000E+00  0.99999998245E-14  0.12500000000E+03  0.12500000000E+03 0.  0.
        -11    1    3    3    0    0  0.31394199839E+00 -0.25088428335E+02 -0.27324222289E+02  0.37096373406E+02  0.51100000000E-03 0. -1.
         23    2    1    0    0    0 -0.18163028179E+02  0.23001939049E+02  0.57992570250E+00  0.95685820727E+02  0.91084878996E+02 0.  0.
         11    1    3    3    0    0 -0.18476970178E+02  0.48090367384E+02  0.27904147991E+02  0.58589447321E+02  0.51100000000E-03 0.  1.
         22    1    1    0    0    0  0.18163028179E+02 -0.23001939049E+02 -0.57992570250E+00  0.29314179273E+02  0.00000000000E+00 0.  1.
</event>
<event>
 5    1  0.8962782E-005  0.9118800E+02  0.7818608E-02  0.1130116E+00
         25   -1    0    0    0    0  0.00000000000E+00  0.00000000000E+00  0.99999998245E-14  0.12500000000E+03  0.12500000000E+03 0.  0.
        -11    1    3    3    0    0  0.23388580049E+02 -0.48625555419E+02 -0.13928869003E+02  0.55726867025E+02  0.51100000000E-03 0. -1.
         23    2    1    0    0    0 -0.98810118151E+01 -0.25460323625E+02 -0.61227361548E+01  0.97011602911E+02  0.92886493786E+02 0.  0.
         11    1    3    3    0    0 -0.33269591864E+02  0.23165231794E+02  0.78061328482E+01  0.41284735886E+02  0.51100000000E-03 0.  1.
         22    1    1    0    0    0  0.98810118151E+01  0.25460323625E+02  0.61227361548E+01  0.27988397089E+02  0.00000000000E+00 0. -1.
</event>
<event>
 5    1  0.8962782E-005  0.9118800E+02  0.7818608E-02  0.1130116E+00
         25   -1    0    0    0    0  0.00000000000E+00  0.00000000000E+00  0.99999998245E-14  0.12500000000E+03  0.12500000000E+03 0.  0.
        -11    1    3    3    0    0 -0.33849997363E+02 -0.95871932371E+01 -0.25278738458E+02  0.43321486747E+02  0.51100000000E-03 0. -1.
         23    2    1    0    0    0 -0.10016722706E+02 -0.19724990719E+02  0.19799960302E+02  0.95310802965E+02  0.90568762503E+02 0.  0.
         11    1    3    3    0    0  0.23833274658E+02 -0.10137797481E+02  0.45078698760E+02  0.51989316218E+02  0.51100000000E-03 0.  1.
         22    1    1    0    0    0  0.10016722706E+02  0.19724990719E+02 -0.19799960302E+02  0.29689197035E+02  0.00000000000E+00 0. -1.
</event>
<event>
 5    1  0.8962782E-005  0.9118800E+02  0.7818608E-02  0.1130116E+00
         25   -1    0    0    0    0  0.00000000000E+00  0.00000000000E+00  0.99999998245E-14  0.12500000000E+03  0.12500000000E+03 0.  0.
        -11    1    3    3    0    0 -0.23854196018E+02  0.28356279336E+02 -0.41849893558E+02  0.55897359835E+02  0.51100000000E-03 0. -1.
         23    2    1    0    0    0 -0.34356892917E-01  0.26802723635E+02 -0.85549103234E+01  0.96865081033E+02  0.92689105392E+02 0.  0.
         11    1    3    3    0    0  0.23819839125E+02 -0.15535557011E+01  0.33294983235E+02  0.40967721198E+02  0.51100000000E-03 0.  1.
         22    1    1    0    0    0  0.34356892917E-01 -0.26802723635E+02  0.85549103234E+01  0.28134918967E+02  0.00000000000E+00 0. -1.
</event>
<event>
 5    1  0.8962782E-005  0.9118800E+02  0.7818608E-02  0.1130116E+00
         25   -1    0    0    0    0  0.00000000000E+00  0.00000000000E+00  0.99999998245E-14  0.12500000000E+03  0.12500000000E+03 0.  0.
        -11    1    3    3    0    0  0.21364390752E+00  0.30812536788E+02  0.17882721833E+02  0.35626532352E+02  0.51100000000E-03 0.  1.
         23    2    1    0    0    0 -0.72617771061E+00 -0.49519583214E+01 -0.29544461156E+02  0.95034613130E+02  0.90186768888E+02 0.  0.
         11    1    3    3    0    0 -0.93982161813E+00 -0.35764495110E+02 -0.47427182989E+02  0.59408080777E+02  0.51100000000E-03 0. -1.
         22    1    1    0    0    0  0.72617771061E+00  0.49519583214E+01  0.29544461156E+02  0.29965386870E+02  0.00000000000E+00 0. -1.
</event>
<event>
 5    1  0.8962782E-005  0.9118800E+02  0.7818608E-02  0.1130116E+00
         25   -1    0    0    0    0  0.00000000000E+00  0.00000000000E+00  0.99999998245E-14  0.12500000000E+03  0.12500000000E+03 0.  0.
        -11    1    3    3    0    0 -0.32662937339E+02 -0.12476537646E+02  0.91466660325E+00  0.34976679123E+02  0.51100000000E-03 0.  1.
         23    2    1    0    0    0  0.25086702749E+02  0.10504305256E+02  0.53225962441E+01  0.97286950466E+02  0.93256300679E+02 0.  0.
         11    1    3    3    0    0  0.57749640088E+02  0.22980842901E+02  0.44079296409E+01  0.62310271342E+02  0.51100000000E-03 0. -1.
         22    1    1    0    0    0 -0.25086702749E+02 -0.10504305256E+02 -0.53225962441E+01  0.27713049534E+02  0.00000000000E+00 0. -1.
</event>
<event>
 5    1  0.8962782E-005  0.9118800E+02  0.7818608E-02  0.1130116E+00
         25   -1    0    0    0    0  0.00000000000E+00  0.00000000000E+00  0.99999998245E-14  0.12500000000E+03  0.12500000000E+03 0.  0.
        -11    1    3    3    0    0 -0.97809243285E+01  0.80506515861E+01 -0.39641396365E+02  0.41616340273E+02  0.51100000000E-03 0.  1.
         23    2    1    0    0    0 -0.20157254356E+01 -0.29386323446E+02 -0.16770499170E+01  0.95496921328E+02  0.90825273641E+02 0.  0.
         11    1    3    3    0    0  0.77651988930E+01 -0.37436975032E+02  0.37964346448E+02  0.53880581055E+02  0.51100000000E-03 0. -1.
         22    1    1    0    0    0  0.20157254356E+01  0.29386323446E+02  0.16770499170E+01  0.29503078672E+02  0.00000000000E+00 0. -1.
</event>
<event>
 5    1  0.8962782E-005  0.9118800E+02  0.7818608E-02  0.1130116E+00
         25   -1    0    0    0    0  0.00000000000E+00  0.00000000000E+00  0.99999998245E-14  0.12500000000E+03  0.12500000000E+03 0.  0.
        -11    1    3    3    0    0 -0.34186413358E+02 -0.16681025708E+02 -0.40829190788E+02  0.55803138779E+02  0.51100000000E-03 0.  1.
         23    2    1    0    0    0 -0.27764570521E+02  0.45268321436E+01 -0.73961187243E+01  0.95912783604E+02  0.91395819931E+02 0.  0.
         11    1    3    3    0    0  0.64218428369E+01  0.21207857852E+02  0.33433072063E+02  0.40109644824E+02  0.51100000000E-03 0. -1.
         22    1    1    0    0    0  0.27764570521E+02 -0.45268321436E+01  0.73961187243E+01  0.29087216396E+02  0.00000000000E+00 0.  1.
</event>
<event>
 5    1  0.8962782E-005  0.9118800E+02  0.7818608E-02  0.1130116E+00
         25   -1    0    0    0    0  0.00000000000E+00  0.00000000000E+00  0.99999998245E-14  0.12500000000E+03  0.12500000000E+03 0.  0.
        -11    1    3    3    0    0 -0.94582403216E+01 -0.10741779434E+02  0.35339818773E+02  0.38128033342E+02  0.51100000000E-03 0. -1.
         23    2    1    0    0    0  0.13682233740E+02  0.26580471818E+02 -0.94009798131E+00  0.95089988525E+02  0.90263487255E+02 0.  0.
         11    1    3    3    0    0  0.23140474062E+02  0.37322251252E+02 -0.36279916754E+02  0.56961955183E+02  0.51100000000E-03 0.  1.
         22    1    1    0    0    0 -0.13682233740E+02 -0.26580471818E+02  0.94009798131E+00  0.29910011475E+02  0.00000000000E+00 0.  1.
</event>
<event>
 5    1  0.8962782E-005  0.9118800E+02  0.7818608E-02  0.1130116E+00
         25   -1    0    0    0    0  0.00000000000E+00  0.00000000000E+00  0.99999998245E-14  0.12500000000E+03  0.12500000000E+03 0.  0.
        -11    1    3    3    0    0  0.41775168173E+02  0.11199261160E+02  0.37378791873E+02  0.57164343857E+02  0.51100000000E-03 0.  1.
         23    2    1    0    0    0  0.11923855699E+02  0.21781156911E+02  0.14380224638E+02  0.96305261951E+02  0.91931036585E+02 0.  0.
         11    1    3    3    0    0 -0.29851312474E+02  0.10581895750E+02 -0.22998567235E+02  0.39140918094E+02  0.51100000000E-03 0. -1.
         22    1    1    0    0    0 -0.11923855699E+02 -0.21781156911E+02 -0.14380224638E+02  0.28694738049E+02  0.00000000000E+00 0.  1.
</event>
<event>
 5    1  0.8962782E-005  0.9118800E+02  0.7818608E-02  0.1130116E+00
         25   -1    0    0    0    0  0.00000000000E+00  0.00000000000E+00  0.99999998245E-14  0.12500000000E+03  0.12500000000E+03 0.  0.
        -11    1    3    3    0    0 -0.12351410969E+02 -0.46417010041E+02 -0.25435513328E+02  0.54351278850E+02  0.51100000000E-03 0. -1.
         23    2    1    0    0    0  0.11348355676E+02 -0.26815454293E+02  0.23341973444E+01  0.95788662428E+02  0.91225904255E+02 0.  0.
         11    1    3    3    0    0  0.23699766645E+02  0.19601555748E+02  0.27769710672E+02  0.41437383579E+02  0.51100000000E-03 0.  1.
         22    1    1    0    0    0 -0.11348355676E+02  0.26815454293E+02 -0.23341973444E+01  0.29211337572E+02  0.00000000000E+00 0. -1.
</event>
<event>
 5    1  0.8962782E-005  0.9118800E+02  0.7818608E-02  0.1130116E+00
         25   -1    0    0    0    0  0.00000000000E+00  0.00000000000E+00  0.99999998245E-14  0.12500000000E+03  0.12500000000E+03 0.  0.
        -11    1    3    3    0    0 -0.29812135091E+02 -0.25177810739E+02 -0.46785299720E+02  0.60922490284E+02  0.51100000000E-03 0.  1.
         23    2    1    0    0    0 -0.13880436388E+02 -0.23005574438E-01 -0.17208719870E+02  0.10289101804E+03  0.10048758386E+03 0.  0.
         11    1    3    3    0    0  0.15931698703E+02  0.25154805165E+02  0.29576579850E+02  0.41968527759E+02  0.51100000000E-03 0. -1.
         22    1    1    0    0    0  0.13880436388E+02  0.23005574438E-01  0.17208719870E+02  0.22108981956E+02  0.00000000000E+00 0.  1.
</event>
<event>
 5    1  0.8962782E-005  0.9118800E+02  0.7818608E-02  0.1130116E+00
         25   -1    0    0    0    0  0.00000000000E+00  0.00000000000E+00  0.99999998245E-14  0.12500000000E+03  0.12500000000E+03 0.  0.
        -11    1    3    3    0    0  0.22430853467E+02  0.29936689547E+02  0.22588845713E+02  0.43699021948E+02  0.51100000000E-03 0.  1.
         23    2    1    0    0    0  0.34144679406E+02 -0.10172661743E+02  0.15775870143E+02  0.86035654023E+02  0.76706671846E+02 0.  0.
         11    1    3    3    0    0  0.11713825939E+02 -0.40109351290E+02 -0.68129755702E+01  0.42336632075E+02  0.51100000000E-03 0. -1.
         22    1    1    0    0    0 -0.34144679406E+02  0.10172661743E+02 -0.15775870143E+02  0.38964345977E+02  0.00000000000E+00 0.  1.
</event>
<event>
 5    1  0.8962782E-005  0.9118800E+02  0.7818608E-02  0.1130116E+00
         25   -1    0    0    0    0  0.00000000000E+00  0.00000000000E+00  0.99999998245E-14  0.12500000000E+03  0.12500000000E+03 0.  0.
        -11    1    3    3    0    0 -0.24317078818E+02  0.18869704173E+02 -0.16002276581E+02  0.34690905348E+02  0.51100000000E-03 0.  1.
         23    2    1    0    0    0  0.22831687837E+02 -0.11427293528E+02  0.11356980797E+02  0.97056306263E+02  0.92946632890E+02 0.  0.
         11    1    3    3    0    0  0.47148766655E+02 -0.30296997701E+02  0.27359257378E+02  0.62365400915E+02  0.51100000000E-03 0. -1.
         22    1    1    0    0    0 -0.22831687837E+02  0.11427293528E+02 -0.11356980797E+02  0.27943693737E+02  0.00000000000E+00 0. -1.
</event>
<event>
 5    1  0.8962782E-005  0.9118800E+02  0.7818608E-02  0.1130116E+00
         25   -1    0    0    0    0  0.00000000000E+00  0.00000000000E+00  0.99999998245E-14  0.12500000000E+03  0.12500000000E+03 0.  0.
        -11    1    3    3    0    0  0.46762915943E+02  0.25134803485E+02 -0.32635304728E+02  0.62318470526E+02  0.51100000000E-03 0. -1.
         23    2    1    0    0    0  0.21597372754E+02  0.88734209798E+01 -0.17022423864E+02  0.96104550117E+02  0.91657719419E+02 0.  0.
         11    1    3    3    0    0 -0.25165543188E+02 -0.16261382505E+02  0.15612880865E+02  0.33786079591E+02  0.51100000000E-03 0.  1.
         22    1    1    0    0    0 -0.21597372754E+02 -0.88734209798E+01  0.17022423864E+02  0.28895449883E+02  0.00000000000E+00 0. -1.
</event>
<event>
 5    1  0.8962782E-005  0.9118800E+02  0.7818608E-02  0.1130116E+00
         25   -1    0    0    0    0  0.00000000000E+00  0.00000000000E+00  0.99999998245E-14  0.12500000000E+03  0.12500000000E+03 0.  0.
        -11    1    3    3    0    0  0.28914837017E+02  0.18458647806E+02 -0.62790360940E+01  0.34874285269E+02  0.51100000000E-03 0.  1.
         23    2    1    0    0    0 -0.20270208514E+02 -0.20430040066E+00  0.22399002017E+02  0.94790094617E+02  0.89847223966E+02 0.  0.
         11    1    3    3    0    0 -0.49185045531E+02 -0.18662948207E+02  0.28678038111E+02  0.59915809348E+02  0.51100000000E-03 0. -1.
         22    1    1    0    0    0  0.20270208514E+02  0.20430040066E+00 -0.22399002017E+02  0.30209905383E+02  0.00000000000E+00 0. -1.
</event>
<event>
 5    1  0.8962782E-005  0.9118800E+02  0.7818608E-02  0.1130116E+00
         25   -1    0    0    0    0  0.00000000000E+00  0.00000000000E+00  0.99999998245E-14  0.12500000000E+03  0.12500000000E+03 0.  0.
        -11    1    3    3    0    0  0.16022621350E+02 -0.25655055792E+02 -0.19068750147E+02  0.35756447181E+02  0.51100000000E-03 0. -1.
         23    2    1    0    0    0  0.68378969422E+01  0.28462915025E+02  0.42953857128E+01  0.95413775085E+02  0.90710769874E+02 0.  0.
         11    1    3    3    0    0 -0.91847244077E+01  0.54117970817E+02  0.23364135859E+02  0.59657327903E+02  0.51100000000E-03 0.  1.
         22    1    1    0    0    0 -0.68378969422E+01 -0.28462915025E+02 -0.42953857128E+01  0.29586224915E+02  0.00000000000E+00 0.  1.
</event>
<event>
 5    1  0.8962782E-005  0.9118800E+02  0.7818608E-02  0.1130116E+00
         25   -1    0    0    0    0  0.00000000000E+00  0.00000000000E+00  0.99999998245E-14  0.12500000000E+03  0.12500000000E+03 0.  0.
        -11    1    3    3    0    0  0.40841562866E+02 -0.28212917228E+02 -0.24002385063E+02  0.55137250973E+02  0.51100000000E-03 0. -1.
         23    2    1    0    0    0  0.26515700794E+02  0.63381365965E+01 -0.16006760136E+02  0.93385592933E+02  0.87871487032E+02 0.  0.
         11    1    3    3    0    0 -0.14325862072E+02  0.34551053825E+02  0.79956249262E+01  0.38248341960E+02  0.51100000000E-03 0.  1.
         22    1    1    0    0    0 -0.26515700794E+02 -0.63381365965E+01  0.16006760136E+02  0.31614407067E+02  0.00000000000E+00 0. -1.
</event>
<event>
 5    1  0.8962782E-005  0.9118800E+02  0.7818608E-02  0.1130116E+00
         25   -1    0    0    0    0  0.00000000000E+00  0.00000000000E+00  0.99999998245E-14  0.12500000000E+03  0.12500000000E+03 0.  0.
        -11    1    3    3    0    0 -0.54547978949E+02  0.10589755220E+02 -0.56631163349E+01  0.55854237171E+02  0.51100000000E-03 0.  1.
         23    2    1    0    0    0 -0.24631482814E+02 -0.10600324144E+02  0.10862823851E+02  0.96067703866E+02  0.91607455846E+02 0.  0.
         11    1    3    3    0    0  0.29916496135E+02 -0.21190079364E+02  0.16525940185E+02  0.40213466696E+02  0.51100000000E-03 0. -1.
         22    1    1    0    0    0  0.24631482814E+02  0.10600324144E+02 -0.10862823851E+02  0.28932296134E+02  0.00000000000E+00 0. -1.
</event>
<event>
 5    1  0.8962782E-005  0.9118800E+02  0.7818608E-02  0.1130116E+00
         25   -1    0    0    0    0  0.00000000000E+00  0.00000000000E+00  0.99999998245E-14  0.12500000000E+03  0.12500000000E+03 0.  0.
        -11    1    3    3    0    0 -0.31002106062E+02  0.28672631875E+02  0.38793431269E+02  0.57342660462E+02  0.51100000000E-03 0. -1.
         23    2    1    0    0    0 -0.62122883543E+00  0.24778376331E+02  0.16562291684E+02  0.95189542695E+02  0.90401248187E+02 0.  0.
         11    1    3    3    0    0  0.30380877227E+02 -0.38942555440E+01 -0.22231139584E+02  0.37846882233E+02  0.51100000000E-03 0.  1.
         22    1    1    0    0    0  0.62122883543E+00 -0.24778376331E+02 -0.16562291684E+02  0.29810457305E+02  0.00000000000E+00 0. -1.
</event>
<event>
 5    1  0.8962782E-005  0.9118800E+02  0.7818608E-02  0.1130116E+00
         25   -1    0    0    0    0  0.00000000000E+00  0.00000000000E+00  0.99999998245E-14  0.12500000000E+03  0.12500000000E+03 0.  0.
        -11    1    3    3    0    0 -0.39747860287E+02  0.12885021844E+02 -0.39250394805E+01  0.41968108374E+02  0.51100000000E-03 0.  1.
         23    2    1    0    0    0 -0.52452257423E+01 -0.27625419364E+02  0.63738452565E+01  0.96167690147E+02  0.91743787456E+02 0.  0.
         11    1    3    3    0    0  0.34502634544E+02 -0.40510441208E+02  0.10298884737E+02  0.54199581773E+02  0.51100000000E-03 0. -1.
         22    1    1    0    0    0  0.52452257423E+01  0.27625419364E+02 -0.63738452565E+01  0.28832309853E+02  0.00000000000E+00 0. -1.
</event>
<event>
 4    1  0.8962782E-005  0.9118800E+02  0.7818608E-02  0.1130116E+00
         25   -1    0    0    0    0  0.00000000000E+00  0.00000000000E+00  0.99999998245E-14  0.12500000000E+03  0.12500000000E+03 0.  0.
        -11    1    1    0    0    0 -0.19052916973E+02  0.27897762373E+02  0.29490789701E+01  0.33911588840E+02  0.51100000000E-03 0. -1.
         11    1    1    0    0    0  0.17942189309E+02  0.28729229019E+02 -0.58641564907E+01  0.34375559469E+02  0.51100000000E-03 0.  1.
         22    1    1    0    0    0  0.11107276641E+01 -0.56626991392E+02  0.29150775206E+01  0.56712851691E+02  0.00000000000E+00 0.  1.
</event>
<event>
 5    1  0.8962782E-005  0.9118800E+02  0.7818608E-02  0.1130116E+00
         25   -1    0    0    0    0  0.00000000000E+00  0.00000000000E+00  0.99999998245E-14  0.12500000000E+03  0.12500000000E+03 0.  0.
        -11    1    3    3    0    0  0.59330840715E+01 -0.78635022404E+01 -0.61644695923E+02  0.62426794646E+02  0.51100000000E-03 0.  1.
         23    2    1    0    0    0  0.37345230937E+01 -0.55549921009E+01 -0.28497417751E+02  0.95727018969E+02  0.91141399716E+02 0.  0.
         11    1    3    3    0    0 -0.21985609778E+01  0.23085101395E+01  0.33147278172E+02  0.33300224323E+02  0.51100000000E-03 0. -1.
         22    1    1    0    0    0 -0.37345230937E+01  0.55549921009E+01  0.28497417751E+02  0.29272981031E+02  0.00000000000E+00 0.  1.
</event>
<event>
 5    1  0.8962782E-005  0.9118800E+02  0.7818608E-02  0.1130116E+00
         25   -1    0    0    0    0  0.00000000000E+00  0.00000000000E+00  0.99999998245E-14  0.12500000000E+03  0.12500000000E+03 0.  0.
        -11    1    3    3    0    0  0.22551362168E+02 -0.21828438653E+02  0.16541802931E+02  0.35477822849E+02  0.51100000000E-03 0. -1.
         23    2    1    0    0    0 -0.21306818077E+02  0.18584478475E+02  0.69824704697E+01  0.95877530486E+02  0.91347592313E+02 0.  0.
         11    1    3    3    0    0 -0.43858180245E+02  0.40412917128E+02 -0.95593324617E+01  0.60399707636E+02  0.51100000000E-03 0.  1.
         22    1    1    0    0    0  0.21306818077E+02 -0.18584478475E+02 -0.69824704697E+01  0.29122469514E+02  0.00000000000E+00 0.  1.
</event>
<event>
 5    1  0.8962782E-005  0.9118800E+02  0.7818608E-02  0.1130116E+00
         25   -1    0    0    0    0  0.00000000000E+00  0.00000000000E+00  0.99999998245E-14  0.12500000000E+03  0.12500000000E+03 0.  0.
        -11    1    3    3    0    0 -0.18040975277E+02  0.39025258328E+01 -0.49042432579E+02  0.52401018028E+02  0.51100000000E-03 0. -1.
         23    2    1    0    0    0  0.16151645174E+02  0.77258960572E+01 -0.24464427087E+02  0.94683778197E+02  0.89699189233E+02 0.  0.
         11    1    3    3    0    0  0.34192620452E+02  0.38233702244E+01  0.24578005492E+02  0.42282760168E+02  0.51100000000E-03 0.  1.
         22    1    1    0    0    0 -0.16151645174E+02 -0.77258960572E+01  0.24464427087E+02  0.30316221803E+02  0.00000000000E+00 0. -1.
</event>
<event>
 5    1  0.8962782E-005  0.9118800E+02  0.7818608E-02  0.1130116E+00
         25   -1    0    0    0    0  0.00000000000E+00  0.00000000000E+00  0.99999998245E-14  0.12500000000E+03  0.12500000000E+03 0.  0.
        -11    1    3    3    0    0 -0.21145864852E+02 -0.30533585881E+02 -0.19009248139E+02  0.41722883195E+02  0.51100000000E-03 0.  1.
         23    2    1    0    0    0  0.26861582803E+02 -0.12001852394E+02 -0.41318498106E+01  0.95290384142E+02  0.90540576735E+02 0.  0.
         11    1    3    3    0    0  0.48007447655E+02  0.18531733487E+02  0.14877398328E+02  0.53567500947E+02  0.51100000000E-03 0. -1.
         22    1    1    0    0    0 -0.26861582803E+02  0.12001852394E+02  0.41318498106E+01  0.29709615858E+02  0.00000000000E+00 0. -1.
</event>
<event>
 5    1  0.8962782E-005  0.9118800E+02  0.7818608E-02  0.1130116E+00
         25   -1    0    0    0    0  0.00000000000E+00  0.00000000000E+00  0.99999998245E-14  0.12500000000E+03  0.12500000000E+03 0.  0.
        -11    1    3    3    0    0  0.38926123708E+02 -0.13868102338E+02  0.39705754131E+02  0.57307192226E+02  0.51100000000E-03 0. -1.
         23    2    1    0    0    0  0.10059252568E+02 -0.21428917317E+02  0.24985677250E+02  0.90580948194E+02  0.83786854866E+02 0.  0.
         11    1    3    3    0    0 -0.28866871140E+02 -0.75608149789E+01 -0.14720076882E+02  0.33273755968E+02  0.51100000000E-03 0.  1.
         22    1    1    0    0    0 -0.10059252568E+02  0.21428917317E+02 -0.24985677250E+02  0.34419051806E+02  0.00000000000E+00 0. -1.
</event>
<event>
 5    1  0.8962782E-005  0.9118800E+02  0.7818608E-02  0.1130116E+00
         25   -1    0    0    0    0  0.00000000000E+00  0.00000000000E+00  0.99999998245E-14  0.12500000000E+03  0.12500000000E+03 0.  0.
        -11    1    3    3    0    0 -0.48645139809E+02 -0.22345415769E+02  0.21178214851E+02  0.57568950116E+02  0.51100000000E-03 0.  1.
         23    2    1    0    0    0 -0.21812496285E+02  0.45347212574E+01  0.19180330226E+02  0.95602147040E+02  0.90969977246E+02 0.  0.
         11    1    3    3    0    0  0.26832643524E+02  0.26880137027E+02 -0.19978846259E+01  0.38033196924E+02  0.51100000000E-03 0. -1.
         22    1    1    0    0    0  0.21812496285E+02 -0.45347212574E+01 -0.19180330226E+02  0.29397852960E+02  0.00000000000E+00 0.  1.
</event>
<event>
 5    1  0.8962782E-005  0.9118800E+02  0.7818608E-02  0.1130116E+00
         25   -1    0    0    0    0  0.00000000000E+00  0.00000000000E+00  0.99999998245E-14  0.12500000000E+03  0.12500000000E+03 0.  0.
        -11    1    3    3    0    0 -0.14035058822E+02 -0.31437573588E+02  0.12861960106E+02  0.36752332269E+02  0.51100000000E-03 0. -1.
         23    2    1    0    0    0  0.12783802218E+02  0.22896343262E+02  0.82031727596E+01  0.97523461331E+02  0.93572780940E+02 0.  0.
         11    1    3    3    0    0  0.26818861039E+02  0.54333916849E+02 -0.46587873460E+01  0.60771129062E+02  0.51100000000E-03 0.  1.
         22    1    1    0    0    0 -0.12783802218E+02 -0.22896343262E+02 -0.82031727596E+01  0.27476538669E+02  0.00000000000E+00 0.  1.
</event>
<event>
 5    1  0.8962782E-005  0.9118800E+02  0.7818608E-02  0.1130116E+00
         25   -1    0    0    0    0  0.00000000000E+00  0.00000000000E+00  0.99999998245E-14  0.12500000000E+03  0.12500000000E+03 0.  0.
        -11    1    3    3    0    0  0.24758692785E+02 -0.20542221734E+02 -0.36220600420E+02  0.48444892788E+02  0.51100000000E-03 0. -1.
         23    2    1    0    0    0  0.22962925522E+02 -0.11842193538E+02  0.11308384481E+02  0.96796931801E+02  0.92597154115E+02 0.  0.
         11    1    3    3    0    0 -0.17957672635E+01  0.87000281957E+01  0.47528984901E+02  0.48352039013E+02  0.51100000000E-03 0.  1.
         22    1    1    0    0    0 -0.22962925522E+02  0.11842193538E+02 -0.11308384481E+02  0.28203068199E+02  0.00000000000E+00 0. -1.
</event>
<event>
 5    1  0.8962782E-005  0.9118800E+02  0.7818608E-02  0.1130116E+00
         25   -1    0    0    0    0  0.00000000000E+00  0.00000000000E+00  0.99999998245E-14  0.12500000000E+03  0.12500000000E+03 0.  0.
        -11    1    3    3    0    0  0.26139862046E+02 -0.18757206314E+02  0.30746161368E+02  0.44502265286E+02  0.51100000000E-03 0. -1.
         23    2    1    0    0    0 -0.19278326304E+02  0.15621912154E+01  0.23147474768E+02  0.94835453018E+02  0.89910306720E+02 0.  0.
         11    1    3    3    0    0 -0.45418188350E+02  0.20319397529E+02 -0.75986865997E+01  0.50333187732E+02  0.51100000000E-03 0.  1.
         22    1    1    0    0    0  0.19278326304E+02 -0.15621912154E+01 -0.23147474768E+02  0.30164546982E+02  0.00000000000E+00 0.  1.
</event>
<event>
 5    1  0.8962782E-005  0.9118800E+02  0.7818608E-02  0.1130116E+00
         25   -1    0    0    0    0  0.00000000000E+00  0.00000000000E+00  0.99999998245E-14  0.12500000000E+03  0.12500000000E+03 0.  0.
        -11    1    3    3    0    0 -0.21748744034E+02 -0.53553615562E+02 -0.63154294578E+01  0.58145354555E+02  0.51100000000E-03 0. -1.
         23    2    1    0    0    0 -0.23081975528E+02 -0.15760267412E+02  0.23816695548E+01  0.96949403339E+02  0.92802752302E+02 0.  0.
         11    1    3    3    0    0 -0.13332314931E+01  0.37793348150E+02  0.86970990126E+01  0.38804048785E+02  0.51100000000E-03 0.  1.
         22    1    1    0    0    0  0.23081975528E+02  0.15760267412E+02 -0.23816695548E+01  0.28050596661E+02  0.00000000000E+00 0. -1.
</event>
<event>
 5    1  0.8962782E-005  0.9118800E+02  0.7818608E-02  0.1130116E+00
         25   -1    0    0    0    0  0.00000000000E+00  0.00000000000E+00  0.99999998245E-14  0.12500000000E+03  0.12500000000E+03 0.  0.
        -11    1    3    3    0    0 -0.19083379259E+02 -0.10470250856E+02  0.31242432765E+02  0.38077435868E+02  0.51100000000E-03 0.  1.
         23    2    1    0    0    0 -0.34569335135E+01  0.27649645805E+02 -0.90485485164E+01  0.95702738478E+02  0.91108093052E+02 0.  0.
         11    1    3    3    0    0  0.15626445746E+02  0.38119896660E+02 -0.40290981281E+02  0.57625302610E+02  0.51100000000E-03 0. -1.
         22    1    1    0    0    0  0.34569335135E+01 -0.27649645805E+02  0.90485485164E+01  0.29297261522E+02  0.00000000000E+00 0. -1.
</event>
<event>
 5    1  0.8962782E-005  0.9118800E+02  0.7818608E-02  0.1130116E+00
         25   -1    0    0    0    0  0.00000000000E+00  0.00000000000E+00  0.99999998245E-14  0.12500000000E+03  0.12500000000E+03 0.  0.
        -11    1    3    3    0    0 -0.16556421853E+02 -0.33481515582E+02  0.48927517607E+02  0.61555088902E+02  0.51100000000E-03 0.  1.
         23    2    1    0    0    0 -0.15016761013E+02 -0.14489778498E+02  0.20737245622E+02  0.95580786071E+02  0.90940620834E+02 0.  0.
         11    1    3    3    0    0  0.15396608396E+01  0.18991737084E+02 -0.28190271985E+02  0.34025697169E+02  0.51100000000E-03 0. -1.
         22    1    1    0    0    0  0.15016761013E+02  0.14489778498E+02 -0.20737245622E+02  0.29419213929E+02  0.00000000000E+00 0.  1.
</event>
<event>
 5    1  0.8962782E-005  0.9118800E+02  0.7818608E-02  0.1130116E+00
         25   -1    0    0    0    0  0.00000000000E+00  0.00000000000E+00  0.99999998245E-14  0.12500000000E+03  0.12500000000E+03 0.  0.
        -11    1    3    3    0    0 -0.38208374517E+02  0.63282575411E+01 -0.84363950217E+01  0.39637097371E+02  0.51100000000E-03 0. -1.
         23    2    1    0    0    0  0.46710151017E+01  0.55566016650E+01  0.28100537008E+02  0.95977002493E+02  0.91483608496E+02 0.  0.
         11    1    3    3    0    0  0.42879389619E+02 -0.77165587612E+00  0.36536932029E+02  0.56339905123E+02  0.51100000000E-03 0.  1.
         22    1    1    0    0    0 -0.46710151017E+01 -0.55566016650E+01 -0.28100537008E+02  0.29022997507E+02  0.00000000000E+00 0.  1.
</event>
<event>
 5    1  0.8962782E-005  0.9118800E+02  0.7818608E-02  0.1130116E+00
         25   -1    0    0    0    0  0.00000000000E+00  0.00000000000E+00  0.99999998245E-14  0.12500000000E+03  0.12500000000E+03 0.  0.
        -11    1    3    3    0    0  0.53406501322E+00  0.33277169666E+01  0.40227403374E+02  0.40368340419E+02  0.51100000000E-03 0.  1.
         23    2    1    0    0    0  0.10624787358E+02  0.25922585090E+02 -0.90907428670E+01  0.95546509035E+02  0.90893494040E+02 0.  0.
         11    1    3    3    0    0  0.10090722345E+02  0.22594868123E+02 -0.49318146241E+02  0.55178168617E+02  0.51100000000E-03 0. -1.
         22    1    1    0    0    0 -0.10624787358E+02 -0.25922585090E+02  0.90907428670E+01  0.29453490965E+02  0.00000000000E+00 0. -1.
</event>
<event>
 5    1  0.8962782E-005  0.9118800E+02  0.7818608E-02  0.1130116E+00
         25   -1    0    0    0    0  0.00000000000E+00  0.00000000000E+00  0.99999998245E-14  0.12500000000E+03  0.12500000000E+03 0.  0.
        -11    1    3    3    0    0 -0.10984943626E+01 -0.45082018573E+02  0.20544157779E+02  0.49554591185E+02  0.51100000000E-03 0. -1.
         23    2    1    0    0    0 -0.82445977711E+01 -0.69110986992E-01  0.28066248931E+02  0.95747777900E+02  0.91169866046E+02 0.  0.
         11    1    3    3    0    0 -0.71461034086E+01  0.45012907586E+02  0.75220911523E+01  0.46193186714E+02  0.51100000000E-03 0.  1.
         22    1    1    0    0    0  0.82445977711E+01  0.69110986992E-01 -0.28066248931E+02  0.29252222100E+02  0.00000000000E+00 0.  1.
</event>
<event>
 5    1  0.8962782E-005  0.9118800E+02  0.7818608E-02  0.1130116E+00
         25   -1    0    0    0    0  0.00000000000E+00  0.00000000000E+00  0.99999998245E-14  0.12500000000E+03  0.12500000000E+03 0.  0.
        -11    1    3    3    0    0  0.32707965701E+02 -0.82687675280E+01 -0.35853015565E+01  0.33926949822E+02  0.51100000000E-03 0. -1.
         23    2    1    0    0    0 -0.24529868395E+02  0.39431915421E+01  0.15772766728E+02  0.95571385129E+02  0.90927698102E+02 0.  0.
         11    1    3    3    0    0 -0.57237834096E+02  0.12211959070E+02  0.19358068284E+02  0.61644435306E+02  0.51100000000E-03 0.  1.
         22    1    1    0    0    0  0.24529868395E+02 -0.39431915421E+01 -0.15772766728E+02  0.29428614871E+02  0.00000000000E+00 0.  1.
</event>
<event>
 5    1  0.8962782E-005  0.9118800E+02  0.7818608E-02  0.1130116E+00
         25   -1    0    0    0    0  0.00000000000E+00  0.00000000000E+00  0.99999998245E-14  0.12500000000E+03  0.12500000000E+03 0.  0.
        -11    1    3    3    0    0 -0.23975099624E+02  0.34821045195E+01 -0.24267887688E+02  0.34290827154E+02  0.51100000000E-03 0.  1.
         23    2    1    0    0    0  0.22394457934E+02 -0.12878041942E+02  0.13086253316E+02  0.96041309831E+02  0.91571433634E+02 0.  0.
         11    1    3    3    0    0  0.46369557558E+02 -0.16360146462E+02  0.37354141004E+02  0.61750482677E+02  0.51100000000E-03 0. -1.
         22    1    1    0    0    0 -0.22394457934E+02  0.12878041942E+02 -0.13086253316E+02  0.28958690169E+02  0.00000000000E+00 0. -1.
</event>
<event>
 5    1  0.8962782E-005  0.9118800E+02  0.7818608E-02  0.1130116E+00
         25   -1    0    0    0    0  0.00000000000E+00  0.00000000000E+00  0.99999998245E-14  0.12500000000E+03  0.12500000000E+03 0.  0.
        -11    1    3    3    0    0 -0.21746311542E+02 -0.12605716123E+02 -0.52133927375E+02  0.57877046646E+02  0.51100000000E-03 0.  1.
         23    2    1    0    0    0  0.64085258402E+01 -0.11036203979E+02 -0.24589616779E+02  0.97295916275E+02  0.93268317605E+02 0.  0.
         11    1    3    3    0    0  0.28154837382E+02  0.15695121446E+01  0.27544310596E+02  0.39418869629E+02  0.51100000000E-03 0. -1.
         22    1    1    0    0    0 -0.64085258402E+01  0.11036203979E+02  0.24589616779E+02  0.27704083725E+02  0.00000000000E+00 0.  1.
</event>
<event>
 5    1  0.8962782E-005  0.9118800E+02  0.7818608E-02  0.1130116E+00
         25   -1    0    0    0    0  0.00000000000E+00  0.00000000000E+00  0.99999998245E-14  0.12500000000E+03  0.12500000000E+03 0.  0.
        -11    1    3    3    0    0  0.31832249316E+02  0.35504799736E+01 -0.33008416648E+02  0.45994060208E+02  0.51100000000E-03 0.  1.
         23    2    1    0    0    0  0.93254763869E+01 -0.28330780844E+02 -0.33986680928E+01  0.94980862806E+02  0.90112239465E+02 0.  0.
         11    1    3    3    0    0 -0.22506772929E+02 -0.31881260818E+02  0.29609748555E+02  0.48986802598E+02  0.51100000000E-03 0. -1.
         22    1    1    0    0    0 -0.93254763869E+01  0.28330780844E+02  0.33986680928E+01  0.30019137194E+02  0.00000000000E+00 0. -1.
</event>
<event>
 5    1  0.8962782E-005  0.9118800E+02  0.7818608E-02  0.1130116E+00
         25   -1    0    0    0    0  0.00000000000E+00  0.00000000000E+00  0.99999998245E-14  0.12500000000E+03  0.12500000000E+03 0.  0.
        -11    1    3    3    0    0 -0.19805902586E+02 -0.41659536623E+02  0.39449104778E+02  0.60696150100E+02  0.51100000000E-03 0. -1.
         23    2    1    0    0    0 -0.20619957428E+01 -0.14227788048E+02  0.24431017272E+02  0.96652929885E+02  0.92402556627E+02 0.  0.
         11    1    3    3    0    0  0.17743906843E+02  0.27431748574E+02 -0.15018087506E+02  0.35956779785E+02  0.51100000000E-03 0.  1.
         22    1    1    0    0    0  0.20619957428E+01  0.14227788048E+02 -0.24431017272E+02  0.28347070115E+02  0.00000000000E+00 0. -1.
</event>
<event>
 5    1  0.8962782E-005  0.9118800E+02  0.7818608E-02  0.1130116E+00
         25   -1    0    0    0    0  0.00000000000E+00  0.00000000000E+00  0.99999998245E-14  0.12500000000E+03  0.12500000000E+03 0.  0.
        -11    1    3    3    0    0  0.46730343641E+02 -0.15395642470E+02 -0.32896018116E+01  0.49310975494E+02  0.51100000000E-03 0.  1.
         23    2    1    0    0    0  0.14021239557E+02  0.86169009805E+01  0.22301291111E+02  0.97283692049E+02  0.93251933022E+02 0.  0.
         11    1    3    3    0    0 -0.32709104083E+02  0.24012543450E+02  0.25590892922E+02  0.47972716555E+02  0.51100000000E-03 0. -1.
         22    1    1    0    0    0 -0.14021239557E+02 -0.86169009805E+01 -0.22301291111E+02  0.27716307951E+02  0.00000000000E+00 0.  1.
</event>
<event>
 5    1  0.8962782E-005  0.9118800E+02  0.7818608E-02  0.1130116E+00
         25   -1    0    0    0    0  0.00000000000E+00  0.00000000000E+00  0.99999998245E-14  0.12500000000E+03  0.12500000000E+03 0.  0.
        -11    1    3    3    0    0 -0.34286920020E+01  0.31904959191E+02 -0.16534327835E+02  0.36098010292E+02  0.51100000000E-03 0.  1.
         23    2    1    0    0    0 -0.12766563952E+01 -0.80336582491E+01  0.27933038238E+02  0.95906630624E+02  0.91387404253E+02 0.  0.
         11    1    3    3    0    0  0.21520356067E+01 -0.39938617440E+02  0.44467366073E+02  0.59808620332E+02  0.51100000000E-03 0. -1.
         22    1    1    0    0    0  0.12766563952E+01  0.80336582491E+01 -0.27933038238E+02  0.29093369376E+02  0.00000000000E+00 0. -1.
</event>
<event>
 5    1  0.8962782E-005  0.9118800E+02  0.7818608E-02  0.1130116E+00
         25   -1    0    0    0    0  0.00000000000E+00  0.00000000000E+00  0.99999998245E-14  0.12500000000E+03  0.12500000000E+03 0.  0.
        -11    1    3    3    0    0 -0.34675057143E+02 -0.15926986575E+02  0.19171038699E+02  0.42703128858E+02  0.51100000000E-03 0. -1.
         23    2    1    0    0    0  0.15621267758E+02 -0.89279759065E+01  0.25408804073E+02  0.93865773102E+02  0.88551924177E+02 0.  0.
         11    1    3    3    0    0  0.50296324901E+02  0.69990106680E+01  0.62377653735E+01  0.51162644243E+02  0.51100000000E-03 0.  1.
         22    1    1    0    0    0 -0.15621267758E+02  0.89279759065E+01 -0.25408804073E+02  0.31134226898E+02  0.00000000000E+00 0.  1.
</event>
<event>
 5    1  0.8962782E-005  0.9118800E+02  0.7818608E-02  0.1130116E+00
         25   -1    0    0    0    0  0.00000000000E+00  0.00000000000E+00  0.99999998245E-14  0.12500000000E+03  0.12500000000E+03 0.  0.
        -11    1    3    3    0    0 -0.32748897221E+02 -0.27510166830E+02  0.53210421305E+01  0.43100035241E+02  0.51100000000E-03 0.  1.
         23    2    1    0    0    0  0.12434002483E+02 -0.17813474846E+02 -0.19720288017E+02  0.95660367022E+02  0.91049940997E+02 0.  0.
         11    1    3    3    0    0  0.45182899704E+02  0.96966919843E+01 -0.25041330147E+02  0.52560331781E+02  0.51100000000E-03 0. -1.
         22    1    1    0    0    0 -0.12434002483E+02  0.17813474846E+02  0.19720288017E+02  0.29339632978E+02  0.00000000000E+00 0.  1.
</event>
<event>
 5    1  0.8962782E-005  0.9118800E+02  0.7818608E-02  0.1130116E+00
         25   -1    0    0    0    0  0.00000000000E+00  0.00000000000E+00  0.99999998245E-14  0.12500000000E+03  0.12500000000E+03 0.  0.
        -11    1    3    3    0    0 -0.54687868689E+02 -0.41282194404E+01  0.29595638101E+02  0.62319394833E+02  0.51100000000E-03 0. -1.
         23    2    1    0    0    0 -0.23822210169E+02 -0.12529801188E+01  0.16626979624E+02  0.95922102759E+02  0.91408564642E+02 0.  0.
         11    1    3    3    0    0  0.30865658520E+02  0.28752393216E+01 -0.12968658477E+02  0.33602707926E+02  0.51100000000E-03 0.  1.
         22    1    1    0    0    0  0.23822210169E+02  0.12529801188E+01 -0.16626979624E+02  0.29077897241E+02  0.00000000000E+00 0. -1.
</event>
<event>
 5    1  0.8962782E-005  0.9118800E+02  0.7818608E-02  0.1130116E+00
         25   -1    0    0    0    0  0.00000000000E+00  0.00000000000E+00  0.99999998245E-14  0.12500000000E+03  0.12500000000E+03 0.  0.
        -11    1    3    3    0    0 -0.16456119862E+02  0.42013437472E+02 -0.62336001431E+01  0.45549869156E+02  0.51100000000E-03 0.  1.
         23    2    1    0    0    0 -0.23579433347E+02  0.12409621993E+00  0.18779123347E+02  0.94856003077E+02  0.89938872403E+02 0.  0.
         11    1    3    3    0    0 -0.71233134850E+01 -0.41889341252E+02  0.25012723490E+02  0.49306133921E+02  0.51100000000E-03 0. -1.
         22    1    1    0    0    0  0.23579433347E+02 -0.12409621993E+00 -0.18779123347E+02  0.30143996923E+02  0.00000000000E+00 0. -1.
</event>
<event>
 5    1  0.8962782E-005  0.9118800E+02  0.7818608E-02  0.1130116E+00
         25   -1    0    0    0    0  0.00000000000E+00  0.00000000000E+00  0.99999998245E-14  0.12500000000E+03  0.12500000000E+03 0.  0.
        -11    1    3    3    0    0 -0.20184537189E+02  0.13240463726E+02  0.25888034009E+02  0.35396549639E+02  0.51100000000E-03 0. -1.
         23    2    1    0    0    0  0.22601067380E+02 -0.15840598693E+02 -0.67788113073E+01  0.96580198867E+02  0.92304115384E+02 0.  0.
         11    1    3    3    0    0  0.42785604569E+02 -0.29081062419E+02 -0.32666845316E+02  0.61183649229E+02  0.51100000000E-03 0.  1.
         22    1    1    0    0    0 -0.22601067380E+02  0.15840598693E+02  0.67788113073E+01  0.28419801133E+02  0.00000000000E+00 0.  1.
</event>
<event>
 5    1  0.8962782E-005  0.9118800E+02  0.7818608E-02  0.1130116E+00
         25   -1    0    0    0    0  0.00000000000E+00  0.00000000000E+00  0.99999998245E-14  0.12500000000E+03  0.12500000000E+03 0.  0.
        -11    1    3    3    0    0 -0.43610019012E+02  0.43345639296E+02  0.96907009431E+01  0.62246187749E+02  0.51100000000E-03 0. -1.
         23    2    1    0    0    0 -0.19629179633E+02  0.21869787920E+02  0.97414757326E+00  0.95596917165E+02  0.90962790696E+02 0.  0.
         11    1    3    3    0    0  0.23980839379E+02 -0.21475851376E+02 -0.87165533699E+01  0.33350729416E+02  0.51100000000E-03 0.  1.
         22    1    1    0    0    0  0.19629179633E+02 -0.21869787920E+02 -0.97414757326E+00  0.29403082835E+02  0.00000000000E+00 0. -1.
</event>
<event>
 5    1  0.8962782E-005  0.9118800E+02  0.7818608E-02  0.1130116E+00
         25   -1    0    0    0    0  0.00000000000E+00  0.00000000000E+00  0.99999998245E-14  0.12500000000E+03  0.12500000000E+03 0.  0.
        -11    1    3    3    0    0  0.24058874382E+02  0.46231131412E+02  0.33024266363E+02  0.61698858313E+02  0.51100000000E-03 0. -1.
         23    2    1    0    0    0  0.69867673954E+01  0.27015049788E+02  0.13358303680E+02  0.94063417918E+02  0.88830481702E+02 0.  0.
         11    1    3    3    0    0 -0.17072106986E+02 -0.19216081623E+02 -0.19665962682E+02  0.32364559605E+02  0.51100000000E-03 0.  1.
         22    1    1    0    0    0 -0.69867673954E+01 -0.27015049788E+02 -0.13358303680E+02  0.30936582082E+02  0.00000000000E+00 0. -1.
</event>
<event>
 5    1  0.8962782E-005  0.9118800E+02  0.7818608E-02  0.1130116E+00
         25   -1    0    0    0    0  0.00000000000E+00  0.00000000000E+00  0.99999998245E-14  0.12500000000E+03  0.12500000000E+03 0.  0.
        -11    1    3    3    0    0  0.37509196023E+02  0.45452538840E+02 -0.80081673215E+01  0.59472714899E+02  0.51100000000E-03 0.  1.
         23    2    1    0    0    0  0.94234770357E+01  0.29789404885E+02  0.33474113786E+01  0.93576828203E+02  0.88143105520E+02 0.  0.
         11    1    3    3    0    0 -0.28085718988E+02 -0.15663133955E+02  0.11355578700E+02  0.34104113304E+02  0.51100000000E-03 0. -1.
         22    1    1    0    0    0 -0.94234770357E+01 -0.29789404885E+02 -0.33474113786E+01  0.31423171797E+02  0.00000000000E+00 0.  1.
</event>
<event>
 5    1  0.8962782E-005  0.9118800E+02  0.7818608E-02  0.1130116E+00
         25   -1    0    0    0    0  0.00000000000E+00  0.00000000000E+00  0.99999998245E-14  0.12500000000E+03  0.12500000000E+03 0.  0.
        -11    1    3    3    0    0 -0.20618093652E+02 -0.29015195097E+02 -0.20208680245E+02  0.40931382701E+02  0.51100000000E-03 0. -1.
         23    2    1    0    0    0  0.11043999322E+01 -0.12769629545E+02  0.26849720747E+02  0.95247846428E+02  0.90481830259E+02 0.  0.
         11    1    3    3    0    0  0.21722493585E+02  0.16245565551E+02  0.47058400992E+02  0.54316463727E+02  0.51100000000E-03 0.  1.
         22    1    1    0    0    0 -0.11043999322E+01  0.12769629545E+02 -0.26849720747E+02  0.29752153572E+02  0.00000000000E+00 0.  1.
</event>
<event>
 5    1  0.8962782E-005  0.9118800E+02  0.7818608E-02  0.1130116E+00
         25   -1    0    0    0    0  0.00000000000E+00  0.00000000000E+00  0.99999998245E-14  0.12500000000E+03  0.12500000000E+03 0.  0.
        -11    1    3    3    0    0  0.62205968968E+00  0.13417021898E+02 -0.37272300005E+02  0.39618528277E+02  0.51100000000E-03 0.  1.
         23    2    1    0    0    0 -0.62399711618E+01  0.12103948724E+02  0.21905171658E+02  0.99206990090E+02  0.95795341863E+02 0.  0.
         11    1    3    3    0    0 -0.68620308515E+01 -0.13130731737E+01  0.59177471664E+02  0.59588461814E+02  0.51100000000E-03 0. -1.
         22    1    1    0    0    0  0.62399711618E+01 -0.12103948724E+02 -0.21905171658E+02  0.25793009910E+02  0.00000000000E+00 0. -1.
</event>
<event>
 5    1  0.8962782E-005  0.9118800E+02  0.7818608E-02  0.1130116E+00
         25   -1    0    0    0    0  0.00000000000E+00  0.00000000000E+00  0.99999998245E-14  0.12500000000E+03  0.12500000000E+03 0.  0.
        -11    1    3    3    0    0  0.38477293420E+02  0.44756326976E+02  0.11588852641E+02  0.60149251194E+02  0.51100000000E-03 0. -1.
         23    2    1    0    0    0  0.21799423504E+02  0.13376064349E+02  0.14136117999E+02  0.95777341075E+02  0.91210390136E+02 0.  0.
         11    1    3    3    0    0 -0.16677869916E+02 -0.31380262627E+02  0.25472653583E+01  0.35628089881E+02  0.51100000000E-03 0.  1.
         22    1    1    0    0    0 -0.21799423504E+02 -0.13376064349E+02 -0.14136117999E+02  0.29222658925E+02  0.00000000000E+00 0. -1.
</event>
<event>
 5    1  0.8962782E-005  0.9118800E+02  0.7818608E-02  0.1130116E+00
         25   -1    0    0    0    0  0.00000000000E+00  0.00000000000E+00  0.99999998245E-14  0.12500000000E+03  0.12500000000E+03 0.  0.
        -11    1    3    3    0    0 -0.30345040547E+02 -0.16606109938E+02  0.49402207939E+02  0.60308892566E+02  0.51100000000E-03 0.  1.
         23    2    1    0    0    0 -0.14639613253E+02  0.23839345546E+01  0.29484811619E+02  0.91994613524E+02  0.85869979510E+02 0.  0.
         11    1    3    3    0    0  0.15705427293E+02  0.18990044492E+02 -0.19917396319E+02  0.31685720959E+02  0.51100000000E-03 0. -1.
         22    1    1    0    0    0  0.14639613253E+02 -0.23839345546E+01 -0.29484811619E+02  0.33005386476E+02  0.00000000000E+00 0.  1.
</event>
<event>
 5    1  0.8962782E-005  0.9118800E+02  0.7818608E-02  0.1130116E+00
         25   -1    0    0    0    0  0.00000000000E+00  0.00000000000E+00  0.99999998245E-14  0.12500000000E+03  0.12500000000E+03 0.  0.
        -11    1    3    3    0    0 -0.95950818248E+01  0.47134919680E+01 -0.38035604819E+02  0.39509363902E+02  0.51100000000E-03 0. -1.
         23    2    1    0    0    0 -0.26499519749E+02 -0.73567293796E+01  0.12978179432E+02  0.94589818228E+02  0.89568155931E+02 0.  0.
         11    1    3    3    0    0 -0.16904437924E+02 -0.12070221348E+02  0.51013784251E+02  0.55080454326E+02  0.51100000000E-03 0.  1.
         22    1    1    0    0    0  0.26499519749E+02  0.73567293796E+01 -0.12978179432E+02  0.30410181772E+02  0.00000000000E+00 0.  1.
</event>
<event>
 5    1  0.8962782E-005  0.9118800E+02  0.7818608E-02  0.1130116E+00
         25   -1    0    0    0    0  0.00000000000E+00  0.00000000000E+00  0.99999998245E-14  0.12500000000E+03  0.12500000000E+03 0.  0.
        -11    1    3    3    0    0 -0.53930165115E+01 -0.89873501556E+01 -0.40137253766E+02  0.41483204192E+02  0.51100000000E-03 0.  1.
         23    2    1    0    0    0  0.13130327932E+02  0.26970463712E+02 -0.60062026904E+01  0.94407747792E+02  0.89313699665E+02 0.  0.
         11    1    3    3    0    0  0.18523344443E+02  0.35957813868E+02  0.34131051075E+02  0.52924543600E+02  0.51100000000E-03 0. -1.
         22    1    1    0    0    0 -0.13130327932E+02 -0.26970463712E+02  0.60062026904E+01  0.30592252208E+02  0.00000000000E+00 0. -1.
</event>
<event>
 5    1  0.8962782E-005  0.9118800E+02  0.7818608E-02  0.1130116E+00
         25   -1    0    0    0    0  0.00000000000E+00  0.00000000000E+00  0.99999998245E-14  0.12500000000E+03  0.12500000000E+03 0.  0.
        -11    1    3    3    0    0 -0.26668007600E+02 -0.25217289676E+02  0.12380326770E+02  0.38734568787E+02  0.51100000000E-03 0. -1.
         23    2    1    0    0    0 -0.10583443710E+00 -0.35480573304E+01 -0.30872364172E+02  0.93924241259E+02  0.88634419470E+02 0.  0.
         11    1    3    3    0    0  0.26562173162E+02  0.21669232345E+02 -0.43252690942E+02  0.55189672472E+02  0.51100000000E-03 0.  1.
         22    1    1    0    0    0  0.10583443710E+00  0.35480573304E+01  0.30872364172E+02  0.31075758741E+02  0.00000000000E+00 0.  1.
</event>
<event>
 5    1  0.8962782E-005  0.9118800E+02  0.7818608E-02  0.1130116E+00
         25   -1    0    0    0    0  0.00000000000E+00  0.00000000000E+00  0.99999998245E-14  0.12500000000E+03  0.12500000000E+03 0.  0.
        -11    1    3    3    0    0 -0.21498040205E+02  0.31485989341E+02  0.45729136949E+02  0.59537275918E+02  0.51100000000E-03 0. -1.
         23    2    1    0    0    0 -0.54122618642E+01  0.26054331293E+02  0.15509723937E+02  0.94199475747E+02  0.89021732947E+02 0.  0.
         11    1    3    3    0    0  0.16085778340E+02 -0.54316580472E+01 -0.30219413012E+02  0.34662199829E+02  0.51100000000E-03 0.  1.
         22    1    1    0    0    0  0.54122618642E+01 -0.26054331293E+02 -0.15509723937E+02  0.30800524253E+02  0.00000000000E+00 0. -1.
</event>
<event>
 5    1  0.8962782E-005  0.9118800E+02  0.7818608E-02  0.1130116E+00
         25   -1    0    0    0    0  0.00000000000E+00  0.00000000000E+00  0.99999998245E-14  0.12500000000E+03  0.12500000000E+03 0.  0.
        -11    1    3    3    0    0 -0.30475666087E+02  0.30016248233E+02  0.72538568847E+01  0.43386170854E+02  0.51100000000E-03 0.  1.
         23    2    1    0    0    0  0.70250780314E+01  0.11904760096E+02 -0.25249620427E+02  0.96214268014E+02  0.91807227403E+02 0.  0.
         11    1    3    3    0    0  0.37500744118E+02 -0.18111488137E+02 -0.32503477311E+02  0.52828097160E+02  0.51100000000E-03 0. -1.
         22    1    1    0    0    0 -0.70250780314E+01 -0.11904760096E+02  0.25249620427E+02  0.28785731986E+02  0.00000000000E+00 0. -1.
</event>
<event>
 5    1  0.8962782E-005  0.9118800E+02  0.7818608E-02  0.1130116E+00
         25   -1    0    0    0    0  0.00000000000E+00  0.00000000000E+00  0.99999998245E-14  0.12500000000E+03  0.12500000000E+03 0.  0.
        -11    1    3    3    0    0  0.38028971775E+02 -0.20390092789E+02  0.88074285893E+01  0.44040088293E+02  0.51100000000E-03 0.  1.
         23    2    1    0    0    0 -0.46716714867E+01  0.46089545026E+01 -0.21807980312E+02  0.10222600208E+03  0.99656914056E+02 0.  0.
         11    1    3    3    0    0 -0.42700643261E+02  0.24999047292E+02 -0.30615408902E+02  0.58185913784E+02  0.51100000000E-03 0. -1.
         22    1    1    0    0    0  0.46716714867E+01 -0.46089545026E+01  0.21807980312E+02  0.22773997923E+02  0.00000000000E+00 0. -1.
</event>
<event>
 5    1  0.8962782E-005  0.9118800E+02  0.7818608E-02  0.1130116E+00
         25   -1    0    0    0    0  0.00000000000E+00  0.00000000000E+00  0.99999998245E-14  0.12500000000E+03  0.12500000000E+03 0.  0.
        -11    1    3    3    0    0 -0.61133705285E+02 -0.11596139754E+02 -0.31757602175E+01  0.62304781777E+02  0.51100000000E-03 0. -1.
         23    2    1    0    0    0 -0.37329326052E+02 -0.89934374151E+01 -0.47879489072E+01  0.86305233496E+02  0.77144723566E+02 0.  0.
         11    1    3    3    0    0  0.23804379233E+02  0.26027023391E+01 -0.16121886897E+01  0.24000451720E+02  0.51100000000E-03 0.  1.
         22    1    1    0    0    0  0.37329326052E+02  0.89934374151E+01  0.47879489072E+01  0.38694766504E+02  0.00000000000E+00 0. -1.
</event>
<event>
 5    1  0.8962782E-005  0.9118800E+02  0.7818608E-02  0.1130116E+00
         25   -1    0    0    0    0  0.00000000000E+00  0.00000000000E+00  0.99999998245E-14  0.12500000000E+03  0.12500000000E+03 0.  0.
        -11    1    3    3    0    0 -0.87455501098E+01 -0.21928414780E+02  0.32616906484E+02  0.40264160370E+02  0.51100000000E-03 0.  1.
         23    2    1    0    0    0 -0.29814081132E+01 -0.12071171788E+02 -0.23972829971E+02  0.97994471686E+02  0.94199882811E+02 0.  0.
         11    1    3    3    0    0  0.57641419966E+01  0.98572429915E+01 -0.56589736455E+02  0.57730311316E+02  0.51100000000E-03 0. -1.
         22    1    1    0    0    0  0.29814081132E+01  0.12071171788E+02  0.23972829971E+02  0.27005528314E+02  0.00000000000E+00 0. -1.
</event>
<event>
 5    1  0.8962782E-005  0.9118800E+02  0.7818608E-02  0.1130116E+00
         25   -1    0    0    0    0  0.00000000000E+00  0.00000000000E+00  0.99999998245E-14  0.12500000000E+03  0.12500000000E+03 0.  0.
        -11    1    3    3    0    0  0.36474923467E+02 -0.11339732939E+02 -0.19485521732E+01  0.38246652676E+02  0.51100000000E-03 0. -1.
         23    2    1    0    0    0 -0.52948085452E+01  0.23341865821E+02 -0.18215154410E+02  0.94922274892E+02  0.90030932034E+02 0.  0.
         11    1    3    3    0    0 -0.41769732013E+02  0.34681598760E+02 -0.16266602237E+02  0.56675622216E+02  0.51100000000E-03 0.  1.
         22    1    1    0    0    0  0.52948085452E+01 -0.23341865821E+02  0.18215154410E+02  0.30077725108E+02  0.00000000000E+00 0.  1.
</event>
<event>
 5    1  0.8962782E-005  0.9118800E+02  0.7818608E-02  0.1130116E+00
         25   -1    0    0    0    0  0.00000000000E+00  0.00000000000E+00  0.99999998245E-14  0.12500000000E+03  0.12500000000E+03 0.  0.
        -11    1    3    3    0    0 -0.20194048995E+02 -0.14778215511E+02 -0.26280365273E+02  0.36288467420E+02  0.51100000000E-03 0.  1.
         23    2    1    0    0    0  0.34480032468E+01 -0.14004261515E+02  0.26891748295E+02  0.94484853051E+02  0.89421548089E+02 0.  0.
         11    1    3    3    0    0  0.23642052242E+02  0.77395399552E+00  0.53172113568E+02  0.58196385631E+02  0.51100000000E-03 0. -1.
         22    1    1    0    0    0 -0.34480032468E+01  0.14004261515E+02 -0.26891748295E+02  0.30515146949E+02  0.00000000000E+00 0. -1.
</event>
<event>
 5    1  0.8962782E-005  0.9118800E+02  0.7818608E-02  0.1130116E+00
         25   -1    0    0    0    0  0.00000000000E+00  0.00000000000E+00  0.99999998245E-14  0.12500000000E+03  0.12500000000E+03 0.  0.
        -11    1    3    3    0    0  0.26052655432E+02 -0.24036190457E+02 -0.31158714792E+01  0.35583534986E+02  0.51100000000E-03 0.  1.
         23    2    1    0    0    0 -0.29863242715E+02 -0.50341066292E+01 -0.13640727256E+00  0.94715117601E+02  0.89742851527E+02 0.  0.
         11    1    3    3    0    0 -0.55915898147E+02  0.19002083828E+02  0.29794642067E+01  0.59131582615E+02  0.51100000000E-03 0. -1.
         22    1    1    0    0    0  0.29863242715E+02  0.50341066292E+01  0.13640727256E+00  0.30284882399E+02  0.00000000000E+00 0. -1.
</event>
<event>
 5    1  0.8962782E-005  0.9118800E+02  0.7818608E-02  0.1130116E+00
         25   -1    0    0    0    0  0.00000000000E+00  0.00000000000E+00  0.99999998245E-14  0.12500000000E+03  0.12500000000E+03 0.  0.
        -11    1    3    3    0    0  0.75502130895E+01 -0.19663159793E+02 -0.13358903833E+02  0.24942050489E+02  0.51100000000E-03 0. -1.
         23    2    1    0    0    0  0.99604308028E+01 -0.14187382140E+02  0.41447241653E+02  0.80073773423E+02  0.66283054816E+02 0.  0.
         11    1    3    3    0    0  0.24102177133E+01  0.54757776531E+01  0.54806145486E+02  0.55131722934E+02  0.51100000000E-03 0.  1.
         22    1    1    0    0    0 -0.99604308028E+01  0.14187382140E+02 -0.41447241653E+02  0.44926226577E+02  0.00000000000E+00 0.  1.
</event>
<event>
 5    1  0.8962782E-005  0.9118800E+02  0.7818608E-02  0.1130116E+00
         25   -1    0    0    0    0  0.00000000000E+00  0.00000000000E+00  0.99999998245E-14  0.12500000000E+03  0.12500000000E+03 0.  0.
        -11    1    3    3    0    0 -0.11675031091E+02 -0.32320000572E+02 -0.12723821872E+02  0.36644023131E+02  0.51100000000E-03 0.  1.
         23    2    1    0    0    0 -0.15283328179E+02  0.25001157381E+02  0.94305620879E+00  0.95682303201E+02  0.91080051604E+02 0.  0.
         11    1    3    3    0    0 -0.36082970885E+01  0.57321157952E+02  0.13666878081E+02  0.59038280070E+02  0.51100000000E-03 0. -1.
         22    1    1    0    0    0  0.15283328179E+02 -0.25001157381E+02 -0.94305620879E+00  0.29317696799E+02  0.00000000000E+00 0. -1.
</event>
<event>
 5    1  0.8962782E-005  0.9118800E+02  0.7818608E-02  0.1130116E+00
         25   -1    0    0    0    0  0.00000000000E+00  0.00000000000E+00  0.99999998245E-14  0.12500000000E+03  0.12500000000E+03 0.  0.
        -11    1    3    3    0    0 -0.30153184968E+02  0.15666566001E+02  0.50469630419E+02  0.60842743601E+02  0.51100000000E-03 0.  1.
         23    2    1    0    0    0 -0.22533867838E+02  0.15067992047E+01  0.22403829197E+02  0.93188410818E+02  0.87590540040E+02 0.  0.
         11    1    3    3    0    0  0.76193171301E+01 -0.14159766796E+02 -0.28065801221E+02  0.32345667217E+02  0.51100000000E-03 0. -1.
         22    1    1    0    0    0  0.22533867838E+02 -0.15067992047E+01 -0.22403829197E+02  0.31811589182E+02  0.00000000000E+00 0.  1.
</event>
<event>
 5    1  0.8962782E-005  0.9118800E+02  0.7818608E-02  0.1130116E+00
         25   -1    0    0    0    0  0.00000000000E+00  0.00000000000E+00  0.99999998245E-14  0.12500000000E+03  0.12500000000E+03 0.  0.
        -11    1    3    3    0    0  0.34605444259E+02 -0.38868093900E+02  0.22034594416E+02  0.56513616476E+02  0.51100000000E-03 0.  1.
         23    2    1    0    0    0  0.48267376024E+00 -0.17920530067E+02  0.22087172429E+02  0.96553180182E+02  0.92267518908E+02 0.  0.
         11    1    3    3    0    0 -0.34122770499E+02  0.20947563833E+02  0.52578013229E-01  0.40039563706E+02  0.51100000000E-03 0. -1.
         22    1    1    0    0    0 -0.48267376024E+00  0.17920530067E+02 -0.22087172429E+02  0.28446819818E+02  0.00000000000E+00 0.  1.
</event>
<event>
 5    1  0.8962782E-005  0.9118800E+02  0.7818608E-02  0.1130116E+00
         25   -1    0    0    0    0  0.00000000000E+00  0.00000000000E+00  0.99999998245E-14  0.12500000000E+03  0.12500000000E+03 0.  0.
        -11    1    3    3    0    0 -0.77852585923E+00 -0.23209926579E+02 -0.28408021326E+02  0.36692267172E+02  0.51100000000E-03 0. -1.
         23    2    1    0    0    0  0.24920982827E+02  0.13144702045E+02  0.96038039904E+01  0.95233044697E+02  0.90461379463E+02 0.  0.
         11    1    3    3    0    0  0.25699508686E+02  0.36354628624E+02  0.38011825316E+02  0.58540777525E+02  0.51100000000E-03 0.  1.
         22    1    1    0    0    0 -0.24920982827E+02 -0.13144702045E+02 -0.96038039904E+01  0.29766955303E+02  0.00000000000E+00 0.  1.
</event>
<event>
 5    1  0.8962782E-005  0.9118800E+02  0.7818608E-02  0.1130116E+00
         25   -1    0    0    0    0  0.00000000000E+00  0.00000000000E+00  0.99999998245E-14  0.12500000000E+03  0.12500000000E+03 0.  0.
        -11    1    3    3    0    0  0.26583785669E+02 -0.42177774197E+02  0.77408375019E+01  0.50453769554E+02  0.51100000000E-03 0. -1.
         23    2    1    0    0    0  0.26270825654E+02  0.37015045122E+01  0.10616979329E+02  0.96424176892E+02  0.92092585060E+02 0.  0.
         11    1    3    3    0    0 -0.31296001481E+00  0.45879278709E+02  0.28761418267E+01  0.45970407339E+02  0.51100000000E-03 0.  1.
         22    1    1    0    0    0 -0.26270825654E+02 -0.37015045122E+01 -0.10616979329E+02  0.28575823108E+02  0.00000000000E+00 0.  1.
</event>
<event>
 5    1  0.8962782E-005  0.9118800E+02  0.7818608E-02  0.1130116E+00
         25   -1    0    0    0    0  0.00000000000E+00  0.00000000000E+00  0.99999998245E-14  0.12500000000E+03  0.12500000000E+03 0.  0.
        -11    1    3    3    0    0 -0.16978209722E+02  0.39801552448E+02 -0.83104588916E+01  0.44062307133E+02  0.51100000000E-03 0.  1.
         23    2    1    0    0    0 -0.25758495654E+02 -0.98828984799E+01  0.65192504202E+01  0.96650883493E+02  0.92399788274E+02 0.  0.
         11    1    3    3    0    0 -0.87802859321E+01 -0.49684450928E+02  0.14829709312E+02  0.52588576360E+02  0.51100000000E-03 0. -1.
         22    1    1    0    0    0  0.25758495654E+02  0.98828984799E+01 -0.65192504202E+01  0.28349116507E+02  0.00000000000E+00 0. -1.
</event>
<event>
 5    1  0.8962782E-005  0.9118800E+02  0.7818608E-02  0.1130116E+00
         25   -1    0    0    0    0  0.00000000000E+00  0.00000000000E+00  0.99999998245E-14  0.12500000000E+03  0.12500000000E+03 0.  0.
        -11    1    3    3    0    0  0.42326197481E+01  0.43784564276E+02 -0.23656270722E+02  0.49946193884E+02  0.51100000000E-03 0. -1.
         23    2    1    0    0    0 -0.24833313476E+01 -0.59801530473E+01 -0.23977988943E+02  0.10016306946E+03  0.97034877050E+02 0.  0.
         11    1    3    3    0    0 -0.67159510957E+01 -0.49764717323E+02 -0.32171822172E+00  0.50216875573E+02  0.51100000000E-03 0.  1.
         22    1    1    0    0    0  0.24833313476E+01  0.59801530473E+01  0.23977988943E+02  0.24836930543E+02  0.00000000000E+00 0.  1.
</event>
<event>
 5    1  0.8962782E-005  0.9118800E+02  0.7818608E-02  0.1130116E+00
         25   -1    0    0    0    0  0.00000000000E+00  0.00000000000E+00  0.99999998245E-14  0.12500000000E+03  0.12500000000E+03 0.  0.
        -11    1    3    3    0    0  0.14213491765E+02 -0.26487474321E+02 -0.22763699824E+02  0.37706705955E+02  0.51100000000E-03 0.  1.
         23    2    1    0    0    0 -0.26926046580E+02  0.10547478216E+02 -0.76168012039E+01  0.95095536425E+02  0.90271169851E+02 0.  0.
         11    1    3    3    0    0 -0.41139538344E+02  0.37034952537E+02  0.15146898620E+02  0.57388830470E+02  0.51100000000E-03 0. -1.
         22    1    1    0    0    0  0.26926046580E+02 -0.10547478216E+02  0.76168012039E+01  0.29904463575E+02  0.00000000000E+00 0. -1.
</event>
<event>
 5    1  0.8962782E-005  0.9118800E+02  0.7818608E-02  0.1130116E+00
         25   -1    0    0    0    0  0.00000000000E+00  0.00000000000E+00  0.99999998245E-14  0.12500000000E+03  0.12500000000E+03 0.  0.
        -11    1    3    3    0    0 -0.24062933138E+02  0.22066557613E+02  0.52259859581E+01  0.33064613192E+02  0.51100000000E-03 0. -1.
         23    2    1    0    0    0  0.19104135644E+02 -0.18008373984E+02 -0.14282196404E+02  0.95112700584E+02  0.90294934222E+02 0.  0.
         11    1    3    3    0    0  0.43167068781E+02 -0.40074931597E+02 -0.19508182362E+02  0.62048087392E+02  0.51100000000E-03 0.  1.
         22    1    1    0    0    0 -0.19104135644E+02  0.18008373984E+02  0.14282196404E+02  0.29887299416E+02  0.00000000000E+00 0.  1.
</event>
<event>
 5    1  0.8962782E-005  0.9118800E+02  0.7818608E-02  0.1130116E+00
         25   -1    0    0    0    0  0.00000000000E+00  0.00000000000E+00  0.99999998245E-14  0.12500000000E+03  0.12500000000E+03 0.  0.
        -11    1    3    3    0    0  0.19123353239E+02  0.23965722571E+02  0.20717505000E+02  0.37003695912E+02  0.51100000000E-03 0.  1.
         23    2    1    0    0    0 -0.80023962766E+00 -0.16794886216E+02 -0.20628837101E+02  0.98386892203E+02  0.94719179951E+02 0.  0.
         11    1    3    3    0    0 -0.19923592867E+02 -0.40760608787E+02 -0.41346342101E+02  0.61383196291E+02  0.51100000000E-03 0. -1.
         22    1    1    0    0    0  0.80023962766E+00  0.16794886216E+02  0.20628837101E+02  0.26613107797E+02  0.00000000000E+00 0. -1.
</event>
<event>
 5    1  0.8962782E-005  0.9118800E+02  0.7818608E-02  0.1130116E+00
         25   -1    0    0    0    0  0.00000000000E+00  0.00000000000E+00  0.99999998245E-14  0.12500000000E+03  0.12500000000E+03 0.  0.
        -11    1    3    3    0    0  0.29159944961E+02 -0.14350494351E+02  0.14067490253E+02  0.35413745361E+02  0.51100000000E-03 0. -1.
         23    2    1    0    0    0 -0.26088338286E+02  0.10204605648E+02  0.41440886402E+01  0.96682004986E+02  0.92441880371E+02 0.  0.
         11    1    3    3    0    0 -0.55248283247E+02  0.24555099999E+02 -0.99234016124E+01  0.61268259625E+02  0.51100000000E-03 0.  1.
         22    1    1    0    0    0  0.26088338286E+02 -0.10204605648E+02 -0.41440886402E+01  0.28317995014E+02  0.00000000000E+00 0.  1.
</event>
<event>
 5    1  0.8962782E-005  0.9118800E+02  0.7818608E-02  0.1130116E+00
         25   -1    0    0    0    0  0.00000000000E+00  0.00000000000E+00  0.99999998245E-14  0.12500000000E+03  0.12500000000E+03 0.  0.
        -11    1    3    3    0    0  0.37225411358E+02 -0.22377457961E+02  0.34185553102E+02  0.55273265841E+02  0.51100000000E-03 0. -1.
         23    2    1    0    0    0 -0.25679879892E+01 -0.14440869887E+02  0.23608380209E+02  0.97206315438E+02  0.93148155428E+02 0.  0.
         11    1    3    3    0    0 -0.39793399348E+02  0.79365880736E+01 -0.10577172893E+02  0.41933049598E+02  0.51100000000E-03 0.  1.
         22    1    1    0    0    0  0.25679879892E+01  0.14440869887E+02 -0.23608380209E+02  0.27793684562E+02  0.00000000000E+00 0. -1.
</event>
<event>
 5    1  0.8962782E-005  0.9118800E+02  0.7818608E-02  0.1130116E+00
         25   -1    0    0    0    0  0.00000000000E+00  0.00000000000E+00  0.99999998245E-14  0.12500000000E+03  0.12500000000E+03 0.  0.
        -11    1    3    3    0    0  0.95068774195E+01 -0.45965175421E+01 -0.42846698442E+02  0.44128769067E+02  0.51100000000E-03 0.  1.
         23    2    1    0    0    0  0.31745742817E+02 -0.44379098382E+00  0.74613796747E+00  0.93242388955E+02  0.87667538113E+02 0.  0.
         11    1    3    3    0    0  0.22238865397E+02  0.41527265583E+01  0.43592836409E+02  0.49113619888E+02  0.51100000000E-03 0. -1.
         22    1    1    0    0    0 -0.31745742817E+02  0.44379098382E+00 -0.74613796747E+00  0.31757611045E+02  0.00000000000E+00 0. -1.
</event>
<event>
 5    1  0.8962782E-005  0.9118800E+02  0.7818608E-02  0.1130116E+00
         25   -1    0    0    0    0  0.00000000000E+00  0.00000000000E+00  0.99999998245E-14  0.12500000000E+03  0.12500000000E+03 0.  0.
        -11    1    3    3    0    0 -0.32004659208E+02 -0.16262420791E+02 -0.14928245670E+02  0.38879519802E+02  0.51100000000E-03 0.  1.
         23    2    1    0    0    0 -0.50490946993E+01  0.43840192188E+01  0.29474460298E+02  0.94776552287E+02  0.89828381215E+02 0.  0.
         11    1    3    3    0    0  0.26955564509E+02  0.20646440010E+02  0.44402705968E+02  0.55897032485E+02  0.51100000000E-03 0. -1.
         22    1    1    0    0    0  0.50490946993E+01 -0.43840192188E+01 -0.29474460298E+02  0.30223447713E+02  0.00000000000E+00 0. -1.
</event>
<event>
 5    1  0.8962782E-005  0.9118800E+02  0.7818608E-02  0.1130116E+00
         25   -1    0    0    0    0  0.00000000000E+00  0.00000000000E+00  0.99999998245E-14  0.12500000000E+03  0.12500000000E+03 0.  0.
        -11    1    3    3    0    0  0.25446837596E+02 -0.36377518449E+02  0.35359125122E+02  0.56755027283E+02  0.51100000000E-03 0.  1.
         23    2    1    0    0    0 -0.37605934181E+01 -0.27599730607E+02  0.17720123466E+02  0.91986518389E+02  0.85858194700E+02 0.  0.
         11    1    3    3    0    0 -0.29207431014E+02  0.87777878418E+01 -0.17639001656E+02  0.35231491106E+02  0.51100000000E-03 0. -1.
         22    1    1    0    0    0  0.37605934181E+01  0.27599730607E+02 -0.17720123466E+02  0.33013481611E+02  0.00000000000E+00 0.  1.
</event>
<event>
 5    1  0.8962782E-005  0.9118800E+02  0.7818608E-02  0.1130116E+00
         25   -1    0    0    0    0  0.00000000000E+00  0.00000000000E+00  0.99999998245E-14  0.12500000000E+03  0.12500000000E+03 0.  0.
        -11    1    3    3    0    0 -0.27947739617E+02 -0.35073687977E+02 -0.39963273544E+02  0.60069151572E+02  0.51100000000E-03 0.  1.
         23    2    1    0    0    0 -0.66039190426E+01 -0.25616338210E+02 -0.13697261732E+02  0.95210345605E+02  0.90430008301E+02 0.  0.
         11    1    3    3    0    0  0.21343820574E+02  0.94573497668E+01  0.26266011812E+02  0.35141194033E+02  0.51100000000E-03 0. -1.
         22    1    1    0    0    0  0.66039190426E+01  0.25616338210E+02  0.13697261732E+02  0.29789654395E+02  0.00000000000E+00 0.  1.
</event>
<event>
 5    1  0.8962782E-005  0.9118800E+02  0.7818608E-02  0.1130116E+00
         25   -1    0    0    0    0  0.00000000000E+00  0.00000000000E+00  0.99999998245E-14  0.12500000000E+03  0.12500000000E+03 0.  0.
        -11    1    3    3    0    0  0.45404243134E+01 -0.41729536417E+02 -0.18137969129E+02  0.45726967830E+02  0.51100000000E-03 0.  1.
         23    2    1    0    0    0 -0.25450258145E+02 -0.21983766776E+01 -0.14841630263E+02  0.95456430674E+02  0.90769530508E+02 0.  0.
         11    1    3    3    0    0 -0.29990682458E+02  0.39531159739E+02  0.32963388657E+01  0.49729462845E+02  0.51100000000E-03 0. -1.
         22    1    1    0    0    0  0.25450258145E+02  0.21983766776E+01  0.14841630263E+02  0.29543569326E+02  0.00000000000E+00 0. -1.
</event>
<event>
 5    1  0.8962782E-005  0.9118800E+02  0.7818608E-02  0.1130116E+00
         25   -1    0    0    0    0  0.00000000000E+00  0.00000000000E+00  0.99999998245E-14  0.12500000000E+03  0.12500000000E+03 0.  0.
        -11    1    3    3    0    0 -0.50088828167E+02  0.33314781778E+01 -0.20070435326E+02  0.54063035694E+02  0.51100000000E-03 0. -1.
         23    2    1    0    0    0 -0.21490168042E+02 -0.17413578072E+02  0.43340902478E+01  0.97002779387E+02  0.92874618959E+02 0.  0.
         11    1    3    3    0    0  0.28598660125E+02 -0.20745056250E+02  0.24404525573E+02  0.42939743694E+02  0.51100000000E-03 0.  1.
         22    1    1    0    0    0  0.21490168042E+02  0.17413578072E+02 -0.43340902478E+01  0.27997220613E+02  0.00000000000E+00 0. -1.
</event>
<event>
 5    1  0.8962782E-005  0.9118800E+02  0.7818608E-02  0.1130116E+00
         25   -1    0    0    0    0  0.00000000000E+00  0.00000000000E+00  0.99999998245E-14  0.12500000000E+03  0.12500000000E+03 0.  0.
        -11    1    3    3    0    0  0.31982429325E+02 -0.15792233759E+02 -0.30509763097E+02  0.46937363338E+02  0.51100000000E-03 0. -1.
         23    2    1    0    0    0  0.23518340017E+02 -0.90216697642E+01  0.16307355766E+02  0.94992789290E+02  0.90128781876E+02 0.  0.
         11    1    3    3    0    0 -0.84640893076E+01  0.67705639949E+01  0.46817118862E+02  0.48055425952E+02  0.51100000000E-03 0.  1.
         22    1    1    0    0    0 -0.23518340017E+02  0.90216697642E+01 -0.16307355766E+02  0.30007210710E+02  0.00000000000E+00 0. -1.
</event>
<event>
 5    1  0.8962782E-005  0.9118800E+02  0.7818608E-02  0.1130116E+00
         25   -1    0    0    0    0  0.00000000000E+00  0.00000000000E+00  0.99999998245E-14  0.12500000000E+03  0.12500000000E+03 0.  0.
        -11    1    3    3    0    0  0.24867371342E+02  0.16042109464E+02  0.14556039244E+02  0.32978988951E+02  0.51100000000E-03 0.  1.
         23    2    1    0    0    0 -0.18916364371E+02 -0.17963803478E+02 -0.14057994529E+02  0.95366331875E+02  0.90645369262E+02 0.  0.
         11    1    3    3    0    0 -0.43783735713E+02 -0.34005912942E+02 -0.28614033773E+02  0.62387342923E+02  0.51100000000E-03 0. -1.
         22    1    1    0    0    0  0.18916364371E+02  0.17963803478E+02  0.14057994529E+02  0.29633668125E+02  0.00000000000E+00 0. -1.
</event>
<event>
 5    1  0.8962782E-005  0.9118800E+02  0.7818608E-02  0.1130116E+00
         25   -1    0    0    0    0  0.00000000000E+00  0.00000000000E+00  0.99999998245E-14  0.12500000000E+03  0.12500000000E+03 0.  0.
        -11    1    3    3    0    0 -0.30993168226E+02  0.27054054576E+02  0.38784320973E+01  0.41322398061E+02  0.51100000000E-03 0.  1.
         23    2    1    0    0    0 -0.69335469096E+00 -0.45548439811E+01 -0.28721456800E+02  0.95911352298E+02  0.91393862345E+02 0.  0.
         11    1    3    3    0    0  0.30299813535E+02 -0.31608898558E+02 -0.32599888898E+02  0.54588954237E+02  0.51100000000E-03 0. -1.
         22    1    1    0    0    0  0.69335469096E+00  0.45548439811E+01  0.28721456800E+02  0.29088647702E+02  0.00000000000E+00 0. -1.
</event>
<event>
 5    1  0.8962782E-005  0.9118800E+02  0.7818608E-02  0.1130116E+00
         25   -1    0    0    0    0  0.00000000000E+00  0.00000000000E+00  0.99999998245E-14  0.12500000000E+03  0.12500000000E+03 0.  0.
        -11    1    3    3    0    0  0.16927614425E+02 -0.13645315769E+02 -0.42202662205E+02  0.47474240068E+02  0.51100000000E-03 0. -1.
         23    2    1    0    0    0  0.76839590231E+01  0.24505788283E+02 -0.14655986442E+02  0.95430170372E+02  0.90733359869E+02 0.  0.
         11    1    3    3    0    0 -0.92436554020E+01  0.38151104051E+02  0.27546675763E+02  0.47955930305E+02  0.51100000000E-03 0.  1.
         22    1    1    0    0    0 -0.76839590231E+01 -0.24505788283E+02  0.14655986442E+02  0.29569829628E+02  0.00000000000E+00 0. -1.
</event>
<event>
 5    1  0.8962782E-005  0.9118800E+02  0.7818608E-02  0.1130116E+00
         25   -1    0    0    0    0  0.00000000000E+00  0.00000000000E+00  0.99999998245E-14  0.12500000000E+03  0.12500000000E+03 0.  0.
        -11    1    3    3    0    0 -0.20360753735E+02  0.52495841416E+02  0.21971717328E+02  0.60441128556E+02  0.51100000000E-03 0. -1.
         23    2    1    0    0    0 -0.19979049507E+02  0.20824538001E+02  0.80476223684E+01  0.95040226504E+02  0.90194548760E+02 0.  0.
         11    1    3    3    0    0  0.38170422840E+00 -0.31671303414E+02 -0.13924094959E+02  0.34599097947E+02  0.51100000000E-03 0.  1.
         22    1    1    0    0    0  0.19979049507E+02 -0.20824538001E+02 -0.80476223684E+01  0.29959773496E+02  0.00000000000E+00 0. -1.
</event>
<event>
 5    1  0.8962782E-005  0.9118800E+02  0.7818608E-02  0.1130116E+00
         25   -1    0    0    0    0  0.00000000000E+00  0.00000000000E+00  0.99999998245E-14  0.12500000000E+03  0.12500000000E+03 0.  0.
        -11    1    3    3    0    0 -0.89124516773E+01 -0.18189492923E+02 -0.27717745699E+02  0.34330203533E+02  0.51100000000E-03 0.  1.
         23    2    1    0    0    0  0.18236582014E+02  0.27342807147E+02 -0.61418831725E+01  0.91564618215E+02  0.85241741851E+02 0.  0.
         11    1    3    3    0    0  0.27149033691E+02  0.45532300069E+02  0.21575862527E+02  0.57234414682E+02  0.51100000000E-03 0. -1.
         22    1    1    0    0    0 -0.18236582014E+02 -0.27342807147E+02  0.61418831725E+01  0.33435381785E+02  0.00000000000E+00 0. -1.
</event>
<event>
 5    1  0.8962782E-005  0.9118800E+02  0.7818608E-02  0.1130116E+00
         25   -1    0    0    0    0  0.00000000000E+00  0.00000000000E+00  0.99999998245E-14  0.12500000000E+03  0.12500000000E+03 0.  0.
        -11    1    3    3    0    0  0.25939048906E+02 -0.51913756303E+02  0.98201023568E+00  0.58041680678E+02  0.51100000000E-03 0. -1.
         23    2    1    0    0    0  0.23768387033E+02 -0.13845230629E+02 -0.61018829080E+01  0.96824485660E+02  0.92634342525E+02 0.  0.
         11    1    3    3    0    0 -0.21706618729E+01  0.38068525673E+02 -0.70838931437E+01  0.38782804982E+02  0.51100000000E-03 0.  1.
         22    1    1    0    0    0 -0.23768387033E+02  0.13845230629E+02  0.61018829080E+01  0.28175514340E+02  0.00000000000E+00 0. -1.
</event>
<event>
 5    1  0.8962782E-005  0.9118800E+02  0.7818608E-02  0.1130116E+00
         25   -1    0    0    0    0  0.00000000000E+00  0.00000000000E+00  0.99999998245E-14  0.12500000000E+03  0.12500000000E+03 0.  0.
        -11    1    3    3    0    0 -0.21464441404E+02 -0.43630492267E+02  0.11377284094E+02  0.49937808261E+02  0.51100000000E-03 0.  1.
         23    2    1    0    0    0 -0.26557422879E+02  0.26457169221E+01  0.99543422675E+01  0.96515171442E+02  0.92216011953E+02 0.  0.
         11    1    3    3    0    0 -0.50929814748E+01  0.46276209189E+02 -0.14229418262E+01  0.46577363181E+02  0.51100000000E-03 0. -1.
         22    1    1    0    0    0  0.26557422879E+02 -0.26457169221E+01 -0.99543422675E+01  0.28484828558E+02  0.00000000000E+00 0. -1.
</event>
<event>
 5    1  0.8962782E-005  0.9118800E+02  0.7818608E-02  0.1130116E+00
         25   -1    0    0    0    0  0.00000000000E+00  0.00000000000E+00  0.99999998245E-14  0.12500000000E+03  0.12500000000E+03 0.  0.
        -11    1    3    3    0    0  0.46075854667E+01 -0.47109389198E+02 -0.39911995903E+02  0.61915198551E+02  0.51100000000E-03 0. -1.
         23    2    1    0    0    0  0.66252603435E+01 -0.19139590327E+02 -0.21502874437E+02  0.95460338500E+02  0.90774911870E+02 0.  0.
         11    1    3    3    0    0  0.20176748767E+01  0.27969798871E+02  0.18409121466E+02  0.33545139949E+02  0.51100000000E-03 0.  1.
         22    1    1    0    0    0 -0.66252603435E+01  0.19139590327E+02  0.21502874437E+02  0.29539661500E+02  0.00000000000E+00 0. -1.
</event>
<event>
 4    1  0.8962782E-005  0.9118800E+02  0.7818608E-02  0.1130116E+00
         25   -1    0    0    0    0  0.00000000000E+00  0.00000000000E+00  0.99999998245E-14  0.12500000000E+03  0.12500000000E+03 0.  0.
        -11    1    1    0    0    0  0.16368017941E+02 -0.17218773498E+02  0.61700081182E+00  0.23765076528E+02  0.51100000000E-03 0. -1.
         11    1    1    0    0    0  0.67505456423E+01  0.86119993079E+01 -0.47238459148E+02  0.48489260888E+02  0.51100000000E-03 0.  1.
         22    1    1    0    0    0 -0.23118563584E+02  0.86067741903E+01  0.46621458336E+02  0.52745662585E+02  0.00000000000E+00 0.  1.
</event>
<event>
 5    1  0.8962782E-005  0.9118800E+02  0.7818608E-02  0.1130116E+00
         25   -1    0    0    0    0  0.00000000000E+00  0.00000000000E+00  0.99999998245E-14  0.12500000000E+03  0.12500000000E+03 0.  0.
        -11    1    3    3    0    0  0.32590337710E+02 -0.23187352557E+02 -0.45749441726E+02  0.60768370467E+02  0.51100000000E-03 0.  1.
         23    2    1    0    0    0  0.23390765291E+02 -0.64257174565E+01 -0.16683885987E+02  0.95559045577E+02  0.90910733108E+02 0.  0.
         11    1    3    3    0    0 -0.91995724194E+01  0.16761635100E+02  0.29065555739E+02  0.34790675110E+02  0.51100000000E-03 0. -1.
         22    1    1    0    0    0 -0.23390765291E+02  0.64257174565E+01  0.16683885987E+02  0.29440954423E+02  0.00000000000E+00 0.  1.
</event>
<event>
 5    1  0.8962782E-005  0.9118800E+02  0.7818608E-02  0.1130116E+00
         25   -1    0    0    0    0  0.00000000000E+00  0.00000000000E+00  0.99999998245E-14  0.12500000000E+03  0.12500000000E+03 0.  0.
        -11    1    3    3    0    0  0.14821375355E+01 -0.33675904769E+02  0.89921917650E+01  0.34887287178E+02  0.51100000000E-03 0.  1.
         23    2    1    0    0    0  0.17733450761E+02  0.23065892953E+02 -0.48290436534E+01  0.95507113464E+02  0.90839299678E+02 0.  0.
         11    1    3    3    0    0  0.16251313226E+02  0.56741797721E+02 -0.13821235418E+02  0.60619826286E+02  0.51100000000E-03 0. -1.
         22    1    1    0    0    0 -0.17733450761E+02 -0.23065892953E+02  0.48290436534E+01  0.29492886536E+02  0.00000000000E+00 0. -1.
</event>
<event>
 5    1  0.8962782E-005  0.9118800E+02  0.7818608E-02  0.1130116E+00
         25   -1    0    0    0    0  0.00000000000E+00  0.00000000000E+00  0.99999998245E-14  0.12500000000E+03  0.12500000000E+03 0.  0.
        -11    1    3    3    0    0 -0.51913556626E+02  0.25858791842E+01  0.29783585210E+02  0.59906310860E+02  0.51100000000E-03 0.  1.
         23    2    1    0    0    0 -0.19059540652E+02 -0.81427234771E+01  0.20844600538E+02  0.95604976491E+02  0.90973865054E+02 0.  0.
         11    1    3    3    0    0  0.32854015973E+02 -0.10728602661E+02 -0.89389846719E+01  0.35698665631E+02  0.51100000000E-03 0. -1.
         22    1    1    0    0    0  0.19059540652E+02  0.81427234771E+01 -0.20844600538E+02  0.29395023509E+02  0.00000000000E+00 0.  1.
</event>
<event>
 5    1  0.8962782E-005  0.9118800E+02  0.7818608E-02  0.1130116E+00
         25   -1    0    0    0    0  0.00000000000E+00  0.00000000000E+00  0.99999998245E-14  0.12500000000E+03  0.12500000000E+03 0.  0.
        -11    1    3    3    0    0  0.28353330601E+02 -0.17833862685E+01  0.18083874632E+02  0.33676673599E+02  0.51100000000E-03 0. -1.
         23    2    1    0    0    0 -0.26221745589E+02  0.41730054954E+01 -0.11529027091E+02  0.96053283740E+02  0.91587777214E+02 0.  0.
         11    1    3    3    0    0 -0.54575076190E+02  0.59563917639E+01 -0.29612901722E+02  0.62376610141E+02  0.51100000000E-03 0.  1.
         22    1    1    0    0    0  0.26221745589E+02 -0.41730054954E+01  0.11529027091E+02  0.28946716260E+02  0.00000000000E+00 0.  1.
</event>
<event>
 5    1  0.8962782E-005  0.9118800E+02  0.7818608E-02  0.1130116E+00
         25   -1    0    0    0    0  0.00000000000E+00  0.00000000000E+00  0.99999998245E-14  0.12500000000E+03  0.12500000000E+03 0.  0.
        -11    1    3    3    0    0 -0.12803436291E+01 -0.45951192857E+02 -0.38150025107E+02  0.59737557873E+02  0.51100000000E-03 0.  1.
         23    2    1    0    0    0  0.10648559074E+02 -0.24818452577E+02 -0.11894097735E+02  0.95490392080E+02  0.90816287196E+02 0.  0.
         11    1    3    3    0    0  0.11928902703E+02  0.21132740280E+02  0.26255927372E+02  0.35752834207E+02  0.51100000000E-03 0. -1.
         22    1    1    0    0    0 -0.10648559074E+02  0.24818452577E+02  0.11894097735E+02  0.29509607920E+02  0.00000000000E+00 0.  1.
</event>
<event>
 5    1  0.8962782E-005  0.9118800E+02  0.7818608E-02  0.1130116E+00
         25   -1    0    0    0    0  0.00000000000E+00  0.00000000000E+00  0.99999998245E-14  0.12500000000E+03  0.12500000000E+03 0.  0.
        -11    1    3    3    0    0  0.44584452617E+02 -0.15398755821E+02 -0.17483634826E+01  0.47201185061E+02  0.51100000000E-03 0. -1.
         23    2    1    0    0    0  0.25206274033E+01 -0.27572323276E+02 -0.15714016236E+02  0.93164220135E+02  0.87556010838E+02 0.  0.
         11    1    3    3    0    0 -0.42063825214E+02 -0.12173567454E+02 -0.13965652753E+02  0.45963035075E+02  0.51100000000E-03 0.  1.
         22    1    1    0    0    0 -0.25206274033E+01  0.27572323276E+02  0.15714016236E+02  0.31835779865E+02  0.00000000000E+00 0.  1.
</event>
<event>
 5    1  0.8962782E-005  0.9118800E+02  0.7818608E-02  0.1130116E+00
         25   -1    0    0    0    0  0.00000000000E+00  0.00000000000E+00  0.99999998245E-14  0.12500000000E+03  0.12500000000E+03 0.  0.
        -11    1    3    3    0    0  0.15900249581E+02  0.44377029017E+02  0.40988328717E+02  0.62467445380E+02  0.51100000000E-03 0. -1.
         23    2    1    0    0    0  0.10032340883E+02  0.24846478590E+02  0.22038281105E+02  0.90305891048E+02  0.83375492574E+02 0.  0.
         11    1    3    3    0    0 -0.58679086985E+01 -0.19530550427E+02 -0.18950047611E+02  0.27838445667E+02  0.51100000000E-03 0.  1.
         22    1    1    0    0    0 -0.10032340883E+02 -0.24846478590E+02 -0.22038281105E+02  0.34694108952E+02  0.00000000000E+00 0. -1.
</event>
<event>
 5    1  0.8962782E-005  0.9118800E+02  0.7818608E-02  0.1130116E+00
         25   -1    0    0    0    0  0.00000000000E+00  0.00000000000E+00  0.99999998245E-14  0.12500000000E+03  0.12500000000E+03 0.  0.
        -11    1    3    3    0    0  0.43569053527E+01  0.37748425800E+02 -0.12656624213E+02  0.40051422089E+02  0.51100000000E-03 0.  1.
         23    2    1    0    0    0 -0.28747678926E+02 -0.36979615252E+01  0.42064253875E+01  0.95711811637E+02  0.91120540545E+02 0.  0.
         11    1    3    3    0    0 -0.33104584278E+02 -0.41446387325E+02  0.16863049600E+02  0.55660389548E+02  0.51100000000E-03 0. -1.
         22    1    1    0    0    0  0.28747678926E+02  0.36979615252E+01 -0.42064253875E+01  0.29288188363E+02  0.00000000000E+00 0. -1.
</event>
<event>
 5    1  0.8962782E-005  0.9118800E+02  0.7818608E-02  0.1130116E+00
         25   -1    0    0    0    0  0.00000000000E+00  0.00000000000E+00  0.99999998245E-14  0.12500000000E+03  0.12500000000E+03 0.  0.
        -11    1    3    3    0    0 -0.43216186678E+02 -0.33090489346E+02  0.28997578850E+02  0.61672350820E+02  0.51100000000E-03 0. -1.
         23    2    1    0    0    0 -0.15909452829E+02 -0.21220307869E+02  0.13427549702E+02  0.95272718820E+02  0.90516184768E+02 0.  0.
         11    1    3    3    0    0  0.27306733849E+02  0.11870181477E+02 -0.15570029148E+02  0.33600368000E+02  0.51100000000E-03 0.  1.
         22    1    1    0    0    0  0.15909452829E+02  0.21220307869E+02 -0.13427549702E+02  0.29727281180E+02  0.00000000000E+00 0. -1.
</event>
<event>
 5    1  0.8962782E-005  0.9118800E+02  0.7818608E-02  0.1130116E+00
         25   -1    0    0    0    0  0.00000000000E+00  0.00000000000E+00  0.99999998245E-14  0.12500000000E+03  0.12500000000E+03 0.  0.
        -11    1    3    3    0    0 -0.36447750093E+02 -0.58481573068E+01  0.30528005776E+02  0.47901968306E+02  0.51100000000E-03 0. -1.
         23    2    1    0    0    0 -0.21324980205E+02  0.11846653763E+02 -0.13070109210E+02  0.97324636572E+02  0.93306801162E+02 0.  0.
         11    1    3    3    0    0  0.15122769888E+02  0.17694811069E+02 -0.43598114986E+02  0.49422668266E+02  0.51100000000E-03 0.  1.
         22    1    1    0    0    0  0.21324980205E+02 -0.11846653763E+02  0.13070109210E+02  0.27675363428E+02  0.00000000000E+00 0. -1.
</event>
<event>
 5    1  0.8962782E-005  0.9118800E+02  0.7818608E-02  0.1130116E+00
         25   -1    0    0    0    0  0.00000000000E+00  0.00000000000E+00  0.99999998245E-14  0.12500000000E+03  0.12500000000E+03 0.  0.
        -11    1    3    3    0    0 -0.19908944021E+02 -0.24691954845E+02  0.23441020704E+02  0.39440336434E+02  0.51100000000E-03 0.  1.
         23    2    1    0    0    0 -0.12864081005E+02 -0.10489258416E+01 -0.26712347955E+02  0.95332941521E+02  0.90599312250E+02 0.  0.
         11    1    3    3    0    0  0.70448630151E+01  0.23643029003E+02 -0.50153368659E+02  0.55892605087E+02  0.51100000000E-03 0. -1.
         22    1    1    0    0    0  0.12864081005E+02  0.10489258416E+01  0.26712347955E+02  0.29667058479E+02  0.00000000000E+00 0. -1.
</event>
<event>
 5    1  0.8962782E-005  0.9118800E+02  0.7818608E-02  0.1130116E+00
         25   -1    0    0    0    0  0.00000000000E+00  0.00000000000E+00  0.99999998245E-14  0.12500000000E+03  0.12500000000E+03 0.  0.
        -11    1    3    3    0    0  0.29242225874E+01 -0.80196870809E+01 -0.57901939675E+02  0.58527780387E+02  0.51100000000E-03 0.  1.
         23    2    1    0    0    0 -0.16794297256E+01 -0.18628690972E+02 -0.22666227105E+02  0.95612818055E+02  0.90984638888E+02 0.  0.
         11    1    3    3    0    0 -0.46036523130E+01 -0.10609003891E+02  0.35235712571E+02  0.37085037668E+02  0.51100000000E-03 0. -1.
         22    1    1    0    0    0  0.16794297256E+01  0.18628690972E+02  0.22666227105E+02  0.29387181945E+02  0.00000000000E+00 0.  1.
</event>
<event>
 5    1  0.8962782E-005  0.9118800E+02  0.7818608E-02  0.1130116E+00
         25   -1    0    0    0    0  0.00000000000E+00  0.00000000000E+00  0.99999998245E-14  0.12500000000E+03  0.12500000000E+03 0.  0.
        -11    1    3    3    0    0 -0.37797074203E+02  0.43373796117E+02  0.11917921243E+02  0.58753228464E+02  0.51100000000E-03 0. -1.
         23    2    1    0    0    0 -0.46471417524E+01  0.28406808507E+02  0.58246007595E+01  0.95632183090E+02  0.91011239815E+02 0.  0.
         11    1    3    3    0    0  0.33149932451E+02 -0.14966987610E+02 -0.60933204834E+01  0.36878954627E+02  0.51100000000E-03 0.  1.
         22    1    1    0    0    0  0.46471417524E+01 -0.28406808507E+02 -0.58246007595E+01  0.29367816910E+02  0.00000000000E+00 0. -1.
</event>
<event>
 5    1  0.8962782E-005  0.9118800E+02  0.7818608E-02  0.1130116E+00
         25   -1    0    0    0    0  0.00000000000E+00  0.00000000000E+00  0.99999998245E-14  0.12500000000E+03  0.12500000000E+03 0.  0.
        -11    1    3    3    0    0 -0.43644115291E+02 -0.52584689414E+01 -0.38465389174E+02  0.58412725152E+02  0.51100000000E-03 0.  1.
         23    2    1    0    0    0 -0.21087877495E+02  0.13448192281E+02 -0.16469694245E+02  0.95053326038E+02  0.90212701487E+02 0.  0.
         11    1    3    3    0    0  0.22556237796E+02  0.18706661222E+02  0.21995694929E+02  0.36640600886E+02  0.51100000000E-03 0. -1.
         22    1    1    0    0    0  0.21087877495E+02 -0.13448192281E+02  0.16469694245E+02  0.29946673962E+02  0.00000000000E+00 0.  1.
</event>
<event>
 5    1  0.8962782E-005  0.9118800E+02  0.7818608E-02  0.1130116E+00
         25   -1    0    0    0    0  0.00000000000E+00  0.00000000000E+00  0.99999998245E-14  0.12500000000E+03  0.12500000000E+03 0.  0.
        -11    1    3    3    0    0  0.31139051054E+02 -0.10891726769E+02  0.37443229398E+02  0.49902561463E+02  0.51100000000E-03 0.  1.
         23    2    1    0    0    0  0.25683831237E+02  0.12350094777E+02 -0.24526447976E+01  0.96395813340E+02  0.92054078317E+02 0.  0.
         11    1    3    3    0    0 -0.54552198168E+01  0.23241821546E+02 -0.39895874196E+02  0.46493251877E+02  0.51100000000E-03 0. -1.
         22    1    1    0    0    0 -0.25683831237E+02 -0.12350094777E+02  0.24526447976E+01  0.28604186660E+02  0.00000000000E+00 0.  1.
</event>
<event>
 5    1  0.8962782E-005  0.9118800E+02  0.7818608E-02  0.1130116E+00
         25   -1    0    0    0    0  0.00000000000E+00  0.00000000000E+00  0.99999998245E-14  0.12500000000E+03  0.12500000000E+03 0.  0.
        -11    1    3    3    0    0 -0.20961600127E+02 -0.99642597799E+01 -0.26737857678E+02  0.35406047313E+02  0.51100000000E-03 0. -1.
         23    2    1    0    0    0  0.15453878652E+02  0.26136026261E+02  0.26742620005E+01  0.94519417470E+02  0.89469851723E+02 0.  0.
         11    1    3    3    0    0  0.36415478779E+02  0.36100286041E+02  0.29412119679E+02  0.59113370157E+02  0.51100000000E-03 0.  1.
         22    1    1    0    0    0 -0.15453878652E+02 -0.26136026261E+02 -0.26742620005E+01  0.30480582530E+02  0.00000000000E+00 0.  1.
</event>
<event>
 5    1  0.8962782E-005  0.9118800E+02  0.7818608E-02  0.1130116E+00
         25   -1    0    0    0    0  0.00000000000E+00  0.00000000000E+00  0.99999998245E-14  0.12500000000E+03  0.12500000000E+03 0.  0.
        -11    1    3    3    0    0  0.23074426747E+02 -0.33128887280E+02  0.34598472338E+02  0.53169602505E+02  0.51100000000E-03 0.  1.
         23    2    1    0    0    0 -0.13816628054E+02 -0.17238366644E+02  0.17461599701E+02  0.96840313222E+02  0.92655697641E+02 0.  0.
         11    1    3    3    0    0 -0.36891054801E+02  0.15890520637E+02 -0.17136872637E+02  0.43670710717E+02  0.51100000000E-03 0. -1.
         22    1    1    0    0    0  0.13816628054E+02  0.17238366644E+02 -0.17461599701E+02  0.28159686778E+02  0.00000000000E+00 0.  1.
</event>
<event>
 5    1  0.8962782E-005  0.9118800E+02  0.7818608E-02  0.1130116E+00
         25   -1    0    0    0    0  0.00000000000E+00  0.00000000000E+00  0.99999998245E-14  0.12500000000E+03  0.12500000000E+03 0.  0.
        -11    1    3    3    0    0  0.13461209531E+01 -0.38128735532E+02 -0.32096936815E+02  0.49858057203E+02  0.51100000000E-03 0.  1.
         23    2    1    0    0    0  0.12850550174E+01 -0.26058433195E+02  0.12507460670E+02  0.96066803160E+02  0.91606226808E+02 0.  0.
         11    1    3    3    0    0 -0.61065935713E-01  0.12070302337E+02  0.44604397486E+02  0.46208745956E+02  0.51100000000E-03 0. -1.
         22    1    1    0    0    0 -0.12850550174E+01  0.26058433195E+02 -0.12507460670E+02  0.28933196840E+02  0.00000000000E+00 0. -1.
</event>
<event>
 5    1  0.8962782E-005  0.9118800E+02  0.7818608E-02  0.1130116E+00
         25   -1    0    0    0    0  0.00000000000E+00  0.00000000000E+00  0.99999998245E-14  0.12500000000E+03  0.12500000000E+03 0.  0.
        -11    1    3    3    0    0 -0.25009936987E+02 -0.27817581651E+02 -0.17739880430E+02  0.41400702349E+02  0.51100000000E-03 0.  1.
         23    2    1    0    0    0  0.23786450270E+02 -0.20304669796E+02 -0.41661655631E+00  0.93723037211E+02  0.88350208277E+02 0.  0.
         11    1    3    3    0    0  0.48796387257E+02  0.75129118553E+01  0.17323263874E+02  0.52322334862E+02  0.51100000000E-03 0. -1.
         22    1    1    0    0    0 -0.23786450270E+02  0.20304669796E+02  0.41661655631E+00  0.31276962789E+02  0.00000000000E+00 0. -1.
</event>
<event>
 5    1  0.8962782E-005  0.9118800E+02  0.7818608E-02  0.1130116E+00
         25   -1    0    0    0    0  0.00000000000E+00  0.00000000000E+00  0.99999998245E-14  0.12500000000E+03  0.12500000000E+03 0.  0.
        -11    1    3    3    0    0  0.33847184519E+02  0.33268835993E+02 -0.24374151467E+02  0.53353037479E+02  0.51100000000E-03 0.  1.
         23    2    1    0    0    0  0.75831026636E+01  0.21494820990E+00 -0.28250521772E+02  0.95748647396E+02  0.91171058177E+02 0.  0.
         11    1    3    3    0    0 -0.26264081856E+02 -0.33053887783E+02 -0.38763703055E+01  0.42395609918E+02  0.51100000000E-03 0. -1.
         22    1    1    0    0    0 -0.75831026636E+01 -0.21494820990E+00  0.28250521772E+02  0.29251352604E+02  0.00000000000E+00 0. -1.
</event>
<event>
 5    1  0.8962782E-005  0.9118800E+02  0.7818608E-02  0.1130116E+00
         25   -1    0    0    0    0  0.00000000000E+00  0.00000000000E+00  0.99999998245E-14  0.12500000000E+03  0.12500000000E+03 0.  0.
        -11    1    3    3    0    0  0.40732558058E+02  0.47267491925E+01  0.12959921783E+01  0.41026370054E+02  0.51100000000E-03 0.  1.
         23    2    1    0    0    0 -0.13811224456E+01 -0.28733812638E+02 -0.68520398222E+01  0.95428223969E+02  0.90730678341E+02 0.  0.
         11    1    3    3    0    0 -0.42113680503E+02 -0.33460561831E+02 -0.81480320005E+01  0.54401853914E+02  0.51100000000E-03 0. -1.
         22    1    1    0    0    0  0.13811224456E+01  0.28733812638E+02  0.68520398222E+01  0.29571776031E+02  0.00000000000E+00 0. -1.
</event>
<event>
 5    1  0.8962782E-005  0.9118800E+02  0.7818608E-02  0.1130116E+00
         25   -1    0    0    0    0  0.00000000000E+00  0.00000000000E+00  0.99999998245E-14  0.12500000000E+03  0.12500000000E+03 0.  0.
        -11    1    3    3    0    0 -0.41540613712E+02  0.15274096004E+02 -0.42423427611E+02  0.61307975067E+02  0.51100000000E-03 0. -1.
         23    2    1    0    0    0 -0.20470979290E+02  0.14043961980E+02 -0.14706952007E+02  0.96145393808E+02  0.91713403884E+02 0.  0.
         11    1    3    3    0    0  0.21069634422E+02 -0.12301340245E+01  0.27716475603E+02  0.34837418741E+02  0.51100000000E-03 0.  1.
         22    1    1    0    0    0  0.20470979290E+02 -0.14043961980E+02  0.14706952007E+02  0.28854606192E+02  0.00000000000E+00 0. -1.
</event>
<event>
 5    1  0.8962782E-005  0.9118800E+02  0.7818608E-02  0.1130116E+00
         25   -1    0    0    0    0  0.00000000000E+00  0.00000000000E+00  0.99999998245E-14  0.12500000000E+03  0.12500000000E+03 0.  0.
        -11    1    3    3    0    0 -0.78946964695E+01 -0.85504383560E+00  0.58931197085E+02  0.59463798419E+02  0.51100000000E-03 0.  1.
         23    2    1    0    0    0 -0.67959064708E+01 -0.13672451881E+02  0.25583729137E+02  0.95206586604E+02  0.90424812143E+02 0.  0.
         11    1    3    3    0    0  0.10987899987E+01 -0.12817408046E+02 -0.33347467948E+02  0.35742788185E+02  0.51100000000E-03 0. -1.
         22    1    1    0    0    0  0.67959064708E+01  0.13672451881E+02 -0.25583729137E+02  0.29793413396E+02  0.00000000000E+00 0.  1.
</event>
<event>
 5    1  0.8962782E-005  0.9118800E+02  0.7818608E-02  0.1130116E+00
         25   -1    0    0    0    0  0.00000000000E+00  0.00000000000E+00  0.99999998245E-14  0.12500000000E+03  0.12500000000E+03 0.  0.
        -11    1    3    3    0    0  0.24018746892E+02 -0.43659184027E+02  0.10677877547E+01  0.49841395678E+02  0.51100000000E-03 0. -1.
         23    2    1    0    0    0  0.28141196247E+02  0.12160557276E+01 -0.78058815562E+01  0.95770947593E+02  0.91201627717E+02 0.  0.
         11    1    3    3    0    0  0.41224493553E+01  0.44875239755E+02 -0.88736693109E+01  0.45929551914E+02  0.51100000000E-03 0.  1.
         22    1    1    0    0    0 -0.28141196247E+02 -0.12160557276E+01  0.78058815562E+01  0.29229052407E+02  0.00000000000E+00 0. -1.
</event>
<event>
 5    1  0.8962782E-005  0.9118800E+02  0.7818608E-02  0.1130116E+00
         25   -1    0    0    0    0  0.00000000000E+00  0.00000000000E+00  0.99999998245E-14  0.12500000000E+03  0.12500000000E+03 0.  0.
        -11    1    3    3    0    0 -0.49787847479E+02 -0.64420163288E+01 -0.31491760853E+02  0.59262638592E+02  0.51100000000E-03 0.  1.
         23    2    1    0    0    0 -0.16432114907E+02 -0.14446100832E+02 -0.19767131739E+02  0.95513668815E+02  0.90848319763E+02 0.  0.
         11    1    3    3    0    0  0.33355732571E+02 -0.80040845030E+01  0.11724629115E+02  0.36251030223E+02  0.51100000000E-03 0. -1.
         22    1    1    0    0    0  0.16432114907E+02  0.14446100832E+02  0.19767131739E+02  0.29486331185E+02  0.00000000000E+00 0.  1.
</event>
<event>
 5    1  0.8962782E-005  0.9118800E+02  0.7818608E-02  0.1130116E+00
         25   -1    0    0    0    0  0.00000000000E+00  0.00000000000E+00  0.99999998245E-14  0.12500000000E+03  0.12500000000E+03 0.  0.
        -11    1    3    3    0    0 -0.39145203140E+02 -0.35684252595E+02 -0.15533693712E+02  0.55199714245E+02  0.51100000000E-03 0.  1.
         23    2    1    0    0    0 -0.16647667947E+02 -0.19526161636E+02  0.14065825153E+02  0.95738023417E+02  0.91156491015E+02 0.  0.
         11    1    3    3    0    0  0.22497535193E+02  0.16158090959E+02  0.29599518865E+02  0.40538309172E+02  0.51100000000E-03 0. -1.
         22    1    1    0    0    0  0.16647667947E+02  0.19526161636E+02 -0.14065825153E+02  0.29261976583E+02  0.00000000000E+00 0.  1.
</event>
<event>
 5    1  0.8962782E-005  0.9118800E+02  0.7818608E-02  0.1130116E+00
         25   -1    0    0    0    0  0.00000000000E+00  0.00000000000E+00  0.99999998245E-14  0.12500000000E+03  0.12500000000E+03 0.  0.
        -11    1    3    3    0    0 -0.54015621723E+01  0.41425306439E+02 -0.23053903108E+02  0.47714938292E+02  0.51100000000E-03 0. -1.
         23    2    1    0    0    0  0.11223678008E+02  0.21401592131E+01 -0.31755406838E+02  0.91251561623E+02  0.84781427245E+02 0.  0.
         11    1    3    3    0    0  0.16625240180E+02 -0.39285147226E+02 -0.87015037294E+01  0.43536623330E+02  0.51100000000E-03 0.  1.
         22    1    1    0    0    0 -0.11223678008E+02 -0.21401592131E+01  0.31755406838E+02  0.33748438377E+02  0.00000000000E+00 0.  1.
</event>
<event>
 5    1  0.8962782E-005  0.9118800E+02  0.7818608E-02  0.1130116E+00
         25   -1    0    0    0    0  0.00000000000E+00  0.00000000000E+00  0.99999998245E-14  0.12500000000E+03  0.12500000000E+03 0.  0.
        -11    1    3    3    0    0 -0.20145701433E+02  0.48568748021E+02  0.10554199384E+02  0.53629876892E+02  0.51100000000E-03 0.  1.
         23    2    1    0    0    0  0.13727220553E+02  0.26875158435E+02  0.19844702413E+01  0.94756838010E+02  0.89800943773E+02 0.  0.
         11    1    3    3    0    0  0.33872921986E+02 -0.21693589585E+02 -0.85697291428E+01  0.41126961118E+02  0.51100000000E-03 0. -1.
         22    1    1    0    0    0 -0.13727220553E+02 -0.26875158435E+02 -0.19844702413E+01  0.30243161990E+02  0.00000000000E+00 0.  1.
</event>
<event>
 5    1  0.8962782E-005  0.9118800E+02  0.7818608E-02  0.1130116E+00
         25   -1    0    0    0    0  0.00000000000E+00  0.00000000000E+00  0.99999998245E-14  0.12500000000E+03  0.12500000000E+03 0.  0.
        -11    1    3    3    0    0 -0.29012014016E+02  0.42780304399E+02 -0.22512398167E+02  0.56379601570E+02  0.51100000000E-03 0.  1.
         23    2    1    0    0    0 -0.24928921546E+02  0.46561505428E+01 -0.15263279718E+02  0.95401037601E+02  0.90693215844E+02 0.  0.
         11    1    3    3    0    0  0.40830924700E+01 -0.38124153856E+02  0.72491184489E+01  0.39021436030E+02  0.51100000000E-03 0. -1.
         22    1    1    0    0    0  0.24928921546E+02 -0.46561505428E+01  0.15263279718E+02  0.29598962399E+02  0.00000000000E+00 0.  1.
</event>
<event>
 5    1  0.8962782E-005  0.9118800E+02  0.7818608E-02  0.1130116E+00
         25   -1    0    0    0    0  0.00000000000E+00  0.00000000000E+00  0.99999998245E-14  0.12500000000E+03  0.12500000000E+03 0.  0.
        -11    1    3    3    0    0 -0.28072987763E+01  0.49431940775E+01  0.34679000786E+02  0.35141843860E+02  0.51100000000E-03 0. -1.
         23    2    1    0    0    0 -0.35258150618E+01 -0.20666119590E+02 -0.20312907032E+02  0.95808664593E+02  0.91253307601E+02 0.  0.
         11    1    3    3    0    0 -0.71851628548E+00 -0.25609313667E+02 -0.54991907818E+02  0.60666820733E+02  0.51100000000E-03 0.  1.
         22    1    1    0    0    0  0.35258150618E+01  0.20666119590E+02  0.20312907032E+02  0.29191335407E+02  0.00000000000E+00 0.  1.
</event>
<event>
 5    1  0.8962782E-005  0.9118800E+02  0.7818608E-02  0.1130116E+00
         25   -1    0    0    0    0  0.00000000000E+00  0.00000000000E+00  0.99999998245E-14  0.12500000000E+03  0.12500000000E+03 0.  0.
        -11    1    3    3    0    0  0.37611017805E+02  0.41949829048E+02 -0.22959612898E+02  0.60840123621E+02  0.51100000000E-03 0.  1.
         23    2    1    0    0    0  0.10717858611E+02  0.26343958178E+02 -0.73840312216E+01  0.95616321830E+02  0.90989452452E+02 0.  0.
         11    1    3    3    0    0 -0.26893159194E+02 -0.15605870870E+02  0.15575581676E+02  0.34776198209E+02  0.51100000000E-03 0. -1.
         22    1    1    0    0    0 -0.10717858611E+02 -0.26343958178E+02  0.73840312216E+01  0.29383678170E+02  0.00000000000E+00 0. -1.
</event>
<event>
 5    1  0.8962782E-005  0.9118800E+02  0.7818608E-02  0.1130116E+00
         25   -1    0    0    0    0  0.00000000000E+00  0.00000000000E+00  0.99999998245E-14  0.12500000000E+03  0.12500000000E+03 0.  0.
        -11    1    3    3    0    0 -0.15328763497E+02 -0.39950423553E+02  0.10907184338E+02  0.44158509971E+02  0.51100000000E-03 0. -1.
         23    2    1    0    0    0  0.21995805509E+02  0.98398131087E+00 -0.61819386877E+01  0.10213080576E+03  0.99537437380E+02 0.  0.
         11    1    3    3    0    0  0.37324569006E+02  0.40934404864E+02 -0.17089123026E+02  0.57972295790E+02  0.51100000000E-03 0.  1.
         22    1    1    0    0    0 -0.21995805509E+02 -0.98398131087E+00  0.61819386877E+01  0.22869194239E+02  0.00000000000E+00 0.  1.
</event>
<event>
 5    1  0.8962782E-005  0.9118800E+02  0.7818608E-02  0.1130116E+00
         25   -1    0    0    0    0  0.00000000000E+00  0.00000000000E+00  0.99999998245E-14  0.12500000000E+03  0.12500000000E+03 0.  0.
        -11    1    3    3    0    0 -0.29785114505E+02 -0.50852463614E+02 -0.23784705989E+01  0.58981210774E+02  0.51100000000E-03 0.  1.
         23    2    1    0    0    0 -0.50339602975E+01 -0.27497285641E+02  0.10172228965E+02  0.95252467061E+02  0.90488213404E+02 0.  0.
         11    1    3    3    0    0  0.24751154208E+02  0.23355177974E+02  0.12550699564E+02  0.36271256286E+02  0.51100000000E-03 0. -1.
         22    1    1    0    0    0  0.50339602975E+01  0.27497285641E+02 -0.10172228965E+02  0.29747532939E+02  0.00000000000E+00 0.  1.
</event>
<event>
 5    1  0.8962782E-005  0.9118800E+02  0.7818608E-02  0.1130116E+00
         25   -1    0    0    0    0  0.00000000000E+00  0.00000000000E+00  0.99999998245E-14  0.12500000000E+03  0.12500000000E+03 0.  0.
        -11    1    3    3    0    0 -0.35437716734E+02  0.11662934042E+02  0.14945574804E+02  0.40189874400E+02  0.51100000000E-03 0. -1.
         23    2    1    0    0    0  0.88864071683E+01 -0.22662534459E+02  0.15293012229E+02  0.96252218807E+02  0.91858884719E+02 0.  0.
         11    1    3    3    0    0  0.44324123902E+02 -0.34325468501E+02  0.34743742537E+00  0.56062344408E+02  0.51100000000E-03 0.  1.
         22    1    1    0    0    0 -0.88864071683E+01  0.22662534459E+02 -0.15293012229E+02  0.28747781193E+02  0.00000000000E+00 0.  1.
</event>
<event>
 5    1  0.8962782E-005  0.9118800E+02  0.7818608E-02  0.1130116E+00
         25   -1    0    0    0    0  0.00000000000E+00  0.00000000000E+00  0.99999998245E-14  0.12500000000E+03  0.12500000000E+03 0.  0.
        -11    1    3    3    0    0 -0.20168354349E+02 -0.30685784503E+02 -0.24031143721E+02  0.43884800974E+02  0.51100000000E-03 0. -1.
         23    2    1    0    0    0 -0.22680122214E+02 -0.56012203865E+01  0.19752207477E+02  0.94407332355E+02  0.89313118234E+02 0.  0.
         11    1    3    3    0    0 -0.25117678657E+01  0.25084564117E+02  0.43783351198E+02  0.50522531381E+02  0.51100000000E-03 0.  1.
         22    1    1    0    0    0  0.22680122214E+02  0.56012203865E+01 -0.19752207477E+02  0.30592667645E+02  0.00000000000E+00 0. -1.
</event>
<event>
 5    1  0.8962782E-005  0.9118800E+02  0.7818608E-02  0.1130116E+00
         25   -1    0    0    0    0  0.00000000000E+00  0.00000000000E+00  0.99999998245E-14  0.12500000000E+03  0.12500000000E+03 0.  0.
        -11    1    3    3    0    0 -0.28709291606E+02  0.29004346726E+02 -0.13783123519E+02  0.43074935261E+02  0.51100000000E-03 0.  1.
         23    2    1    0    0    0  0.20898540477E+02  0.15412302735E+02  0.62780147636E+01  0.98284806962E+02  0.94584363087E+02 0.  0.
         11    1    3    3    0    0  0.49607832083E+02 -0.13592043992E+02  0.20061138282E+02  0.55209871702E+02  0.51100000000E-03 0. -1.
         22    1    1    0    0    0 -0.20898540477E+02 -0.15412302735E+02 -0.62780147636E+01  0.26715193038E+02  0.00000000000E+00 0. -1.
</event>
<event>
 5    1  0.8962782E-005  0.9118800E+02  0.7818608E-02  0.1130116E+00
         25   -1    0    0    0    0  0.00000000000E+00  0.00000000000E+00  0.99999998245E-14  0.12500000000E+03  0.12500000000E+03 0.  0.
        -11    1    3    3    0    0 -0.14971193058E+01 -0.36022492000E+02 -0.48483997100E+02  0.60419858252E+02  0.51100000000E-03 0.  1.
         23    2    1    0    0    0  0.27146967671E+00 -0.69126332436E+01 -0.28249959255E+02  0.95915323759E+02  0.91399293978E+02 0.  0.
         11    1    3    3    0    0  0.17685889825E+01  0.29109858756E+02  0.20234037845E+02  0.35495465507E+02  0.51100000000E-03 0. -1.
         22    1    1    0    0    0 -0.27146967671E+00  0.69126332436E+01  0.28249959255E+02  0.29084676241E+02  0.00000000000E+00 0.  1.
</event>
<event>
 5    1  0.8962782E-005  0.9118800E+02  0.7818608E-02  0.1130116E+00
         25   -1    0    0    0    0  0.00000000000E+00  0.00000000000E+00  0.99999998245E-14  0.12500000000E+03  0.12500000000E+03 0.  0.
        -11    1    3    3    0    0  0.45366336559E+02 -0.58913571726E+01  0.42347359112E+02  0.62338683064E+02  0.51100000000E-03 0.  1.
         23    2    1    0    0    0  0.20282467826E+02 -0.49510042511E+01  0.22192803638E+02  0.94530154619E+02  0.89484851538E+02 0.  0.
         11    1    3    3    0    0 -0.25083868733E+02  0.94035292155E+00 -0.20154555474E+02  0.32191471554E+02  0.51100000000E-03 0. -1.
         22    1    1    0    0    0 -0.20282467826E+02  0.49510042511E+01 -0.22192803638E+02  0.30469845381E+02  0.00000000000E+00 0.  1.
</event>
<event>
 5    1  0.8962782E-005  0.9118800E+02  0.7818608E-02  0.1130116E+00
         25   -1    0    0    0    0  0.00000000000E+00  0.00000000000E+00  0.99999998245E-14  0.12500000000E+03  0.12500000000E+03 0.  0.
        -11    1    3    3    0    0 -0.12237954046E+02 -0.36332457442E+02 -0.14704124363E+02  0.41061250061E+02  0.51100000000E-03 0. -1.
         23    2    1    0    0    0  0.23258650118E+02  0.89707061313E+01 -0.20658044663E+01  0.99985885546E+02  0.96806360259E+02 0.  0.
         11    1    3    3    0    0  0.35496604164E+02  0.45303163574E+02  0.12638319897E+02  0.58924635485E+02  0.51100000000E-03 0.  1.
         22    1    1    0    0    0 -0.23258650118E+02 -0.89707061313E+01  0.20658044663E+01  0.25014114454E+02  0.00000000000E+00 0.  1.
</event>
<event>
 5    1  0.8962782E-005  0.9118800E+02  0.7818608E-02  0.1130116E+00
         25   -1    0    0    0    0  0.00000000000E+00  0.00000000000E+00  0.99999998245E-14  0.12500000000E+03  0.12500000000E+03 0.  0.
        -11    1    3    3    0    0  0.44085297295E+02 -0.25435473231E+02  0.35600508462E+02  0.62111777780E+02  0.51100000000E-03 0. -1.
         23    2    1    0    0    0  0.17217969215E+02 -0.15158523422E+02  0.13545497491E+02  0.98359433218E+02  0.94682935656E+02 0.  0.
         11    1    3    3    0    0 -0.26867328080E+02  0.10276949809E+02 -0.22055010971E+02  0.36247655437E+02  0.51100000000E-03 0.  1.
         22    1    1    0    0    0 -0.17217969215E+02  0.15158523422E+02 -0.13545497491E+02  0.26640566782E+02  0.00000000000E+00 0. -1.
</event>
<event>
 5    1  0.8962782E-005  0.9118800E+02  0.7818608E-02  0.1130116E+00
         25   -1    0    0    0    0  0.00000000000E+00  0.00000000000E+00  0.99999998245E-14  0.12500000000E+03  0.12500000000E+03 0.  0.
        -11    1    3    3    0    0  0.32982560776E+02  0.37740812173E+01 -0.89968092503E+01  0.34395284289E+02  0.51100000000E-03 0.  1.
         23    2    1    0    0    0  0.20512424812E+02 -0.32299715722E+02 -0.28530188551E+02  0.77271571719E+02  0.60769177465E+02 0.  0.
         11    1    3    3    0    0 -0.12470135964E+02 -0.36073796940E+02 -0.19533379301E+02  0.42876287430E+02  0.51100000000E-03 0. -1.
         22    1    1    0    0    0 -0.20512424812E+02  0.32299715722E+02  0.28530188551E+02  0.47728428281E+02  0.00000000000E+00 0. -1.
</event>
<event>
 5    1  0.8962782E-005  0.9118800E+02  0.7818608E-02  0.1130116E+00
         25   -1    0    0    0    0  0.00000000000E+00  0.00000000000E+00  0.99999998245E-14  0.12500000000E+03  0.12500000000E+03 0.  0.
        -11    1    3    3    0    0  0.68461860319E+01 -0.39423051322E+02  0.43694409219E+02  0.59247351299E+02  0.51100000000E-03 0.  1.
         23    2    1    0    0    0 -0.41966582340E+01 -0.10052620436E+02  0.29244527259E+02  0.93792476988E+02  0.88448398781E+02 0.  0.
         11    1    3    3    0    0 -0.11042844266E+02  0.29370430886E+02 -0.14449881960E+02  0.34545125688E+02  0.51100000000E-03 0. -1.
         22    1    1    0    0    0  0.41966582340E+01  0.10052620436E+02 -0.29244527259E+02  0.31207523012E+02  0.00000000000E+00 0.  1.
</event>
<event>
 5    1  0.8962782E-005  0.9118800E+02  0.7818608E-02  0.1130116E+00
         25   -1    0    0    0    0  0.00000000000E+00  0.00000000000E+00  0.99999998245E-14  0.12500000000E+03  0.12500000000E+03 0.  0.
        -11    1    3    3    0    0  0.25389292477E+02 -0.30759391875E+02 -0.20603216117E+02  0.44891523427E+02  0.51100000000E-03 0.  1.
         23    2    1    0    0    0  0.21322990283E+02  0.13604317645E+02 -0.24722499375E+02  0.89631237673E+02  0.82357813340E+02 0.  0.
         11    1    3    3    0    0 -0.40663021935E+01  0.44363709520E+02 -0.41192832583E+01  0.44739714245E+02  0.51100000000E-03 0. -1.
         22    1    1    0    0    0 -0.21322990283E+02 -0.13604317645E+02  0.24722499375E+02  0.35368762327E+02  0.00000000000E+00 0.  1.
</event>
<event>
 5    1  0.8962782E-005  0.9118800E+02  0.7818608E-02  0.1130116E+00
         25   -1    0    0    0    0  0.00000000000E+00  0.00000000000E+00  0.99999998245E-14  0.12500000000E+03  0.12500000000E+03 0.  0.
        -11    1    3    3    0    0 -0.24246928958E+02 -0.20584227991E+02 -0.53269101725E+01  0.32249030654E+02  0.51100000000E-03 0. -1.
         23    2    1    0    0    0  0.66582283473E+01  0.31411994117E+02 -0.19913933851E+01  0.92828412741E+02  0.87075273099E+02 0.  0.
         11    1    3    3    0    0  0.30905157305E+02  0.51996222108E+02  0.33355167874E+01  0.60579382087E+02  0.51100000000E-03 0.  1.
         22    1    1    0    0    0 -0.66582283473E+01 -0.31411994117E+02  0.19913933851E+01  0.32171587259E+02  0.00000000000E+00 0.  1.
</event>
<event>
 5    1  0.8962782E-005  0.9118800E+02  0.7818608E-02  0.1130116E+00
         25   -1    0    0    0    0  0.00000000000E+00  0.00000000000E+00  0.99999998245E-14  0.12500000000E+03  0.12500000000E+03 0.  0.
        -11    1    3    3    0    0 -0.23231059533E+02 -0.58801488731E+01  0.29128354751E+02  0.37718951849E+02  0.51100000000E-03 0.  1.
         23    2    1    0    0    0  0.27143234903E+02  0.10794928121E+02  0.10730410365E+02  0.93880434117E+02  0.88572617266E+02 0.  0.
         11    1    3    3    0    0  0.50374294436E+02  0.16675076995E+02 -0.18397944386E+02  0.56161482269E+02  0.51100000000E-03 0. -1.
         22    1    1    0    0    0 -0.27143234903E+02 -0.10794928121E+02 -0.10730410365E+02  0.31119565883E+02  0.00000000000E+00 0. -1.
</event>
<event>
 5    1  0.8962782E-005  0.9118800E+02  0.7818608E-02  0.1130116E+00
         25   -1    0    0    0    0  0.00000000000E+00  0.00000000000E+00  0.99999998245E-14  0.12500000000E+03  0.12500000000E+03 0.  0.
        -11    1    3    3    0    0  0.24779467249E+02 -0.13146631359E+02 -0.25524306088E+02  0.37925533810E+02  0.51100000000E-03 0.  1.
         23    2    1    0    0    0  0.12170365530E+02  0.34151611136E+01  0.27415607245E+02  0.94810653482E+02  0.89875821946E+02 0.  0.
         11    1    3    3    0    0 -0.12609101719E+02  0.16561792472E+02  0.52939913334E+02  0.56885119672E+02  0.51100000000E-03 0. -1.
         22    1    1    0    0    0 -0.12170365530E+02 -0.34151611136E+01 -0.27415607245E+02  0.30189346518E+02  0.00000000000E+00 0. -1.
</event>
<event>
 5    1  0.8962782E-005  0.9118800E+02  0.7818608E-02  0.1130116E+00
         25   -1    0    0    0    0  0.00000000000E+00  0.00000000000E+00  0.99999998245E-14  0.12500000000E+03  0.12500000000E+03 0.  0.
        -11    1    3    3    0    0  0.52768945557E+02 -0.73770822697E+01  0.25975612433E+02  0.59276600776E+02  0.51100000000E-03 0. -1.
         23    2    1    0    0    0  0.21999683652E+02 -0.16892760876E+02  0.81368450126E+01  0.96093950502E+02  0.91643262849E+02 0.  0.
         11    1    3    3    0    0 -0.30769261905E+02 -0.95156786059E+01 -0.17838767420E+02  0.36817349726E+02  0.51100000000E-03 0.  1.
         22    1    1    0    0    0 -0.21999683652E+02  0.16892760876E+02 -0.81368450126E+01  0.28906049498E+02  0.00000000000E+00 0. -1.
</event>
<event>
 5    1  0.8962782E-005  0.9118800E+02  0.7818608E-02  0.1130116E+00
         25   -1    0    0    0    0  0.00000000000E+00  0.00000000000E+00  0.99999998245E-14  0.12500000000E+03  0.12500000000E+03 0.  0.
        -11    1    3    3    0    0 -0.38376417422E+02 -0.46273286667E+02 -0.60941333464E+01  0.60424373680E+02  0.51100000000E-03 0.  1.
         23    2    1    0    0    0 -0.22654025108E+02 -0.15042794858E+02 -0.10871077871E+02  0.95713981752E+02  0.91123517481E+02 0.  0.
         11    1    3    3    0    0  0.15722392314E+02  0.31230491808E+02 -0.47769445246E+01  0.35289608073E+02  0.51100000000E-03 0. -1.
         22    1    1    0    0    0  0.22654025108E+02  0.15042794858E+02  0.10871077871E+02  0.29286018248E+02  0.00000000000E+00 0.  1.
</event>
<event>
 5    1  0.8962782E-005  0.9118800E+02  0.7818608E-02  0.1130116E+00
         25   -1    0    0    0    0  0.00000000000E+00  0.00000000000E+00  0.99999998245E-14  0.12500000000E+03  0.12500000000E+03 0.  0.
        -11    1    3    3    0    0 -0.24078616550E+02  0.54692358440E+02  0.44685399680E+01  0.59924967220E+02  0.51100000000E-03 0. -1.
         23    2    1    0    0    0 -0.35335206175E+00  0.31030216051E+02 -0.13687590590E+01  0.93937600427E+02  0.88653257734E+02 0.  0.
         11    1    3    3    0    0  0.23725264489E+02 -0.23662142389E+02 -0.58372990270E+01  0.34012633207E+02  0.51100000000E-03 0.  1.
         22    1    1    0    0    0  0.35335206175E+00 -0.31030216051E+02  0.13687590590E+01  0.31062399573E+02  0.00000000000E+00 0. -1.
</event>
<event>
 5    1  0.8962782E-005  0.9118800E+02  0.7818608E-02  0.1130116E+00
         25   -1    0    0    0    0  0.00000000000E+00  0.00000000000E+00  0.99999998245E-14  0.12500000000E+03  0.12500000000E+03 0.  0.
        -11    1    3    3    0    0  0.15783986974E+02  0.24042385147E+02  0.33463437859E+02  0.44124507951E+02  0.51100000000E-03 0. -1.
         23    2    1    0    0    0  0.48613309715E+01  0.25809367322E+02 -0.15622161874E+02  0.94441729074E+02  0.89361245898E+02 0.  0.
         11    1    3    3    0    0 -0.10922656003E+02  0.17669821755E+01 -0.49085599732E+02  0.50317221123E+02  0.51100000000E-03 0.  1.
         22    1    1    0    0    0 -0.48613309715E+01 -0.25809367322E+02  0.15622161874E+02  0.30558270926E+02  0.00000000000E+00 0.  1.
</event>
<event>
 5    1  0.8962782E-005  0.9118800E+02  0.7818608E-02  0.1130116E+00
         25   -1    0    0    0    0  0.00000000000E+00  0.00000000000E+00  0.99999998245E-14  0.12500000000E+03  0.12500000000E+03 0.  0.
        -11    1    3    3    0    0  0.58031284654E+02  0.31930564534E+01 -0.20356034682E+02  0.61580790481E+02  0.51100000000E-03 0.  1.
         23    2    1    0    0    0  0.26852305797E+02 -0.10060633513E+01 -0.18850640902E+01  0.98062814611E+02  0.94290527905E+02 0.  0.
         11    1    3    3    0    0 -0.31178978857E+02 -0.41991198047E+01  0.18470970592E+02  0.36482024129E+02  0.51100000000E-03 0. -1.
         22    1    1    0    0    0 -0.26852305797E+02  0.10060633513E+01  0.18850640902E+01  0.26937185389E+02  0.00000000000E+00 0.  1.
</event>
<event>
 5    1  0.8962782E-005  0.9118800E+02  0.7818608E-02  0.1130116E+00
         25   -1    0    0    0    0  0.00000000000E+00  0.00000000000E+00  0.99999998245E-14  0.12500000000E+03  0.12500000000E+03 0.  0.
        -11    1    3    3    0    0  0.22943321194E+02  0.40569565043E+02 -0.29837025891E+02  0.55340163619E+02  0.51100000000E-03 0. -1.
         23    2    1    0    0    0 -0.74811223196E+01  0.27986529795E+02 -0.76642957018E+01  0.95034111564E+02  0.90186073709E+02 0.  0.
         11    1    3    3    0    0 -0.30424443513E+02 -0.12583035247E+02  0.22172730189E+02  0.39693947945E+02  0.51100000000E-03 0.  1.
         22    1    1    0    0    0  0.74811223196E+01 -0.27986529795E+02  0.76642957018E+01  0.29965888436E+02  0.00000000000E+00 0. -1.
</event>
<event>
 5    1  0.8962782E-005  0.9118800E+02  0.7818608E-02  0.1130116E+00
         25   -1    0    0    0    0  0.00000000000E+00  0.00000000000E+00  0.99999998245E-14  0.12500000000E+03  0.12500000000E+03 0.  0.
        -11    1    3    3    0    0  0.19048394454E+01 -0.32904594245E+02  0.36864439090E+01  0.33165201714E+02  0.51100000000E-03 0. -1.
         23    2    1    0    0    0 -0.11268881272E+02  0.26292021448E+02  0.11213739713E+02  0.94275318793E+02  0.89128164450E+02 0.  0.
         11    1    3    3    0    0 -0.13173720718E+02  0.59196615693E+02  0.75272958042E+01  0.61110117079E+02  0.51100000000E-03 0.  1.
         22    1    1    0    0    0  0.11268881272E+02 -0.26292021448E+02 -0.11213739713E+02  0.30724681207E+02  0.00000000000E+00 0.  1.
</event>
<event>
 5    1  0.8962782E-005  0.9118800E+02  0.7818608E-02  0.1130116E+00
         25   -1    0    0    0    0  0.00000000000E+00  0.00000000000E+00  0.99999998245E-14  0.12500000000E+03  0.12500000000E+03 0.  0.
        -11    1    3    3    0    0 -0.61993049356E+01 -0.55028666283E+01 -0.56463129747E+02  0.57068362023E+02  0.51100000000E-03 0.  1.
         23    2    1    0    0    0  0.13470286949E+02  0.53439666135E+01 -0.29270734348E+02  0.92338363499E+02  0.86368923084E+02 0.  0.
         11    1    3    3    0    0  0.19669591885E+02  0.10846833242E+02  0.27192395400E+02  0.35270001476E+02  0.51100000000E-03 0. -1.
         22    1    1    0    0    0 -0.13470286949E+02 -0.53439666135E+01  0.29270734348E+02  0.32661636501E+02  0.00000000000E+00 0.  1.
</event>
<event>
 5    1  0.8962782E-005  0.9118800E+02  0.7818608E-02  0.1130116E+00
         25   -1    0    0    0    0  0.00000000000E+00  0.00000000000E+00  0.99999998245E-14  0.12500000000E+03  0.12500000000E+03 0.  0.
        -11    1    3    3    0    0  0.10053573633E+01  0.14853631165E+02  0.34532899186E+02  0.37605348405E+02  0.51100000000E-03 0.  1.
         23    2    1    0    0    0 -0.46004567752E+01  0.21210905643E+02 -0.21602807824E+02  0.94377328226E+02  0.89271115465E+02 0.  0.
         11    1    3    3    0    0 -0.56058141385E+01  0.63572744784E+01 -0.56135707010E+02  0.56771979820E+02  0.51100000000E-03 0. -1.
         22    1    1    0    0    0  0.46004567752E+01 -0.21210905643E+02  0.21602807824E+02  0.30622671774E+02  0.00000000000E+00 0. -1.
</event>
<event>
 5    1  0.8962782E-005  0.9118800E+02  0.7818608E-02  0.1130116E+00
         25   -1    0    0    0    0  0.00000000000E+00  0.00000000000E+00  0.99999998245E-14  0.12500000000E+03  0.12500000000E+03 0.  0.
        -11    1    3    3    0    0  0.36417965398E+02 -0.45694190036E+02 -0.96135873971E+01  0.59216959308E+02  0.51100000000E-03 0.  1.
         23    2    1    0    0    0  0.23547767092E+02 -0.16526898358E+02  0.73185734181E+01  0.95315033750E+02  0.90574601504E+02 0.  0.
         11    1    3    3    0    0 -0.12870198306E+02  0.29167291678E+02  0.16932160815E+02  0.36098074442E+02  0.51100000000E-03 0. -1.
         22    1    1    0    0    0 -0.23547767092E+02  0.16526898358E+02 -0.73185734181E+01  0.29684966250E+02  0.00000000000E+00 0.  1.
</event>
<event>
 5    1  0.8962782E-005  0.9118800E+02  0.7818608E-02  0.1130116E+00
         25   -1    0    0    0    0  0.00000000000E+00  0.00000000000E+00  0.99999998245E-14  0.12500000000E+03  0.12500000000E+03 0.  0.
        -11    1    3    3    0    0 -0.33394800360E+02  0.11148901837E+02 -0.45737534657E+02  0.57718565298E+02  0.51100000000E-03 0. -1.
         23    2    1    0    0    0  0.55789579862E+00  0.13695315971E+02 -0.21462144820E+02  0.99534403845E+02  0.96221624187E+02 0.  0.
         11    1    3    3    0    0  0.33952696159E+02  0.25464141343E+01  0.24275389837E+02  0.41815838547E+02  0.51100000000E-03 0.  1.
         22    1    1    0    0    0 -0.55789579862E+00 -0.13695315971E+02  0.21462144820E+02  0.25465596155E+02  0.00000000000E+00 0. -1.
</event>
<event>
 5    1  0.8962782E-005  0.9118800E+02  0.7818608E-02  0.1130116E+00
         25   -1    0    0    0    0  0.00000000000E+00  0.00000000000E+00  0.99999998245E-14  0.12500000000E+03  0.12500000000E+03 0.  0.
        -11    1    3    3    0    0  0.35362916842E+02  0.42627494481E+02 -0.77070700670E+01  0.55919925810E+02  0.51100000000E-03 0.  1.
         23    2    1    0    0    0  0.18760688274E+02  0.16695263713E+02  0.16382799098E+02  0.95015147804E+02  0.90159785664E+02 0.  0.
         11    1    3    3    0    0 -0.16602228568E+02 -0.25932230769E+02  0.24089869165E+02  0.39095221994E+02  0.51100000000E-03 0. -1.
         22    1    1    0    0    0 -0.18760688274E+02 -0.16695263713E+02 -0.16382799098E+02  0.29984852196E+02  0.00000000000E+00 0.  1.
</event>
<event>
 5    1  0.8962782E-005  0.9118800E+02  0.7818608E-02  0.1130116E+00
         25   -1    0    0    0    0  0.00000000000E+00  0.00000000000E+00  0.99999998245E-14  0.12500000000E+03  0.12500000000E+03 0.  0.
        -11    1    3    3    0    0 -0.22739028311E+02 -0.24291882720E+02 -0.49137892714E+01  0.33634867324E+02  0.51100000000E-03 0.  1.
         23    2    1    0    0    0  0.31478629909E+02  0.56101294233E+00  0.40271253510E+00  0.93513795817E+02  0.88053670873E+02 0.  0.
         11    1    3    3    0    0  0.54217658220E+02  0.24852895663E+02  0.53165018065E+01  0.59878928493E+02  0.51100000000E-03 0. -1.
         22    1    1    0    0    0 -0.31478629909E+02 -0.56101294233E+00 -0.40271253510E+00  0.31486204183E+02  0.00000000000E+00 0. -1.
</event>
<event>
 5    1  0.8962782E-005  0.9118800E+02  0.7818608E-02  0.1130116E+00
         25   -1    0    0    0    0  0.00000000000E+00  0.00000000000E+00  0.99999998245E-14  0.12500000000E+03  0.12500000000E+03 0.  0.
        -11    1    3    3    0    0  0.35542663322E+02  0.23299119660E+01 -0.44517364407E+02  0.57013201452E+02  0.51100000000E-03 0. -1.
         23    2    1    0    0    0  0.23911122832E+02  0.13194677106E+02 -0.84886395072E+01  0.96401078697E+02  0.92061227855E+02 0.  0.
         11    1    3    3    0    0 -0.11631540490E+02  0.10864765140E+02  0.36028724900E+02  0.39387877245E+02  0.51100000000E-03 0.  1.
         22    1    1    0    0    0 -0.23911122832E+02 -0.13194677106E+02  0.84886395072E+01  0.28598921303E+02  0.00000000000E+00 0. -1.
</event>
<event>
 5    1  0.8962782E-005  0.9118800E+02  0.7818608E-02  0.1130116E+00
         25   -1    0    0    0    0  0.00000000000E+00  0.00000000000E+00  0.99999998245E-14  0.12500000000E+03  0.12500000000E+03 0.  0.
        -11    1    3    3    0    0  0.31194619405E+02 -0.32458011117E+02 -0.36632143757E+02  0.58039130955E+02  0.51100000000E-03 0.  1.
         23    2    1    0    0    0  0.26930924657E+02 -0.59249118898E+01 -0.10588003221E+02  0.95462141310E+02  0.90777394364E+02 0.  0.
         11    1    3    3    0    0 -0.42636947478E+01  0.26533099227E+02  0.26044140536E+02  0.37423010355E+02  0.51100000000E-03 0. -1.
         22    1    1    0    0    0 -0.26930924657E+02  0.59249118898E+01  0.10588003221E+02  0.29537858690E+02  0.00000000000E+00 0.  1.
</event>
<event>
 5    1  0.8962782E-005  0.9118800E+02  0.7818608E-02  0.1130116E+00
         25   -1    0    0    0    0  0.00000000000E+00  0.00000000000E+00  0.99999998245E-14  0.12500000000E+03  0.12500000000E+03 0.  0.
        -11    1    3    3    0    0  0.33335382423E+02 -0.10836033680E+02  0.45502498663E+02  0.57438181831E+02  0.51100000000E-03 0.  1.
         23    2    1    0    0    0  0.14782899985E+02  0.12944616799E+02  0.20359411079E+02  0.96705073679E+02  0.92473068618E+02 0.  0.
         11    1    3    3    0    0 -0.18552482438E+02  0.23780650479E+02 -0.25143087584E+02  0.39266891848E+02  0.51100000000E-03 0. -1.
         22    1    1    0    0    0 -0.14782899985E+02 -0.12944616799E+02 -0.20359411079E+02  0.28294926321E+02  0.00000000000E+00 0.  1.
</event>
<event>
 5    1  0.8962782E-005  0.9118800E+02  0.7818608E-02  0.1130116E+00
         25   -1    0    0    0    0  0.00000000000E+00  0.00000000000E+00  0.99999998245E-14  0.12500000000E+03  0.12500000000E+03 0.  0.
        -11    1    3    3    0    0 -0.24028570587E+02  0.36155624887E+02  0.40424061893E+02  0.59318683360E+02  0.51100000000E-03 0.  1.
         23    2    1    0    0    0 -0.28547079511E+01  0.86335599185E+01  0.26935412445E+02  0.96571068294E+02  0.92291749759E+02 0.  0.
         11    1    3    3    0    0  0.21173862636E+02 -0.27522064969E+02 -0.13488649448E+02  0.37252384934E+02  0.51100000000E-03 0. -1.
         22    1    1    0    0    0  0.28547079511E+01 -0.86335599185E+01 -0.26935412445E+02  0.28428931706E+02  0.00000000000E+00 0.  1.
</event>
<event>
 5    1  0.8962782E-005  0.9118800E+02  0.7818608E-02  0.1130116E+00
         25   -1    0    0    0    0  0.00000000000E+00  0.00000000000E+00  0.99999998245E-14  0.12500000000E+03  0.12500000000E+03 0.  0.
        -11    1    3    3    0    0 -0.76364949582E+01  0.42222489291E+02  0.30854464317E+02  0.52849338933E+02  0.51100000000E-03 0. -1.
         23    2    1    0    0    0  0.15229955185E+02  0.81816148459E+01  0.25480587646E+02  0.94207944154E+02  0.89033623079E+02 0.  0.
         11    1    3    3    0    0  0.22866450143E+02 -0.34040874445E+02 -0.53738766707E+01  0.41358605221E+02  0.51100000000E-03 0.  1.
         22    1    1    0    0    0 -0.15229955185E+02 -0.81816148459E+01 -0.25480587646E+02  0.30792055846E+02  0.00000000000E+00 0. -1.
</event>
<event>
 5    1  0.8962782E-005  0.9118800E+02  0.7818608E-02  0.1130116E+00
         25   -1    0    0    0    0  0.00000000000E+00  0.00000000000E+00  0.99999998245E-14  0.12500000000E+03  0.12500000000E+03 0.  0.
        -11    1    3    3    0    0 -0.28373995684E+02 -0.13847436745E+02 -0.29919931693E+02  0.43497556808E+02  0.51100000000E-03 0.  1.
         23    2    1    0    0    0  0.13479258607E+02  0.16315900669E+02 -0.19692790093E+02  0.96091437101E+02  0.91639834544E+02 0.  0.
         11    1    3    3    0    0  0.41853254291E+02  0.30163337415E+02  0.10227141601E+02  0.52593880293E+02  0.51100000000E-03 0. -1.
         22    1    1    0    0    0 -0.13479258607E+02 -0.16315900669E+02  0.19692790093E+02  0.28908562899E+02  0.00000000000E+00 0. -1.
</event>
<event>
 5    1  0.8962782E-005  0.9118800E+02  0.7818608E-02  0.1130116E+00
         25   -1    0    0    0    0  0.00000000000E+00  0.00000000000E+00  0.99999998245E-14  0.12500000000E+03  0.12500000000E+03 0.  0.
        -11    1    3    3    0    0  0.40301092391E+01  0.24280808619E+01  0.37637015521E+02  0.37929965657E+02  0.51100000000E-03 0.  1.
         23    2    1    0    0    0 -0.70536715737E+00  0.26683138515E+02 -0.13767311823E+02  0.94966247342E+02  0.90091963213E+02 0.  0.
         11    1    3    3    0    0 -0.47354763964E+01  0.24255057654E+02 -0.51404327344E+02  0.57036281685E+02  0.51100000000E-03 0. -1.
         22    1    1    0    0    0  0.70536715737E+00 -0.26683138515E+02  0.13767311823E+02  0.30033752658E+02  0.00000000000E+00 0. -1.
</event>
<event>
 5    1  0.8962782E-005  0.9118800E+02  0.7818608E-02  0.1130116E+00
         25   -1    0    0    0    0  0.00000000000E+00  0.00000000000E+00  0.99999998245E-14  0.12500000000E+03  0.12500000000E+03 0.  0.
        -11    1    3    3    0    0  0.81178258039E+01 -0.16353551978E+01 -0.23329016082E+02  0.24755130256E+02  0.51100000000E-03 0. -1.
         23    2    1    0    0    0  0.48484048415E+02  0.52039905503E+01  0.70419244820E+01  0.75731621006E+02  0.57514391689E+02 0.  0.
         11    1    3    3    0    0  0.40366222611E+02  0.68393457481E+01  0.30370940564E+02  0.50976490749E+02  0.51100000000E-03 0.  1.
         22    1    1    0    0    0 -0.48484048415E+02 -0.52039905503E+01 -0.70419244820E+01  0.49268378994E+02  0.00000000000E+00 0.  1.
</event>
<event>
 4    1  0.8962782E-005  0.9118800E+02  0.7818608E-02  0.1130116E+00
         25   -1    0    0    0    0  0.00000000000E+00  0.00000000000E+00  0.99999998245E-14  0.12500000000E+03  0.12500000000E+03 0.  0.
        -11    1    1    0    0    0 -0.44836565501E+01  0.22343819825E+02 -0.46095957777E+01  0.23250759857E+02  0.51100000000E-03 0.  1.
         11    1    1    0    0    0  0.24926409186E+02  0.10133368869E+02 -0.36607744526E+02  0.45432785509E+02  0.51100000000E-03 0. -1.
         22    1    1    0    0    0 -0.20442752636E+02 -0.32477188694E+02  0.41217340304E+02  0.56316454634E+02  0.00000000000E+00 0. -1.
</event>
<event>
 5    1  0.8962782E-005  0.9118800E+02  0.7818608E-02  0.1130116E+00
         25   -1    0    0    0    0  0.00000000000E+00  0.00000000000E+00  0.99999998245E-14  0.12500000000E+03  0.12500000000E+03 0.  0.
        -11    1    3    3    0    0 -0.15488821231E+02  0.22964969150E+02  0.29170886853E+02  0.40227279690E+02  0.51100000000E-03 0.  1.
         23    2    1    0    0    0  0.28824044792E+02  0.90602989616E+01  0.55125373737E+00  0.94780495435E+02  0.89833868106E+02 0.  0.
         11    1    3    3    0    0  0.44312866023E+02 -0.13904670188E+02 -0.28619633116E+02  0.54553215746E+02  0.51100000000E-03 0. -1.
         22    1    1    0    0    0 -0.28824044792E+02 -0.90602989616E+01 -0.55125373737E+00  0.30219504565E+02  0.00000000000E+00 0.  1.
</event>
<event>
 5    1  0.8962782E-005  0.9118800E+02  0.7818608E-02  0.1130116E+00
         25   -1    0    0    0    0  0.00000000000E+00  0.00000000000E+00  0.99999998245E-14  0.12500000000E+03  0.12500000000E+03 0.  0.
        -11    1    3    3    0    0  0.31833266270E+02 -0.48647762961E+01 -0.18353020285E+02  0.37065566820E+02  0.51100000000E-03 0. -1.
         23    2    1    0    0    0  0.45875218658E+01 -0.25490499834E+02  0.22756137427E+02  0.90523156623E+02  0.83700592327E+02 0.  0.
         11    1    3    3    0    0 -0.27245744404E+02 -0.20625723537E+02  0.41109157712E+02  0.53457589804E+02  0.51100000000E-03 0.  1.
         22    1    1    0    0    0 -0.45875218658E+01  0.25490499834E+02 -0.22756137427E+02  0.34476843377E+02  0.00000000000E+00 0.  1.
</event>
<event>
 5    1  0.8962782E-005  0.9118800E+02  0.7818608E-02  0.1130116E+00
         25   -1    0    0    0    0  0.00000000000E+00  0.00000000000E+00  0.99999998245E-14  0.12500000000E+03  0.12500000000E+03 0.  0.
        -11    1    3    3    0    0  0.40278359095E+02 -0.25422360656E+02  0.26033534838E+01  0.47701363527E+02  0.51100000000E-03 0.  1.
         23    2    1    0    0    0  0.21276072754E+02  0.19038277466E+02 -0.25985753546E+01  0.96331552631E+02  0.91966777467E+02 0.  0.
         11    1    3    3    0    0 -0.19002286341E+02  0.44460638122E+02 -0.52019288384E+01  0.48630189104E+02  0.51100000000E-03 0. -1.
         22    1    1    0    0    0 -0.21276072754E+02 -0.19038277466E+02  0.25985753546E+01  0.28668447369E+02  0.00000000000E+00 0. -1.
</event>
<event>
 5    1  0.8962782E-005  0.9118800E+02  0.7818608E-02  0.1130116E+00
         25   -1    0    0    0    0  0.00000000000E+00  0.00000000000E+00  0.99999998245E-14  0.12500000000E+03  0.12500000000E+03 0.  0.
        -11    1    3    3    0    0  0.18340995696E+02  0.30923271767E+02  0.28505717288E+02  0.45882641361E+02  0.51100000000E-03 0. -1.
         23    2    1    0    0    0 -0.16402698263E+02 -0.27588691615E+01  0.25742172003E+02  0.94351683752E+02  0.89235200107E+02 0.  0.
         11    1    3    3    0    0 -0.34743693959E+02 -0.33682140929E+02 -0.27635452849E+01  0.48469042391E+02  0.51100000000E-03 0.  1.
         22    1    1    0    0    0  0.16402698263E+02  0.27588691615E+01 -0.25742172003E+02  0.30648316248E+02  0.00000000000E+00 0.  1.
</event>
<event>
 5    1  0.8962782E-005  0.9118800E+02  0.7818608E-02  0.1130116E+00
         25   -1    0    0    0    0  0.00000000000E+00  0.00000000000E+00  0.99999998245E-14  0.12500000000E+03  0.12500000000E+03 0.  0.
        -11    1    3    3    0    0  0.55191636337E+01  0.14682618696E+02  0.58265920632E+02  0.60340351063E+02  0.51100000000E-03 0. -1.
         23    2    1    0    0    0 -0.83792833865E+01  0.10673109744E+02  0.28065786327E+02  0.93826036123E+02  0.88495813634E+02 0.  0.
         11    1    3    3    0    0 -0.13898447020E+02 -0.40095089516E+01 -0.30200134306E+02  0.33485685060E+02  0.51100000000E-03 0.  1.
         22    1    1    0    0    0  0.83792833865E+01 -0.10673109744E+02 -0.28065786327E+02  0.31173963877E+02  0.00000000000E+00 0. -1.
</event>
<event>
 5    1  0.8962782E-005  0.9118800E+02  0.7818608E-02  0.1130116E+00
         25   -1    0    0    0    0  0.00000000000E+00  0.00000000000E+00  0.99999998245E-14  0.12500000000E+03  0.12500000000E+03 0.  0.
        -11    1    3    3    0    0 -0.43961061135E+02 -0.84924219506E+01 -0.17625002185E+00  0.44774179959E+02  0.51100000000E-03 0. -1.
         23    2    1    0    0    0 -0.10625739318E+01 -0.27297741017E+02  0.14775250213E+02  0.93941929441E+02  0.88659361379E+02 0.  0.
         11    1    3    3    0    0  0.42898487203E+02 -0.18805319066E+02  0.14951500235E+02  0.49167749481E+02  0.51100000000E-03 0.  1.
         22    1    1    0    0    0  0.10625739318E+01  0.27297741017E+02 -0.14775250213E+02  0.31058070559E+02  0.00000000000E+00 0. -1.
</event>
<event>
 5    1  0.8962782E-005  0.9118800E+02  0.7818608E-02  0.1130116E+00
         25   -1    0    0    0    0  0.00000000000E+00  0.00000000000E+00  0.99999998245E-14  0.12500000000E+03  0.12500000000E+03 0.  0.
        -11    1    3    3    0    0  0.34767820130E+02 -0.24569591613E+01  0.21557732671E+02  0.40982603664E+02  0.51100000000E-03 0.  1.
         23    2    1    0    0    0 -0.15816081575E+02 -0.19254477297E+02 -0.34269943315E+01  0.99847910176E+02  0.96628037050E+02 0.  0.
         11    1    3    3    0    0 -0.50583901704E+02 -0.16797518135E+02 -0.24984727003E+02  0.58865306513E+02  0.51100000000E-03 0. -1.
         22    1    1    0    0    0  0.15816081575E+02  0.19254477297E+02  0.34269943315E+01  0.25152089824E+02  0.00000000000E+00 0. -1.
</event>
<event>
 5    1  0.8962782E-005  0.9118800E+02  0.7818608E-02  0.1130116E+00
         25   -1    0    0    0    0  0.00000000000E+00  0.00000000000E+00  0.99999998245E-14  0.12500000000E+03  0.12500000000E+03 0.  0.
        -11    1    3    3    0    0  0.11329676300E+02 -0.45056061614E+02 -0.10637895346E+02  0.47661043535E+02  0.51100000000E-03 0.  1.
         23    2    1    0    0    0 -0.84995746049E+01 -0.22779997425E+02  0.22239086279E+02  0.92049309420E+02  0.85949562855E+02 0.  0.
         11    1    3    3    0    0 -0.19829250905E+02  0.22276064189E+02  0.32876981625E+02  0.44388265885E+02  0.51100000000E-03 0. -1.
         22    1    1    0    0    0  0.84995746049E+01  0.22779997425E+02 -0.22239086279E+02  0.32950690580E+02  0.00000000000E+00 0.  1.
</event>
<event>
 5    1  0.8962782E-005  0.9118800E+02  0.7818608E-02  0.1130116E+00
         25   -1    0    0    0    0  0.00000000000E+00  0.00000000000E+00  0.99999998245E-14  0.12500000000E+03  0.12500000000E+03 0.  0.
        -11    1    3    3    0    0  0.39795949600E+02  0.27225580262E+02  0.16082472423E+02  0.50829083650E+02  0.51100000000E-03 0. -1.
         23    2    1    0    0    0  0.26327040795E+02 -0.10345932541E+02 -0.54697531267E+01  0.96189071580E+02  0.91772914823E+02 0.  0.
         11    1    3    3    0    0 -0.13468908806E+02 -0.37571512803E+02 -0.21552225549E+02  0.45359987931E+02  0.51100000000E-03 0.  1.
         22    1    1    0    0    0 -0.26327040795E+02  0.10345932541E+02  0.54697531267E+01  0.28810928420E+02  0.00000000000E+00 0. -1.
</event>
<event>
 5    1  0.8962782E-005  0.9118800E+02  0.7818608E-02  0.1130116E+00
         25   -1    0    0    0    0  0.00000000000E+00  0.00000000000E+00  0.99999998245E-14  0.12500000000E+03  0.12500000000E+03 0.  0.
        -11    1    3    3    0    0  0.17799982063E+02 -0.29949964020E+02  0.10877641161E+02  0.36498805237E+02  0.51100000000E-03 0. -1.
         23    2    1    0    0    0 -0.16012386906E+02  0.18789052163E+02 -0.84815519395E+01  0.98897093286E+02  0.95390111236E+02 0.  0.
         11    1    3    3    0    0 -0.33812368968E+02  0.48739016183E+02 -0.19359193100E+02  0.62398288049E+02  0.51100000000E-03 0.  1.
         22    1    1    0    0    0  0.16012386906E+02 -0.18789052163E+02  0.84815519395E+01  0.26102906714E+02  0.00000000000E+00 0.  1.
</event>
<event>
 5    1  0.8962782E-005  0.9118800E+02  0.7818608E-02  0.1130116E+00
         25   -1    0    0    0    0  0.00000000000E+00  0.00000000000E+00  0.99999998245E-14  0.12500000000E+03  0.12500000000E+03 0.  0.
        -11    1    3    3    0    0 -0.49358841982E+02 -0.19056692412E+02 -0.78628518629E+01  0.53490908079E+02  0.51100000000E-03 0. -1.
         23    2    1    0    0    0 -0.17365262181E+02  0.34930951975E+01 -0.23441281985E+02  0.95618921978E+02  0.90993024427E+02 0.  0.
         11    1    3    3    0    0  0.31993579801E+02  0.22549787609E+02 -0.15578430122E+02  0.42128013898E+02  0.51100000000E-03 0.  1.
         22    1    1    0    0    0  0.17365262181E+02 -0.34930951975E+01  0.23441281985E+02  0.29381078022E+02  0.00000000000E+00 0. -1.
</event>
<event>
 5    1  0.8962782E-005  0.9118800E+02  0.7818608E-02  0.1130116E+00
         25   -1    0    0    0    0  0.00000000000E+00  0.00000000000E+00  0.99999998245E-14  0.12500000000E+03  0.12500000000E+03 0.  0.
        -11    1    3    3    0    0  0.28088672371E+02 -0.15154026990E+01  0.48372523481E+02  0.55956867220E+02  0.51100000000E-03 0.  1.
         23    2    1    0    0    0  0.56782632246E+01  0.18219367548E+02  0.22764407261E+02  0.95294676150E+02  0.90546502072E+02 0.  0.
         11    1    3    3    0    0 -0.22410409147E+02  0.19734770247E+02 -0.25608116220E+02  0.39337808930E+02  0.51100000000E-03 0. -1.
         22    1    1    0    0    0 -0.56782632246E+01 -0.18219367548E+02 -0.22764407261E+02  0.29705323850E+02  0.00000000000E+00 0.  1.
</event>
<event>
 5    1  0.8962782E-005  0.9118800E+02  0.7818608E-02  0.1130116E+00
         25   -1    0    0    0    0  0.00000000000E+00  0.00000000000E+00  0.99999998245E-14  0.12500000000E+03  0.12500000000E+03 0.  0.
        -11    1    3    3    0    0  0.22890384727E+02 -0.62913310343E+01  0.27401146968E+02  0.36254288223E+02  0.51100000000E-03 0.  1.
         23    2    1    0    0    0 -0.20341630708E+02  0.23867817521E+02  0.64149942626E+01  0.92990520084E+02  0.87307674468E+02 0.  0.
         11    1    3    3    0    0 -0.43232015435E+02  0.30159148556E+02 -0.20986152705E+02  0.56736231861E+02  0.51100000000E-03 0. -1.
         22    1    1    0    0    0  0.20341630708E+02 -0.23867817521E+02 -0.64149942626E+01  0.32009479916E+02  0.00000000000E+00 0. -1.
</event>
<event>
 5    1  0.8962782E-005  0.9118800E+02  0.7818608E-02  0.1130116E+00
         25   -1    0    0    0    0  0.00000000000E+00  0.00000000000E+00  0.99999998245E-14  0.12500000000E+03  0.12500000000E+03 0.  0.
        -11    1    3    3    0    0 -0.32307710072E+02  0.25533062768E+02 -0.65881614053E+00  0.41184456575E+02  0.51100000000E-03 0.  1.
         23    2    1    0    0    0 -0.14437355643E+02 -0.25505547209E+02  0.38086279876E+01  0.95445375598E+02  0.90754305129E+02 0.  0.
         11    1    3    3    0    0  0.17870354430E+02 -0.51038609978E+02  0.44674441282E+01  0.54260919023E+02  0.51100000000E-03 0. -1.
         22    1    1    0    0    0  0.14437355643E+02  0.25505547209E+02 -0.38086279876E+01  0.29554624402E+02  0.00000000000E+00 0. -1.
</event>
<event>
 5    1  0.8962782E-005  0.9118800E+02  0.7818608E-02  0.1130116E+00
         25   -1    0    0    0    0  0.00000000000E+00  0.00000000000E+00  0.99999998245E-14  0.12500000000E+03  0.12500000000E+03 0.  0.
        -11    1    3    3    0    0  0.24251301122E+02  0.15066984551E+02  0.40629271818E+02  0.49657601214E+02  0.51100000000E-03 0. -1.
         23    2    1    0    0    0  0.49789834559E+01 -0.19049361743E+02  0.27890580432E+02  0.90859804689E+02  0.84201847796E+02 0.  0.
         11    1    3    3    0    0 -0.19272317666E+02 -0.34116346294E+02 -0.12738691386E+02  0.41202203475E+02  0.51100000000E-03 0.  1.
         22    1    1    0    0    0 -0.49789834559E+01  0.19049361743E+02 -0.27890580432E+02  0.34140195311E+02  0.00000000000E+00 0. -1.
</event>
<event>
 5    1  0.8962782E-005  0.9118800E+02  0.7818608E-02  0.1130116E+00
         25   -1    0    0    0    0  0.00000000000E+00  0.00000000000E+00  0.99999998245E-14  0.12500000000E+03  0.12500000000E+03 0.  0.
        -11    1    3    3    0    0  0.20881369093E+02  0.35287079799E+02  0.36711408845E+02  0.55035780322E+02  0.51100000000E-03 0. -1.
         23    2    1    0    0    0  0.12731901335E+02  0.25860861638E+02 -0.23913216778E+01  0.96075894212E+02  0.91618631037E+02 0.  0.
         11    1    3    3    0    0 -0.81494677581E+01 -0.94262181614E+01 -0.39102730523E+02  0.41040113891E+02  0.51100000000E-03 0.  1.
         22    1    1    0    0    0 -0.12731901335E+02 -0.25860861638E+02  0.23913216778E+01  0.28924105788E+02  0.00000000000E+00 0. -1.
</event>
<event>
 5    1  0.8962782E-005  0.9118800E+02  0.7818608E-02  0.1130116E+00
         25   -1    0    0    0    0  0.00000000000E+00  0.00000000000E+00  0.99999998245E-14  0.12500000000E+03  0.12500000000E+03 0.  0.
        -11    1    3    3    0    0 -0.26865911101E+01 -0.33008724955E+02  0.18997656019E+01  0.33172319855E+02  0.51100000000E-03 0.  1.
         23    2    1    0    0    0  0.18523748922E+02  0.23341445164E+02 -0.78943320825E+01  0.94173504651E+02  0.88985258120E+02 0.  0.
         11    1    3    3    0    0  0.21210340032E+02  0.56350170120E+02 -0.97940976844E+01  0.61001184796E+02  0.51100000000E-03 0. -1.
         22    1    1    0    0    0 -0.18523748922E+02 -0.23341445164E+02  0.78943320825E+01  0.30826495349E+02  0.00000000000E+00 0. -1.
</event>
<event>
 5    1  0.8962782E-005  0.9118800E+02  0.7818608E-02  0.1130116E+00
         25   -1    0    0    0    0  0.00000000000E+00  0.00000000000E+00  0.99999998245E-14  0.12500000000E+03  0.12500000000E+03 0.  0.
        -11    1    3    3    0    0 -0.14964249346E+02  0.51735559947E+02 -0.27546801944E+02  0.60492340169E+02  0.51100000000E-03 0.  1.
         23    2    1    0    0    0 -0.17943980251E+02  0.23665288459E+02 -0.10333818251E+02  0.93554489912E+02  0.88111420814E+02 0.  0.
         11    1    3    3    0    0 -0.29797309048E+01 -0.28070271489E+02  0.17212983693E+02  0.33062149742E+02  0.51100000000E-03 0. -1.
         22    1    1    0    0    0  0.17943980251E+02 -0.23665288459E+02  0.10333818251E+02  0.31445510088E+02  0.00000000000E+00 0.  1.
</event>
<event>
 5    1  0.8962782E-005  0.9118800E+02  0.7818608E-02  0.1130116E+00
         25   -1    0    0    0    0  0.00000000000E+00  0.00000000000E+00  0.99999998245E-14  0.12500000000E+03  0.12500000000E+03 0.  0.
        -11    1    3    3    0    0  0.16020424355E+02  0.90292056426E+00 -0.29743458523E+02  0.33795600116E+02  0.51100000000E-03 0. -1.
         23    2    1    0    0    0 -0.22293816869E+02  0.16503636114E+02  0.13937938429E+02  0.93957280995E+02  0.88681002750E+02 0.  0.
         11    1    3    3    0    0 -0.38314241224E+02  0.15600715549E+02  0.43681396952E+02  0.60161680879E+02  0.51100000000E-03 0.  1.
         22    1    1    0    0    0  0.22293816869E+02 -0.16503636114E+02 -0.13937938429E+02  0.31042719005E+02  0.00000000000E+00 0.  1.
</event>
<event>
 5    1  0.8962782E-005  0.9118800E+02  0.7818608E-02  0.1130116E+00
         25   -1    0    0    0    0  0.00000000000E+00  0.00000000000E+00  0.99999998245E-14  0.12500000000E+03  0.12500000000E+03 0.  0.
        -11    1    3    3    0    0 -0.19033982952E+02  0.24528193807E+02  0.21734010778E+02  0.37898443546E+02  0.51100000000E-03 0.  1.
         23    2    1    0    0    0 -0.82668819339E+01 -0.51767835642E+01 -0.27176041081E+02  0.96126523697E+02  0.91687681420E+02 0.  0.
         11    1    3    3    0    0  0.10767101018E+02 -0.29704977371E+02 -0.48910051859E+02  0.58228080151E+02  0.51100000000E-03 0. -1.
         22    1    1    0    0    0  0.82668819339E+01  0.51767835642E+01  0.27176041081E+02  0.28873476303E+02  0.00000000000E+00 0. -1.
</event>
<event>
 5    1  0.8962782E-005  0.9118800E+02  0.7818608E-02  0.1130116E+00
         25   -1    0    0    0    0  0.00000000000E+00  0.00000000000E+00  0.99999998245E-14  0.12500000000E+03  0.12500000000E+03 0.  0.
        -11    1    3    3    0    0 -0.77460269857E+01 -0.12548751278E+02  0.46219500038E+02  0.48515093288E+02  0.51100000000E-03 0. -1.
         23    2    1    0    0    0  0.23593345561E+02 -0.99420509763E+01  0.76523217330E+01  0.98278316664E+02  0.94575785305E+02 0.  0.
         11    1    3    3    0    0  0.31339372547E+02  0.26067003016E+01 -0.38567178305E+02  0.49763223376E+02  0.51100000000E-03 0.  1.
         22    1    1    0    0    0 -0.23593345561E+02  0.99420509763E+01 -0.76523217330E+01  0.26721683336E+02  0.00000000000E+00 0.  1.
</event>
<event>
 5    1  0.8962782E-005  0.9118800E+02  0.7818608E-02  0.1130116E+00
         25   -1    0    0    0    0  0.00000000000E+00  0.00000000000E+00  0.99999998245E-14  0.12500000000E+03  0.12500000000E+03 0.  0.
        -11    1    3    3    0    0 -0.26727131424E+02  0.16676281213E+02  0.85462158134E+01  0.32641625485E+02  0.51100000000E-03 0. -1.
         23    2    1    0    0    0  0.28308627964E+02 -0.89640035364E+01 -0.50989150301E+01  0.94871430317E+02  0.89960311134E+02 0.  0.
         11    1    3    3    0    0  0.55035759389E+02 -0.25640284750E+02 -0.13645130844E+02  0.62229804833E+02  0.51100000000E-03 0.  1.
         22    1    1    0    0    0 -0.28308627964E+02  0.89640035364E+01  0.50989150301E+01  0.30128569683E+02  0.00000000000E+00 0.  1.
</event>
<event>
 5    1  0.8962782E-005  0.9118800E+02  0.7818608E-02  0.1130116E+00
         25   -1    0    0    0    0  0.00000000000E+00  0.00000000000E+00  0.99999998245E-14  0.12500000000E+03  0.12500000000E+03 0.  0.
        -11    1    3    3    0    0  0.49090565605E+02 -0.10373119420E+02  0.99416160595E+01  0.51149985025E+02  0.51100000000E-03 0. -1.
         23    2    1    0    0    0  0.77912718099E+01 -0.18256665883E+02  0.22466415400E+02  0.95020847469E+02  0.90167687490E+02 0.  0.
         11    1    3    3    0    0 -0.41299293795E+02 -0.78835464625E+01  0.12524799340E+02  0.43870862444E+02  0.51100000000E-03 0.  1.
         22    1    1    0    0    0 -0.77912718099E+01  0.18256665883E+02 -0.22466415400E+02  0.29979152531E+02  0.00000000000E+00 0. -1.
</event>
<event>
 5    1  0.8962782E-005  0.9118800E+02  0.7818608E-02  0.1130116E+00
         25   -1    0    0    0    0  0.00000000000E+00  0.00000000000E+00  0.99999998245E-14  0.12500000000E+03  0.12500000000E+03 0.  0.
        -11    1    3    3    0    0  0.22511638394E+02  0.24475561088E+02 -0.25844089022E+02  0.42115838961E+02  0.51100000000E-03 0. -1.
         23    2    1    0    0    0  0.56362810069E+01 -0.24497953545E+02 -0.16970631857E+02  0.94669821348E+02  0.89679737605E+02 0.  0.
         11    1    3    3    0    0 -0.16875357387E+02 -0.48973514632E+02  0.88734571650E+01  0.52553982387E+02  0.51100000000E-03 0.  1.
         22    1    1    0    0    0 -0.56362810069E+01  0.24497953545E+02  0.16970631857E+02  0.30330178652E+02  0.00000000000E+00 0.  1.
</event>
<event>
 5    1  0.8962782E-005  0.9118800E+02  0.7818608E-02  0.1130116E+00
         25   -1    0    0    0    0  0.00000000000E+00  0.00000000000E+00  0.99999998245E-14  0.12500000000E+03  0.12500000000E+03 0.  0.
        -11    1    3    3    0    0 -0.36197875250E+02 -0.47457541791E+01 -0.11511617451E+02  0.38279572776E+02  0.51100000000E-03 0. -1.
         23    2    1    0    0    0  0.11997938122E+02 -0.21418177577E+02  0.15477142999E+02  0.95978786977E+02  0.91486046719E+02 0.  0.
         11    1    3    3    0    0  0.48195813371E+02 -0.16672423398E+02  0.26988760451E+02  0.57699214201E+02  0.51100000000E-03 0.  1.
         22    1    1    0    0    0 -0.11997938122E+02  0.21418177577E+02 -0.15477142999E+02  0.29021213023E+02  0.00000000000E+00 0. -1.
</event>
<event>
 5    1  0.8962782E-005  0.9118800E+02  0.7818608E-02  0.1130116E+00
         25   -1    0    0    0    0  0.00000000000E+00  0.00000000000E+00  0.99999998245E-14  0.12500000000E+03  0.12500000000E+03 0.  0.
        -11    1    3    3    0    0  0.23269258628E+02 -0.12502036438E+02  0.39833843427E+02  0.47796384744E+02  0.51100000000E-03 0. -1.
         23    2    1    0    0    0 -0.19333847103E+02 -0.12867407672E+02  0.17645988305E+02  0.95832402785E+02  0.91285818703E+02 0.  0.
         11    1    3    3    0    0 -0.42603105731E+02 -0.36537123470E+00 -0.22187855122E+02  0.48036018041E+02  0.51100000000E-03 0.  1.
         22    1    1    0    0    0  0.19333847103E+02  0.12867407672E+02 -0.17645988305E+02  0.29167597215E+02  0.00000000000E+00 0. -1.
</event>
<event>
 5    1  0.8962782E-005  0.9118800E+02  0.7818608E-02  0.1130116E+00
         25   -1    0    0    0    0  0.00000000000E+00  0.00000000000E+00  0.99999998245E-14  0.12500000000E+03  0.12500000000E+03 0.  0.
        -11    1    3    3    0    0 -0.27413397317E+02 -0.11004257946E+02  0.25229495865E+02  0.38847335909E+02  0.51100000000E-03 0.  1.
         23    2    1    0    0    0 -0.80776235330E+01  0.24121968424E+02 -0.14853296661E+02  0.95542610701E+02  0.90888132753E+02 0.  0.
         11    1    3    3    0    0  0.19335773784E+02  0.35126226370E+02 -0.40082792526E+02  0.56695274792E+02  0.51100000000E-03 0. -1.
         22    1    1    0    0    0  0.80776235330E+01 -0.24121968424E+02  0.14853296661E+02  0.29457389299E+02  0.00000000000E+00 0.  1.
</event>
<event>
 5    1  0.8962782E-005  0.9118800E+02  0.7818608E-02  0.1130116E+00
         25   -1    0    0    0    0  0.00000000000E+00  0.00000000000E+00  0.99999998245E-14  0.12500000000E+03  0.12500000000E+03 0.  0.
        -11    1    3    3    0    0  0.37385850453E+02  0.75846870598E+01  0.98416119330E+00  0.38160160710E+02  0.51100000000E-03 0.  1.
         23    2    1    0    0    0 -0.18466789583E+02  0.50238454585E+01  0.20097365758E+02  0.97248145087E+02  0.93204271746E+02 0.  0.
         11    1    3    3    0    0 -0.55852640036E+02 -0.25608416013E+01  0.19113204565E+02  0.59087984377E+02  0.51100000000E-03 0. -1.
         22    1    1    0    0    0  0.18466789583E+02 -0.50238454585E+01 -0.20097365758E+02  0.27751854913E+02  0.00000000000E+00 0. -1.
</event>
<event>
 5    1  0.8962782E-005  0.9118800E+02  0.7818608E-02  0.1130116E+00
         25   -1    0    0    0    0  0.00000000000E+00  0.00000000000E+00  0.99999998245E-14  0.12500000000E+03  0.12500000000E+03 0.  0.
        -11    1    3    3    0    0 -0.38443793817E+02 -0.31627905204E+02  0.17340284870E+02  0.52715606326E+02  0.51100000000E-03 0.  1.
         23    2    1    0    0    0 -0.22740694065E+02  0.48841361404E+01  0.22309894936E+02  0.92770737451E+02  0.86992438538E+02 0.  0.
         11    1    3    3    0    0  0.15703099753E+02  0.36512041345E+02  0.49696100665E+01  0.40055131125E+02  0.51100000000E-03 0. -1.
         22    1    1    0    0    0  0.22740694065E+02 -0.48841361404E+01 -0.22309894936E+02  0.32229262549E+02  0.00000000000E+00 0.  1.
</event>
<event>
 5    1  0.8962782E-005  0.9118800E+02  0.7818608E-02  0.1130116E+00
         25   -1    0    0    0    0  0.00000000000E+00  0.00000000000E+00  0.99999998245E-14  0.12500000000E+03  0.12500000000E+03 0.  0.
        -11    1    3    3    0    0  0.37983788616E+02  0.31076186958E+02 -0.32162754896E+02  0.58676574510E+02  0.51100000000E-03 0. -1.
         23    2    1    0    0    0  0.26650593486E+02  0.14509774052E+02 -0.24192208124E+01  0.94559232836E+02  0.89525461233E+02 0.  0.
         11    1    3    3    0    0 -0.11333195130E+02 -0.16566412906E+02  0.29743534084E+02  0.35882658325E+02  0.51100000000E-03 0.  1.
         22    1    1    0    0    0 -0.26650593486E+02 -0.14509774052E+02  0.24192208124E+01  0.30440767164E+02  0.00000000000E+00 0. -1.
</event>
<event>
 5    1  0.8962782E-005  0.9118800E+02  0.7818608E-02  0.1130116E+00
         25   -1    0    0    0    0  0.00000000000E+00  0.00000000000E+00  0.99999998245E-14  0.12500000000E+03  0.12500000000E+03 0.  0.
        -11    1    3    3    0    0  0.29903271633E+01  0.38430875858E+02 -0.82882335613E+00  0.38555949271E+02  0.51100000000E-03 0.  1.
         23    2    1    0    0    0  0.27278466741E+02 -0.11730317768E+02  0.60043802843E+01  0.94705319191E+02  0.89729202592E+02 0.  0.
         11    1    3    3    0    0  0.24288139578E+02 -0.50161193626E+02  0.68332036404E+01  0.56149369920E+02  0.51100000000E-03 0. -1.
         22    1    1    0    0    0 -0.27278466741E+02  0.11730317768E+02 -0.60043802843E+01  0.30294680809E+02  0.00000000000E+00 0. -1.
</event>
<event>
 5    1  0.8962782E-005  0.9118800E+02  0.7818608E-02  0.1130116E+00
         25   -1    0    0    0    0  0.00000000000E+00  0.00000000000E+00  0.99999998245E-14  0.12500000000E+03  0.12500000000E+03 0.  0.
        -11    1    3    3    0    0  0.33757559484E+01  0.15394132574E+02  0.49188987924E+02  0.51652023960E+02  0.51100000000E-03 0.  1.
         23    2    1    0    0    0 -0.11761174640E+02 -0.15521510934E+02  0.22730583356E+02  0.95068044663E+02  0.90233093518E+02 0.  0.
         11    1    3    3    0    0 -0.15136930588E+02 -0.30915643508E+02 -0.26458404568E+02  0.43416020703E+02  0.51100000000E-03 0. -1.
         22    1    1    0    0    0  0.11761174640E+02  0.15521510934E+02 -0.22730583356E+02  0.29931955337E+02  0.00000000000E+00 0.  1.
</event>
<event>
 5    1  0.8962782E-005  0.9118800E+02  0.7818608E-02  0.1130116E+00
         25   -1    0    0    0    0  0.00000000000E+00  0.00000000000E+00  0.99999998245E-14  0.12500000000E+03  0.12500000000E+03 0.  0.
        -11    1    3    3    0    0  0.16463229613E+02  0.32118468632E+02 -0.15399178884E+02  0.39239886176E+02  0.51100000000E-03 0. -1.
         23    2    1    0    0    0  0.14678657279E+00 -0.23952073992E+02 -0.13140187211E+02  0.97679899071E+02  0.93781526794E+02 0.  0.
         11    1    3    3    0    0 -0.16316443040E+02 -0.56070542623E+02  0.22589916732E+01  0.58440012895E+02  0.51100000000E-03 0.  1.
         22    1    1    0    0    0 -0.14678657279E+00  0.23952073992E+02  0.13140187211E+02  0.27320100929E+02  0.00000000000E+00 0.  1.
</event>
<event>
 5    1  0.8962782E-005  0.9118800E+02  0.7818608E-02  0.1130116E+00
         25   -1    0    0    0    0  0.00000000000E+00  0.00000000000E+00  0.99999998245E-14  0.12500000000E+03  0.12500000000E+03 0.  0.
        -11    1    3    3    0    0 -0.17643813121E+02  0.14953044578E+02 -0.24770462906E+02  0.33889135670E+02  0.51100000000E-03 0. -1.
         23    2    1    0    0    0 -0.22273707623E+01 -0.35602869251E+01  0.30515828105E+02  0.94196549082E+02  0.89017623370E+02 0.  0.
         11    1    3    3    0    0  0.15416442359E+02 -0.18513331503E+02  0.55286291012E+02  0.60307413412E+02  0.51100000000E-03 0.  1.
         22    1    1    0    0    0  0.22273707623E+01  0.35602869251E+01 -0.30515828105E+02  0.30803450918E+02  0.00000000000E+00 0.  1.
</event>
<event>
 5    1  0.8962782E-005  0.9118800E+02  0.7818608E-02  0.1130116E+00
         25   -1    0    0    0    0  0.00000000000E+00  0.00000000000E+00  0.99999998245E-14  0.12500000000E+03  0.12500000000E+03 0.  0.
        -11    1    3    3    0    0  0.30082078512E+02  0.23592298300E+02  0.10828623321E+02  0.39733953616E+02  0.51100000000E-03 0.  1.
         23    2    1    0    0    0 -0.24872129637E+02  0.14679810682E+02  0.27715030087E+01  0.95986194609E+02  0.91496167419E+02 0.  0.
         11    1    3    3    0    0 -0.54954208149E+02 -0.89124876171E+01 -0.80571203123E+01  0.56252240993E+02  0.51100000000E-03 0. -1.
         22    1    1    0    0    0  0.24872129637E+02 -0.14679810682E+02 -0.27715030087E+01  0.29013805391E+02  0.00000000000E+00 0. -1.
</event>
<event>
 5    1  0.8962782E-005  0.9118800E+02  0.7818608E-02  0.1130116E+00
         25   -1    0    0    0    0  0.00000000000E+00  0.00000000000E+00  0.99999998245E-14  0.12500000000E+03  0.12500000000E+03 0.  0.
        -11    1    3    3    0    0 -0.30318686302E+02  0.25336658797E+02 -0.33779209067E+02  0.51982727742E+02  0.51100000000E-03 0.  1.
         23    2    1    0    0    0 -0.16518483307E+01 -0.47669204608E+01 -0.30942647303E+02  0.93648771065E+02  0.88245072193E+02 0.  0.
         11    1    3    3    0    0  0.28666837971E+02 -0.30103579257E+02  0.28365617639E+01  0.41666043324E+02  0.51100000000E-03 0. -1.
         22    1    1    0    0    0  0.16518483307E+01  0.47669204608E+01  0.30942647303E+02  0.31351228935E+02  0.00000000000E+00 0.  1.
</event>
<event>
 5    1  0.8962782E-005  0.9118800E+02  0.7818608E-02  0.1130116E+00
         25   -1    0    0    0    0  0.00000000000E+00  0.00000000000E+00  0.99999998245E-14  0.12500000000E+03  0.12500000000E+03 0.  0.
        -11    1    3    3    0    0  0.57713604136E+02 -0.17554875271E+02  0.39574171040E+01  0.60454072638E+02  0.51100000000E-03 0.  1.
         23    2    1    0    0    0  0.22068015674E+02 -0.17772892066E+02  0.55104229653E+01  0.96134141803E+02  0.91698066778E+02 0.  0.
         11    1    3    3    0    0 -0.35645588462E+02 -0.21801679467E+00  0.15530058614E+01  0.35680069165E+02  0.51100000000E-03 0. -1.
         22    1    1    0    0    0 -0.22068015674E+02  0.17772892066E+02 -0.55104229653E+01  0.28865858197E+02  0.00000000000E+00 0.  1.
</event>
<event>
 5    1  0.8962782E-005  0.9118800E+02  0.7818608E-02  0.1130116E+00
         25   -1    0    0    0    0  0.00000000000E+00  0.00000000000E+00  0.99999998245E-14  0.12500000000E+03  0.12500000000E+03 0.  0.
        -11    1    3    3    0    0  0.56644861487E+02  0.12759734860E+02  0.96993250339E+01  0.58868735955E+02  0.51100000000E-03 0.  1.
         23    2    1    0    0    0  0.34782328938E+02  0.13085552960E+02 -0.79842033284E+01  0.86989611875E+02  0.78245785629E+02 0.  0.
         11    1    3    3    0    0 -0.21862532549E+02  0.32581809956E+00 -0.17683528362E+02  0.28120875920E+02  0.51100000000E-03 0. -1.
         22    1    1    0    0    0 -0.34782328938E+02 -0.13085552960E+02  0.79842033284E+01  0.38010388125E+02  0.00000000000E+00 0.  1.
</event>
<event>
 5    1  0.8962782E-005  0.9118800E+02  0.7818608E-02  0.1130116E+00
         25   -1    0    0    0    0  0.00000000000E+00  0.00000000000E+00  0.99999998245E-14  0.12500000000E+03  0.12500000000E+03 0.  0.
        -11    1    3    3    0    0  0.30097787791E+02 -0.33544594637E+00  0.48815526832E+02  0.57349324443E+02  0.51100000000E-03 0.  1.
         23    2    1    0    0    0  0.27084984510E+02  0.15401792732E+01  0.10372303947E+02  0.95956012201E+02  0.91454923597E+02 0.  0.
         11    1    3    3    0    0 -0.30128032806E+01  0.18756252196E+01 -0.38443222885E+02  0.38606687758E+02  0.51100000000E-03 0. -1.
         22    1    1    0    0    0 -0.27084984510E+02 -0.15401792732E+01 -0.10372303947E+02  0.29043987799E+02  0.00000000000E+00 0.  1.
</event>
<event>
 5    1  0.8962782E-005  0.9118800E+02  0.7818608E-02  0.1130116E+00
         25   -1    0    0    0    0  0.00000000000E+00  0.00000000000E+00  0.99999998245E-14  0.12500000000E+03  0.12500000000E+03 0.  0.
        -11    1    3    3    0    0 -0.58515636229E+01 -0.42517271708E+02  0.15285778510E+02  0.45558909285E+02  0.51100000000E-03 0. -1.
         23    2    1    0    0    0  0.13658815501E+02 -0.51137876857E+01 -0.19785884845E+02  0.10041961545E+03  0.97364797865E+02 0.  0.
         11    1    3    3    0    0  0.19510379124E+02  0.37403484022E+02 -0.35071663355E+02  0.54860706168E+02  0.51100000000E-03 0.  1.
         22    1    1    0    0    0 -0.13658815501E+02  0.51137876857E+01  0.19785884845E+02  0.24580384547E+02  0.00000000000E+00 0.  1.
</event>
<event>
 5    1  0.8962782E-005  0.9118800E+02  0.7818608E-02  0.1130116E+00
         25   -1    0    0    0    0  0.00000000000E+00  0.00000000000E+00  0.99999998245E-14  0.12500000000E+03  0.12500000000E+03 0.  0.
        -11    1    3    3    0    0 -0.14265608252E+02  0.38154833434E+02  0.78678688395E+01  0.41487374628E+02  0.51100000000E-03 0.  1.
         23    2    1    0    0    0 -0.17144965894E+02 -0.13851509612E+00 -0.26774989370E+02  0.93205832332E+02  0.87615398664E+02 0.  0.
         11    1    3    3    0    0 -0.28793576419E+01 -0.38293348530E+02 -0.34642858209E+02  0.51718457704E+02  0.51100000000E-03 0. -1.
         22    1    1    0    0    0  0.17144965894E+02  0.13851509612E+00  0.26774989370E+02  0.31794167668E+02  0.00000000000E+00 0.  1.
</event>
<event>
 5    1  0.8962782E-005  0.9118800E+02  0.7818608E-02  0.1130116E+00
         25   -1    0    0    0    0  0.00000000000E+00  0.00000000000E+00  0.99999998245E-14  0.12500000000E+03  0.12500000000E+03 0.  0.
        -11    1    3    3    0    0 -0.28040499779E+02 -0.28192319282E+01  0.49327145430E+02  0.56810078094E+02  0.51100000000E-03 0. -1.
         23    2    1    0    0    0  0.13114324744E+01  0.10134152102E+02  0.27629500460E+02  0.95541381743E+02  0.90886442530E+02 0.  0.
         11    1    3    3    0    0  0.29351932253E+02  0.12953384030E+02 -0.21697644970E+02  0.38731303649E+02  0.51100000000E-03 0.  1.
         22    1    1    0    0    0 -0.13114324744E+01 -0.10134152102E+02 -0.27629500460E+02  0.29458618257E+02  0.00000000000E+00 0. -1.
</event>
<event>
 5    1  0.8962782E-005  0.9118800E+02  0.7818608E-02  0.1130116E+00
         25   -1    0    0    0    0  0.00000000000E+00  0.00000000000E+00  0.99999998245E-14  0.12500000000E+03  0.12500000000E+03 0.  0.
        -11    1    3    3    0    0 -0.35908243547E+02 -0.53576015283E+01 -0.15818004387E+02  0.39601958435E+02  0.51100000000E-03 0.  1.
         23    2    1    0    0    0  0.12335397620E+02  0.24299157945E+02 -0.39180337989E+01  0.97468888505E+02  0.93499850943E+02 0.  0.
         11    1    3    3    0    0  0.48243641167E+02  0.29656759473E+02  0.11899970589E+02  0.57866930071E+02  0.51100000000E-03 0. -1.
         22    1    1    0    0    0 -0.12335397620E+02 -0.24299157945E+02  0.39180337989E+01  0.27531111495E+02  0.00000000000E+00 0. -1.
</event>
<event>
 5    1  0.8962782E-005  0.9118800E+02  0.7818608E-02  0.1130116E+00
         25   -1    0    0    0    0  0.00000000000E+00  0.00000000000E+00  0.99999998245E-14  0.12500000000E+03  0.12500000000E+03 0.  0.
        -11    1    3    3    0    0 -0.24398209115E+02 -0.37604985790E+02 -0.42448720996E+02  0.61735739072E+02  0.51100000000E-03 0.  1.
         23    2    1    0    0    0 -0.10015844119E+02 -0.23070999457E+02 -0.15905563911E+02  0.95241385908E+02  0.90472904656E+02 0.  0.
         11    1    3    3    0    0  0.14382364996E+02  0.14533986333E+02  0.26543157085E+02  0.33505646836E+02  0.51100000000E-03 0. -1.
         22    1    1    0    0    0  0.10015844119E+02  0.23070999457E+02  0.15905563911E+02  0.29758614092E+02  0.00000000000E+00 0.  1.
</event>
<event>
 5    1  0.8962782E-005  0.9118800E+02  0.7818608E-02  0.1130116E+00
         25   -1    0    0    0    0  0.00000000000E+00  0.00000000000E+00  0.99999998245E-14  0.12500000000E+03  0.12500000000E+03 0.  0.
        -11    1    3    3    0    0 -0.20314223100E+01 -0.30691141907E+02 -0.15706078813E+02  0.34536267605E+02  0.51100000000E-03 0.  1.
         23    2    1    0    0    0 -0.11118409408E+02  0.26885198380E+02  0.29973290048E+01  0.95752488980E+02  0.91176325025E+02 0.  0.
         11    1    3    3    0    0 -0.90869870981E+01  0.57576340286E+02  0.18703407817E+02  0.61216221376E+02  0.51100000000E-03 0. -1.
         22    1    1    0    0    0  0.11118409408E+02 -0.26885198380E+02 -0.29973290048E+01  0.29247511020E+02  0.00000000000E+00 0. -1.
</event>
<event>
 5    1  0.8962782E-005  0.9118800E+02  0.7818608E-02  0.1130116E+00
         25   -1    0    0    0    0  0.00000000000E+00  0.00000000000E+00  0.99999998245E-14  0.12500000000E+03  0.12500000000E+03 0.  0.
        -11    1    3    3    0    0  0.28588607596E+02  0.23940711112E+02  0.79761796413E+01  0.38132474018E+02  0.51100000000E-03 0.  1.
         23    2    1    0    0    0 -0.19559607467E+02 -0.53377418142E+01  0.20830609756E+02  0.95931390905E+02  0.91421265175E+02 0.  0.
         11    1    3    3    0    0 -0.48148215062E+02 -0.29278452926E+02  0.12854430115E+02  0.57798916887E+02  0.51100000000E-03 0. -1.
         22    1    1    0    0    0  0.19559607467E+02  0.53377418142E+01 -0.20830609756E+02  0.29068609095E+02  0.00000000000E+00 0. -1.
</event>
<event>
 5    1  0.8962782E-005  0.9118800E+02  0.7818608E-02  0.1130116E+00
         25   -1    0    0    0    0  0.00000000000E+00  0.00000000000E+00  0.99999998245E-14  0.12500000000E+03  0.12500000000E+03 0.  0.
        -11    1    3    3    0    0  0.11217869162E+02 -0.41119653807E+02  0.27283055798E+02  0.50606636439E+02  0.51100000000E-03 0.  1.
         23    2    1    0    0    0  0.94617508277E+01  0.26279031813E+01  0.28958849406E+02  0.94421485275E+02  0.89332924047E+02 0.  0.
         11    1    3    3    0    0 -0.17561183343E+01  0.43747556988E+02  0.16757936082E+01  0.43814848836E+02  0.51100000000E-03 0. -1.
         22    1    1    0    0    0 -0.94617508277E+01 -0.26279031813E+01 -0.28958849406E+02  0.30578514725E+02  0.00000000000E+00 0.  1.
</event>
<event>
 5    1  0.8962782E-005  0.9118800E+02  0.7818608E-02  0.1130116E+00
         25   -1    0    0    0    0  0.00000000000E+00  0.00000000000E+00  0.99999998245E-14  0.12500000000E+03  0.12500000000E+03 0.  0.
        -11    1    3    3    0    0  0.17976617172E+02  0.66400620825E+00 -0.30262728722E+02  0.35205573694E+02  0.51100000000E-03 0.  1.
         23    2    1    0    0    0 -0.13876857185E+02  0.26177078935E+01  0.23416516811E+02  0.97654930617E+02  0.93748240807E+02 0.  0.
         11    1    3    3    0    0 -0.31853474357E+02  0.19537016853E+01  0.53679245533E+02  0.62449356923E+02  0.51100000000E-03 0. -1.
         22    1    1    0    0    0  0.13876857185E+02 -0.26177078935E+01 -0.23416516811E+02  0.27345069383E+02  0.00000000000E+00 0. -1.
</event>
<event>
 5    1  0.8962782E-005  0.9118800E+02  0.7818608E-02  0.1130116E+00
         25   -1    0    0    0    0  0.00000000000E+00  0.00000000000E+00  0.99999998245E-14  0.12500000000E+03  0.12500000000E+03 0.  0.
        -11    1    3    3    0    0  0.99181129056E+01 -0.41337845215E+01  0.37012868414E+02  0.38541011488E+02  0.51100000000E-03 0.  1.
         23    2    1    0    0    0 -0.74031129612E+01  0.13702745913E+02 -0.19359767717E+02  0.10015302970E+03  0.97021943007E+02 0.  0.
         11    1    3    3    0    0 -0.17321225867E+02  0.17836530434E+02 -0.56372636131E+02  0.61612018211E+02  0.51100000000E-03 0. -1.
         22    1    1    0    0    0  0.74031129612E+01 -0.13702745913E+02  0.19359767717E+02  0.24846970301E+02  0.00000000000E+00 0. -1.
</event>
<event>
 5    1  0.8962782E-005  0.9118800E+02  0.7818608E-02  0.1130116E+00
         25   -1    0    0    0    0  0.00000000000E+00  0.00000000000E+00  0.99999998245E-14  0.12500000000E+03  0.12500000000E+03 0.  0.
        -11    1    3    3    0    0  0.26284449447E+02 -0.33241428471E+02 -0.11748955154E+02  0.43976161690E+02  0.51100000000E-03 0.  1.
         23    2    1    0    0    0 -0.22412513000E+02 -0.19069066218E+02 -0.33773926639E+01  0.95379790571E+02  0.90663926910E+02 0.  0.
         11    1    3    3    0    0 -0.48696962447E+02  0.14172362253E+02  0.83715624897E+01  0.51403628881E+02  0.51100000000E-03 0. -1.
         22    1    1    0    0    0  0.22412513000E+02  0.19069066218E+02  0.33773926639E+01  0.29620209429E+02  0.00000000000E+00 0.  1.
</event>
<event>
 5    1  0.8962782E-005  0.9118800E+02  0.7818608E-02  0.1130116E+00
         25   -1    0    0    0    0  0.00000000000E+00  0.00000000000E+00  0.99999998245E-14  0.12500000000E+03  0.12500000000E+03 0.  0.
        -11    1    3    3    0    0  0.30303824594E+02  0.34146688868E+02  0.42365693151E+02  0.62282984050E+02  0.51100000000E-03 0.  1.
         23    2    1    0    0    0  0.12791655716E+02  0.19509748049E+02  0.19439239277E+02  0.94633229533E+02  0.89628719634E+02 0.  0.
         11    1    3    3    0    0 -0.17512168878E+02 -0.14636940819E+02 -0.22926453874E+02  0.32350245483E+02  0.51100000000E-03 0. -1.
         22    1    1    0    0    0 -0.12791655716E+02 -0.19509748049E+02 -0.19439239277E+02  0.30366770467E+02  0.00000000000E+00 0.  1.
</event>
<event>
 5    1  0.8962782E-005  0.9118800E+02  0.7818608E-02  0.1130116E+00
         25   -1    0    0    0    0  0.00000000000E+00  0.00000000000E+00  0.99999998245E-14  0.12500000000E+03  0.12500000000E+03 0.  0.
        -11    1    3    3    0    0 -0.96413405481E+00 -0.43586631556E+02 -0.32849940823E+02  0.54587934722E+02  0.51100000000E-03 0.  1.
         23    2    1    0    0    0 -0.89112513095E+01 -0.33081809680E+01 -0.27393816811E+02  0.96003868177E+02  0.91520309464E+02 0.  0.
         11    1    3    3    0    0 -0.79471172547E+01  0.40278450588E+02  0.54561240122E+01  0.41415933455E+02  0.51100000000E-03 0. -1.
         22    1    1    0    0    0  0.89112513095E+01  0.33081809680E+01  0.27393816811E+02  0.28996131823E+02  0.00000000000E+00 0.  1.
</event>
<event>
 5    1  0.8962782E-005  0.9118800E+02  0.7818608E-02  0.1130116E+00
         25   -1    0    0    0    0  0.00000000000E+00  0.00000000000E+00  0.99999998245E-14  0.12500000000E+03  0.12500000000E+03 0.  0.
        -11    1    3    3    0    0  0.49929661348E+02  0.17922718597E+02 -0.44704290151E+01  0.53237014004E+02  0.51100000000E-03 0. -1.
         23    2    1    0    0    0  0.18773302699E+02  0.35292065724E+01  0.21473279243E+02  0.96259890141E+02  0.91869323146E+02 0.  0.
         11    1    3    3    0    0 -0.31156358649E+02 -0.14393512024E+02  0.25943708258E+02  0.43022876137E+02  0.51100000000E-03 0.  1.
         22    1    1    0    0    0 -0.18773302699E+02 -0.35292065724E+01 -0.21473279243E+02  0.28740109859E+02  0.00000000000E+00 0. -1.
</event>
<event>
 5    1  0.8962782E-005  0.9118800E+02  0.7818608E-02  0.1130116E+00
         25   -1    0    0    0    0  0.00000000000E+00  0.00000000000E+00  0.99999998245E-14  0.12500000000E+03  0.12500000000E+03 0.  0.
        -11    1    3    3    0    0 -0.16638676238E+02 -0.22231091177E+02  0.47905201085E+02  0.55371249337E+02  0.51100000000E-03 0. -1.
         23    2    1    0    0    0 -0.81693921090E+01 -0.19751859885E+02  0.47013366489E+00  0.10362019733E+03  0.10139057813E+03 0.  0.
         11    1    3    3    0    0  0.84692841286E+01  0.24792312919E+01 -0.47435067420E+02  0.48248947998E+02  0.51100000000E-03 0.  1.
         22    1    1    0    0    0  0.81693921090E+01  0.19751859885E+02 -0.47013366489E+00  0.21379802665E+02  0.00000000000E+00 0. -1.
</event>
<event>
 5    1  0.8962782E-005  0.9118800E+02  0.7818608E-02  0.1130116E+00
         25   -1    0    0    0    0  0.00000000000E+00  0.00000000000E+00  0.99999998245E-14  0.12500000000E+03  0.12500000000E+03 0.  0.
        -11    1    3    3    0    0  0.24755202736E+02 -0.28847296267E+02  0.34400792258E+02  0.51267934156E+02  0.51100000000E-03 0. -1.
         23    2    1    0    0    0  0.22296943372E+02  0.10125713941E+02  0.21553248329E+02  0.92377518793E+02  0.86425573173E+02 0.  0.
         11    1    3    3    0    0 -0.24582593634E+01  0.38973010208E+02 -0.12847543928E+02  0.41109584637E+02  0.51100000000E-03 0.  1.
         22    1    1    0    0    0 -0.22296943372E+02 -0.10125713941E+02 -0.21553248329E+02  0.32622481207E+02  0.00000000000E+00 0. -1.
</event>
<event>
 5    1  0.8962782E-005  0.9118800E+02  0.7818608E-02  0.1130116E+00
         25   -1    0    0    0    0  0.00000000000E+00  0.00000000000E+00  0.99999998245E-14  0.12500000000E+03  0.12500000000E+03 0.  0.
        -11    1    3    3    0    0  0.33016771096E+01 -0.23504773030E+02  0.24775835696E+02  0.34310602758E+02  0.51100000000E-03 0.  1.
         23    2    1    0    0    0 -0.19341884461E+02  0.21203808423E+02 -0.92040390316E+01  0.94859921688E+02  0.89944318454E+02 0.  0.
         11    1    3    3    0    0 -0.22643561571E+02  0.44708581453E+02 -0.33979874727E+02  0.60549318930E+02  0.51100000000E-03 0. -1.
         22    1    1    0    0    0  0.19341884461E+02 -0.21203808423E+02  0.92040390316E+01  0.30140078312E+02  0.00000000000E+00 0. -1.
</event>
<event>
 5    1  0.8962782E-005  0.9118800E+02  0.7818608E-02  0.1130116E+00
         25   -1    0    0    0    0  0.00000000000E+00  0.00000000000E+00  0.99999998245E-14  0.12500000000E+03  0.12500000000E+03 0.  0.
        -11    1    3    3    0    0  0.94415455779E+01 -0.50556486222E+02  0.26075178162E+02  0.57662951698E+02  0.51100000000E-03 0.  1.
         23    2    1    0    0    0  0.16920414977E+02 -0.13965894460E+02  0.19626805343E+02  0.95562640420E+02  0.90915675794E+02 0.  0.
         11    1    3    3    0    0  0.74788693989E+01  0.36590591762E+02 -0.64483728189E+01  0.37899688722E+02  0.51100000000E-03 0. -1.
         22    1    1    0    0    0 -0.16920414977E+02  0.13965894460E+02 -0.19626805343E+02  0.29437359580E+02  0.00000000000E+00 0.  1.
</event>
<event>
 5    1  0.8962782E-005  0.9118800E+02  0.7818608E-02  0.1130116E+00
         25   -1    0    0    0    0  0.00000000000E+00  0.00000000000E+00  0.99999998245E-14  0.12500000000E+03  0.12500000000E+03 0.  0.
        -11    1    3    3    0    0  0.13096269338E+02 -0.42481215124E+02 -0.29108860621E+02  0.53136538050E+02  0.51100000000E-03 0. -1.
         23    2    1    0    0    0 -0.15279111750E+02 -0.25139091868E+02 -0.29749363769E+01  0.95431850882E+02  0.90735675016E+02 0.  0.
         11    1    3    3    0    0 -0.28375381087E+02  0.17342123256E+02  0.26133924244E+02  0.42295312832E+02  0.51100000000E-03 0.  1.
         22    1    1    0    0    0  0.15279111750E+02  0.25139091868E+02  0.29749363769E+01  0.29568149118E+02  0.00000000000E+00 0. -1.
</event>
<event>
 5    1  0.8962782E-005  0.9118800E+02  0.7818608E-02  0.1130116E+00
         25   -1    0    0    0    0  0.00000000000E+00  0.00000000000E+00  0.99999998245E-14  0.12500000000E+03  0.12500000000E+03 0.  0.
        -11    1    3    3    0    0 -0.14061141788E+02 -0.54945792302E+02 -0.69113325536E+01  0.57135998442E+02  0.51100000000E-03 0. -1.
         23    2    1    0    0    0 -0.17780730878E+02 -0.13809706311E+02 -0.13178895961E+02  0.98912729585E+02  0.95410598972E+02 0.  0.
         11    1    3    3    0    0 -0.37195890898E+01  0.41136085991E+02 -0.62675634077E+01  0.41776731143E+02  0.51100000000E-03 0.  1.
         22    1    1    0    0    0  0.17780730878E+02  0.13809706311E+02  0.13178895961E+02  0.26087270415E+02  0.00000000000E+00 0. -1.
</event>
<event>
 5    1  0.8962782E-005  0.9118800E+02  0.7818608E-02  0.1130116E+00
         25   -1    0    0    0    0  0.00000000000E+00  0.00000000000E+00  0.99999998245E-14  0.12500000000E+03  0.12500000000E+03 0.  0.
        -11    1    3    3    0    0 -0.18754876565E+02 -0.58027408682E+02 -0.26592994909E+01  0.61040948774E+02  0.51100000000E-03 0.  1.
         23    2    1    0    0    0 -0.89180381980E+00 -0.27765216067E+02  0.43721420846E+01  0.96878510642E+02  0.92707214717E+02 0.  0.
         11    1    3    3    0    0  0.17863072745E+02  0.30262192615E+02  0.70314415755E+01  0.35837561868E+02  0.51100000000E-03 0. -1.
         22    1    1    0    0    0  0.89180381980E+00  0.27765216067E+02 -0.43721420846E+01  0.28121489358E+02  0.00000000000E+00 0.  1.
</event>
<event>
 5    1  0.8962782E-005  0.9118800E+02  0.7818608E-02  0.1130116E+00
         25   -1    0    0    0    0  0.00000000000E+00  0.00000000000E+00  0.99999998245E-14  0.12500000000E+03  0.12500000000E+03 0.  0.
        -11    1    3    3    0    0  0.36264589671E+02 -0.10999845299E+02 -0.13411764767E+01  0.37919860432E+02  0.51100000000E-03 0.  1.
         23    2    1    0    0    0 -0.13212964394E+02  0.11840504242E+02  0.21600547105E+02  0.97047118145E+02  0.92934275357E+02 0.  0.
         11    1    3    3    0    0 -0.49477554065E+02  0.22840349541E+02  0.22941723582E+02  0.59127257712E+02  0.51100000000E-03 0. -1.
         22    1    1    0    0    0  0.13212964394E+02 -0.11840504242E+02 -0.21600547105E+02  0.27952881855E+02  0.00000000000E+00 0. -1.
</event>
<event>
 5    1  0.8962782E-005  0.9118800E+02  0.7818608E-02  0.1130116E+00
         25   -1    0    0    0    0  0.00000000000E+00  0.00000000000E+00  0.99999998245E-14  0.12500000000E+03  0.12500000000E+03 0.  0.
        -11    1    3    3    0    0  0.36370015962E+02 -0.27779693288E+02 -0.79762208053E+01  0.46455457363E+02  0.51100000000E-03 0.  1.
         23    2    1    0    0    0 -0.13651018948E+02 -0.17214117978E+02 -0.15474912508E+02  0.98127168121E+02  0.94375802144E+02 0.  0.
         11    1    3    3    0    0 -0.50021034910E+02  0.10565575310E+02 -0.74986917026E+01  0.51671710758E+02  0.51100000000E-03 0. -1.
         22    1    1    0    0    0  0.13651018948E+02  0.17214117978E+02  0.15474912508E+02  0.26872831879E+02  0.00000000000E+00 0.  1.
</event>
<event>
 5    1  0.8962782E-005  0.9118800E+02  0.7818608E-02  0.1130116E+00
         25   -1    0    0    0    0  0.00000000000E+00  0.00000000000E+00  0.99999998245E-14  0.12500000000E+03  0.12500000000E+03 0.  0.
        -11    1    3    3    0    0  0.20682046340E+02  0.37300617404E+02 -0.16526501092E+02  0.45740663945E+02  0.51100000000E-03 0.  1.
         23    2    1    0    0    0  0.16640184876E+02  0.72055464788E+01  0.23080517969E+02  0.95648237490E+02  0.91033287167E+02 0.  0.
         11    1    3    3    0    0 -0.40418614642E+01 -0.30095070925E+02  0.39607019060E+02  0.49907573545E+02  0.51100000000E-03 0. -1.
         22    1    1    0    0    0 -0.16640184876E+02 -0.72055464788E+01 -0.23080517969E+02  0.29351762510E+02  0.00000000000E+00 0.  1.
</event>
<event>
 5    1  0.8962782E-005  0.9118800E+02  0.7818608E-02  0.1130116E+00
         25   -1    0    0    0    0  0.00000000000E+00  0.00000000000E+00  0.99999998245E-14  0.12500000000E+03  0.12500000000E+03 0.  0.
        -11    1    3    3    0    0  0.29979664648E+01  0.48171148323E+02 -0.30280080927E+02  0.56976579705E+02  0.51100000000E-03 0.  1.
         23    2    1    0    0    0 -0.74228936949E+01  0.28188519744E+02  0.13558843442E+01  0.95819005869E+02  0.91267472120E+02 0.  0.
         11    1    3    3    0    0 -0.10420860160E+02 -0.19982628579E+02  0.31635965271E+02  0.38842426164E+02  0.51100000000E-03 0. -1.
         22    1    1    0    0    0  0.74228936949E+01 -0.28188519744E+02 -0.13558843442E+01  0.29180994131E+02  0.00000000000E+00 0.  1.
</event>
<event>
 5    1  0.8962782E-005  0.9118800E+02  0.7818608E-02  0.1130116E+00
         25   -1    0    0    0    0  0.00000000000E+00  0.00000000000E+00  0.99999998245E-14  0.12500000000E+03  0.12500000000E+03 0.  0.
        -11    1    3    3    0    0 -0.93486622769E+01 -0.13764532782E+00  0.55284575020E+02  0.56069605563E+02  0.51100000000E-03 0. -1.
         23    2    1    0    0    0  0.15602273465E+02 -0.28740221228E+01  0.24821825455E+02  0.95541317760E+02  0.90886354531E+02 0.  0.
         11    1    3    3    0    0  0.24950935742E+02 -0.27363767950E+01 -0.30462749565E+02  0.39471712196E+02  0.51100000000E-03 0.  1.
         22    1    1    0    0    0 -0.15602273465E+02  0.28740221228E+01 -0.24821825455E+02  0.29458682240E+02  0.00000000000E+00 0. -1.
</event>
<event>
 5    1  0.8962782E-005  0.9118800E+02  0.7818608E-02  0.1130116E+00
         25   -1    0    0    0    0  0.00000000000E+00  0.00000000000E+00  0.99999998245E-14  0.12500000000E+03  0.12500000000E+03 0.  0.
        -11    1    3    3    0    0 -0.17741778491E+01  0.24502672843E+02  0.15785659928E+02  0.29201296943E+02  0.51100000000E-03 0. -1.
         23    2    1    0    0    0 -0.10479544689E+02 -0.27606880248E+02 -0.16556255022E+02  0.91146340312E+02  0.84626148903E+02 0.  0.
         11    1    3    3    0    0 -0.87053668401E+01 -0.52109553091E+02 -0.32341914950E+02  0.61945043370E+02  0.51100000000E-03 0.  1.
         22    1    1    0    0    0  0.10479544689E+02  0.27606880248E+02  0.16556255022E+02  0.33853659688E+02  0.00000000000E+00 0.  1.
</event>
<event>
 5    1  0.8962782E-005  0.9118800E+02  0.7818608E-02  0.1130116E+00
         25   -1    0    0    0    0  0.00000000000E+00  0.00000000000E+00  0.99999998245E-14  0.12500000000E+03  0.12500000000E+03 0.  0.
        -11    1    3    3    0    0 -0.13315770416E+02 -0.35858201845E+02 -0.29189458087E+02  0.48115952085E+02  0.51100000000E-03 0.  1.
         23    2    1    0    0    0  0.21922623200E+02 -0.55468590668E+01 -0.18432715852E+02  0.95825797918E+02  0.91276774041E+02 0.  0.
         11    1    3    3    0    0  0.35238393616E+02  0.30311342778E+02  0.10756742235E+02  0.47709845833E+02  0.51100000000E-03 0. -1.
         22    1    1    0    0    0 -0.21922623200E+02  0.55468590668E+01  0.18432715852E+02  0.29174202082E+02  0.00000000000E+00 0. -1.
</event>
<event>
 5    1  0.8962782E-005  0.9118800E+02  0.7818608E-02  0.1130116E+00
         25   -1    0    0    0    0  0.00000000000E+00  0.00000000000E+00  0.99999998245E-14  0.12500000000E+03  0.12500000000E+03 0.  0.
        -11    1    3    3    0    0 -0.20229332719E+02 -0.35251090749E+02 -0.11655588998E+02  0.42281415023E+02  0.51100000000E-03 0. -1.
         23    2    1    0    0    0  0.98278798992E+01 -0.13035957744E+02  0.25330781306E+02  0.94864109451E+02  0.89950138203E+02 0.  0.
         11    1    3    3    0    0  0.30057212618E+02  0.22215133005E+02  0.36986370304E+02  0.52582694428E+02  0.51100000000E-03 0.  1.
         22    1    1    0    0    0 -0.98278798992E+01  0.13035957744E+02 -0.25330781306E+02  0.30135890549E+02  0.00000000000E+00 0.  1.
</event>
<event>
 5    1  0.8962782E-005  0.9118800E+02  0.7818608E-02  0.1130116E+00
         25   -1    0    0    0    0  0.00000000000E+00  0.00000000000E+00  0.99999998245E-14  0.12500000000E+03  0.12500000000E+03 0.  0.
        -11    1    3    3    0    0  0.21402484731E+02  0.35886450542E+02  0.20864442726E+02  0.46703625723E+02  0.51100000000E-03 0. -1.
         23    2    1    0    0    0  0.27650193364E+02  0.10111343601E+02 -0.15512522444E+02  0.91722217396E+02  0.85472535641E+02 0.  0.
         11    1    3    3    0    0  0.62477086325E+01 -0.25775106941E+02 -0.36376965170E+02  0.45018591673E+02  0.51100000000E-03 0.  1.
         22    1    1    0    0    0 -0.27650193364E+02 -0.10111343601E+02  0.15512522444E+02  0.33277782604E+02  0.00000000000E+00 0.  1.
</event>
<event>
 5    1  0.8962782E-005  0.9118800E+02  0.7818608E-02  0.1130116E+00
         25   -1    0    0    0    0  0.00000000000E+00  0.00000000000E+00  0.99999998245E-14  0.12500000000E+03  0.12500000000E+03 0.  0.
        -11    1    3    3    0    0  0.12464084123E+02 -0.13521037663E+02 -0.32367087794E+02  0.37226337788E+02  0.51100000000E-03 0.  1.
         23    2    1    0    0    0 -0.25767375540E+02 -0.12986251700E+02  0.10154651028E+02  0.94410503225E+02  0.89317555980E+02 0.  0.
         11    1    3    3    0    0 -0.38231459663E+02  0.53478596353E+00  0.42521738823E+02  0.57184165438E+02  0.51100000000E-03 0. -1.
         22    1    1    0    0    0  0.25767375540E+02  0.12986251700E+02 -0.10154651028E+02  0.30589496775E+02  0.00000000000E+00 0. -1.
</event>
<event>
 5    1  0.8962782E-005  0.9118800E+02  0.7818608E-02  0.1130116E+00
         25   -1    0    0    0    0  0.00000000000E+00  0.00000000000E+00  0.99999998245E-14  0.12500000000E+03  0.12500000000E+03 0.  0.
        -11    1    3    3    0    0  0.14493860074E+02  0.29257171903E+02 -0.76141017581E+01  0.33526536258E+02  0.51100000000E-03 0.  1.
         23    2    1    0    0    0 -0.83003055665E+01 -0.27556036660E+02 -0.92718787136E+01  0.94764293232E+02  0.89811320600E+02 0.  0.
         11    1    3    3    0    0 -0.22794165640E+02 -0.56813208563E+02 -0.16577769555E+01  0.61237756974E+02  0.51100000000E-03 0. -1.
         22    1    1    0    0    0  0.83003055665E+01  0.27556036660E+02  0.92718787136E+01  0.30235706768E+02  0.00000000000E+00 0. -1.
</event>
<event>
 5    1  0.8962782E-005  0.9118800E+02  0.7818608E-02  0.1130116E+00
         25   -1    0    0    0    0  0.00000000000E+00  0.00000000000E+00  0.99999998245E-14  0.12500000000E+03  0.12500000000E+03 0.  0.
        -11    1    3    3    0    0 -0.23054741758E+02 -0.94620483509E+01 -0.54708795545E+02  0.60117416667E+02  0.51100000000E-03 0.  1.
         23    2    1    0    0    0  0.99983880161E+00 -0.33318087787E+01 -0.28770256813E+02  0.96020208688E+02  0.91542624892E+02 0.  0.
         11    1    3    3    0    0  0.24054580560E+02  0.61302395723E+01  0.25938538732E+02  0.35902792021E+02  0.51100000000E-03 0. -1.
         22    1    1    0    0    0 -0.99983880161E+00  0.33318087787E+01  0.28770256813E+02  0.28979791312E+02  0.00000000000E+00 0.  1.
</event>
<event>
 5    1  0.8962782E-005  0.9118800E+02  0.7818608E-02  0.1130116E+00
         25   -1    0    0    0    0  0.00000000000E+00  0.00000000000E+00  0.99999998245E-14  0.12500000000E+03  0.12500000000E+03 0.  0.
        -11    1    3    3    0    0 -0.12971379870E+02  0.37755842255E+02 -0.21072697174E+02  0.45142207374E+02  0.51100000000E-03 0.  1.
         23    2    1    0    0    0  0.82583605441E-01  0.17799301904E+02  0.23396814831E+02  0.95602161430E+02  0.90969997019E+02 0.  0.
         11    1    3    3    0    0  0.13053963476E+02 -0.19956540351E+02  0.44469512005E+02  0.50459954057E+02  0.51100000000E-03 0. -1.
         22    1    1    0    0    0 -0.82583605441E-01 -0.17799301904E+02 -0.23396814831E+02  0.29397838570E+02  0.00000000000E+00 0. -1.
</event>
<event>
 5    1  0.8962782E-005  0.9118800E+02  0.7818608E-02  0.1130116E+00
         25   -1    0    0    0    0  0.00000000000E+00  0.00000000000E+00  0.99999998245E-14  0.12500000000E+03  0.12500000000E+03 0.  0.
        -11    1    3    3    0    0  0.38353590937E+02  0.16442187510E+02  0.17917795884E+02  0.45413553897E+02  0.51100000000E-03 0.  1.
         23    2    1    0    0    0  0.70560264574E+01 -0.24500634014E+02  0.10269973350E+02  0.97512895222E+02  0.93558665048E+02 0.  0.
         11    1    3    3    0    0 -0.31297564480E+02 -0.40942821525E+02 -0.76478225341E+01  0.52099341325E+02  0.51100000000E-03 0. -1.
         22    1    1    0    0    0 -0.70560264574E+01  0.24500634014E+02 -0.10269973350E+02  0.27487104778E+02  0.00000000000E+00 0. -1.
</event>
<event>
 5    1  0.8962782E-005  0.9118800E+02  0.7818608E-02  0.1130116E+00
         25   -1    0    0    0    0  0.00000000000E+00  0.00000000000E+00  0.99999998245E-14  0.12500000000E+03  0.12500000000E+03 0.  0.
        -11    1    3    3    0    0  0.31387701093E+02 -0.29828423114E+02  0.29307923828E+02  0.52286489696E+02  0.51100000000E-03 0. -1.
         23    2    1    0    0    0 -0.69877570952E+01 -0.27068653192E+02  0.10233327685E+02  0.95229851691E+02  0.90456967242E+02 0.  0.
         11    1    3    3    0    0 -0.38375458188E+02  0.27597699220E+01 -0.19074596143E+02  0.42943361995E+02  0.51100000000E-03 0.  1.
         22    1    1    0    0    0  0.69877570952E+01  0.27068653192E+02 -0.10233327685E+02  0.29770148309E+02  0.00000000000E+00 0. -1.
</event>
<event>
 5    1  0.8962782E-005  0.9118800E+02  0.7818608E-02  0.1130116E+00
         25   -1    0    0    0    0  0.00000000000E+00  0.00000000000E+00  0.99999998245E-14  0.12500000000E+03  0.12500000000E+03 0.  0.
        -11    1    3    3    0    0  0.74377276001E+01  0.28353009211E+02 -0.37160862078E+02  0.47330144663E+02  0.51100000000E-03 0. -1.
         23    2    1    0    0    0  0.29542993923E+02  0.42594892722E+01 -0.23964161862E+01  0.95055475470E+02  0.90215679721E+02 0.  0.
         11    1    3    3    0    0  0.22105266323E+02 -0.24093519939E+02  0.34764445892E+02  0.47725330807E+02  0.51100000000E-03 0.  1.
         22    1    1    0    0    0 -0.29542993923E+02 -0.42594892722E+01  0.23964161862E+01  0.29944524530E+02  0.00000000000E+00 0. -1.
</event>
<event>
 5    1  0.8962782E-005  0.9118800E+02  0.7818608E-02  0.1130116E+00
         25   -1    0    0    0    0  0.00000000000E+00  0.00000000000E+00  0.99999998245E-14  0.12500000000E+03  0.12500000000E+03 0.  0.
        -11    1    3    3    0    0  0.36745456640E+02 -0.40059773546E+02 -0.82036386125E+01  0.54975573912E+02  0.51100000000E-03 0.  1.
         23    2    1    0    0    0  0.14235441332E+02 -0.11154560139E+02 -0.24064140492E+02  0.94897593793E+02  0.89996657984E+02 0.  0.
         11    1    3    3    0    0 -0.22510015307E+02  0.28905213407E+02 -0.15860501879E+02  0.39922019881E+02  0.51100000000E-03 0. -1.
         22    1    1    0    0    0 -0.14235441332E+02  0.11154560139E+02  0.24064140492E+02  0.30102406207E+02  0.00000000000E+00 0.  1.
</event>
<event>
 5    1  0.8962782E-005  0.9118800E+02  0.7818608E-02  0.1130116E+00
         25   -1    0    0    0    0  0.00000000000E+00  0.00000000000E+00  0.99999998245E-14  0.12500000000E+03  0.12500000000E+03 0.  0.
        -11    1    3    3    0    0 -0.19182800215E+02  0.39058736374E+02  0.44009996697E+02  0.61890585073E+02  0.51100000000E-03 0.  1.
         23    2    1    0    0    0 -0.37432227420E+01  0.18199448957E+02  0.23929328477E+02  0.94704052743E+02  0.89727438311E+02 0.  0.
         11    1    3    3    0    0  0.15439577473E+02 -0.20859287418E+02 -0.20080668220E+02  0.32813467670E+02  0.51100000000E-03 0. -1.
         22    1    1    0    0    0  0.37432227420E+01 -0.18199448957E+02 -0.23929328477E+02  0.30295947257E+02  0.00000000000E+00 0.  1.
</event>
<event>
 5    1  0.8962782E-005  0.9118800E+02  0.7818608E-02  0.1130116E+00
         25   -1    0    0    0    0  0.00000000000E+00  0.00000000000E+00  0.99999998245E-14  0.12500000000E+03  0.12500000000E+03 0.  0.
        -11    1    3    3    0    0  0.71265464991E+01 -0.41448454454E+02  0.23859363916E+02  0.48353193156E+02  0.51100000000E-03 0.  1.
         23    2    1    0    0    0 -0.16325682981E+02 -0.19545575936E+02 -0.12317067293E+02  0.96710998424E+02  0.92481077015E+02 0.  0.
         11    1    3    3    0    0 -0.23452229480E+02  0.21902878518E+02 -0.36176431210E+02  0.48357805268E+02  0.51100000000E-03 0. -1.
         22    1    1    0    0    0  0.16325682981E+02  0.19545575936E+02  0.12317067293E+02  0.28289001576E+02  0.00000000000E+00 0. -1.
</event>
<event>
 5    1  0.8962782E-005  0.9118800E+02  0.7818608E-02  0.1130116E+00
         25   -1    0    0    0    0  0.00000000000E+00  0.00000000000E+00  0.99999998245E-14  0.12500000000E+03  0.12500000000E+03 0.  0.
        -11    1    3    3    0    0  0.29861619477E+02  0.30213753190E+02  0.52378447308E+01  0.42802128654E+02  0.51100000000E-03 0. -1.
         23    2    1    0    0    0  0.61213252013E+01 -0.12110447934E+02  0.26068090558E+02  0.95611585331E+02  0.90982945285E+02 0.  0.
         11    1    3    3    0    0 -0.23740294275E+02 -0.42324201125E+02  0.20830245827E+02  0.52809456678E+02  0.51100000000E-03 0.  1.
         22    1    1    0    0    0 -0.61213252013E+01  0.12110447934E+02 -0.26068090558E+02  0.29388414669E+02  0.00000000000E+00 0.  1.
</event>
<event>
 5    1  0.8962782E-005  0.9118800E+02  0.7818608E-02  0.1130116E+00
         25   -1    0    0    0    0  0.00000000000E+00  0.00000000000E+00  0.99999998245E-14  0.12500000000E+03  0.12500000000E+03 0.  0.
        -11    1    3    3    0    0 -0.34049334159E+02 -0.24034649059E+02 -0.12115401033E+02  0.43402816204E+02  0.51100000000E-03 0. -1.
         23    2    1    0    0    0 -0.98784726531E+01 -0.62843806484E+01  0.28672934442E+02  0.94028806423E+02  0.88781763926E+02 0.  0.
         11    1    3    3    0    0  0.24170861506E+02  0.17750268410E+02  0.40788335475E+02  0.50625990219E+02  0.51100000000E-03 0.  1.
         22    1    1    0    0    0  0.98784726531E+01  0.62843806484E+01 -0.28672934442E+02  0.30971193577E+02  0.00000000000E+00 0.  1.
</event>
<event>
 5    1  0.8962782E-005  0.9118800E+02  0.7818608E-02  0.1130116E+00
         25   -1    0    0    0    0  0.00000000000E+00  0.00000000000E+00  0.99999998245E-14  0.12500000000E+03  0.12500000000E+03 0.  0.
        -11    1    3    3    0    0  0.16355700623E+01  0.32521545426E+02 -0.13657443695E+02  0.35310788364E+02  0.51100000000E-03 0.  1.
         23    2    1    0    0    0 -0.16045580155E+02 -0.15228139990E+02  0.19031299647E+02  0.95818717364E+02  0.91267076982E+02 0.  0.
         11    1    3    3    0    0 -0.17681150217E+02 -0.47749685416E+02  0.32688743342E+02  0.60507929000E+02  0.51100000000E-03 0. -1.
         22    1    1    0    0    0  0.16045580155E+02  0.15228139990E+02 -0.19031299647E+02  0.29181282636E+02  0.00000000000E+00 0. -1.
</event>
<event>
 5    1  0.8962782E-005  0.9118800E+02  0.7818608E-02  0.1130116E+00
         25   -1    0    0    0    0  0.00000000000E+00  0.00000000000E+00  0.99999998245E-14  0.12500000000E+03  0.12500000000E+03 0.  0.
        -11    1    3    3    0    0 -0.10565084471E+02  0.18608369349E+02 -0.37696602247E+02  0.43346582806E+02  0.51100000000E-03 0. -1.
         23    2    1    0    0    0  0.24111841072E+02  0.15930984470E+02  0.18867051083E+01  0.96039046939E+02  0.91568344610E+02 0.  0.
         11    1    3    3    0    0  0.34676925543E+02 -0.26773848789E+01  0.39583307356E+02  0.52692464132E+02  0.51100000000E-03 0.  1.
         22    1    1    0    0    0 -0.24111841072E+02 -0.15930984470E+02 -0.18867051083E+01  0.28960953061E+02  0.00000000000E+00 0.  1.
</event>
<event>
 5    1  0.8962782E-005  0.9118800E+02  0.7818608E-02  0.1130116E+00
         25   -1    0    0    0    0  0.00000000000E+00  0.00000000000E+00  0.99999998245E-14  0.12500000000E+03  0.12500000000E+03 0.  0.
        -11    1    3    3    0    0  0.19573289831E+02  0.24326488384E+02  0.15396932701E+02  0.34813176366E+02  0.51100000000E-03 0. -1.
         23    2    1    0    0    0 -0.31365737098E+00 -0.18341854569E+02 -0.23013001599E+02  0.95570078957E+02  0.90925902467E+02 0.  0.
         11    1    3    3    0    0 -0.19886947202E+02 -0.42668342952E+02 -0.38409934300E+02  0.60756902591E+02  0.51100000000E-03 0.  1.
         22    1    1    0    0    0  0.31365737098E+00  0.18341854569E+02  0.23013001599E+02  0.29429921043E+02  0.00000000000E+00 0.  1.
</event>
<event>
 5    1  0.8962782E-005  0.9118800E+02  0.7818608E-02  0.1130116E+00
         25   -1    0    0    0    0  0.00000000000E+00  0.00000000000E+00  0.99999998245E-14  0.12500000000E+03  0.12500000000E+03 0.  0.
        -11    1    3    3    0    0  0.24521431330E+02 -0.11159839241E+02 -0.40978176888E+02  0.49041345696E+02  0.51100000000E-03 0.  1.
         23    2    1    0    0    0  0.22360520577E+02 -0.17720815117E+02  0.54266371157E+01  0.95957469819E+02  0.91456915839E+02 0.  0.
         11    1    3    3    0    0 -0.21609107528E+01 -0.65609758764E+01  0.46404814004E+02  0.46916124123E+02  0.51100000000E-03 0. -1.
         22    1    1    0    0    0 -0.22360520577E+02  0.17720815117E+02 -0.54266371157E+01  0.29042530181E+02  0.00000000000E+00 0.  1.
</event>
<event>
 5    1  0.8962782E-005  0.9118800E+02  0.7818608E-02  0.1130116E+00
         25   -1    0    0    0    0  0.00000000000E+00  0.00000000000E+00  0.99999998245E-14  0.12500000000E+03  0.12500000000E+03 0.  0.
        -11    1    3    3    0    0  0.35274055023E+02  0.11224740096E+02 -0.45637169756E+02  0.58762275412E+02  0.51100000000E-03 0.  1.
         23    2    1    0    0    0  0.17013156454E+02 -0.99539754634E+01 -0.22751830726E+02  0.94897260566E+02  0.89996195150E+02 0.  0.
         11    1    3    3    0    0 -0.18260898569E+02 -0.21178715559E+02  0.22885339031E+02  0.36134985154E+02  0.51100000000E-03 0. -1.
         22    1    1    0    0    0 -0.17013156454E+02  0.99539754634E+01  0.22751830726E+02  0.30102739434E+02  0.00000000000E+00 0.  1.
</event>
<event>
 5    1  0.8962782E-005  0.9118800E+02  0.7818608E-02  0.1130116E+00
         25   -1    0    0    0    0  0.00000000000E+00  0.00000000000E+00  0.99999998245E-14  0.12500000000E+03  0.12500000000E+03 0.  0.
        -11    1    3    3    0    0  0.59675582945E+01 -0.91107825492E+01  0.47717425595E+02  0.48944568813E+02  0.51100000000E-03 0.  1.
         23    2    1    0    0    0  0.14605235785E+02  0.20975765933E+02  0.11054507266E+02  0.97152238874E+02  0.93075559190E+02 0.  0.
         11    1    3    3    0    0  0.86376774910E+01  0.30086548482E+02 -0.36662918329E+02  0.48207670061E+02  0.51100000000E-03 0. -1.
         22    1    1    0    0    0 -0.14605235785E+02 -0.20975765933E+02 -0.11054507266E+02  0.27847761126E+02  0.00000000000E+00 0.  1.
</event>
<event>
 5    1  0.8962782E-005  0.9118800E+02  0.7818608E-02  0.1130116E+00
         25   -1    0    0    0    0  0.00000000000E+00  0.00000000000E+00  0.99999998245E-14  0.12500000000E+03  0.12500000000E+03 0.  0.
        -11    1    3    3    0    0  0.48480840364E+02 -0.38061396980E+02 -0.76929268010E+01  0.62114756262E+02  0.51100000000E-03 0.  1.
         23    2    1    0    0    0  0.19158153825E+02 -0.19240736209E+02  0.22831953727E+00  0.97846861735E+02  0.94003805422E+02 0.  0.
         11    1    3    3    0    0 -0.29322686539E+02  0.18820660771E+02  0.79212463382E+01  0.35732105473E+02  0.51100000000E-03 0. -1.
         22    1    1    0    0    0 -0.19158153825E+02  0.19240736209E+02 -0.22831953727E+00  0.27153138265E+02  0.00000000000E+00 0.  1.
</event>
<event>
 5    1  0.8962782E-005  0.9118800E+02  0.7818608E-02  0.1130116E+00
         25   -1    0    0    0    0  0.00000000000E+00  0.00000000000E+00  0.99999998245E-14  0.12500000000E+03  0.12500000000E+03 0.  0.
        -11    1    3    3    0    0  0.18430854808E+02  0.31336746531E+02 -0.19460829629E+02  0.41236051972E+02  0.51100000000E-03 0. -1.
         23    2    1    0    0    0 -0.28209459327E+02  0.88671188427E+01 -0.47989116237E+01  0.95042881566E+02  0.90198228316E+02 0.  0.
         11    1    3    3    0    0 -0.46640314135E+02 -0.22469627689E+02  0.14661918005E+02  0.53806829594E+02  0.51100000000E-03 0.  1.
         22    1    1    0    0    0  0.28209459327E+02 -0.88671188427E+01  0.47989116237E+01  0.29957118434E+02  0.00000000000E+00 0.  1.
</event>
<event>
 5    1  0.8962782E-005  0.9118800E+02  0.7818608E-02  0.1130116E+00
         25   -1    0    0    0    0  0.00000000000E+00  0.00000000000E+00  0.99999998245E-14  0.12500000000E+03  0.12500000000E+03 0.  0.
        -11    1    3    3    0    0 -0.31755935683E+02  0.51879414798E+02  0.67259522333E+01  0.61197643456E+02  0.51100000000E-03 0.  1.
         23    2    1    0    0    0 -0.21589932507E+02  0.19444050704E+02 -0.46539132855E+00  0.95941216775E+02  0.91434699069E+02 0.  0.
         11    1    3    3    0    0  0.10166003177E+02 -0.32435364094E+02 -0.71913435619E+01  0.34743573319E+02  0.51100000000E-03 0. -1.
         22    1    1    0    0    0  0.21589932507E+02 -0.19444050704E+02  0.46539132855E+00  0.29058783225E+02  0.00000000000E+00 0.  1.
</event>
<event>
 5    1  0.8962782E-005  0.9118800E+02  0.7818608E-02  0.1130116E+00
         25   -1    0    0    0    0  0.00000000000E+00  0.00000000000E+00  0.99999998245E-14  0.12500000000E+03  0.12500000000E+03 0.  0.
        -11    1    3    3    0    0 -0.71747471660E+01  0.39661408102E+01 -0.38314892089E+02  0.39182116149E+02  0.51100000000E-03 0. -1.
         23    2    1    0    0    0  0.14245971465E+02  0.21740337197E+02  0.11758540047E+02  0.96471887050E+02  0.92157320722E+02 0.  0.
         11    1    3    3    0    0  0.21420718631E+02  0.17774196387E+02  0.50073432136E+02  0.57289770902E+02  0.51100000000E-03 0.  1.
         22    1    1    0    0    0 -0.14245971465E+02 -0.21740337197E+02 -0.11758540047E+02  0.28528112950E+02  0.00000000000E+00 0.  1.
</event>
<event>
 5    1  0.8962782E-005  0.9118800E+02  0.7818608E-02  0.1130116E+00
         25   -1    0    0    0    0  0.00000000000E+00  0.00000000000E+00  0.99999998245E-14  0.12500000000E+03  0.12500000000E+03 0.  0.
        -11    1    3    3    0    0  0.38425693129E+02 -0.39426407921E+02 -0.85915322981E+01  0.55720642149E+02  0.51100000000E-03 0. -1.
         23    2    1    0    0    0  0.16928759902E+02 -0.42662882686E+02 -0.11576343505E+02  0.77663796098E+02  0.61570683158E+02 0.  0.
         11    1    3    3    0    0 -0.21496933227E+02 -0.32364747649E+01 -0.29848112071E+01  0.21943153950E+02  0.51100000000E-03 0.  1.
         22    1    1    0    0    0 -0.16928759902E+02  0.42662882686E+02  0.11576343505E+02  0.47336203902E+02  0.00000000000E+00 0. -1.
</event>
<event>
 5    1  0.8962782E-005  0.9118800E+02  0.7818608E-02  0.1130116E+00
         25   -1    0    0    0    0  0.00000000000E+00  0.00000000000E+00  0.99999998245E-14  0.12500000000E+03  0.12500000000E+03 0.  0.
        -11    1    3    3    0    0 -0.30308814403E+02 -0.31603732966E+02  0.13788835604E+02  0.45908083771E+02  0.51100000000E-03 0.  1.
         23    2    1    0    0    0 -0.25665041728E+02  0.10452917479E+02 -0.11269919125E+02  0.95083968716E+02  0.90255150429E+02 0.  0.
         11    1    3    3    0    0  0.46437726755E+01  0.42056650445E+02 -0.25058754728E+02  0.49175884945E+02  0.51100000000E-03 0. -1.
         22    1    1    0    0    0  0.25665041728E+02 -0.10452917479E+02  0.11269919125E+02  0.29916031284E+02  0.00000000000E+00 0. -1.
</event>
<event>
 5    1  0.8962782E-005  0.9118800E+02  0.7818608E-02  0.1130116E+00
         25   -1    0    0    0    0  0.00000000000E+00  0.00000000000E+00  0.99999998245E-14  0.12500000000E+03  0.12500000000E+03 0.  0.
        -11    1    3    3    0    0 -0.73276777110E+01 -0.42679429333E+02 -0.12329820369E+02  0.45025026590E+02  0.51100000000E-03 0.  1.
         23    2    1    0    0    0  0.18394028585E+02 -0.66913374862E+01 -0.27019801515E+02  0.91635588438E+02  0.85345750390E+02 0.  0.
         11    1    3    3    0    0  0.25721706296E+02  0.35988091847E+02 -0.14689981146E+02  0.46610561849E+02  0.51100000000E-03 0. -1.
         22    1    1    0    0    0 -0.18394028585E+02  0.66913374862E+01  0.27019801515E+02  0.33364411562E+02  0.00000000000E+00 0.  1.
</event>
<event>
 5    1  0.8962782E-005  0.9118800E+02  0.7818608E-02  0.1130116E+00
         25   -1    0    0    0    0  0.00000000000E+00  0.00000000000E+00  0.99999998245E-14  0.12500000000E+03  0.12500000000E+03 0.  0.
        -11    1    3    3    0    0 -0.11876313888E+02  0.19732796003E+02 -0.27388550763E+02  0.35784951905E+02  0.51100000000E-03 0.  1.
         23    2    1    0    0    0  0.18846185331E+02  0.52034314677E+01  0.21892479883E+02  0.95648082243E+02  0.91033073994E+02 0.  0.
         11    1    3    3    0    0  0.30722499219E+02 -0.14529364535E+02  0.49281030647E+02  0.59863130338E+02  0.51100000000E-03 0. -1.
         22    1    1    0    0    0 -0.18846185331E+02 -0.52034314677E+01 -0.21892479883E+02  0.29351917757E+02  0.00000000000E+00 0. -1.
</event>
<event>
 5    1  0.8962782E-005  0.9118800E+02  0.7818608E-02  0.1130116E+00
         25   -1    0    0    0    0  0.00000000000E+00  0.00000000000E+00  0.99999998245E-14  0.12500000000E+03  0.12500000000E+03 0.  0.
        -11    1    3    3    0    0  0.18521214331E+02 -0.27594362876E+02 -0.52169131964E+02  0.61855497516E+02  0.51100000000E-03 0. -1.
         23    2    1    0    0    0  0.87082608990E+01 -0.74626270090E+01 -0.27663454596E+02  0.95053525584E+02  0.90212977979E+02 0.  0.
         11    1    3    3    0    0 -0.98129534317E+01  0.20131735867E+02  0.24505677367E+02  0.33198028068E+02  0.51100000000E-03 0.  1.
         22    1    1    0    0    0 -0.87082608990E+01  0.74626270090E+01  0.27663454596E+02  0.29946474416E+02  0.00000000000E+00 0. -1.
</event>
<event>
 5    1  0.8962782E-005  0.9118800E+02  0.7818608E-02  0.1130116E+00
         25   -1    0    0    0    0  0.00000000000E+00  0.00000000000E+00  0.99999998245E-14  0.12500000000E+03  0.12500000000E+03 0.  0.
        -11    1    3    3    0    0 -0.35533283166E+02  0.10841654574E+02  0.11398901063E+02  0.38859884613E+02  0.51100000000E-03 0. -1.
         23    2    1    0    0    0  0.20256255245E+02  0.20337749097E+02  0.20102154847E+01  0.96225343074E+02  0.91822305398E+02 0.  0.
         11    1    3    3    0    0  0.55789538411E+02  0.94960945231E+01 -0.93886855782E+01  0.57365458461E+02  0.51100000000E-03 0.  1.
         22    1    1    0    0    0 -0.20256255245E+02 -0.20337749097E+02 -0.20102154847E+01  0.28774656926E+02  0.00000000000E+00 0.  1.
</event>
<event>
 5    1  0.8962782E-005  0.9118800E+02  0.7818608E-02  0.1130116E+00
         25   -1    0    0    0    0  0.00000000000E+00  0.00000000000E+00  0.99999998245E-14  0.12500000000E+03  0.12500000000E+03 0.  0.
        -11    1    3    3    0    0  0.53505524163E+02 -0.12670094966E+02 -0.67335054863E+01  0.55395961214E+02  0.51100000000E-03 0.  1.
         23    2    1    0    0    0  0.23488484755E+02  0.13507002826E+02 -0.11611752403E+02  0.95521519115E+02  0.90859120504E+02 0.  0.
         11    1    3    3    0    0 -0.30017039408E+02  0.26177097792E+02 -0.48782469164E+01  0.40125557901E+02  0.51100000000E-03 0. -1.
         22    1    1    0    0    0 -0.23488484755E+02 -0.13507002826E+02  0.11611752403E+02  0.29478480885E+02  0.00000000000E+00 0.  1.
</event>
<event>
 5    1  0.8962782E-005  0.9118800E+02  0.7818608E-02  0.1130116E+00
         25   -1    0    0    0    0  0.00000000000E+00  0.00000000000E+00  0.99999998245E-14  0.12500000000E+03  0.12500000000E+03 0.  0.
        -11    1    3    3    0    0 -0.38085358524E+02  0.11929849390E+02  0.12618513099E+02  0.41857409302E+02  0.51100000000E-03 0.  1.
         23    2    1    0    0    0  0.59654766786E+00 -0.23835811221E+02  0.18436195285E+02  0.94860407065E+02  0.89944993003E+02 0.  0.
         11    1    3    3    0    0  0.38681906192E+02 -0.35765660611E+02  0.58176821866E+01  0.53002997763E+02  0.51100000000E-03 0. -1.
         22    1    1    0    0    0 -0.59654766786E+00  0.23835811221E+02 -0.18436195285E+02  0.30139592935E+02  0.00000000000E+00 0. -1.
</event>
<event>
 5    1  0.8962782E-005  0.9118800E+02  0.7818608E-02  0.1130116E+00
         25   -1    0    0    0    0  0.00000000000E+00  0.00000000000E+00  0.99999998245E-14  0.12500000000E+03  0.12500000000E+03 0.  0.
        -11    1    3    3    0    0 -0.35721135104E+02 -0.22783997301E+01  0.44255955185E+02  0.56919066823E+02  0.51100000000E-03 0.  1.
         23    2    1    0    0    0 -0.63137849977E+01 -0.16483226739E+02  0.23478297568E+02  0.95626694067E+02  0.91003700567E+02 0.  0.
         11    1    3    3    0    0  0.29407350106E+02 -0.14204827008E+02 -0.20777657617E+02  0.38707627244E+02  0.51100000000E-03 0. -1.
         22    1    1    0    0    0  0.63137849977E+01  0.16483226739E+02 -0.23478297568E+02  0.29373305933E+02  0.00000000000E+00 0.  1.
</event>
<event>
 5    1  0.8962782E-005  0.9118800E+02  0.7818608E-02  0.1130116E+00
         25   -1    0    0    0    0  0.00000000000E+00  0.00000000000E+00  0.99999998245E-14  0.12500000000E+03  0.12500000000E+03 0.  0.
        -11    1    3    3    0    0 -0.27650518399E+02 -0.21689967291E+02  0.44758286477E+00  0.35145500132E+02  0.51100000000E-03 0.  1.
         23    2    1    0    0    0  0.59112934517E+01  0.26194640396E+02  0.13326025526E+02  0.95021915804E+02  0.90169168516E+02 0.  0.
         11    1    3    3    0    0  0.33561811851E+02  0.47884607687E+02  0.12878442661E+02  0.59876415672E+02  0.51100000000E-03 0. -1.
         22    1    1    0    0    0 -0.59112934517E+01 -0.26194640396E+02 -0.13326025526E+02  0.29978084196E+02  0.00000000000E+00 0. -1.
</event>
<event>
 5    1  0.8962782E-005  0.9118800E+02  0.7818608E-02  0.1130116E+00
         25   -1    0    0    0    0  0.00000000000E+00  0.00000000000E+00  0.99999998245E-14  0.12500000000E+03  0.12500000000E+03 0.  0.
        -11    1    3    3    0    0 -0.35625704190E+02  0.84375839463E+01 -0.65226741841E+01  0.37187752024E+02  0.51100000000E-03 0. -1.
         23    2    1    0    0    0  0.85950543833E+01 -0.87465201276E+01 -0.31781261764E+02  0.90934986078E+02  0.84313382802E+02 0.  0.
         11    1    3    3    0    0  0.44220758573E+02 -0.17184104074E+02 -0.25258587580E+02  0.53747234053E+02  0.51100000000E-03 0.  1.
         22    1    1    0    0    0 -0.85950543833E+01  0.87465201276E+01  0.31781261764E+02  0.34065013922E+02  0.00000000000E+00 0.  1.
</event>
<event>
 5    1  0.8962782E-005  0.9118800E+02  0.7818608E-02  0.1130116E+00
         25   -1    0    0    0    0  0.00000000000E+00  0.00000000000E+00  0.99999998245E-14  0.12500000000E+03  0.12500000000E+03 0.  0.
        -11    1    3    3    0    0  0.22905057505E+02  0.18671521948E+01  0.27650428541E+02  0.35953777484E+02  0.51100000000E-03 0.  1.
         23    2    1    0    0    0 -0.90244596480E+01  0.14681744328E+02 -0.22430224194E+02  0.96713794071E+02  0.92484855614E+02 0.  0.
         11    1    3    3    0    0 -0.31929517153E+02  0.12814592133E+02 -0.50080652734E+02  0.60760016588E+02  0.51100000000E-03 0. -1.
         22    1    1    0    0    0  0.90244596480E+01 -0.14681744328E+02  0.22430224194E+02  0.28286205929E+02  0.00000000000E+00 0. -1.
</event>
<event>
 5    1  0.8962782E-005  0.9118800E+02  0.7818608E-02  0.1130116E+00
         25   -1    0    0    0    0  0.00000000000E+00  0.00000000000E+00  0.99999998245E-14  0.12500000000E+03  0.12500000000E+03 0.  0.
        -11    1    3    3    0    0 -0.39819870134E+02  0.29930103780E+02 -0.24608047593E+02  0.55560680129E+02  0.51100000000E-03 0.  1.
         23    2    1    0    0    0 -0.21695707021E+02  0.11129838648E+02  0.97694165146E+01  0.98731796587E+02  0.95173258570E+02 0.  0.
         11    1    3    3    0    0  0.18124163113E+02 -0.18800265132E+02  0.34377464107E+02  0.43171116459E+02  0.51100000000E-03 0. -1.
         22    1    1    0    0    0  0.21695707021E+02 -0.11129838648E+02 -0.97694165146E+01  0.26268203413E+02  0.00000000000E+00 0.  1.
</event>
<event>
 5    1  0.8962782E-005  0.9118800E+02  0.7818608E-02  0.1130116E+00
         25   -1    0    0    0    0  0.00000000000E+00  0.00000000000E+00  0.99999998245E-14  0.12500000000E+03  0.12500000000E+03 0.  0.
        -11    1    3    3    0    0  0.49082838896E+02 -0.12948496923E+02 -0.15069582890E+02  0.52951685293E+02  0.51100000000E-03 0.  1.
         23    2    1    0    0    0  0.19022040770E+02 -0.26150754952E+02  0.62032667471E+01  0.92073103123E+02  0.85984160057E+02 0.  0.
         11    1    3    3    0    0 -0.30060798126E+02 -0.13202258029E+02  0.21272849637E+02  0.39121417830E+02  0.51100000000E-03 0. -1.
         22    1    1    0    0    0 -0.19022040770E+02  0.26150754952E+02 -0.62032667471E+01  0.32926896877E+02  0.00000000000E+00 0.  1.
</event>
<event>
 5    1  0.8962782E-005  0.9118800E+02  0.7818608E-02  0.1130116E+00
         25   -1    0    0    0    0  0.00000000000E+00  0.00000000000E+00  0.99999998245E-14  0.12500000000E+03  0.12500000000E+03 0.  0.
        -11    1    3    3    0    0 -0.22072212652E+02  0.36652821719E+02 -0.24424682106E+02  0.49266388213E+02  0.51100000000E-03 0.  1.
         23    2    1    0    0    0 -0.16487146182E+02 -0.88574910929E+01 -0.23276304541E+02  0.95132501096E+02  0.90322340946E+02 0.  0.
         11    1    3    3    0    0  0.55850664696E+01 -0.45510312812E+02  0.11483775649E+01  0.45866112883E+02  0.51100000000E-03 0. -1.
         22    1    1    0    0    0  0.16487146182E+02  0.88574910929E+01  0.23276304541E+02  0.29867498904E+02  0.00000000000E+00 0.  1.
</event>
<event>
 5    1  0.8962782E-005  0.9118800E+02  0.7818608E-02  0.1130116E+00
         25   -1    0    0    0    0  0.00000000000E+00  0.00000000000E+00  0.99999998245E-14  0.12500000000E+03  0.12500000000E+03 0.  0.
        -11    1    3    3    0    0 -0.12915868192E+02 -0.40588282158E+02  0.34824957308E+02  0.55018232900E+02  0.51100000000E-03 0.  1.
         23    2    1    0    0    0  0.49346101006E+01 -0.84566596832E+01  0.31601627016E+02  0.91916343916E+02  0.85755967600E+02 0.  0.
         11    1    3    3    0    0  0.17850478293E+02  0.32131622474E+02 -0.32233302925E+01  0.36898111016E+02  0.51100000000E-03 0. -1.
         22    1    1    0    0    0 -0.49346101006E+01  0.84566596832E+01 -0.31601627016E+02  0.33083656084E+02  0.00000000000E+00 0.  1.
</event>
<event>
 5    1  0.8962782E-005  0.9118800E+02  0.7818608E-02  0.1130116E+00
         25   -1    0    0    0    0  0.00000000000E+00  0.00000000000E+00  0.99999998245E-14  0.12500000000E+03  0.12500000000E+03 0.  0.
        -11    1    3    3    0    0  0.22376684342E+02  0.10723939713E+02 -0.32762126928E+02  0.41098367926E+02  0.51100000000E-03 0.  1.
         23    2    1    0    0    0 -0.26035838120E+02  0.75778267085E+01 -0.37507416886E+01  0.97625625351E+02  0.93709158238E+02 0.  0.
         11    1    3    3    0    0 -0.48412522462E+02 -0.31461130045E+01  0.29011385239E+02  0.56527257424E+02  0.51100000000E-03 0. -1.
         22    1    1    0    0    0  0.26035838120E+02 -0.75778267085E+01  0.37507416886E+01  0.27374374649E+02  0.00000000000E+00 0. -1.
</event>
<event>
 5    1  0.8962782E-005  0.9118800E+02  0.7818608E-02  0.1130116E+00
         25   -1    0    0    0    0  0.00000000000E+00  0.00000000000E+00  0.99999998245E-14  0.12500000000E+03  0.12500000000E+03 0.  0.
        -11    1    3    3    0    0  0.20074101854E+02 -0.25522467224E+02  0.50154767548E+02  0.59748360702E+02  0.51100000000E-03 0.  1.
         23    2    1    0    0    0  0.20353590281E+02 -0.10960170085E+02  0.15979996175E+02  0.96897433509E+02  0.92732725492E+02 0.  0.
         11    1    3    3    0    0  0.27948842724E+00  0.14562297139E+02 -0.34174771373E+02  0.37149072807E+02  0.51100000000E-03 0. -1.
         22    1    1    0    0    0 -0.20353590281E+02  0.10960170085E+02 -0.15979996175E+02  0.28102566491E+02  0.00000000000E+00 0.  1.
</event>
<event>
 5    1  0.8962782E-005  0.9118800E+02  0.7818608E-02  0.1130116E+00
         25   -1    0    0    0    0  0.00000000000E+00  0.00000000000E+00  0.99999998245E-14  0.12500000000E+03  0.12500000000E+03 0.  0.
        -11    1    3    3    0    0 -0.18709880140E+02 -0.20590032723E+02 -0.23035242005E+02  0.36119682126E+02  0.51100000000E-03 0. -1.
         23    2    1    0    0    0 -0.73794206057E+01  0.13314768296E+02  0.24838588564E+02  0.95867640242E+02  0.91334057506E+02 0.  0.
         11    1    3    3    0    0  0.11330459534E+02  0.33904801019E+02  0.47873830569E+02  0.59747958116E+02  0.51100000000E-03 0.  1.
         22    1    1    0    0    0  0.73794206057E+01 -0.13314768296E+02 -0.24838588564E+02  0.29132359758E+02  0.00000000000E+00 0.  1.
</event>
<event>
 5    1  0.8962782E-005  0.9118800E+02  0.7818608E-02  0.1130116E+00
         25   -1    0    0    0    0  0.00000000000E+00  0.00000000000E+00  0.99999998245E-14  0.12500000000E+03  0.12500000000E+03 0.  0.
        -11    1    3    3    0    0 -0.15801181555E+02  0.20349721036E+02  0.50732449800E+02  0.56899648046E+02  0.51100000000E-03 0.  1.
         23    2    1    0    0    0  0.11268451850E+02  0.65841029410E+01  0.25385031097E+02  0.96456555526E+02  0.92136523060E+02 0.  0.
         11    1    3    3    0    0  0.27069633405E+02 -0.13765618095E+02 -0.25347418703E+02  0.39556907480E+02  0.51100000000E-03 0. -1.
         22    1    1    0    0    0 -0.11268451850E+02 -0.65841029410E+01 -0.25385031097E+02  0.28543444474E+02  0.00000000000E+00 0.  1.
</event>
<event>
 5    1  0.8962782E-005  0.9118800E+02  0.7818608E-02  0.1130116E+00
         25   -1    0    0    0    0  0.00000000000E+00  0.00000000000E+00  0.99999998245E-14  0.12500000000E+03  0.12500000000E+03 0.  0.
        -11    1    3    3    0    0 -0.43945274148E+01 -0.33646118375E+02 -0.16703250893E+02  0.37820255731E+02  0.51100000000E-03 0.  1.
         23    2    1    0    0    0  0.19673629338E+02  0.99396385256E+01  0.16327067816E+02  0.97569701992E+02  0.93634531546E+02 0.  0.
         11    1    3    3    0    0  0.24068156753E+02  0.43585756901E+02  0.33030318709E+02  0.59749446260E+02  0.51100000000E-03 0. -1.
         22    1    1    0    0    0 -0.19673629338E+02 -0.99396385256E+01 -0.16327067816E+02  0.27430298008E+02  0.00000000000E+00 0. -1.
</event>
<event>
 5    1  0.8962782E-005  0.9118800E+02  0.7818608E-02  0.1130116E+00
         25   -1    0    0    0    0  0.00000000000E+00  0.00000000000E+00  0.99999998245E-14  0.12500000000E+03  0.12500000000E+03 0.  0.
        -11    1    3    3    0    0  0.55079122328E+01 -0.39557959486E+02  0.38991940189E+02  0.55817028368E+02  0.51100000000E-03 0.  1.
         23    2    1    0    0    0  0.17333204819E+02 -0.22663176588E+02  0.43413984160E+01  0.96139866554E+02  0.91705870250E+02 0.  0.
         11    1    3    3    0    0  0.11825292586E+02  0.16894782898E+02 -0.34650541773E+02  0.40322838186E+02  0.51100000000E-03 0. -1.
         22    1    1    0    0    0 -0.17333204819E+02  0.22663176588E+02 -0.43413984160E+01  0.28860133446E+02  0.00000000000E+00 0.  1.
</event>
<event>
 5    1  0.8962782E-005  0.9118800E+02  0.7818608E-02  0.1130116E+00
         25   -1    0    0    0    0  0.00000000000E+00  0.00000000000E+00  0.99999998245E-14  0.12500000000E+03  0.12500000000E+03 0.  0.
        -11    1    3    3    0    0 -0.59902563246E+02 -0.89920826999E+01 -0.12571547713E+01  0.60586756582E+02  0.51100000000E-03 0. -1.
         23    2    1    0    0    0 -0.33073589714E+02 -0.45291554392E+01  0.10192793491E+02  0.90096294971E+02  0.83060663029E+02 0.  0.
         11    1    3    3    0    0  0.26828973531E+02  0.44629272607E+01  0.11449948263E+02  0.29509538389E+02  0.51100000000E-03 0.  1.
         22    1    1    0    0    0  0.33073589714E+02  0.45291554392E+01 -0.10192793491E+02  0.34903705029E+02  0.00000000000E+00 0. -1.
</event>
<event>
 5    1  0.8962782E-005  0.9118800E+02  0.7818608E-02  0.1130116E+00
         25   -1    0    0    0    0  0.00000000000E+00  0.00000000000E+00  0.99999998245E-14  0.12500000000E+03  0.12500000000E+03 0.  0.
        -11    1    3    3    0    0 -0.39244742484E+02 -0.55958651046E+01  0.19402629047E+02  0.44135309369E+02  0.51100000000E-03 0.  1.
         23    2    1    0    0    0  0.81637444979E+01 -0.25446660166E+02  0.10447364091E+02  0.96306330763E+02  0.91932489854E+02 0.  0.
         11    1    3    3    0    0  0.47408486982E+02 -0.19850795062E+02 -0.89552649566E+01  0.52171021393E+02  0.51100000000E-03 0. -1.
         22    1    1    0    0    0 -0.81637444979E+01  0.25446660166E+02 -0.10447364091E+02  0.28693669237E+02  0.00000000000E+00 0. -1.
</event>
<event>
 5    1  0.8962782E-005  0.9118800E+02  0.7818608E-02  0.1130116E+00
         25   -1    0    0    0    0  0.00000000000E+00  0.00000000000E+00  0.99999998245E-14  0.12500000000E+03  0.12500000000E+03 0.  0.
        -11    1    3    3    0    0  0.73442916725E+01 -0.14693851724E+02 -0.56961834844E+02  0.59283206119E+02  0.51100000000E-03 0. -1.
         23    2    1    0    0    0  0.18020246317E+02 -0.65897841354E+01 -0.36882064839E+02  0.83425473676E+02  0.72328199334E+02 0.  0.
         11    1    3    3    0    0  0.10675954645E+02  0.81040675888E+01  0.20079770005E+02  0.24142267557E+02  0.51100000000E-03 0.  1.
         22    1    1    0    0    0 -0.18020246317E+02  0.65897841354E+01  0.36882064839E+02  0.41574526324E+02  0.00000000000E+00 0. -1.
</event>
<event>
 5    1  0.8962782E-005  0.9118800E+02  0.7818608E-02  0.1130116E+00
         25   -1    0    0    0    0  0.00000000000E+00  0.00000000000E+00  0.99999998245E-14  0.12500000000E+03  0.12500000000E+03 0.  0.
        -11    1    3    3    0    0  0.27698170895E+02 -0.12276605018E+02 -0.22515368242E+02  0.37747125838E+02  0.51100000000E-03 0. -1.
         23    2    1    0    0    0 -0.77549895596E+01 -0.12605797129E+02  0.24345276532E+02  0.96508975558E+02  0.92207612969E+02 0.  0.
         11    1    3    3    0    0 -0.35453160454E+02 -0.32919211139E+00  0.46860644774E+02  0.58761849720E+02  0.51100000000E-03 0.  1.
         22    1    1    0    0    0  0.77549895596E+01  0.12605797129E+02 -0.24345276532E+02  0.28491024442E+02  0.00000000000E+00 0.  1.
</event>
<event>
 5    1  0.8962782E-005  0.9118800E+02  0.7818608E-02  0.1130116E+00
         25   -1    0    0    0    0  0.00000000000E+00  0.00000000000E+00  0.99999998245E-14  0.12500000000E+03  0.12500000000E+03 0.  0.
        -11    1    3    3    0    0 -0.31350412973E+02  0.12569818186E+02  0.11133282023E+02  0.35564008375E+02  0.51100000000E-03 0. -1.
         23    2    1    0    0    0  0.18599851947E+02  0.47613609733E+01 -0.21837967035E+02  0.95922141499E+02  0.91408617618E+02 0.  0.
         11    1    3    3    0    0  0.49950264920E+02 -0.78084572125E+01 -0.32971249058E+02  0.60358133125E+02  0.51100000000E-03 0.  1.
         22    1    1    0    0    0 -0.18599851947E+02 -0.47613609733E+01  0.21837967035E+02  0.29077858501E+02  0.00000000000E+00 0.  1.
</event>
<event>
 5    1  0.8962782E-005  0.9118800E+02  0.7818608E-02  0.1130116E+00
         25   -1    0    0    0    0  0.00000000000E+00  0.00000000000E+00  0.99999998245E-14  0.12500000000E+03  0.12500000000E+03 0.  0.
        -11    1    3    3    0    0 -0.68436581446E+01  0.24053269119E+01  0.61088248573E+02  0.61517439546E+02  0.51100000000E-03 0.  1.
         23    2    1    0    0    0 -0.89781909693E+01  0.64806292978E+01  0.28573113899E+02  0.94356414912E+02  0.89241827233E+02 0.  0.
         11    1    3    3    0    0 -0.21345328246E+01  0.40753023859E+01 -0.32515134674E+02  0.32838975366E+02  0.51100000000E-03 0. -1.
         22    1    1    0    0    0  0.89781909693E+01 -0.64806292978E+01 -0.28573113899E+02  0.30643585088E+02  0.00000000000E+00 0.  1.
</event>
<event>
 5    1  0.8962782E-005  0.9118800E+02  0.7818608E-02  0.1130116E+00
         25   -1    0    0    0    0  0.00000000000E+00  0.00000000000E+00  0.99999998245E-14  0.12500000000E+03  0.12500000000E+03 0.  0.
        -11    1    3    3    0    0 -0.25199614066E+02 -0.13981651498E+01 -0.47058195859E+02  0.53398962655E+02  0.51100000000E-03 0. -1.
         23    2    1    0    0    0  0.10540433813E+02  0.66251522829E+01 -0.27248623480E+02  0.95042014933E+02  0.90197027297E+02 0.  0.
         11    1    3    3    0    0  0.35740047878E+02  0.80233174327E+01  0.19809572379E+02  0.41643052278E+02  0.51100000000E-03 0.  1.
         22    1    1    0    0    0 -0.10540433813E+02 -0.66251522829E+01  0.27248623480E+02  0.29957985067E+02  0.00000000000E+00 0. -1.
</event>
<event>
 5    1  0.8962782E-005  0.9118800E+02  0.7818608E-02  0.1130116E+00
         25   -1    0    0    0    0  0.00000000000E+00  0.00000000000E+00  0.99999998245E-14  0.12500000000E+03  0.12500000000E+03 0.  0.
        -11    1    3    3    0    0 -0.77381491423E+01 -0.18817477098E+02  0.26718633095E+02  0.33583653035E+02  0.51100000000E-03 0.  1.
         23    2    1    0    0    0  0.11415488777E+02  0.25001790642E+02 -0.11897632628E+02  0.95050766596E+02  0.90209155018E+02 0.  0.
         11    1    3    3    0    0  0.19153637919E+02  0.43819267739E+02 -0.38616265724E+02  0.61467113561E+02  0.51100000000E-03 0. -1.
         22    1    1    0    0    0 -0.11415488777E+02 -0.25001790642E+02  0.11897632628E+02  0.29949233404E+02  0.00000000000E+00 0. -1.
</event>
<event>
 5    1  0.8962782E-005  0.9118800E+02  0.7818608E-02  0.1130116E+00
         25   -1    0    0    0    0  0.00000000000E+00  0.00000000000E+00  0.99999998245E-14  0.12500000000E+03  0.12500000000E+03 0.  0.
        -11    1    3    3    0    0  0.61580864336E+02  0.62746580802E+01  0.70825535525E+00  0.61903762506E+02  0.51100000000E-03 0. -1.
         23    2    1    0    0    0  0.27523807526E+02  0.83578665297E+01  0.28668638456E+01  0.96092685667E+02  0.91641537616E+02 0.  0.
         11    1    3    3    0    0 -0.34057056811E+02  0.20832084495E+01  0.21586084903E+01  0.34188923161E+02  0.51100000000E-03 0.  1.
         22    1    1    0    0    0 -0.27523807526E+02 -0.83578665297E+01 -0.28668638456E+01  0.28907314333E+02  0.00000000000E+00 0. -1.
</event>
<event>
 5    1  0.8962782E-005  0.9118800E+02  0.7818608E-02  0.1130116E+00
         25   -1    0    0    0    0  0.00000000000E+00  0.00000000000E+00  0.99999998245E-14  0.12500000000E+03  0.12500000000E+03 0.  0.
        -11    1    3    3    0    0 -0.16926700129E+02 -0.30523039568E+02 -0.17404916637E+02  0.39001285173E+02  0.51100000000E-03 0. -1.
         23    2    1    0    0    0  0.28708178366E+02 -0.91083870757E+00  0.50109738998E+00  0.96273005189E+02  0.91887166119E+02 0.  0.
         11    1    3    3    0    0  0.45634878495E+02  0.29612200861E+02  0.17906014027E+02  0.57271720016E+02  0.51100000000E-03 0.  1.
         22    1    1    0    0    0 -0.28708178366E+02  0.91083870757E+00 -0.50109738998E+00  0.28726994811E+02  0.00000000000E+00 0.  1.
</event>
<event>
 5    1  0.8962782E-005  0.9118800E+02  0.7818608E-02  0.1130116E+00
         25   -1    0    0    0    0  0.00000000000E+00  0.00000000000E+00  0.99999998245E-14  0.12500000000E+03  0.12500000000E+03 0.  0.
        -11    1    3    3    0    0  0.27168852149E+02  0.83084841806E+01 -0.46943192399E+02  0.54871128559E+02  0.51100000000E-03 0.  1.
         23    2    1    0    0    0 -0.93307763842E+01  0.61790690281E+01 -0.25242455652E+02  0.97387940147E+02  0.93391568338E+02 0.  0.
         11    1    3    3    0    0 -0.36499628533E+02 -0.21294151525E+01  0.21700736747E+02  0.42516811588E+02  0.51100000000E-03 0. -1.
         22    1    1    0    0    0  0.93307763842E+01 -0.61790690281E+01  0.25242455652E+02  0.27612059853E+02  0.00000000000E+00 0.  1.
</event>
<event>
 5    1  0.8962782E-005  0.9118800E+02  0.7818608E-02  0.1130116E+00
         25   -1    0    0    0    0  0.00000000000E+00  0.00000000000E+00  0.99999998245E-14  0.12500000000E+03  0.12500000000E+03 0.  0.
        -11    1    3    3    0    0  0.87756109906E+01 -0.32892541952E+02  0.51536949401E+02  0.61765587653E+02  0.51100000000E-03 0.  1.
         23    2    1    0    0    0  0.10823644787E+02 -0.14374216913E+02  0.24392631991E+02  0.94688782707E+02  0.89706162981E+02 0.  0.
         11    1    3    3    0    0  0.20480337963E+01  0.18518325039E+02 -0.27144317409E+02  0.32923195054E+02  0.51100000000E-03 0. -1.
         22    1    1    0    0    0 -0.10823644787E+02  0.14374216913E+02 -0.24392631991E+02  0.30311217293E+02  0.00000000000E+00 0.  1.
</event>
<event>
 5    1  0.8962782E-005  0.9118800E+02  0.7818608E-02  0.1130116E+00
         25   -1    0    0    0    0  0.00000000000E+00  0.00000000000E+00  0.99999998245E-14  0.12500000000E+03  0.12500000000E+03 0.  0.
        -11    1    3    3    0    0 -0.27264800274E+02  0.44408083759E+02  0.19996142375E+02  0.55814809390E+02  0.51100000000E-03 0.  1.
         23    2    1    0    0    0  0.14239930727E+00  0.14725483902E+02  0.24447411696E+02  0.96459921298E+02  0.92141089230E+02 0.  0.
         11    1    3    3    0    0  0.27407199581E+02 -0.29682599857E+02  0.44512693209E+01  0.40645111908E+02  0.51100000000E-03 0. -1.
         22    1    1    0    0    0 -0.14239930727E+00 -0.14725483902E+02 -0.24447411696E+02  0.28540078702E+02  0.00000000000E+00 0.  1.
</event>
<event>
 5    1  0.8962782E-005  0.9118800E+02  0.7818608E-02  0.1130116E+00
         25   -1    0    0    0    0  0.00000000000E+00  0.00000000000E+00  0.99999998245E-14  0.12500000000E+03  0.12500000000E+03 0.  0.
        -11    1    3    3    0    0 -0.42997287620E+02  0.41002234763E+02 -0.15739359086E+02  0.61462813334E+02  0.51100000000E-03 0. -1.
         23    2    1    0    0    0 -0.20998512670E+02  0.19142492055E+02  0.72782062624E+00  0.96576378498E+02  0.92298941622E+02 0.  0.
         11    1    3    3    0    0  0.21998774950E+02 -0.21859742708E+02  0.16467179712E+02  0.35113565164E+02  0.51100000000E-03 0.  1.
         22    1    1    0    0    0  0.20998512670E+02 -0.19142492055E+02 -0.72782062624E+00  0.28423621502E+02  0.00000000000E+00 0. -1.
</event>
<event>
 5    1  0.8962782E-005  0.9118800E+02  0.7818608E-02  0.1130116E+00
         25   -1    0    0    0    0  0.00000000000E+00  0.00000000000E+00  0.99999998245E-14  0.12500000000E+03  0.12500000000E+03 0.  0.
        -11    1    3    3    0    0 -0.27962796488E+02  0.41127305738E+02 -0.12190447118E+02  0.51205275762E+02  0.51100000000E-03 0.  1.
         23    2    1    0    0    0 -0.22792232268E+02 -0.32902076828E+01 -0.17276886298E+02  0.96211076461E+02  0.91802881847E+02 0.  0.
         11    1    3    3    0    0  0.51705642202E+01 -0.44417513420E+02 -0.50864391809E+01  0.45005800699E+02  0.51100000000E-03 0. -1.
         22    1    1    0    0    0  0.22792232268E+02  0.32902076828E+01  0.17276886298E+02  0.28788923539E+02  0.00000000000E+00 0. -1.
</event>
<event>
 5    1  0.8962782E-005  0.9118800E+02  0.7818608E-02  0.1130116E+00
         25   -1    0    0    0    0  0.00000000000E+00  0.00000000000E+00  0.99999998245E-14  0.12500000000E+03  0.12500000000E+03 0.  0.
        -11    1    3    3    0    0 -0.35607010542E+01 -0.52918376913E+01 -0.25971087895E+02  0.26742841002E+02  0.51100000000E-03 0. -1.
         23    2    1    0    0    0  0.93475970086E+01 -0.23151943995E+02  0.29453666704E+02  0.86387714871E+02  0.77278255141E+02 0.  0.
         11    1    3    3    0    0  0.12908298063E+02 -0.17860106304E+02  0.55424754600E+02  0.59644873868E+02  0.51100000000E-03 0.  1.
         22    1    1    0    0    0 -0.93475970086E+01  0.23151943995E+02 -0.29453666704E+02  0.38612285129E+02  0.00000000000E+00 0.  1.
</event>
<event>
 5    1  0.8962782E-005  0.9118800E+02  0.7818608E-02  0.1130116E+00
         25   -1    0    0    0    0  0.00000000000E+00  0.00000000000E+00  0.99999998245E-14  0.12500000000E+03  0.12500000000E+03 0.  0.
        -11    1    3    3    0    0 -0.14391103143E+02  0.22050429048E+02 -0.31933150596E+02  0.41389024851E+02  0.51100000000E-03 0. -1.
         23    2    1    0    0    0 -0.12554275375E+02 -0.25342198239E+02 -0.39851997737E+01  0.96439211162E+02  0.92112989261E+02 0.  0.
         11    1    3    3    0    0  0.18368277677E+01 -0.47392627287E+02  0.27947950822E+02  0.55050186311E+02  0.51100000000E-03 0.  1.
         22    1    1    0    0    0  0.12554275375E+02  0.25342198239E+02  0.39851997737E+01  0.28560788838E+02  0.00000000000E+00 0.  1.
</event>
<event>
 5    1  0.8962782E-005  0.9118800E+02  0.7818608E-02  0.1130116E+00
         25   -1    0    0    0    0  0.00000000000E+00  0.00000000000E+00  0.99999998245E-14  0.12500000000E+03  0.12500000000E+03 0.  0.
        -11    1    3    3    0    0  0.34301213641E+02  0.29562690586E+02 -0.39151530567E+02  0.59861241868E+02  0.51100000000E-03 0. -1.
         23    2    1    0    0    0  0.16153632641E+02  0.30940996774E+01 -0.25319210446E+02  0.94807687767E+02  0.89871697112E+02 0.  0.
         11    1    3    3    0    0 -0.18147581000E+02 -0.26468590909E+02  0.13832320120E+02  0.34946445900E+02  0.51100000000E-03 0.  1.
         22    1    1    0    0    0 -0.16153632641E+02 -0.30940996774E+01  0.25319210446E+02  0.30192312233E+02  0.00000000000E+00 0. -1.
</event>
<event>
 5    1  0.8962782E-005  0.9118800E+02  0.7818608E-02  0.1130116E+00
         25   -1    0    0    0    0  0.00000000000E+00  0.00000000000E+00  0.99999998245E-14  0.12500000000E+03  0.12500000000E+03 0.  0.
        -11    1    3    3    0    0  0.22752205652E+02  0.22957256271E+02  0.21812817222E+02  0.38993556814E+02  0.51100000000E-03 0.  1.
         23    2    1    0    0    0 -0.15036044234E+02 -0.18154415750E+02  0.18683168747E+02  0.94921332612E+02  0.90029623752E+02 0.  0.
         11    1    3    3    0    0 -0.37788249887E+02 -0.41111672021E+02 -0.31296484759E+01  0.55927775798E+02  0.51100000000E-03 0. -1.
         22    1    1    0    0    0  0.15036044234E+02  0.18154415750E+02 -0.18683168747E+02  0.30078667388E+02  0.00000000000E+00 0. -1.
</event>
<event>
 5    1  0.8962782E-005  0.9118800E+02  0.7818608E-02  0.1130116E+00
         25   -1    0    0    0    0  0.00000000000E+00  0.00000000000E+00  0.99999998245E-14  0.12500000000E+03  0.12500000000E+03 0.  0.
        -11    1    3    3    0    0 -0.10738838940E+02  0.26728001745E+02  0.44701362721E+02  0.53178196363E+02  0.51100000000E-03 0.  1.
         23    2    1    0    0    0 -0.82839803644E+01  0.27242641936E+02  0.14641715088E+01  0.96488078484E+02  0.92179279781E+02 0.  0.
         11    1    3    3    0    0  0.24548585755E+01  0.51464019113E+00 -0.43237191212E+02  0.43309882121E+02  0.51100000000E-03 0. -1.
         22    1    1    0    0    0  0.82839803644E+01 -0.27242641936E+02 -0.14641715088E+01  0.28511921516E+02  0.00000000000E+00 0. -1.
</event>
<event>
 5    1  0.8962782E-005  0.9118800E+02  0.7818608E-02  0.1130116E+00
         25   -1    0    0    0    0  0.00000000000E+00  0.00000000000E+00  0.99999998245E-14  0.12500000000E+03  0.12500000000E+03 0.  0.
        -11    1    3    3    0    0  0.26469225842E+02  0.19305627002E+02  0.11544809711E+02  0.34736289124E+02  0.51100000000E-03 0. -1.
         23    2    1    0    0    0 -0.29038116188E+02 -0.36472382959E+01  0.65523866627E+01  0.95009196244E+02  0.90151533881E+02 0.  0.
         11    1    3    3    0    0 -0.55507342030E+02 -0.22952865298E+02 -0.49924230486E+01  0.60272907120E+02  0.51100000000E-03 0.  1.
         22    1    1    0    0    0  0.29038116188E+02  0.36472382959E+01 -0.65523866627E+01  0.29990803756E+02  0.00000000000E+00 0.  1.
</event>
<event>
 5    1  0.8962782E-005  0.9118800E+02  0.7818608E-02  0.1130116E+00
         25   -1    0    0    0    0  0.00000000000E+00  0.00000000000E+00  0.99999998245E-14  0.12500000000E+03  0.12500000000E+03 0.  0.
        -11    1    3    3    0    0 -0.55174941473E+02  0.57437465914E+00 -0.17130106955E+02  0.57775813602E+02  0.51100000000E-03 0.  1.
         23    2    1    0    0    0 -0.32833794963E+02  0.16412159946E+02 -0.42223104160E+01  0.88050778209E+02  0.79923053946E+02 0.  0.
         11    1    3    3    0    0  0.22341146510E+02  0.15837785287E+02  0.12907796539E+02  0.30274964607E+02  0.51100000000E-03 0. -1.
         22    1    1    0    0    0  0.32833794963E+02 -0.16412159946E+02  0.42223104160E+01  0.36949221791E+02  0.00000000000E+00 0.  1.
</event>
<event>
 5    1  0.8962782E-005  0.9118800E+02  0.7818608E-02  0.1130116E+00
         25   -1    0    0    0    0  0.00000000000E+00  0.00000000000E+00  0.99999998245E-14  0.12500000000E+03  0.12500000000E+03 0.  0.
        -11    1    3    3    0    0 -0.11746592918E+02 -0.11852457875E+02  0.21840136279E+02  0.27485537211E+02  0.51100000000E-03 0.  1.
         23    2    1    0    0    0  0.29618379116E+02  0.20532645507E+02  0.26559184899E+02  0.80231392523E+02  0.66579637508E+02 0.  0.
         11    1    3    3    0    0  0.41364972034E+02  0.32385103382E+02  0.47190486197E+01  0.52745855312E+02  0.51100000000E-03 0. -1.
         22    1    1    0    0    0 -0.29618379116E+02 -0.20532645507E+02 -0.26559184899E+02  0.44768607477E+02  0.00000000000E+00 0. -1.
</event>
<event>
 5    1  0.8962782E-005  0.9118800E+02  0.7818608E-02  0.1130116E+00
         25   -1    0    0    0    0  0.00000000000E+00  0.00000000000E+00  0.99999998245E-14  0.12500000000E+03  0.12500000000E+03 0.  0.
        -11    1    3    3    0    0  0.70112652612E+01 -0.32855061419E+02  0.19467329139E+02  0.38827693795E+02  0.51100000000E-03 0.  1.
         23    2    1    0    0    0  0.99801470004E+01  0.13755846977E+02 -0.19125373272E+02  0.99414719798E+02  0.96066018703E+02 0.  0.
         11    1    3    3    0    0  0.29688817392E+01  0.46610908395E+02 -0.38592702411E+02  0.60587026003E+02  0.51100000000E-03 0. -1.
         22    1    1    0    0    0 -0.99801470004E+01 -0.13755846977E+02  0.19125373272E+02  0.25585280202E+02  0.00000000000E+00 0. -1.
</event>
<event>
 5    1  0.8962782E-005  0.9118800E+02  0.7818608E-02  0.1130116E+00
         25   -1    0    0    0    0  0.00000000000E+00  0.00000000000E+00  0.99999998245E-14  0.12500000000E+03  0.12500000000E+03 0.  0.
        -11    1    3    3    0    0  0.48941364065E+02 -0.15715165855E+02 -0.35053267378E+02  0.62217000157E+02  0.51100000000E-03 0.  1.
         23    2    1    0    0    0  0.20702423399E+02 -0.70725052728E+01 -0.19974882395E+02  0.95375574400E+02  0.90658113813E+02 0.  0.
         11    1    3    3    0    0 -0.28238940666E+02  0.86426605823E+01  0.15078384983E+02  0.33158574243E+02  0.51100000000E-03 0. -1.
         22    1    1    0    0    0 -0.20702423399E+02  0.70725052728E+01  0.19974882395E+02  0.29624425600E+02  0.00000000000E+00 0.  1.
</event>
<event>
 5    1  0.8962782E-005  0.9118800E+02  0.7818608E-02  0.1130116E+00
         25   -1    0    0    0    0  0.00000000000E+00  0.00000000000E+00  0.99999998245E-14  0.12500000000E+03  0.12500000000E+03 0.  0.
        -11    1    3    3    0    0 -0.27742346857E+02 -0.40183576688E+01  0.32931906096E+02  0.43246912571E+02  0.51100000000E-03 0. -1.
         23    2    1    0    0    0  0.20614263445E+02  0.11795164371E+02  0.13296133725E+02  0.97781239339E+02  0.93916504592E+02 0.  0.
         11    1    3    3    0    0  0.48356610302E+02  0.15813522040E+02 -0.19635772372E+02  0.54534326768E+02  0.51100000000E-03 0.  1.
         22    1    1    0    0    0 -0.20614263445E+02 -0.11795164371E+02 -0.13296133725E+02  0.27218760661E+02  0.00000000000E+00 0.  1.
</event>
<event>
 5    1  0.8962782E-005  0.9118800E+02  0.7818608E-02  0.1130116E+00
         25   -1    0    0    0    0  0.00000000000E+00  0.00000000000E+00  0.99999998245E-14  0.12500000000E+03  0.12500000000E+03 0.  0.
        -11    1    3    3    0    0  0.27084220745E+02  0.53069567233E+02 -0.17866164881E+02  0.62202361913E+02  0.51100000000E-03 0.  1.
         23    2    1    0    0    0  0.95922927708E+01  0.24833522734E+02 -0.11395571652E+02  0.96041840782E+02  0.91572158409E+02 0.  0.
         11    1    3    3    0    0 -0.17491927974E+02 -0.28236044499E+02  0.64705932294E+01  0.33839478870E+02  0.51100000000E-03 0. -1.
         22    1    1    0    0    0 -0.95922927708E+01 -0.24833522734E+02  0.11395571652E+02  0.28958159218E+02  0.00000000000E+00 0.  1.
</event>
<event>
 5    1  0.8962782E-005  0.9118800E+02  0.7818608E-02  0.1130116E+00
         25   -1    0    0    0    0  0.00000000000E+00  0.00000000000E+00  0.99999998245E-14  0.12500000000E+03  0.12500000000E+03 0.  0.
        -11    1    3    3    0    0 -0.16607612196E+02 -0.54037942115E+02 -0.23188631314E+02  0.61103392650E+02  0.51100000000E-03 0.  1.
         23    2    1    0    0    0 -0.52918586534E+01 -0.27628839571E+02 -0.20092458554E+01  0.96797276498E+02  0.92597619432E+02 0.  0.
         11    1    3    3    0    0  0.11315753543E+02  0.26409102544E+02  0.21179385459E+02  0.35693883848E+02  0.51100000000E-03 0. -1.
         22    1    1    0    0    0  0.52918586534E+01  0.27628839571E+02  0.20092458554E+01  0.28202723502E+02  0.00000000000E+00 0.  1.
</event>
<event>
 5    1  0.8962782E-005  0.9118800E+02  0.7818608E-02  0.1130116E+00
         25   -1    0    0    0    0  0.00000000000E+00  0.00000000000E+00  0.99999998245E-14  0.12500000000E+03  0.12500000000E+03 0.  0.
        -11    1    3    3    0    0  0.13810111444E+02  0.34098667698E+00  0.33374930313E+02  0.36120927780E+02  0.51100000000E-03 0. -1.
         23    2    1    0    0    0 -0.30169729448E+02 -0.69313067506E+01 -0.33311009984E+01  0.93865584603E+02  0.88551658091E+02 0.  0.
         11    1    3    3    0    0 -0.43979840893E+02 -0.72722934276E+01 -0.36706031312E+02  0.57744656823E+02  0.51100000000E-03 0.  1.
         22    1    1    0    0    0  0.30169729448E+02  0.69313067506E+01  0.33311009984E+01  0.31134415397E+02  0.00000000000E+00 0.  1.
</event>
<event>
 5    1  0.8962782E-005  0.9118800E+02  0.7818608E-02  0.1130116E+00
         25   -1    0    0    0    0  0.00000000000E+00  0.00000000000E+00  0.99999998245E-14  0.12500000000E+03  0.12500000000E+03 0.  0.
        -11    1    3    3    0    0 -0.53814617050E+01 -0.25129967263E+02 -0.31397852344E+02  0.40574628979E+02  0.51100000000E-03 0.  1.
         23    2    1    0    0    0  0.86031883017E+00  0.26360585103E+02 -0.12877810269E+02  0.95649385138E+02  0.91034863016E+02 0.  0.
         11    1    3    3    0    0  0.62417805352E+01  0.51490552366E+02  0.18520042075E+02  0.55074756158E+02  0.51100000000E-03 0. -1.
         22    1    1    0    0    0 -0.86031883017E+00 -0.26360585103E+02  0.12877810269E+02  0.29350614862E+02  0.00000000000E+00 0. -1.
</event>
<event>
 5    1  0.8962782E-005  0.9118800E+02  0.7818608E-02  0.1130116E+00
         25   -1    0    0    0    0  0.00000000000E+00  0.00000000000E+00  0.99999998245E-14  0.12500000000E+03  0.12500000000E+03 0.  0.
        -11    1    3    3    0    0  0.44960341242E+02 -0.41097653137E+02  0.11627106085E+02  0.62013216124E+02  0.51100000000E-03 0.  1.
         23    2    1    0    0    0  0.21829969502E+02 -0.22465356954E+02  0.67992385762E+00  0.93667873867E+02  0.88272127349E+02 0.  0.
         11    1    3    3    0    0 -0.23130371740E+02  0.18632296182E+02 -0.10947182227E+02  0.31654657743E+02  0.51100000000E-03 0. -1.
         22    1    1    0    0    0 -0.21829969502E+02  0.22465356954E+02 -0.67992385762E+00  0.31332126133E+02  0.00000000000E+00 0.  1.
</event>
<event>
 5    1  0.8962782E-005  0.9118800E+02  0.7818608E-02  0.1130116E+00
         25   -1    0    0    0    0  0.00000000000E+00  0.00000000000E+00  0.99999998245E-14  0.12500000000E+03  0.12500000000E+03 0.  0.
        -11    1    3    3    0    0  0.73058887275E+01 -0.96319032863E+01 -0.31762932585E+02  0.33985783170E+02  0.51100000000E-03 0.  1.
         23    2    1    0    0    0  0.16240212728E+02 -0.10320867505E+02  0.26119567570E+02  0.92557795612E+02  0.86685921019E+02 0.  0.
         11    1    3    3    0    0  0.89343240008E+01 -0.68896421887E+00  0.57882500155E+02  0.58572012442E+02  0.51100000000E-03 0. -1.
         22    1    1    0    0    0 -0.16240212728E+02  0.10320867505E+02 -0.26119567570E+02  0.32442204388E+02  0.00000000000E+00 0. -1.
</event>
<event>
 5    1  0.8962782E-005  0.9118800E+02  0.7818608E-02  0.1130116E+00
         25   -1    0    0    0    0  0.00000000000E+00  0.00000000000E+00  0.99999998245E-14  0.12500000000E+03  0.12500000000E+03 0.  0.
        -11    1    3    3    0    0 -0.40045069716E+02  0.16893306767E+02  0.84024817054E+01  0.44267291776E+02  0.51100000000E-03 0. -1.
         23    2    1    0    0    0 -0.11099999248E+02 -0.42500674546E+01 -0.27525167837E+02  0.95018206839E+02  0.90164026694E+02 0.  0.
         11    1    3    3    0    0  0.28945070468E+02 -0.21143374221E+02 -0.35927649543E+02  0.50750915063E+02  0.51100000000E-03 0.  1.
         22    1    1    0    0    0  0.11099999248E+02  0.42500674546E+01  0.27525167837E+02  0.29981793161E+02  0.00000000000E+00 0. -1.
</event>
<event>
 5    1  0.8962782E-005  0.9118800E+02  0.7818608E-02  0.1130116E+00
         25   -1    0    0    0    0  0.00000000000E+00  0.00000000000E+00  0.99999998245E-14  0.12500000000E+03  0.12500000000E+03 0.  0.
        -11    1    3    3    0    0 -0.21299401058E+02  0.25964990001E+02 -0.29262866094E+01  0.33710656249E+02  0.51100000000E-03 0.  1.
         23    2    1    0    0    0  0.19706314226E+02  0.73548352173E+01  0.29189815490E+02  0.89021148576E+02  0.81426575170E+02 0.  0.
         11    1    3    3    0    0  0.41005715285E+02 -0.18610154784E+02  0.32116102099E+02  0.55310492326E+02  0.51100000000E-03 0. -1.
         22    1    1    0    0    0 -0.19706314226E+02 -0.73548352173E+01 -0.29189815490E+02  0.35978851424E+02  0.00000000000E+00 0. -1.
</event>
<event>
 5    1  0.8962782E-005  0.9118800E+02  0.7818608E-02  0.1130116E+00
         25   -1    0    0    0    0  0.00000000000E+00  0.00000000000E+00  0.99999998245E-14  0.12500000000E+03  0.12500000000E+03 0.  0.
        -11    1    3    3    0    0  0.14319564998E+02  0.66152438935E+01  0.40668862291E+02  0.43620726195E+02  0.51100000000E-03 0.  1.
         23    2    1    0    0    0 -0.36358795897E+01 -0.27828000008E+02  0.47285583808E+01  0.96539914456E+02  0.92249545332E+02 0.  0.
         11    1    3    3    0    0 -0.17955444588E+02 -0.34443243901E+02 -0.35940303910E+02  0.52919188261E+02  0.51100000000E-03 0. -1.
         22    1    1    0    0    0  0.36358795897E+01  0.27828000008E+02 -0.47285583808E+01  0.28460085544E+02  0.00000000000E+00 0.  1.
</event>
<event>
 5    1  0.8962782E-005  0.9118800E+02  0.7818608E-02  0.1130116E+00
         25   -1    0    0    0    0  0.00000000000E+00  0.00000000000E+00  0.99999998245E-14  0.12500000000E+03  0.12500000000E+03 0.  0.
        -11    1    3    3    0    0 -0.52793102142E+01  0.25661117216E+02  0.12249826011E+02  0.28920966282E+02  0.51100000000E-03 0.  1.
         23    2    1    0    0    0  0.11443188106E+02 -0.32461028082E+02  0.86650399350E+01  0.89507073729E+02  0.82169145257E+02 0.  0.
         11    1    3    3    0    0  0.16722498320E+02 -0.58122145298E+02 -0.35847860764E+01  0.60586107447E+02  0.51100000000E-03 0. -1.
         22    1    1    0    0    0 -0.11443188106E+02  0.32461028082E+02 -0.86650399350E+01  0.35492926271E+02  0.00000000000E+00 0. -1.
</event>
<event>
 5    1  0.8962782E-005  0.9118800E+02  0.7818608E-02  0.1130116E+00
         25   -1    0    0    0    0  0.00000000000E+00  0.00000000000E+00  0.99999998245E-14  0.12500000000E+03  0.12500000000E+03 0.  0.
        -11    1    3    3    0    0 -0.28333211900E+02 -0.19362851472E+02 -0.23247198618E+02  0.41450249186E+02  0.51100000000E-03 0.  1.
         23    2    1    0    0    0  0.14176301154E+02  0.15134976614E+02 -0.19836862324E+02  0.96302680641E+02  0.91927526674E+02 0.  0.
         11    1    3    3    0    0  0.42509513054E+02  0.34497828085E+02  0.34103362938E+01  0.54852431456E+02  0.51100000000E-03 0. -1.
         22    1    1    0    0    0 -0.14176301154E+02 -0.15134976614E+02  0.19836862324E+02  0.28697319359E+02  0.00000000000E+00 0. -1.
</event>
<event>
 5    1  0.8962782E-005  0.9118800E+02  0.7818608E-02  0.1130116E+00
         25   -1    0    0    0    0  0.00000000000E+00  0.00000000000E+00  0.99999998245E-14  0.12500000000E+03  0.12500000000E+03 0.  0.
        -11    1    3    3    0    0  0.24539526846E+02  0.38960317829E+01  0.49815016330E+02  0.55667794044E+02  0.51100000000E-03 0. -1.
         23    2    1    0    0    0  0.80394539585E+01  0.21745378671E+02  0.18323532892E+02  0.95449261073E+02  0.90759656611E+02 0.  0.
         11    1    3    3    0    0 -0.16500072888E+02  0.17849346888E+02 -0.31491483437E+02  0.39781467029E+02  0.51100000000E-03 0.  1.
         22    1    1    0    0    0 -0.80394539585E+01 -0.21745378671E+02 -0.18323532892E+02  0.29550738927E+02  0.00000000000E+00 0. -1.
</event>
<event>
 5    1  0.8962782E-005  0.9118800E+02  0.7818608E-02  0.1130116E+00
         25   -1    0    0    0    0  0.00000000000E+00  0.00000000000E+00  0.99999998245E-14  0.12500000000E+03  0.12500000000E+03 0.  0.
        -11    1    3    3    0    0  0.30443638989E+02 -0.36846797880E+02 -0.28679445848E+01  0.47882426581E+02  0.51100000000E-03 0. -1.
         23    2    1    0    0    0  0.22453178004E+01 -0.10779480744E+02 -0.28764811097E+02  0.94199788725E+02  0.89022172414E+02 0.  0.
         11    1    3    3    0    0 -0.28198321188E+02  0.26067317136E+02 -0.25896866512E+02  0.46317362144E+02  0.51100000000E-03 0.  1.
         22    1    1    0    0    0 -0.22453178004E+01  0.10779480744E+02  0.28764811097E+02  0.30800211275E+02  0.00000000000E+00 0. -1.
</event>
<event>
 5    1  0.8962782E-005  0.9118800E+02  0.7818608E-02  0.1130116E+00
         25   -1    0    0    0    0  0.00000000000E+00  0.00000000000E+00  0.99999998245E-14  0.12500000000E+03  0.12500000000E+03 0.  0.
        -11    1    3    3    0    0  0.27399948889E+02  0.20602136082E+02 -0.25546004230E+02  0.42752819120E+02  0.51100000000E-03 0.  1.
         23    2    1    0    0    0  0.26710735103E+02 -0.30018458928E+01  0.18251120583E+02  0.92510342399E+02  0.86617467059E+02 0.  0.
         11    1    3    3    0    0 -0.68921378651E+00 -0.23603981975E+02  0.43797124813E+02  0.49757523279E+02  0.51100000000E-03 0. -1.
         22    1    1    0    0    0 -0.26710735103E+02  0.30018458928E+01 -0.18251120583E+02  0.32489657601E+02  0.00000000000E+00 0. -1.
</event>
<event>
 5    1  0.8962782E-005  0.9118800E+02  0.7818608E-02  0.1130116E+00
         25   -1    0    0    0    0  0.00000000000E+00  0.00000000000E+00  0.99999998245E-14  0.12500000000E+03  0.12500000000E+03 0.  0.
        -11    1    3    3    0    0  0.25689308261E+02  0.37833475570E+02 -0.57819645522E+00  0.45734524640E+02  0.51100000000E-03 0. -1.
         23    2    1    0    0    0  0.11040982128E+02 -0.29567990343E+01  0.26015873752E+02  0.96583954639E+02  0.92309201382E+02 0.  0.
         11    1    3    3    0    0 -0.14648326133E+02 -0.40790274604E+02  0.26594070207E+02  0.50849429999E+02  0.51100000000E-03 0.  1.
         22    1    1    0    0    0 -0.11040982128E+02  0.29567990343E+01 -0.26015873752E+02  0.28416045361E+02  0.00000000000E+00 0.  1.
</event>
<event>
 5    1  0.8962782E-005  0.9118800E+02  0.7818608E-02  0.1130116E+00
         25   -1    0    0    0    0  0.00000000000E+00  0.00000000000E+00  0.99999998245E-14  0.12500000000E+03  0.12500000000E+03 0.  0.
        -11    1    3    3    0    0 -0.16541591432E+02 -0.11763965716E+02 -0.53093548626E+02  0.56841358555E+02  0.51100000000E-03 0.  1.
         23    2    1    0    0    0  0.49909355212E+01  0.11111810035E+01 -0.39097560032E+02  0.85569512290E+02  0.75943255609E+02 0.  0.
         11    1    3    3    0    0  0.21532526953E+02  0.12875146720E+02  0.13995988594E+02  0.28728153735E+02  0.51100000000E-03 0. -1.
         22    1    1    0    0    0 -0.49909355212E+01 -0.11111810035E+01  0.39097560032E+02  0.39430487710E+02  0.00000000000E+00 0.  1.
</event>
<event>
 5    1  0.8962782E-005  0.9118800E+02  0.7818608E-02  0.1130116E+00
         25   -1    0    0    0    0  0.00000000000E+00  0.00000000000E+00  0.99999998245E-14  0.12500000000E+03  0.12500000000E+03 0.  0.
        -11    1    3    3    0    0 -0.69492594881E+01 -0.17486025146E+02 -0.49976546767E+02  0.53401390523E+02  0.51100000000E-03 0. -1.
         23    2    1    0    0    0 -0.15082293557E+02  0.12857853110E+02 -0.20661870159E+02  0.96369372273E+02  0.92018167056E+02 0.  0.
         11    1    3    3    0    0 -0.81330340694E+01  0.30343878256E+02  0.29314676607E+02  0.42967981750E+02  0.51100000000E-03 0.  1.
         22    1    1    0    0    0  0.15082293557E+02 -0.12857853110E+02  0.20661870159E+02  0.28630627727E+02  0.00000000000E+00 0. -1.
</event>
<event>
 5    1  0.8962782E-005  0.9118800E+02  0.7818608E-02  0.1130116E+00
         25   -1    0    0    0    0  0.00000000000E+00  0.00000000000E+00  0.99999998245E-14  0.12500000000E+03  0.12500000000E+03 0.  0.
        -11    1    3    3    0    0 -0.27888523220E+01  0.95133242196E+01 -0.47577231677E+02  0.48599115314E+02  0.51100000000E-03 0. -1.
         23    2    1    0    0    0 -0.25708302462E+02  0.15347862170E+02 -0.92022937376E+01  0.93676591841E+02  0.88284471795E+02 0.  0.
         11    1    3    3    0    0 -0.22919450140E+02  0.58345379508E+01  0.38374937940E+02  0.45077476526E+02  0.51100000000E-03 0.  1.
         22    1    1    0    0    0  0.25708302462E+02 -0.15347862170E+02  0.92022937376E+01  0.31323408159E+02  0.00000000000E+00 0.  1.
</event>
<event>
 5    1  0.8962782E-005  0.9118800E+02  0.7818608E-02  0.1130116E+00
         25   -1    0    0    0    0  0.00000000000E+00  0.00000000000E+00  0.99999998245E-14  0.12500000000E+03  0.12500000000E+03 0.  0.
        -11    1    3    3    0    0  0.27816619499E+02  0.43073936835E+02 -0.12964327350E+02  0.52888582310E+02  0.51100000000E-03 0.  1.
         23    2    1    0    0    0  0.24422151482E+02  0.64457765495E+01 -0.22807720030E+02  0.90967932603E+02  0.84362213999E+02 0.  0.
         11    1    3    3    0    0 -0.33944680173E+01 -0.36628160286E+02 -0.98433926793E+01  0.38079350293E+02  0.51100000000E-03 0. -1.
         22    1    1    0    0    0 -0.24422151482E+02 -0.64457765495E+01  0.22807720030E+02  0.34032067397E+02  0.00000000000E+00 0.  1.
</event>
<event>
 5    1  0.8962782E-005  0.9118800E+02  0.7818608E-02  0.1130116E+00
         25   -1    0    0    0    0  0.00000000000E+00  0.00000000000E+00  0.99999998245E-14  0.12500000000E+03  0.12500000000E+03 0.  0.
        -11    1    3    3    0    0  0.53083086663E+02  0.14667569190E+02  0.13681181806E+02  0.56746157680E+02  0.51100000000E-03 0.  1.
         23    2    1    0    0    0  0.15913860149E+02  0.19618537240E+02  0.17246447303E+02  0.94412782198E+02  0.89320745348E+02 0.  0.
         11    1    3    3    0    0 -0.37169226514E+02  0.49509680497E+01  0.35652654968E+01  0.37666624518E+02  0.51100000000E-03 0. -1.
         22    1    1    0    0    0 -0.15913860149E+02 -0.19618537240E+02 -0.17246447303E+02  0.30587217802E+02  0.00000000000E+00 0.  1.
</event>
<event>
 5    1  0.8962782E-005  0.9118800E+02  0.7818608E-02  0.1130116E+00
         25   -1    0    0    0    0  0.00000000000E+00  0.00000000000E+00  0.99999998245E-14  0.12500000000E+03  0.12500000000E+03 0.  0.
        -11    1    3    3    0    0 -0.68960387163E+01 -0.24458445513E+02 -0.39983882731E+02  0.47375962105E+02  0.51100000000E-03 0. -1.
         23    2    1    0    0    0  0.81275045667E+01  0.17025532140E+02 -0.24376400859E+02  0.94175756393E+02  0.88988421147E+02 0.  0.
         11    1    3    3    0    0  0.15023543283E+02  0.41483977653E+02  0.15607481873E+02  0.46799794287E+02  0.51100000000E-03 0.  1.
         22    1    1    0    0    0 -0.81275045667E+01 -0.17025532140E+02  0.24376400859E+02  0.30824243607E+02  0.00000000000E+00 0. -1.
</event>
<event>
 5    1  0.8962782E-005  0.9118800E+02  0.7818608E-02  0.1130116E+00
         25   -1    0    0    0    0  0.00000000000E+00  0.00000000000E+00  0.99999998245E-14  0.12500000000E+03  0.12500000000E+03 0.  0.
        -11    1    3    3    0    0  0.32303357116E+02 -0.13955612132E+02 -0.42022825244E+02  0.54810435436E+02  0.51100000000E-03 0. -1.
         23    2    1    0    0    0  0.33265141953E-01  0.64215735312E+01 -0.29245491976E+02  0.95057780408E+02  0.90218873314E+02 0.  0.
         11    1    3    3    0    0 -0.32270091974E+02  0.20377185663E+02  0.12777333269E+02  0.40247344972E+02  0.51100000000E-03 0.  1.
         22    1    1    0    0    0 -0.33265141953E-01 -0.64215735312E+01  0.29245491976E+02  0.29942219592E+02  0.00000000000E+00 0. -1.
</event>
<event>
 5    1  0.8962782E-005  0.9118800E+02  0.7818608E-02  0.1130116E+00
         25   -1    0    0    0    0  0.00000000000E+00  0.00000000000E+00  0.99999998245E-14  0.12500000000E+03  0.12500000000E+03 0.  0.
        -11    1    3    3    0    0 -0.87961924997E+01  0.36998608170E+02 -0.30640113215E+02  0.48837347872E+02  0.51100000000E-03 0. -1.
         23    2    1    0    0    0 -0.26944439941E+02 -0.15194729478E+01 -0.93816443565E+01  0.96428565094E+02  0.92098541104E+02 0.  0.
         11    1    3    3    0    0 -0.18148247441E+02 -0.38518081118E+02  0.21258468859E+02  0.47591217222E+02  0.51100000000E-03 0.  1.
         22    1    1    0    0    0  0.26944439941E+02  0.15194729478E+01  0.93816443565E+01  0.28571434906E+02  0.00000000000E+00 0. -1.
</event>
<event>
 5    1  0.8962782E-005  0.9118800E+02  0.7818608E-02  0.1130116E+00
         25   -1    0    0    0    0  0.00000000000E+00  0.00000000000E+00  0.99999998245E-14  0.12500000000E+03  0.12500000000E+03 0.  0.
        -11    1    3    3    0    0 -0.10128616571E+02 -0.34055068068E+02  0.84101681158E+01  0.36511196402E+02  0.51100000000E-03 0. -1.
         23    2    1    0    0    0  0.25713559293E+02  0.12747962890E+02  0.69040328874E+01  0.95481135532E+02  0.90803545543E+02 0.  0.
         11    1    3    3    0    0  0.35842175863E+02  0.46803030958E+02 -0.15061352284E+01  0.58969939130E+02  0.51100000000E-03 0.  1.
         22    1    1    0    0    0 -0.25713559293E+02 -0.12747962890E+02 -0.69040328874E+01  0.29518864468E+02  0.00000000000E+00 0.  1.
</event>
<event>
 5    1  0.8962782E-005  0.9118800E+02  0.7818608E-02  0.1130116E+00
         25   -1    0    0    0    0  0.00000000000E+00  0.00000000000E+00  0.99999998245E-14  0.12500000000E+03  0.12500000000E+03 0.  0.
        -11    1    3    3    0    0  0.59152640768E-01 -0.18254079399E+02  0.48450550207E+02  0.51775194151E+02  0.51100000000E-03 0.  1.
         23    2    1    0    0    0 -0.24772422560E+02 -0.78009889113E+01  0.14046428717E+02  0.95473223895E+02  0.90792653743E+02 0.  0.
         11    1    3    3    0    0 -0.24831575201E+02  0.10453090487E+02 -0.34404121490E+02  0.43698029744E+02  0.51100000000E-03 0. -1.
         22    1    1    0    0    0  0.24772422560E+02  0.78009889113E+01 -0.14046428717E+02  0.29526776105E+02  0.00000000000E+00 0.  1.
</event>
<event>
 5    1  0.8962782E-005  0.9118800E+02  0.7818608E-02  0.1130116E+00
         25   -1    0    0    0    0  0.00000000000E+00  0.00000000000E+00  0.99999998245E-14  0.12500000000E+03  0.12500000000E+03 0.  0.
        -11    1    3    3    0    0  0.35049764530E+02 -0.21386096212E+02 -0.34907409104E+02  0.53892284377E+02  0.51100000000E-03 0. -1.
         23    2    1    0    0    0  0.28967154688E+02  0.22943000899E+01 -0.70641243349E+00  0.95933543695E+02  0.91424208630E+02 0.  0.
         11    1    3    3    0    0 -0.60826098419E+01  0.23680396301E+02  0.34200996671E+02  0.42041259318E+02  0.51100000000E-03 0.  1.
         22    1    1    0    0    0 -0.28967154688E+02 -0.22943000899E+01  0.70641243349E+00  0.29066456305E+02  0.00000000000E+00 0. -1.
</event>
<event>
 5    1  0.8962782E-005  0.9118800E+02  0.7818608E-02  0.1130116E+00
         25   -1    0    0    0    0  0.00000000000E+00  0.00000000000E+00  0.99999998245E-14  0.12500000000E+03  0.12500000000E+03 0.  0.
        -11    1    3    3    0    0 -0.56219098581E+02  0.19062798440E+02  0.14579175459E+02  0.61127159978E+02  0.51100000000E-03 0.  1.
         23    2    1    0    0    0 -0.22644515067E+02  0.17400238941E+02  0.73548193204E+01  0.95510412938E+02  0.90843839827E+02 0.  0.
         11    1    3    3    0    0  0.33574583514E+02 -0.16625594991E+01 -0.72243561386E+01  0.34383252960E+02  0.51100000000E-03 0. -1.
         22    1    1    0    0    0  0.22644515067E+02 -0.17400238941E+02 -0.73548193204E+01  0.29489587062E+02  0.00000000000E+00 0.  1.
</event>
<event>
 5    1  0.8962782E-005  0.9118800E+02  0.7818608E-02  0.1130116E+00
         25   -1    0    0    0    0  0.00000000000E+00  0.00000000000E+00  0.99999998245E-14  0.12500000000E+03  0.12500000000E+03 0.  0.
        -11    1    3    3    0    0 -0.22805905203E+02  0.22424014238E+02  0.18242334007E+01  0.32035504592E+02  0.51100000000E-03 0. -1.
         23    2    1    0    0    0  0.89429652920E+01 -0.30123815585E+02 -0.16989236211E+01  0.93530852647E+02  0.88077881229E+02 0.  0.
         11    1    3    3    0    0  0.31748870495E+02 -0.52547829823E+02 -0.35231570218E+01  0.61495348056E+02  0.51100000000E-03 0.  1.
         22    1    1    0    0    0 -0.89429652920E+01  0.30123815585E+02  0.16989236211E+01  0.31469147353E+02  0.00000000000E+00 0.  1.
</event>
<event>
 5    1  0.8962782E-005  0.9118800E+02  0.7818608E-02  0.1130116E+00
         25   -1    0    0    0    0  0.00000000000E+00  0.00000000000E+00  0.99999998245E-14  0.12500000000E+03  0.12500000000E+03 0.  0.
        -11    1    3    3    0    0  0.32455837309E+02  0.12646149182E+02  0.17345357822E+02  0.38912310427E+02  0.51100000000E-03 0.  1.
         23    2    1    0    0    0 -0.20783242049E+02  0.21468984212E+02  0.18316939004E+01  0.95063140851E+02  0.90226300006E+02 0.  0.
         11    1    3    3    0    0 -0.53239079357E+02  0.88228350303E+01 -0.15513663921E+02  0.56150830424E+02  0.51100000000E-03 0. -1.
         22    1    1    0    0    0  0.20783242049E+02 -0.21468984212E+02 -0.18316939004E+01  0.29936859149E+02  0.00000000000E+00 0. -1.
</event>
<event>
 5    1  0.8962782E-005  0.9118800E+02  0.7818608E-02  0.1130116E+00
         25   -1    0    0    0    0  0.00000000000E+00  0.00000000000E+00  0.99999998245E-14  0.12500000000E+03  0.12500000000E+03 0.  0.
        -11    1    3    3    0    0  0.29419471580E+02 -0.48205603637E+01 -0.22074960541E+02  0.37095107406E+02  0.51100000000E-03 0. -1.
         23    2    1    0    0    0 -0.11564062136E+02 -0.13351667190E+02  0.21268257471E+02  0.97353421085E+02  0.93345354846E+02 0.  0.
         11    1    3    3    0    0 -0.40983533716E+02 -0.85311068263E+01  0.43343218013E+02  0.60258313679E+02  0.51100000000E-03 0.  1.
         22    1    1    0    0    0  0.11564062136E+02  0.13351667190E+02 -0.21268257471E+02  0.27646578915E+02  0.00000000000E+00 0.  1.
</event>
<event>
 5    1  0.8962782E-005  0.9118800E+02  0.7818608E-02  0.1130116E+00
         25   -1    0    0    0    0  0.00000000000E+00  0.00000000000E+00  0.99999998245E-14  0.12500000000E+03  0.12500000000E+03 0.  0.
        -11    1    3    3    0    0 -0.13601438918E+02  0.31191577196E+02 -0.17165191635E+02  0.38112431472E+02  0.51100000000E-03 0.  1.
         23    2    1    0    0    0  0.25777238363E+02 -0.10493316133E+02 -0.55311066630E+01  0.96624502788E+02  0.92364093115E+02 0.  0.
         11    1    3    3    0    0  0.39378677281E+02 -0.41684893329E+02  0.11634084972E+02  0.58512071316E+02  0.51100000000E-03 0. -1.
         22    1    1    0    0    0 -0.25777238363E+02  0.10493316133E+02  0.55311066630E+01  0.28375497212E+02  0.00000000000E+00 0. -1.
</event>
<event>
 5    1  0.8962782E-005  0.9118800E+02  0.7818608E-02  0.1130116E+00
         25   -1    0    0    0    0  0.00000000000E+00  0.00000000000E+00  0.99999998245E-14  0.12500000000E+03  0.12500000000E+03 0.  0.
        -11    1    3    3    0    0  0.39808987943E+01 -0.58359317528E+02 -0.28088415676E+01  0.58562335069E+02  0.51100000000E-03 0.  1.
         23    2    1    0    0    0 -0.12818571062E+02 -0.24974257751E+02 -0.67051390749E+01  0.96138464970E+02  0.91703959797E+02 0.  0.
         11    1    3    3    0    0 -0.16799469856E+02  0.33385059777E+02 -0.38962975073E+01  0.37576129901E+02  0.51100000000E-03 0. -1.
         22    1    1    0    0    0  0.12818571062E+02  0.24974257751E+02  0.67051390749E+01  0.28861535030E+02  0.00000000000E+00 0.  1.
</event>
<event>
 5    1  0.8962782E-005  0.9118800E+02  0.7818608E-02  0.1130116E+00
         25   -1    0    0    0    0  0.00000000000E+00  0.00000000000E+00  0.99999998245E-14  0.12500000000E+03  0.12500000000E+03 0.  0.
        -11    1    3    3    0    0  0.42603616278E+02 -0.16956181735E+02 -0.16039800041E+00  0.45854181345E+02  0.51100000000E-03 0. -1.
         23    2    1    0    0    0  0.15697714818E+02  0.24545136034E+02  0.44417843836E+01  0.95527785934E+02  0.90867741710E+02 0.  0.
         11    1    3    3    0    0 -0.26905901460E+02  0.41501317769E+02  0.46021823840E+01  0.49673604589E+02  0.51100000000E-03 0.  1.
         22    1    1    0    0    0 -0.15697714818E+02 -0.24545136034E+02 -0.44417843836E+01  0.29472214066E+02  0.00000000000E+00 0.  1.
</event>
<event>
 5    1  0.8962782E-005  0.9118800E+02  0.7818608E-02  0.1130116E+00
         25   -1    0    0    0    0  0.00000000000E+00  0.00000000000E+00  0.99999998245E-14  0.12500000000E+03  0.12500000000E+03 0.  0.
        -11    1    3    3    0    0  0.34314197054E+02  0.74363269388E+01 -0.86302449835E+01  0.36155832261E+02  0.51100000000E-03 0.  1.
         23    2    1    0    0    0 -0.17769919139E+02  0.24536091326E+02  0.84042961439E+01  0.93560820662E+02  0.88120401529E+02 0.  0.
         11    1    3    3    0    0 -0.52084116192E+02  0.17099764387E+02  0.17034541127E+02  0.57404988401E+02  0.51100000000E-03 0. -1.
         22    1    1    0    0    0  0.17769919139E+02 -0.24536091326E+02 -0.84042961439E+01  0.31439179338E+02  0.00000000000E+00 0. -1.
</event>
<event>
 5    1  0.8962782E-005  0.9118800E+02  0.7818608E-02  0.1130116E+00
         25   -1    0    0    0    0  0.00000000000E+00  0.00000000000E+00  0.99999998245E-14  0.12500000000E+03  0.12500000000E+03 0.  0.
        -11    1    3    3    0    0 -0.35668266517E+02  0.23030160899E+02 -0.21214496308E+01  0.42510164621E+02  0.51100000000E-03 0.  1.
         23    2    1    0    0    0 -0.78565382579E+01 -0.20026541856E+02 -0.18817589293E+02  0.96418725730E+02  0.92085185738E+02 0.  0.
         11    1    3    3    0    0  0.27811728259E+02 -0.43056702755E+02 -0.16696139662E+02  0.53908561108E+02  0.51100000000E-03 0. -1.
         22    1    1    0    0    0  0.78565382579E+01  0.20026541856E+02  0.18817589293E+02  0.28581274270E+02  0.00000000000E+00 0.  1.
</event>
<event>
 5    1  0.8962782E-005  0.9118800E+02  0.7818608E-02  0.1130116E+00
         25   -1    0    0    0    0  0.00000000000E+00  0.00000000000E+00  0.99999998245E-14  0.12500000000E+03  0.12500000000E+03 0.  0.
        -11    1    3    3    0    0 -0.47664829505E+01 -0.53078678929E+02  0.16867610530E+02  0.55897958834E+02  0.51100000000E-03 0. -1.
         23    2    1    0    0    0 -0.16059311712E+02 -0.24408940992E+02 -0.70954483045E+01  0.94932687522E+02  0.90045387892E+02 0.  0.
         11    1    3    3    0    0 -0.11292828761E+02  0.28669737937E+02 -0.23963058835E+02  0.39034728689E+02  0.51100000000E-03 0.  1.
         22    1    1    0    0    0  0.16059311712E+02  0.24408940992E+02  0.70954483045E+01  0.30067312478E+02  0.00000000000E+00 0.  1.
</event>
<event>
 5    1  0.8962782E-005  0.9118800E+02  0.7818608E-02  0.1130116E+00
         25   -1    0    0    0    0  0.00000000000E+00  0.00000000000E+00  0.99999998245E-14  0.12500000000E+03  0.12500000000E+03 0.  0.
        -11    1    3    3    0    0 -0.12703491138E+02  0.47931561400E+02 -0.61848115725E+01  0.49970642979E+02  0.51100000000E-03 0.  1.
         23    2    1    0    0    0  0.11796080112E+02  0.18916369763E+02  0.19141840508E+02  0.95616558931E+02  0.90989778177E+02 0.  0.
         11    1    3    3    0    0  0.24499571250E+02 -0.29015191637E+02  0.25326652081E+02  0.45645915952E+02  0.51100000000E-03 0. -1.
         22    1    1    0    0    0 -0.11796080112E+02 -0.18916369763E+02 -0.19141840508E+02  0.29383441069E+02  0.00000000000E+00 0. -1.
</event>
<event>
 5    1  0.8962782E-005  0.9118800E+02  0.7818608E-02  0.1130116E+00
         25   -1    0    0    0    0  0.00000000000E+00  0.00000000000E+00  0.99999998245E-14  0.12500000000E+03  0.12500000000E+03 0.  0.
        -11    1    3    3    0    0  0.21590052419E+02  0.19404381881E+02 -0.47868412383E+02  0.55982544636E+02  0.51100000000E-03 0.  1.
         23    2    1    0    0    0 -0.10276200512E+02  0.99856332257E+01 -0.24540547637E+02  0.96582546803E+02  0.92307294949E+02 0.  0.
         11    1    3    3    0    0 -0.31866252931E+02 -0.94187486555E+01  0.23327864746E+02  0.40600002167E+02  0.51100000000E-03 0. -1.
         22    1    1    0    0    0  0.10276200512E+02 -0.99856332257E+01  0.24540547637E+02  0.28417453197E+02  0.00000000000E+00 0.  1.
</event>
<event>
 5    1  0.8962782E-005  0.9118800E+02  0.7818608E-02  0.1130116E+00
         25   -1    0    0    0    0  0.00000000000E+00  0.00000000000E+00  0.99999998245E-14  0.12500000000E+03  0.12500000000E+03 0.  0.
        -11    1    3    3    0    0  0.76480868684E+01 -0.32748601423E+02 -0.15108491097E+02  0.36867745136E+02  0.51100000000E-03 0. -1.
         23    2    1    0    0    0 -0.28465492239E+02  0.10251796608E+02 -0.11863702719E+01  0.94721442298E+02  0.89751660567E+02 0.  0.
         11    1    3    3    0    0 -0.36113579107E+02  0.43000398031E+02  0.13922120825E+02  0.57853697162E+02  0.51100000000E-03 0.  1.
         22    1    1    0    0    0  0.28465492239E+02 -0.10251796608E+02  0.11863702719E+01  0.30278557702E+02  0.00000000000E+00 0.  1.
</event>
<event>
 5    1  0.8962782E-005  0.9118800E+02  0.7818608E-02  0.1130116E+00
         25   -1    0    0    0    0  0.00000000000E+00  0.00000000000E+00  0.99999998245E-14  0.12500000000E+03  0.12500000000E+03 0.  0.
        -11    1    3    3    0    0 -0.77567089997E+01  0.11245340124E+02 -0.39580844912E+02  0.41872037128E+02  0.51100000000E-03 0. -1.
         23    2    1    0    0    0  0.62752848300E+01  0.19951897091E+02  0.15236806992E+02  0.99123027910E+02  0.95685719820E+02 0.  0.
         11    1    3    3    0    0  0.14031993830E+02  0.87065569671E+01  0.54817651904E+02  0.57250990782E+02  0.51100000000E-03 0.  1.
         22    1    1    0    0    0 -0.62752848300E+01 -0.19951897091E+02 -0.15236806992E+02  0.25876972090E+02  0.00000000000E+00 0.  1.
</event>
<event>
 5    1  0.8962782E-005  0.9118800E+02  0.7818608E-02  0.1130116E+00
         25   -1    0    0    0    0  0.00000000000E+00  0.00000000000E+00  0.99999998245E-14  0.12500000000E+03  0.12500000000E+03 0.  0.
        -11    1    3    3    0    0 -0.20369682714E+02  0.31212791430E+02 -0.30616252532E+00  0.37272725396E+02  0.51100000000E-03 0.  1.
         23    2    1    0    0    0  0.29494461693E+02  0.70806955605E+01 -0.90296106753E+01  0.93352039732E+02  0.87823743561E+02 0.  0.
         11    1    3    3    0    0  0.49864144407E+02 -0.24132095869E+02 -0.87234481500E+01  0.56079314336E+02  0.51100000000E-03 0. -1.
         22    1    1    0    0    0 -0.29494461693E+02 -0.70806955605E+01  0.90296106753E+01  0.31647960268E+02  0.00000000000E+00 0. -1.
</event>
<event>
 5    1  0.8962782E-005  0.9118800E+02  0.7818608E-02  0.1130116E+00
         25   -1    0    0    0    0  0.00000000000E+00  0.00000000000E+00  0.99999998245E-14  0.12500000000E+03  0.12500000000E+03 0.  0.
        -11    1    3    3    0    0 -0.16327525333E+02 -0.17784390247E+02 -0.56276937521E+02  0.61236968548E+02  0.51100000000E-03 0.  1.
         23    2    1    0    0    0  0.24857550949E+01 -0.63624810636E+01 -0.21932547831E+02  0.10202834795E+03  0.99408686677E+02 0.  0.
         11    1    3    3    0    0  0.18813280428E+02  0.11421909183E+02  0.34344389690E+02  0.40791379399E+02  0.51100000000E-03 0. -1.
         22    1    1    0    0    0 -0.24857550949E+01  0.63624810636E+01  0.21932547831E+02  0.22971652053E+02  0.00000000000E+00 0.  1.
</event>
<event>
 5    1  0.8962782E-005  0.9118800E+02  0.7818608E-02  0.1130116E+00
         25   -1    0    0    0    0  0.00000000000E+00  0.00000000000E+00  0.99999998245E-14  0.12500000000E+03  0.12500000000E+03 0.  0.
        -11    1    3    3    0    0  0.10639746559E+02  0.33113848841E+02  0.35562261982E+02  0.49743398250E+02  0.51100000000E-03 0. -1.
         23    2    1    0    0    0 -0.19713656541E+02  0.20016822745E+02  0.20285758899E+01  0.96832348923E+02  0.92644952538E+02 0.  0.
         11    1    3    3    0    0 -0.30353403100E+02 -0.13097026096E+02 -0.33533686092E+02  0.47088950673E+02  0.51100000000E-03 0.  1.
         22    1    1    0    0    0  0.19713656541E+02 -0.20016822745E+02 -0.20285758899E+01  0.28167651077E+02  0.00000000000E+00 0. -1.
</event>
<event>
 5    1  0.8962782E-005  0.9118800E+02  0.7818608E-02  0.1130116E+00
         25   -1    0    0    0    0  0.00000000000E+00  0.00000000000E+00  0.99999998245E-14  0.12500000000E+03  0.12500000000E+03 0.  0.
        -11    1    3    3    0    0 -0.49248051671E+02 -0.16882216351E+02  0.89393088920E+01  0.52823205753E+02  0.51100000000E-03 0.  1.
         23    2    1    0    0    0 -0.19734978196E+02  0.15036195320E+02  0.13873308393E+02  0.96574215581E+02  0.92296012347E+02 0.  0.
         11    1    3    3    0    0  0.29513073476E+02  0.31918411671E+02  0.49339995008E+01  0.43751009828E+02  0.51100000000E-03 0. -1.
         22    1    1    0    0    0  0.19734978196E+02 -0.15036195320E+02 -0.13873308393E+02  0.28425784419E+02  0.00000000000E+00 0.  1.
</event>
<event>
 5    1  0.8962782E-005  0.9118800E+02  0.7818608E-02  0.1130116E+00
         25   -1    0    0    0    0  0.00000000000E+00  0.00000000000E+00  0.99999998245E-14  0.12500000000E+03  0.12500000000E+03 0.  0.
        -11    1    3    3    0    0  0.33397906561E+02 -0.15764102633E+02  0.44631390425E+02  0.57930027671E+02  0.51100000000E-03 0.  1.
         23    2    1    0    0    0  0.47388722362E+00 -0.12781115341E+02  0.26357256415E+02  0.95703473855E+02  0.91109101981E+02 0.  0.
         11    1    3    3    0    0 -0.32924019337E+02  0.29829872919E+01 -0.18274134011E+02  0.37773446184E+02  0.51100000000E-03 0. -1.
         22    1    1    0    0    0 -0.47388722362E+00  0.12781115341E+02 -0.26357256415E+02  0.29296526145E+02  0.00000000000E+00 0.  1.
</event>
<event>
 5    1  0.8962782E-005  0.9118800E+02  0.7818608E-02  0.1130116E+00
         25   -1    0    0    0    0  0.00000000000E+00  0.00000000000E+00  0.99999998245E-14  0.12500000000E+03  0.12500000000E+03 0.  0.
        -11    1    3    3    0    0 -0.95100429579E+01  0.36580171654E+02  0.46080099579E+02  0.59598032289E+02  0.51100000000E-03 0. -1.
         23    2    1    0    0    0 -0.16222757438E+02  0.17559573754E+02  0.14593184968E+02  0.96991473855E+02  0.92859401590E+02 0.  0.
         11    1    3    3    0    0 -0.67127144800E+01 -0.19020597900E+02 -0.31486914610E+02  0.37393441566E+02  0.51100000000E-03 0.  1.
         22    1    1    0    0    0  0.16222757438E+02 -0.17559573754E+02 -0.14593184968E+02  0.28008526145E+02  0.00000000000E+00 0. -1.
</event>
<event>
 5    1  0.8962782E-005  0.9118800E+02  0.7818608E-02  0.1130116E+00
         25   -1    0    0    0    0  0.00000000000E+00  0.00000000000E+00  0.99999998245E-14  0.12500000000E+03  0.12500000000E+03 0.  0.
        -11    1    3    3    0    0  0.90179001104E+01  0.23962471087E+02  0.47950415543E+02  0.54357749163E+02  0.51100000000E-03 0.  1.
         23    2    1    0    0    0 -0.10450874017E+02  0.28331844410E+02  0.19698509833E+02  0.88945243517E+02  0.81309967897E+02 0.  0.
         11    1    3    3    0    0 -0.19468774127E+02  0.43693733228E+01 -0.28251905710E+02  0.34587494355E+02  0.51100000000E-03 0. -1.
         22    1    1    0    0    0  0.10450874017E+02 -0.28331844410E+02 -0.19698509833E+02  0.36054756483E+02  0.00000000000E+00 0.  1.
</event>
<event>
 5    1  0.8962782E-005  0.9118800E+02  0.7818608E-02  0.1130116E+00
         25   -1    0    0    0    0  0.00000000000E+00  0.00000000000E+00  0.99999998245E-14  0.12500000000E+03  0.12500000000E+03 0.  0.
        -11    1    3    3    0    0 -0.23205434567E+02 -0.19232252053E+02  0.15760983329E+02  0.34011473185E+02  0.51100000000E-03 0. -1.
         23    2    1    0    0    0  0.12514942274E+02  0.26482977279E+02 -0.42940396846E+01  0.95395766477E+02  0.90685950506E+02 0.  0.
         11    1    3    3    0    0  0.35720376841E+02  0.45715229332E+02 -0.20055023014E+02  0.61384293291E+02  0.51100000000E-03 0.  1.
         22    1    1    0    0    0 -0.12514942274E+02 -0.26482977279E+02  0.42940396846E+01  0.29604233523E+02  0.00000000000E+00 0.  1.
</event>
<event>
 5    1  0.8962782E-005  0.9118800E+02  0.7818608E-02  0.1130116E+00
         25   -1    0    0    0    0  0.00000000000E+00  0.00000000000E+00  0.99999998245E-14  0.12500000000E+03  0.12500000000E+03 0.  0.
        -11    1    3    3    0    0 -0.33654335589E+02  0.34646099552E+02 -0.19557249588E+02  0.52110004124E+02  0.51100000000E-03 0. -1.
         23    2    1    0    0    0 -0.11358175728E+02  0.24545096753E+02  0.14703092860E+02  0.94216061491E+02  0.89045018798E+02 0.  0.
         11    1    3    3    0    0  0.22296159861E+02 -0.10101002799E+02  0.34260342448E+02  0.42106057367E+02  0.51100000000E-03 0.  1.
         22    1    1    0    0    0  0.11358175728E+02 -0.24545096753E+02 -0.14703092860E+02  0.30783938509E+02  0.00000000000E+00 0. -1.
</event>
<event>
 5    1  0.8962782E-005  0.9118800E+02  0.7818608E-02  0.1130116E+00
         25   -1    0    0    0    0  0.00000000000E+00  0.00000000000E+00  0.99999998245E-14  0.12500000000E+03  0.12500000000E+03 0.  0.
        -11    1    3    3    0    0 -0.50727062113E+02  0.11660419969E+02 -0.30806721312E+02  0.60483504385E+02  0.51100000000E-03 0.  1.
         23    2    1    0    0    0 -0.17204634014E+02  0.74790884980E+01 -0.23294076131E+02  0.95090968269E+02  0.90264844027E+02 0.  0.
         11    1    3    3    0    0  0.33522428099E+02 -0.41813314705E+01  0.75126451813E+01  0.34607463883E+02  0.51100000000E-03 0. -1.
         22    1    1    0    0    0  0.17204634014E+02 -0.74790884980E+01  0.23294076131E+02  0.29909031731E+02  0.00000000000E+00 0.  1.
</event>
<event>
 5    1  0.8962782E-005  0.9118800E+02  0.7818608E-02  0.1130116E+00
         25   -1    0    0    0    0  0.00000000000E+00  0.00000000000E+00  0.99999998245E-14  0.12500000000E+03  0.12500000000E+03 0.  0.
        -11    1    3    3    0    0 -0.28316720816E+02 -0.15481096153E+02 -0.46396860607E+02  0.56516985857E+02  0.51100000000E-03 0.  1.
         23    2    1    0    0    0  0.29690497565E+01 -0.18487957432E+02 -0.20440238695E+02  0.97279552955E+02  0.93246384588E+02 0.  0.
         11    1    3    3    0    0  0.31285770573E+02 -0.30068612790E+01  0.25956621912E+02  0.40762567098E+02  0.51100000000E-03 0. -1.
         22    1    1    0    0    0 -0.29690497565E+01  0.18487957432E+02  0.20440238695E+02  0.27720447045E+02  0.00000000000E+00 0.  1.
</event>
<event>
 5    1  0.8962782E-005  0.9118800E+02  0.7818608E-02  0.1130116E+00
         25   -1    0    0    0    0  0.00000000000E+00  0.00000000000E+00  0.99999998245E-14  0.12500000000E+03  0.12500000000E+03 0.  0.
        -11    1    3    3    0    0  0.40950335632E+02  0.36225237536E+02 -0.66699812669E+01  0.55078911330E+02  0.51100000000E-03 0.  1.
         23    2    1    0    0    0  0.22132083056E+01  0.24584220231E+02 -0.14634671159E+02  0.96304080860E+02  0.91929430625E+02 0.  0.
         11    1    3    3    0    0 -0.38737127327E+02 -0.11641017305E+02 -0.79646898920E+01  0.41225169530E+02  0.51100000000E-03 0. -1.
         22    1    1    0    0    0 -0.22132083056E+01 -0.24584220231E+02  0.14634671159E+02  0.28695919140E+02  0.00000000000E+00 0.  1.
</event>
<event>
 5    1  0.8962782E-005  0.9118800E+02  0.7818608E-02  0.1130116E+00
         25   -1    0    0    0    0  0.00000000000E+00  0.00000000000E+00  0.99999998245E-14  0.12500000000E+03  0.12500000000E+03 0.  0.
        -11    1    3    3    0    0 -0.82568637101E+01  0.36544383409E+02  0.15484506901E+02  0.40539335359E+02  0.51100000000E-03 0. -1.
         23    2    1    0    0    0 -0.22708307930E+02 -0.27299535227E+01 -0.19390456307E+02  0.95014842154E+02  0.90159361901E+02 0.  0.
         11    1    3    3    0    0 -0.14451444220E+02 -0.39274336932E+02 -0.34874963208E+02  0.54475506795E+02  0.51100000000E-03 0.  1.
         22    1    1    0    0    0  0.22708307930E+02  0.27299535227E+01  0.19390456307E+02  0.29985157846E+02  0.00000000000E+00 0.  1.
</event>
<event>
 5    1  0.8962782E-005  0.9118800E+02  0.7818608E-02  0.1130116E+00
         25   -1    0    0    0    0  0.00000000000E+00  0.00000000000E+00  0.99999998245E-14  0.12500000000E+03  0.12500000000E+03 0.  0.
        -11    1    3    3    0    0  0.18735618950E+02 -0.28485066684E+02  0.11760195430E+02  0.36065560279E+02  0.51100000000E-03 0.  1.
         23    2    1    0    0    0 -0.27287044595E+02  0.89420895052E+01  0.16802213558E+01  0.96236013641E+02  0.91836830358E+02 0.  0.
         11    1    3    3    0    0 -0.46022663545E+02  0.37427156189E+02 -0.10079974075E+02  0.60170453362E+02  0.51100000000E-03 0. -1.
         22    1    1    0    0    0  0.27287044595E+02 -0.89420895052E+01 -0.16802213558E+01  0.28763986359E+02  0.00000000000E+00 0. -1.
</event>
<event>
 5    1  0.8962782E-005  0.9118800E+02  0.7818608E-02  0.1130116E+00
         25   -1    0    0    0    0  0.00000000000E+00  0.00000000000E+00  0.99999998245E-14  0.12500000000E+03  0.12500000000E+03 0.  0.
        -11    1    3    3    0    0  0.20242997083E+02 -0.68802227919E+01  0.29433929464E+02  0.36379562951E+02  0.51100000000E-03 0.  1.
         23    2    1    0    0    0  0.59018189404E+01  0.33007851811E+02 -0.51368042020E+01  0.91077492643E+02  0.84524393879E+02 0.  0.
         11    1    3    3    0    0 -0.14341178142E+02  0.39888074603E+02 -0.34570733666E+02  0.54697929691E+02  0.51100000000E-03 0. -1.
         22    1    1    0    0    0 -0.59018189404E+01 -0.33007851811E+02  0.51368042020E+01  0.33922507357E+02  0.00000000000E+00 0. -1.
</event>
<event>
 5    1  0.8962782E-005  0.9118800E+02  0.7818608E-02  0.1130116E+00
         25   -1    0    0    0    0  0.00000000000E+00  0.00000000000E+00  0.99999998245E-14  0.12500000000E+03  0.12500000000E+03 0.  0.
        -11    1    3    3    0    0  0.29785919715E+02  0.36790300044E+02 -0.24980819135E+01  0.47402189866E+02  0.51100000000E-03 0. -1.
         23    2    1    0    0    0  0.16583630229E+02 -0.21872170024E+01  0.23555982430E+02  0.96109084160E+02  0.91663902601E+02 0.  0.
         11    1    3    3    0    0 -0.13202289485E+02 -0.38977517046E+02  0.26054064343E+02  0.48706894295E+02  0.51100000000E-03 0.  1.
         22    1    1    0    0    0 -0.16583630229E+02  0.21872170024E+01 -0.23555982430E+02  0.28890915840E+02  0.00000000000E+00 0. -1.
</event>
<event>
 5    1  0.8962782E-005  0.9118800E+02  0.7818608E-02  0.1130116E+00
         25   -1    0    0    0    0  0.00000000000E+00  0.00000000000E+00  0.99999998245E-14  0.12500000000E+03  0.12500000000E+03 0.  0.
        -11    1    3    3    0    0  0.31041560364E+01  0.44862786511E+02 -0.13455162607E+01  0.44990174622E+02  0.51100000000E-03 0. -1.
         23    2    1    0    0    0  0.28918791770E+02  0.53288748081E+01 -0.11741449688E+02  0.93336850047E+02  0.87802121340E+02 0.  0.
         11    1    3    3    0    0  0.25814635733E+02 -0.39533911703E+02 -0.10395933428E+02  0.48346675425E+02  0.51100000000E-03 0.  1.
         22    1    1    0    0    0 -0.28918791770E+02 -0.53288748081E+01  0.11741449688E+02  0.31663149953E+02  0.00000000000E+00 0.  1.
</event>
<event>
 5    1  0.8962782E-005  0.9118800E+02  0.7818608E-02  0.1130116E+00
         25   -1    0    0    0    0  0.00000000000E+00  0.00000000000E+00  0.99999998245E-14  0.12500000000E+03  0.12500000000E+03 0.  0.
        -11    1    3    3    0    0 -0.13845275885E+02 -0.45318385950E+02 -0.22112575559E+02  0.52291622346E+02  0.51100000000E-03 0.  1.
         23    2    1    0    0    0 -0.20790558469E+02 -0.12061881401E+02  0.99310125578E+01  0.98993052566E+02  0.95515774308E+02 0.  0.
         11    1    3    3    0    0 -0.69452825840E+01  0.33256504549E+02  0.32043588117E+02  0.46701430221E+02  0.51100000000E-03 0. -1.
         22    1    1    0    0    0  0.20790558469E+02  0.12061881401E+02 -0.99310125578E+01  0.26006947434E+02  0.00000000000E+00 0.  1.
</event>
<event>
 5    1  0.8962782E-005  0.9118800E+02  0.7818608E-02  0.1130116E+00
         25   -1    0    0    0    0  0.00000000000E+00  0.00000000000E+00  0.99999998245E-14  0.12500000000E+03  0.12500000000E+03 0.  0.
        -11    1    3    3    0    0 -0.18815530178E+01 -0.42507667419E+02 -0.23625779280E+02  0.48668464923E+02  0.51100000000E-03 0. -1.
         23    2    1    0    0    0  0.11568329741E+02 -0.21018775757E+02  0.16322816529E+02  0.95981910353E+02  0.91490314177E+02 0.  0.
         11    1    3    3    0    0  0.13449882759E+02  0.21488891662E+02  0.39948595809E+02  0.47313445430E+02  0.51100000000E-03 0.  1.
         22    1    1    0    0    0 -0.11568329741E+02  0.21018775757E+02 -0.16322816529E+02  0.29018089647E+02  0.00000000000E+00 0. -1.
</event>
<event>
 5    1  0.8962782E-005  0.9118800E+02  0.7818608E-02  0.1130116E+00
         25   -1    0    0    0    0  0.00000000000E+00  0.00000000000E+00  0.99999998245E-14  0.12500000000E+03  0.12500000000E+03 0.  0.
        -11    1    3    3    0    0 -0.40966695326E+01  0.14463967611E+02  0.50163154378E+02  0.52367271437E+02  0.51100000000E-03 0. -1.
         23    2    1    0    0    0 -0.65082110666E+01  0.25722313558E+02  0.62822960589E+01  0.97733510130E+02  0.93852956972E+02 0.  0.
         11    1    3    3    0    0 -0.24115415339E+01  0.11258345947E+02 -0.43880858319E+02  0.45366238693E+02  0.51100000000E-03 0.  1.
         22    1    1    0    0    0  0.65082110666E+01 -0.25722313558E+02 -0.62822960589E+01  0.27266489870E+02  0.00000000000E+00 0.  1.
</event>
<event>
 5    1  0.8962782E-005  0.9118800E+02  0.7818608E-02  0.1130116E+00
         25   -1    0    0    0    0  0.00000000000E+00  0.00000000000E+00  0.99999998245E-14  0.12500000000E+03  0.12500000000E+03 0.  0.
        -11    1    3    3    0    0 -0.38382011098E+02 -0.12349823454E+02 -0.19700900359E+02  0.44875632480E+02  0.51100000000E-03 0. -1.
         23    2    1    0    0    0 -0.91828076224E+01 -0.13932453029E+02  0.22972487798E+02  0.96606824784E+02  0.92340165670E+02 0.  0.
         11    1    3    3    0    0  0.29199203476E+02 -0.15826295748E+01  0.42673388158E+02  0.51731192303E+02  0.51100000000E-03 0.  1.
         22    1    1    0    0    0  0.91828076224E+01  0.13932453029E+02 -0.22972487798E+02  0.28393175216E+02  0.00000000000E+00 0. -1.
</event>
<event>
 5    1  0.8962782E-005  0.9118800E+02  0.7818608E-02  0.1130116E+00
         25   -1    0    0    0    0  0.00000000000E+00  0.00000000000E+00  0.99999998245E-14  0.12500000000E+03  0.12500000000E+03 0.  0.
        -11    1    3    3    0    0 -0.11256859066E+02  0.31707729291E+02 -0.31660176537E+02  0.46200257050E+02  0.51100000000E-03 0.  1.
         23    2    1    0    0    0 -0.12341010437E+02 -0.16593633924E+02 -0.20697462518E+02  0.95741938203E+02  0.91161859080E+02 0.  0.
         11    1    3    3    0    0 -0.10841513713E+01 -0.48301363215E+02  0.10962714019E+02  0.49541681154E+02  0.51100000000E-03 0. -1.
         22    1    1    0    0    0  0.12341010437E+02  0.16593633924E+02  0.20697462518E+02  0.29258061797E+02  0.00000000000E+00 0.  1.
</event>
<event>
 5    1  0.8962782E-005  0.9118800E+02  0.7818608E-02  0.1130116E+00
         25   -1    0    0    0    0  0.00000000000E+00  0.00000000000E+00  0.99999998245E-14  0.12500000000E+03  0.12500000000E+03 0.  0.
        -11    1    3    3    0    0  0.21535209096E+02  0.26303885342E+02 -0.91970414339E+01  0.35217114962E+02  0.51100000000E-03 0.  1.
         23    2    1    0    0    0 -0.16328204063E+02 -0.11792289498E+02 -0.26561110760E+02  0.91665919177E+02  0.85390162163E+02 0.  0.
         11    1    3    3    0    0 -0.37863413159E+02 -0.38096174839E+02 -0.17364069326E+02  0.56448804215E+02  0.51100000000E-03 0. -1.
         22    1    1    0    0    0  0.16328204063E+02  0.11792289498E+02  0.26561110760E+02  0.33334080823E+02  0.00000000000E+00 0. -1.
</event>
<event>
 5    1  0.8962782E-005  0.9118800E+02  0.7818608E-02  0.1130116E+00
         25   -1    0    0    0    0  0.00000000000E+00  0.00000000000E+00  0.99999998245E-14  0.12500000000E+03  0.12500000000E+03 0.  0.
        -11    1    3    3    0    0  0.10810870208E+02 -0.33778029489E+02  0.17290536270E+02  0.39456214157E+02  0.51100000000E-03 0.  1.
         23    2    1    0    0    0 -0.11293056289E+02 -0.58697686942E+01 -0.26326681706E+02  0.95758223814E+02  0.91184186970E+02 0.  0.
         11    1    3    3    0    0 -0.22103926497E+02  0.27908260795E+02 -0.43617217976E+02  0.56302009657E+02  0.51100000000E-03 0. -1.
         22    1    1    0    0    0  0.11293056289E+02  0.58697686942E+01  0.26326681706E+02  0.29241776186E+02  0.00000000000E+00 0. -1.
</event>
<event>
 5    1  0.8962782E-005  0.9118800E+02  0.7818608E-02  0.1130116E+00
         25   -1    0    0    0    0  0.00000000000E+00  0.00000000000E+00  0.99999998245E-14  0.12500000000E+03  0.12500000000E+03 0.  0.
        -11    1    3    3    0    0 -0.29972769343E+02  0.17906516692E+02  0.17091441875E+02  0.38873225075E+02  0.51100000000E-03 0.  1.
         23    2    1    0    0    0 -0.75457028301E+01 -0.23211018076E+02 -0.15639042460E+02  0.96012612391E+02  0.91532251681E+02 0.  0.
         11    1    3    3    0    0  0.22427066512E+02 -0.41117534768E+02 -0.32730484335E+02  0.57139387316E+02  0.51100000000E-03 0. -1.
         22    1    1    0    0    0  0.75457028301E+01  0.23211018076E+02  0.15639042460E+02  0.28987387609E+02  0.00000000000E+00 0. -1.
</event>
<event>
 5    1  0.8962782E-005  0.9118800E+02  0.7818608E-02  0.1130116E+00
         25   -1    0    0    0    0  0.00000000000E+00  0.00000000000E+00  0.99999998245E-14  0.12500000000E+03  0.12500000000E+03 0.  0.
        -11    1    3    3    0    0  0.22723709039E+02  0.48104081515E+02 -0.86591434843E+01  0.53901302183E+02  0.51100000000E-03 0.  1.
         23    2    1    0    0    0  0.28795738343E+01  0.22531543895E+02  0.18145043978E+02  0.95927589768E+02  0.91416067745E+02 0.  0.
         11    1    3    3    0    0 -0.19844135205E+02 -0.25572537620E+02  0.26804187462E+02  0.42026287585E+02  0.51100000000E-03 0. -1.
         22    1    1    0    0    0 -0.28795738343E+01 -0.22531543895E+02 -0.18145043978E+02  0.29072410232E+02  0.00000000000E+00 0.  1.
</event>
<event>
 5    1  0.8962782E-005  0.9118800E+02  0.7818608E-02  0.1130116E+00
         25   -1    0    0    0    0  0.00000000000E+00  0.00000000000E+00  0.99999998245E-14  0.12500000000E+03  0.12500000000E+03 0.  0.
        -11    1    3    3    0    0  0.13132617540E+02 -0.32233038407E+02  0.63846433939E+01  0.35386410950E+02  0.51100000000E-03 0. -1.
         23    2    1    0    0    0 -0.28645759206E+02  0.95152803825E-01 -0.15340667738E+02  0.92505005597E+02  0.86609765035E+02 0.  0.
         11    1    3    3    0    0 -0.41778376746E+02  0.32328191210E+02 -0.21725311132E+02  0.57118594648E+02  0.51100000000E-03 0.  1.
         22    1    1    0    0    0  0.28645759206E+02 -0.95152803826E-01  0.15340667738E+02  0.32494994403E+02  0.00000000000E+00 0.  1.
</event>
<event>
 5    1  0.8962782E-005  0.9118800E+02  0.7818608E-02  0.1130116E+00
         25   -1    0    0    0    0  0.00000000000E+00  0.00000000000E+00  0.99999998245E-14  0.12500000000E+03  0.12500000000E+03 0.  0.
        -11    1    3    3    0    0 -0.37110993231E+02 -0.56444355892E+00 -0.32869854499E+02  0.49577936123E+02  0.51100000000E-03 0.  1.
         23    2    1    0    0    0 -0.22682059988E+02  0.14179518193E+02  0.94274091375E+01  0.96637866362E+02  0.92382176801E+02 0.  0.
         11    1    3    3    0    0  0.14428933244E+02  0.14743961752E+02  0.42297263637E+02  0.47059930239E+02  0.51100000000E-03 0. -1.
         22    1    1    0    0    0  0.22682059988E+02 -0.14179518193E+02 -0.94274091375E+01  0.28362133638E+02  0.00000000000E+00 0. -1.
</event>
<event>
 5    1  0.8962782E-005  0.9118800E+02  0.7818608E-02  0.1130116E+00
         25   -1    0    0    0    0  0.00000000000E+00  0.00000000000E+00  0.99999998245E-14  0.12500000000E+03  0.12500000000E+03 0.  0.
        -11    1    3    3    0    0 -0.18388356363E+02  0.48735649315E+01  0.25757545387E+02  0.32020843672E+02  0.51100000000E-03 0. -1.
         23    2    1    0    0    0  0.21630923582E+02 -0.28696446314E+02  0.17931551950E+02  0.84838781874E+02  0.74730820070E+02 0.  0.
         11    1    3    3    0    0  0.40019279945E+02 -0.33570011245E+02 -0.78259934369E+01  0.52817938202E+02  0.51100000000E-03 0.  1.
         22    1    1    0    0    0 -0.21630923582E+02  0.28696446314E+02 -0.17931551950E+02  0.40161218126E+02  0.00000000000E+00 0.  1.
</event>
<event>
 5    1  0.8962782E-005  0.9118800E+02  0.7818608E-02  0.1130116E+00
         25   -1    0    0    0    0  0.00000000000E+00  0.00000000000E+00  0.99999998245E-14  0.12500000000E+03  0.12500000000E+03 0.  0.
        -11    1    3    3    0    0 -0.26017537730E+02 -0.26109896034E+02  0.11887892758E+02  0.38729329131E+02  0.51100000000E-03 0.  1.
         23    2    1    0    0    0  0.24126464470E+02  0.17624628098E+01  0.15593983567E+02  0.96218671218E+02  0.91813222383E+02 0.  0.
         11    1    3    3    0    0  0.50144002201E+02  0.27872358844E+02  0.37060908091E+01  0.57489342087E+02  0.51100000000E-03 0. -1.
         22    1    1    0    0    0 -0.24126464470E+02 -0.17624628098E+01 -0.15593983567E+02  0.28781328782E+02  0.00000000000E+00 0. -1.
</event>
<event>
 5    1  0.8962782E-005  0.9118800E+02  0.7818608E-02  0.1130116E+00
         25   -1    0    0    0    0  0.00000000000E+00  0.00000000000E+00  0.99999998245E-14  0.12500000000E+03  0.12500000000E+03 0.  0.
        -11    1    3    3    0    0  0.48805816976E+02 -0.62003467645E+01 -0.20512606347E+02  0.53303087060E+02  0.51100000000E-03 0.  1.
         23    2    1    0    0    0  0.24917631251E+02 -0.50796570674E+01  0.14517459915E+02  0.95717788583E+02  0.91128739406E+02 0.  0.
         11    1    3    3    0    0 -0.23888185725E+02  0.11206896971E+01  0.35030066262E+02  0.42414701523E+02  0.51100000000E-03 0. -1.
         22    1    1    0    0    0 -0.24917631251E+02  0.50796570674E+01 -0.14517459915E+02  0.29282211417E+02  0.00000000000E+00 0.  1.
</event>
<event>
 5    1  0.8962782E-005  0.9118800E+02  0.7818608E-02  0.1130116E+00
         25   -1    0    0    0    0  0.00000000000E+00  0.00000000000E+00  0.99999998245E-14  0.12500000000E+03  0.12500000000E+03 0.  0.
        -11    1    3    3    0    0 -0.29669741972E+02  0.91668744198E+00  0.15759719494E+02  0.33608074377E+02  0.51100000000E-03 0.  1.
         23    2    1    0    0    0  0.27188483668E+02 -0.98094778370E+01 -0.60974813431E+01  0.95459878498E+02  0.90774278431E+02 0.  0.
         11    1    3    3    0    0  0.56858225639E+02 -0.10726165279E+02 -0.21857200837E+02  0.61851804122E+02  0.51100000000E-03 0. -1.
         22    1    1    0    0    0 -0.27188483668E+02  0.98094778370E+01  0.60974813431E+01  0.29540121502E+02  0.00000000000E+00 0. -1.
</event>
<event>
 5    1  0.8962782E-005  0.9118800E+02  0.7818608E-02  0.1130116E+00
         25   -1    0    0    0    0  0.00000000000E+00  0.00000000000E+00  0.99999998245E-14  0.12500000000E+03  0.12500000000E+03 0.  0.
        -11    1    3    3    0    0 -0.32301208732E+02 -0.13873951505E+02  0.14454496824E+02  0.38010355097E+02  0.51100000000E-03 0. -1.
         23    2    1    0    0    0  0.17858430747E+02  0.15965596907E+02  0.15648920994E+02  0.96386846354E+02  0.92041901265E+02 0.  0.
         11    1    3    3    0    0  0.50159639479E+02  0.29839548412E+02  0.11944241698E+01  0.58376491256E+02  0.51100000000E-03 0.  1.
         22    1    1    0    0    0 -0.17858430747E+02 -0.15965596907E+02 -0.15648920994E+02  0.28613153646E+02  0.00000000000E+00 0.  1.
</event>
<event>
 5    1  0.8962782E-005  0.9118800E+02  0.7818608E-02  0.1130116E+00
         25   -1    0    0    0    0  0.00000000000E+00  0.00000000000E+00  0.99999998245E-14  0.12500000000E+03  0.12500000000E+03 0.  0.
        -11    1    3    3    0    0  0.54512543797E+00  0.21993904331E+02 -0.26160404929E+02  0.34181804747E+02  0.51100000000E-03 0. -1.
         23    2    1    0    0    0  0.14492414298E+02 -0.18715918508E+02  0.17559492914E+02  0.95527106196E+02  0.90866806640E+02 0.  0.
         11    1    3    3    0    0  0.13947288860E+02 -0.40709822839E+02  0.43719897843E+02  0.61345301449E+02  0.51100000000E-03 0.  1.
         22    1    1    0    0    0 -0.14492414298E+02  0.18715918508E+02 -0.17559492914E+02  0.29472893804E+02  0.00000000000E+00 0.  1.
</event>
<event>
 5    1  0.8962782E-005  0.9118800E+02  0.7818608E-02  0.1130116E+00
         25   -1    0    0    0    0  0.00000000000E+00  0.00000000000E+00  0.99999998245E-14  0.12500000000E+03  0.12500000000E+03 0.  0.
        -11    1    3    3    0    0  0.22846671619E+02 -0.22017930812E+02 -0.18456290368E+02  0.36706870416E+02  0.51100000000E-03 0. -1.
         23    2    1    0    0    0  0.42676889237E+01  0.29268468857E+02  0.28865177246E+01  0.95281513791E+02  0.90528329532E+02 0.  0.
         11    1    3    3    0    0 -0.18578982696E+02  0.51286399669E+02  0.21342808092E+02  0.58574643375E+02  0.51100000000E-03 0.  1.
         22    1    1    0    0    0 -0.42676889237E+01 -0.29268468857E+02 -0.28865177246E+01  0.29718486209E+02  0.00000000000E+00 0.  1.
</event>
<event>
 5    1  0.8962782E-005  0.9118800E+02  0.7818608E-02  0.1130116E+00
         25   -1    0    0    0    0  0.00000000000E+00  0.00000000000E+00  0.99999998245E-14  0.12500000000E+03  0.12500000000E+03 0.  0.
        -11    1    3    3    0    0  0.10393063941E+02  0.64995591279E+01 -0.47084710725E+02  0.48654188219E+02  0.51100000000E-03 0. -1.
         23    2    1    0    0    0  0.26849555184E+02 -0.11900458470E+02 -0.85600607117E+01  0.94409247071E+02  0.89315797974E+02 0.  0.
         11    1    3    3    0    0  0.16456491243E+02 -0.18400017598E+02  0.38524650013E+02  0.45755058852E+02  0.51100000000E-03 0.  1.
         22    1    1    0    0    0 -0.26849555184E+02  0.11900458470E+02  0.85600607117E+01  0.30590752929E+02  0.00000000000E+00 0. -1.
</event>
<event>
 5    1  0.8962782E-005  0.9118800E+02  0.7818608E-02  0.1130116E+00
         25   -1    0    0    0    0  0.00000000000E+00  0.00000000000E+00  0.99999998245E-14  0.12500000000E+03  0.12500000000E+03 0.  0.
        -11    1    3    3    0    0  0.34089923294E+02 -0.11059293816E+02 -0.28946678554E+02  0.46068872891E+02  0.51100000000E-03 0. -1.
         23    2    1    0    0    0  0.14386681555E+02 -0.16942741435E+02  0.17400052162E+02  0.96772444159E+02  0.92564091525E+02 0.  0.
         11    1    3    3    0    0 -0.19703241739E+02 -0.58834476185E+01  0.46346730717E+02  0.50703571268E+02  0.51100000000E-03 0.  1.
         22    1    1    0    0    0 -0.14386681555E+02  0.16942741435E+02 -0.17400052162E+02  0.28227555841E+02  0.00000000000E+00 0.  1.
</event>
<event>
 5    1  0.8962782E-005  0.9118800E+02  0.7818608E-02  0.1130116E+00
         25   -1    0    0    0    0  0.00000000000E+00  0.00000000000E+00  0.99999998245E-14  0.12500000000E+03  0.12500000000E+03 0.  0.
        -11    1    3    3    0    0  0.28002381398E+02  0.20224900712E+02  0.73364649894E+01  0.35312939435E+02  0.51100000000E-03 0.  1.
         23    2    1    0    0    0 -0.27134089252E+01 -0.29136293143E+02 -0.63877791173E+01  0.95048541135E+02  0.90206071213E+02 0.  0.
         11    1    3    3    0    0 -0.30715790323E+02 -0.49361193854E+02 -0.13724244107E+02  0.59735601700E+02  0.51100000000E-03 0. -1.
         22    1    1    0    0    0  0.27134089252E+01  0.29136293143E+02  0.63877791173E+01  0.29951458865E+02  0.00000000000E+00 0. -1.
</event>
<event>
 5    1  0.8962782E-005  0.9118800E+02  0.7818608E-02  0.1130116E+00
         25   -1    0    0    0    0  0.00000000000E+00  0.00000000000E+00  0.99999998245E-14  0.12500000000E+03  0.12500000000E+03 0.  0.
        -11    1    3    3    0    0  0.14327359043E+02  0.27057088226E+02 -0.26506037911E+02  0.40496040380E+02  0.51100000000E-03 0.  1.
         23    2    1    0    0    0 -0.20304788094E+02 -0.15373611708E+02 -0.82083664163E+01  0.98241643629E+02  0.94527302443E+02 0.  0.
         11    1    3    3    0    0 -0.34632147137E+02 -0.42430699934E+02  0.18297671495E+02  0.57745603249E+02  0.51100000000E-03 0. -1.
         22    1    1    0    0    0  0.20304788094E+02  0.15373611708E+02  0.82083664163E+01  0.26758356371E+02  0.00000000000E+00 0. -1.
</event>
<event>
 5    1  0.8962782E-005  0.9118800E+02  0.7818608E-02  0.1130116E+00
         25   -1    0    0    0    0  0.00000000000E+00  0.00000000000E+00  0.99999998245E-14  0.12500000000E+03  0.12500000000E+03 0.  0.
        -11    1    3    3    0    0 -0.12737840843E+02  0.56492658282E+02 -0.10451633516E+02  0.58846492440E+02  0.51100000000E-03 0. -1.
         23    2    1    0    0    0 -0.98886046664E+01  0.19693023012E+02 -0.18031573762E+02  0.96526550789E+02  0.92231435516E+02 0.  0.
         11    1    3    3    0    0  0.28492361770E+01 -0.36799635270E+02 -0.75799402464E+01  0.37680058349E+02  0.51100000000E-03 0.  1.
         22    1    1    0    0    0  0.98886046664E+01 -0.19693023012E+02  0.18031573762E+02  0.28473449211E+02  0.00000000000E+00 0. -1.
</event>
<event>
 5    1  0.8962782E-005  0.9118800E+02  0.7818608E-02  0.1130116E+00
         25   -1    0    0    0    0  0.00000000000E+00  0.00000000000E+00  0.99999998245E-14  0.12500000000E+03  0.12500000000E+03 0.  0.
        -11    1    3    3    0    0  0.11390448424E+02  0.40901215975E+02 -0.14624398331E+02  0.44905732488E+02  0.51100000000E-03 0.  1.
         23    2    1    0    0    0  0.12963080505E+02 -0.11565678934E+02 -0.20959069242E+02  0.97777050694E+02  0.93910929468E+02 0.  0.
         11    1    3    3    0    0  0.15726320818E+01 -0.52466894909E+02 -0.63346709118E+01  0.52871318206E+02  0.51100000000E-03 0. -1.
         22    1    1    0    0    0 -0.12963080505E+02  0.11565678934E+02  0.20959069242E+02  0.27222949306E+02  0.00000000000E+00 0.  1.
</event>
<event>
 5    1  0.8962782E-005  0.9118800E+02  0.7818608E-02  0.1130116E+00
         25   -1    0    0    0    0  0.00000000000E+00  0.00000000000E+00  0.99999998245E-14  0.12500000000E+03  0.12500000000E+03 0.  0.
        -11    1    3    3    0    0 -0.21465617142E+02  0.16180120112E+02 -0.24781227975E+02  0.36560610858E+02  0.51100000000E-03 0. -1.
         23    2    1    0    0    0  0.14132888526E+02 -0.25981385332E+02 -0.62409408153E+01  0.94772193858E+02  0.89822316072E+02 0.  0.
         11    1    3    3    0    0  0.35598505668E+02 -0.42161505444E+02  0.18540287160E+02  0.58211583000E+02  0.51100000000E-03 0.  1.
         22    1    1    0    0    0 -0.14132888526E+02  0.25981385332E+02  0.62409408153E+01  0.30227806142E+02  0.00000000000E+00 0.  1.
</event>
<event>
 5    1  0.8962782E-005  0.9118800E+02  0.7818608E-02  0.1130116E+00
         25   -1    0    0    0    0  0.00000000000E+00  0.00000000000E+00  0.99999998245E-14  0.12500000000E+03  0.12500000000E+03 0.  0.
        -11    1    3    3    0    0  0.23494912332E+02  0.40531229838E+02 -0.13004762864E+02  0.48620112660E+02  0.51100000000E-03 0.  1.
         23    2    1    0    0    0  0.24723416090E+02 -0.82645056505E+01 -0.82262947929E+01  0.97664651405E+02  0.93761201204E+02 0.  0.
         11    1    3    3    0    0  0.12285037574E+01 -0.48795735488E+02  0.47784680715E+01  0.49044538745E+02  0.51100000000E-03 0. -1.
         22    1    1    0    0    0 -0.24723416090E+02  0.82645056505E+01  0.82262947929E+01  0.27335348595E+02  0.00000000000E+00 0. -1.
</event>
<event>
 5    1  0.8962782E-005  0.9118800E+02  0.7818608E-02  0.1130116E+00
         25   -1    0    0    0    0  0.00000000000E+00  0.00000000000E+00  0.99999998245E-14  0.12500000000E+03  0.12500000000E+03 0.  0.
        -11    1    3    3    0    0 -0.56659220860E+02 -0.22632329666E+02  0.12912640134E+02  0.62363658729E+02  0.51100000000E-03 0.  1.
         23    2    1    0    0    0 -0.27778298590E+02 -0.11959099254E+02  0.92673806095E+01  0.93368713733E+02  0.87847472550E+02 0.  0.
         11    1    3    3    0    0  0.28880922270E+02  0.10673230412E+02 -0.36452595249E+01  0.31005055005E+02  0.51100000000E-03 0. -1.
         22    1    1    0    0    0  0.27778298590E+02  0.11959099254E+02 -0.92673806095E+01  0.31631286267E+02  0.00000000000E+00 0.  1.
</event>
<event>
 5    1  0.8962782E-005  0.9118800E+02  0.7818608E-02  0.1130116E+00
         25   -1    0    0    0    0  0.00000000000E+00  0.00000000000E+00  0.99999998245E-14  0.12500000000E+03  0.12500000000E+03 0.  0.
        -11    1    3    3    0    0 -0.98817154844E+01  0.38317555343E+02  0.12048444531E+02  0.41364820370E+02  0.51100000000E-03 0.  1.
         23    2    1    0    0    0 -0.96312447188E+01 -0.22453280621E+01 -0.26124889620E+02  0.97065930647E+02  0.92959575418E+02 0.  0.
         11    1    3    3    0    0  0.25047076555E+00 -0.40562883405E+02 -0.38173334151E+02  0.55701110278E+02  0.51100000000E-03 0. -1.
         22    1    1    0    0    0  0.96312447188E+01  0.22453280621E+01  0.26124889620E+02  0.27934069353E+02  0.00000000000E+00 0. -1.
</event>
<event>
 5    1  0.8962782E-005  0.9118800E+02  0.7818608E-02  0.1130116E+00
         25   -1    0    0    0    0  0.00000000000E+00  0.00000000000E+00  0.99999998245E-14  0.12500000000E+03  0.12500000000E+03 0.  0.
        -11    1    3    3    0    0  0.30559660839E+02 -0.34806000149E+01  0.17871929900E+02  0.35572648561E+02  0.51100000000E-03 0. -1.
         23    2    1    0    0    0 -0.12368864757E+02  0.78306703498E+01 -0.24188015749E+02  0.96726897599E+02  0.92502564288E+02 0.  0.
         11    1    3    3    0    0 -0.42928525596E+02  0.11311270365E+02 -0.42059945649E+02  0.61154249038E+02  0.51100000000E-03 0.  1.
         22    1    1    0    0    0  0.12368864757E+02 -0.78306703498E+01  0.24188015749E+02  0.28273102401E+02  0.00000000000E+00 0.  1.
</event>
<event>
 5    1  0.8962782E-005  0.9118800E+02  0.7818608E-02  0.1130116E+00
         25   -1    0    0    0    0  0.00000000000E+00  0.00000000000E+00  0.99999998245E-14  0.12500000000E+03  0.12500000000E+03 0.  0.
        -11    1    3    3    0    0  0.30500381172E+02 -0.38578965425E+02  0.24347276319E+02  0.54876221529E+02  0.51100000000E-03 0.  1.
         23    2    1    0    0    0 -0.72515145839E+00 -0.29446971053E+02 -0.54468826286E-01  0.95544051268E+02  0.90890113968E+02 0.  0.
         11    1    3    3    0    0 -0.31225532631E+02  0.91319943718E+01 -0.24401745145E+02  0.40667829739E+02  0.51100000000E-03 0. -1.
         22    1    1    0    0    0  0.72515145839E+00  0.29446971053E+02  0.54468826286E-01  0.29455948732E+02  0.00000000000E+00 0.  1.
</event>
<event>
 5    1  0.8962782E-005  0.9118800E+02  0.7818608E-02  0.1130116E+00
         25   -1    0    0    0    0  0.00000000000E+00  0.00000000000E+00  0.99999998245E-14  0.12500000000E+03  0.12500000000E+03 0.  0.
        -11    1    3    3    0    0 -0.16250720203E+02  0.27401349270E+02 -0.51095372623E+02  0.60213428342E+02  0.51100000000E-03 0.  1.
         23    2    1    0    0    0 -0.15575370685E+02  0.36817555247E+01 -0.22831650507E+02  0.97117536683E+02  0.93028942652E+02 0.  0.
         11    1    3    3    0    0  0.67534951885E+00 -0.23719593745E+02  0.28263722115E+02  0.36904108342E+02  0.51100000000E-03 0. -1.
         22    1    1    0    0    0  0.15575370685E+02 -0.36817555247E+01  0.22831650507E+02  0.27882463317E+02  0.00000000000E+00 0.  1.
</event>
<event>
 5    1  0.8962782E-005  0.9118800E+02  0.7818608E-02  0.1130116E+00
         25   -1    0    0    0    0  0.00000000000E+00  0.00000000000E+00  0.99999998245E-14  0.12500000000E+03  0.12500000000E+03 0.  0.
        -11    1    3    3    0    0  0.34414745848E+02 -0.28501724324E+02 -0.20224563549E+02  0.49048506524E+02  0.51100000000E-03 0.  1.
         23    2    1    0    0    0  0.50524972940E+01  0.61624489104E+01 -0.28659326115E+02  0.95253395507E+02  0.90489495947E+02 0.  0.
         11    1    3    3    0    0 -0.29362248554E+02  0.34664173235E+02 -0.84347625660E+01  0.46204888983E+02  0.51100000000E-03 0. -1.
         22    1    1    0    0    0 -0.50524972940E+01 -0.61624489104E+01  0.28659326115E+02  0.29746604493E+02  0.00000000000E+00 0.  1.
</event>
<event>
 5    1  0.8962782E-005  0.9118800E+02  0.7818608E-02  0.1130116E+00
         25   -1    0    0    0    0  0.00000000000E+00  0.00000000000E+00  0.99999998245E-14  0.12500000000E+03  0.12500000000E+03 0.  0.
        -11    1    3    3    0    0 -0.30318107256E+02 -0.24623059759E+02  0.46173351334E+01  0.39329409905E+02  0.51100000000E-03 0.  1.
         23    2    1    0    0    0  0.11297433603E+02 -0.39785907337E+00 -0.26176497798E+02  0.96486856806E+02  0.92177623106E+02 0.  0.
         11    1    3    3    0    0  0.41615540859E+02  0.24225200686E+02 -0.30793832931E+02  0.57157446900E+02  0.51100000000E-03 0. -1.
         22    1    1    0    0    0 -0.11297433603E+02  0.39785907337E+00  0.26176497798E+02  0.28513143194E+02  0.00000000000E+00 0. -1.
</event>
<event>
 5    1  0.8962782E-005  0.9118800E+02  0.7818608E-02  0.1130116E+00
         25   -1    0    0    0    0  0.00000000000E+00  0.00000000000E+00  0.99999998245E-14  0.12500000000E+03  0.12500000000E+03 0.  0.
        -11    1    3    3    0    0 -0.60660128754E+02  0.66980750025E+01 -0.31684715723E+01  0.61111002623E+02  0.51100000000E-03 0. -1.
         23    2    1    0    0    0 -0.28880749315E+02  0.51603091486E+00 -0.10427870147E+02  0.94289994388E+02  0.89148744225E+02 0.  0.
         11    1    3    3    0    0  0.31779379439E+02 -0.61820440876E+01 -0.72593985750E+01  0.33178991765E+02  0.51100000000E-03 0.  1.
         22    1    1    0    0    0  0.28880749315E+02 -0.51603091486E+00  0.10427870147E+02  0.30710005612E+02  0.00000000000E+00 0. -1.
</event>
<event>
 5    1  0.8962782E-005  0.9118800E+02  0.7818608E-02  0.1130116E+00
         25   -1    0    0    0    0  0.00000000000E+00  0.00000000000E+00  0.99999998245E-14  0.12500000000E+03  0.12500000000E+03 0.  0.
        -11    1    3    3    0    0 -0.24561750585E+01  0.38474321713E+02  0.58424456574E+00  0.38557068991E+02  0.51100000000E-03 0.  1.
         23    2    1    0    0    0 -0.25105868565E+02 -0.13612306402E+02  0.66473562122E+01  0.95677877523E+02  0.91073977516E+02 0.  0.
         11    1    3    3    0    0 -0.22649693506E+02 -0.52086628114E+02  0.60631116465E+01  0.57120808532E+02  0.51100000000E-03 0. -1.
         22    1    1    0    0    0  0.25105868565E+02  0.13612306402E+02 -0.66473562122E+01  0.29322122477E+02  0.00000000000E+00 0. -1.
</event>
<event>
 5    1  0.8962782E-005  0.9118800E+02  0.7818608E-02  0.1130116E+00
         25   -1    0    0    0    0  0.00000000000E+00  0.00000000000E+00  0.99999998245E-14  0.12500000000E+03  0.12500000000E+03 0.  0.
        -11    1    3    3    0    0 -0.31221601509E+02  0.37124824825E+02  0.62692162891E+01  0.48911594660E+02  0.51100000000E-03 0.  1.
         23    2    1    0    0    0 -0.18911659313E+02 -0.86029447879E+01  0.17789082833E+02  0.97648345845E+02  0.93739460534E+02 0.  0.
         11    1    3    3    0    0  0.12309942196E+02 -0.45727769613E+02  0.11519866544E+02  0.48736751185E+02  0.51100000000E-03 0. -1.
         22    1    1    0    0    0  0.18911659313E+02  0.86029447879E+01 -0.17789082833E+02  0.27351654155E+02  0.00000000000E+00 0. -1.
</event>
<event>
 5    1  0.8962782E-005  0.9118800E+02  0.7818608E-02  0.1130116E+00
         25   -1    0    0    0    0  0.00000000000E+00  0.00000000000E+00  0.99999998245E-14  0.12500000000E+03  0.12500000000E+03 0.  0.
        -11    1    3    3    0    0  0.67869182103E+01  0.17855454045E+02  0.41478330125E+02  0.45665428588E+02  0.51100000000E-03 0. -1.
         23    2    1    0    0    0 -0.24151346697E+02  0.19899475917E+02  0.53869561052E+01  0.93246323281E+02  0.87673147658E+02 0.  0.
         11    1    3    3    0    0 -0.30938264908E+02  0.20440218715E+01 -0.36091374019E+02  0.47580894693E+02  0.51100000000E-03 0.  1.
         22    1    1    0    0    0  0.24151346697E+02 -0.19899475917E+02 -0.53869561052E+01  0.31753676719E+02  0.00000000000E+00 0. -1.
</event>
<event>
 5    1  0.8962782E-005  0.9118800E+02  0.7818608E-02  0.1130116E+00
         25   -1    0    0    0    0  0.00000000000E+00  0.00000000000E+00  0.99999998245E-14  0.12500000000E+03  0.12500000000E+03 0.  0.
        -11    1    3    3    0    0 -0.49099855574E+01 -0.26058619228E+02  0.32874526402E+02  0.42236170289E+02  0.51100000000E-03 0.  1.
         23    2    1    0    0    0  0.11059913827E+02  0.22303052933E+02  0.13083713778E+02  0.96876496836E+02  0.92704499400E+02 0.  0.
         11    1    3    3    0    0  0.15969899385E+02  0.48361672161E+02 -0.19790812625E+02  0.54640326547E+02  0.51100000000E-03 0. -1.
         22    1    1    0    0    0 -0.11059913827E+02 -0.22303052933E+02 -0.13083713778E+02  0.28123503164E+02  0.00000000000E+00 0. -1.
</event>
<event>
 5    1  0.8962782E-005  0.9118800E+02  0.7818608E-02  0.1130116E+00
         25   -1    0    0    0    0  0.00000000000E+00  0.00000000000E+00  0.99999998245E-14  0.12500000000E+03  0.12500000000E+03 0.  0.
        -11    1    3    3    0    0 -0.14479824019E+02 -0.35779766291E+02 -0.10319271245E+02  0.39954278103E+02  0.51100000000E-03 0. -1.
         23    2    1    0    0    0 -0.10421069894E+02  0.71504747525E+01  0.25843063501E+02  0.96232102648E+02  0.91831506914E+02 0.  0.
         11    1    3    3    0    0  0.40587541245E+01  0.42930241043E+02  0.36162334746E+02  0.56277824545E+02  0.51100000000E-03 0.  1.
         22    1    1    0    0    0  0.10421069894E+02 -0.71504747525E+01 -0.25843063501E+02  0.28767897352E+02  0.00000000000E+00 0.  1.
</event>
<event>
 5    1  0.8962782E-005  0.9118800E+02  0.7818608E-02  0.1130116E+00
         25   -1    0    0    0    0  0.00000000000E+00  0.00000000000E+00  0.99999998245E-14  0.12500000000E+03  0.12500000000E+03 0.  0.
        -11    1    3    3    0    0  0.45811418656E+01  0.38083805214E+02  0.99227073301E+01  0.39620994453E+02  0.51100000000E-03 0. -1.
         23    2    1    0    0    0 -0.29977721478E+02 -0.41114743449E+01  0.37132554274E+01  0.94514654796E+02  0.89463197456E+02 0.  0.
         11    1    3    3    0    0 -0.34558863344E+02 -0.42195279559E+02 -0.62094519027E+01  0.54893660344E+02  0.51100000000E-03 0.  1.
         22    1    1    0    0    0  0.29977721478E+02  0.41114743449E+01 -0.37132554274E+01  0.30485345204E+02  0.00000000000E+00 0.  1.
</event>
<event>
 5    1  0.8962782E-005  0.9118800E+02  0.7818608E-02  0.1130116E+00
         25   -1    0    0    0    0  0.00000000000E+00  0.00000000000E+00  0.99999998245E-14  0.12500000000E+03  0.12500000000E+03 0.  0.
        -11    1    3    3    0    0  0.18126605232E+02 -0.30299729071E+02  0.63918491293E+01  0.35881793915E+02  0.51100000000E-03 0. -1.
         23    2    1    0    0    0  0.31091610042E+00  0.25928563180E+02  0.14292043076E+02  0.95391731684E+02  0.90680388845E+02 0.  0.
         11    1    3    3    0    0 -0.17815689131E+02  0.56228292251E+02  0.79001939469E+01  0.59509937769E+02  0.51100000000E-03 0.  1.
         22    1    1    0    0    0 -0.31091610042E+00 -0.25928563180E+02 -0.14292043076E+02  0.29608268316E+02  0.00000000000E+00 0.  1.
</event>
<event>
 5    1  0.8962782E-005  0.9118800E+02  0.7818608E-02  0.1130116E+00
         25   -1    0    0    0    0  0.00000000000E+00  0.00000000000E+00  0.99999998245E-14  0.12500000000E+03  0.12500000000E+03 0.  0.
        -11    1    3    3    0    0 -0.45641412330E+02  0.97109529022E+01  0.95160986916E+01  0.47623494836E+02  0.51100000000E-03 0.  1.
         23    2    1    0    0    0 -0.46257583969E+01  0.84168601682E+01 -0.23061382569E+02  0.10001863611E+03  0.96848639781E+02 0.  0.
         11    1    3    3    0    0  0.41015653934E+02 -0.12940927340E+01 -0.32577481260E+02  0.52395141274E+02  0.51100000000E-03 0. -1.
         22    1    1    0    0    0  0.46257583969E+01 -0.84168601682E+01  0.23061382569E+02  0.24981363890E+02  0.00000000000E+00 0.  1.
</event>
<event>
 5    1  0.8962782E-005  0.9118800E+02  0.7818608E-02  0.1130116E+00
         25   -1    0    0    0    0  0.00000000000E+00  0.00000000000E+00  0.99999998245E-14  0.12500000000E+03  0.12500000000E+03 0.  0.
        -11    1    3    3    0    0 -0.57227974957E+02 -0.68146592683E+01 -0.12416578269E+02  0.58954661519E+02  0.51100000000E-03 0.  1.
         23    2    1    0    0    0 -0.23569962532E+02 -0.17503552486E+02 -0.30938625734E+01  0.95478999526E+02  0.90800605072E+02 0.  0.
         11    1    3    3    0    0  0.33658012425E+02 -0.10688893217E+02  0.93227156955E+01  0.36524338007E+02  0.51100000000E-03 0. -1.
         22    1    1    0    0    0  0.23569962532E+02  0.17503552486E+02  0.30938625734E+01  0.29521000474E+02  0.00000000000E+00 0.  1.
</event>
<event>
 5    1  0.8962782E-005  0.9118800E+02  0.7818608E-02  0.1130116E+00
         25   -1    0    0    0    0  0.00000000000E+00  0.00000000000E+00  0.99999998245E-14  0.12500000000E+03  0.12500000000E+03 0.  0.
        -11    1    3    3    0    0 -0.57404451668E+01 -0.46263678970E+02 -0.22570800404E+02  0.51794997188E+02  0.51100000000E-03 0. -1.
         23    2    1    0    0    0  0.23088751011E+02 -0.18299410708E+02 -0.88330282898E+01  0.94243191904E+02  0.89083095904E+02 0.  0.
         11    1    3    3    0    0  0.28829196178E+02  0.27964268262E+02  0.13737772114E+02  0.42448194716E+02  0.51100000000E-03 0.  1.
         22    1    1    0    0    0 -0.23088751011E+02  0.18299410708E+02  0.88330282898E+01  0.30756808096E+02  0.00000000000E+00 0. -1.
</event>
<event>
 5    1  0.8962782E-005  0.9118800E+02  0.7818608E-02  0.1130116E+00
         25   -1    0    0    0    0  0.00000000000E+00  0.00000000000E+00  0.99999998245E-14  0.12500000000E+03  0.12500000000E+03 0.  0.
        -11    1    3    3    0    0  0.44853702468E+02  0.36613907514E+02 -0.18779357916E+02  0.60869509054E+02  0.51100000000E-03 0.  1.
         23    2    1    0    0    0  0.27627926915E+02  0.95413073484E+01 -0.92111626511E+01  0.94353884277E+02  0.89238282531E+02 0.  0.
         11    1    3    3    0    0 -0.17225775552E+02 -0.27072600166E+02  0.95681952651E+01  0.33484375222E+02  0.51100000000E-03 0. -1.
         22    1    1    0    0    0 -0.27627926915E+02 -0.95413073484E+01  0.92111626511E+01  0.30646115723E+02  0.00000000000E+00 0.  1.
</event>
<event>
 5    1  0.8962782E-005  0.9118800E+02  0.7818608E-02  0.1130116E+00
         25   -1    0    0    0    0  0.00000000000E+00  0.00000000000E+00  0.99999998245E-14  0.12500000000E+03  0.12500000000E+03 0.  0.
        -11    1    3    3    0    0 -0.27791134353E+02  0.26655026474E+02  0.39716106206E+02  0.55319134821E+02  0.51100000000E-03 0. -1.
         23    2    1    0    0    0 -0.18272323412E+02  0.23098262621E+02  0.80286271807E+00  0.95537275627E+02  0.90880795038E+02 0.  0.
         11    1    3    3    0    0  0.95188109410E+01 -0.35567638534E+01 -0.38913243488E+02  0.40218140806E+02  0.51100000000E-03 0.  1.
         22    1    1    0    0    0  0.18272323412E+02 -0.23098262621E+02 -0.80286271807E+00  0.29462724373E+02  0.00000000000E+00 0. -1.
</event>
<event>
 5    1  0.8962782E-005  0.9118800E+02  0.7818608E-02  0.1130116E+00
         25   -1    0    0    0    0  0.00000000000E+00  0.00000000000E+00  0.99999998245E-14  0.12500000000E+03  0.12500000000E+03 0.  0.
        -11    1    3    3    0    0 -0.43730896353E+02  0.30208051106E+02  0.93916536761E+01  0.53973334217E+02  0.51100000000E-03 0. -1.
         23    2    1    0    0    0 -0.76483906963E+01  0.12812913403E+02  0.24107759702E+02  0.96647703656E+02  0.92395486437E+02 0.  0.
         11    1    3    3    0    0  0.36082505657E+02 -0.17395137703E+02  0.14716106026E+02  0.42674369439E+02  0.51100000000E-03 0.  1.
         22    1    1    0    0    0  0.76483906963E+01 -0.12812913403E+02 -0.24107759702E+02  0.28352296344E+02  0.00000000000E+00 0. -1.
</event>
<event>
 5    1  0.8962782E-005  0.9118800E+02  0.7818608E-02  0.1130116E+00
         25   -1    0    0    0    0  0.00000000000E+00  0.00000000000E+00  0.99999998245E-14  0.12500000000E+03  0.12500000000E+03 0.  0.
        -11    1    3    3    0    0  0.19404432258E+01 -0.12652986303E+02 -0.22770699717E+02  0.26122177324E+02  0.51100000000E-03 0. -1.
         23    2    1    0    0    0  0.32045986331E+02  0.28936195998E+02 -0.12142022474E+01  0.81805984606E+02  0.69472988647E+02 0.  0.
         11    1    3    3    0    0  0.30105543105E+02  0.41589182300E+02  0.21556497469E+02  0.55683807282E+02  0.51100000000E-03 0.  1.
         22    1    1    0    0    0 -0.32045986331E+02 -0.28936195998E+02  0.12142022474E+01  0.43194015394E+02  0.00000000000E+00 0.  1.
</event>
<event>
 5    1  0.8962782E-005  0.9118800E+02  0.7818608E-02  0.1130116E+00
         25   -1    0    0    0    0  0.00000000000E+00  0.00000000000E+00  0.99999998245E-14  0.12500000000E+03  0.12500000000E+03 0.  0.
        -11    1    3    3    0    0  0.38987408603E+01 -0.69606909959E+01  0.34422037537E+02  0.35334516664E+02  0.51100000000E-03 0. -1.
         23    2    1    0    0    0  0.16515476433E+02  0.30063755724E+00 -0.24179425739E+02  0.95716967817E+02  0.91127613566E+02 0.  0.
         11    1    3    3    0    0  0.12616735572E+02  0.72613285531E+01 -0.58601463276E+02  0.60382451153E+02  0.51100000000E-03 0.  1.
         22    1    1    0    0    0 -0.16515476433E+02 -0.30063755724E+00  0.24179425739E+02  0.29283032183E+02  0.00000000000E+00 0.  1.
</event>
<event>
 5    1  0.8962782E-005  0.9118800E+02  0.7818608E-02  0.1130116E+00
         25   -1    0    0    0    0  0.00000000000E+00  0.00000000000E+00  0.99999998245E-14  0.12500000000E+03  0.12500000000E+03 0.  0.
        -11    1    3    3    0    0 -0.63768000640E+01 -0.51702134568E+02  0.15948162810E+02  0.54480438647E+02  0.51100000000E-03 0.  1.
         23    2    1    0    0    0 -0.18691529290E+01 -0.26576165760E+02 -0.14863203370E+02  0.94492605264E+02  0.89432384045E+02 0.  0.
         11    1    3    3    0    0  0.45076471351E+01  0.25125968808E+02 -0.30811366180E+02  0.40012166617E+02  0.51100000000E-03 0. -1.
         22    1    1    0    0    0  0.18691529290E+01  0.26576165760E+02  0.14863203370E+02  0.30507394736E+02  0.00000000000E+00 0.  1.
</event>
<event>
 5    1  0.8962782E-005  0.9118800E+02  0.7818608E-02  0.1130116E+00
         25   -1    0    0    0    0  0.00000000000E+00  0.00000000000E+00  0.99999998245E-14  0.12500000000E+03  0.12500000000E+03 0.  0.
        -11    1    3    3    0    0  0.27447330768E+02 -0.84223325741E+01 -0.34561884529E+02  0.44931230951E+02  0.51100000000E-03 0.  1.
         23    2    1    0    0    0  0.12529060657E+02  0.28748134439E+02 -0.92778824922E+01  0.92296610295E+02  0.86308473359E+02 0.  0.
         11    1    3    3    0    0 -0.14918270111E+02  0.37170467013E+02  0.25284002037E+02  0.47365379344E+02  0.51100000000E-03 0. -1.
         22    1    1    0    0    0 -0.12529060657E+02 -0.28748134439E+02  0.92778824922E+01  0.32703389705E+02  0.00000000000E+00 0. -1.
</event>
<event>
 5    1  0.8962782E-005  0.9118800E+02  0.7818608E-02  0.1130116E+00
         25   -1    0    0    0    0  0.00000000000E+00  0.00000000000E+00  0.99999998245E-14  0.12500000000E+03  0.12500000000E+03 0.  0.
        -11    1    3    3    0    0  0.44216146769E+02  0.25400284808E+02  0.15703095831E+02  0.53355686880E+02  0.51100000000E-03 0.  1.
         23    2    1    0    0    0  0.13916739842E+02 -0.37951210887E+00  0.26923271819E+02  0.94690228594E+02  0.89708177712E+02 0.  0.
         11    1    3    3    0    0 -0.30299406928E+02 -0.25779796917E+02  0.11220175988E+02  0.41334541714E+02  0.51100000000E-03 0. -1.
         22    1    1    0    0    0 -0.13916739842E+02  0.37951210887E+00 -0.26923271819E+02  0.30309771406E+02  0.00000000000E+00 0.  1.
</event>
<event>
 5    1  0.8962782E-005  0.9118800E+02  0.7818608E-02  0.1130116E+00
         25   -1    0    0    0    0  0.00000000000E+00  0.00000000000E+00  0.99999998245E-14  0.12500000000E+03  0.12500000000E+03 0.  0.
        -11    1    3    3    0    0  0.25535206990E+02  0.33377170914E+02  0.10770124202E+01  0.42038580973E+02  0.51100000000E-03 0.  1.
         23    2    1    0    0    0  0.18098423364E+02 -0.18484363581E+02 -0.12656217780E+02  0.96200616782E+02  0.91788638705E+02 0.  0.
         11    1    3    3    0    0 -0.74367836262E+01 -0.51861534495E+02 -0.13733230200E+02  0.54162035808E+02  0.51100000000E-03 0. -1.
         22    1    1    0    0    0 -0.18098423364E+02  0.18484363581E+02  0.12656217780E+02  0.28799383218E+02  0.00000000000E+00 0. -1.
</event>
<event>
 5    1  0.8962782E-005  0.9118800E+02  0.7818608E-02  0.1130116E+00
         25   -1    0    0    0    0  0.00000000000E+00  0.00000000000E+00  0.99999998245E-14  0.12500000000E+03  0.12500000000E+03 0.  0.
        -11    1    3    3    0    0 -0.15846943071E+02  0.57545078419E+02  0.22010641584E+01  0.59727768573E+02  0.51100000000E-03 0.  1.
         23    2    1    0    0    0  0.27114052508E+01  0.19781255881E+02 -0.87402380003E+01  0.10320455178E+03  0.10087684544E+03 0.  0.
         11    1    3    3    0    0  0.18558348322E+02 -0.37763822539E+02 -0.10941302159E+02  0.43476783211E+02  0.51100000000E-03 0. -1.
         22    1    1    0    0    0 -0.27114052508E+01 -0.19781255881E+02  0.87402380003E+01  0.21795448216E+02  0.00000000000E+00 0.  1.
</event>
<event>
 5    1  0.8962782E-005  0.9118800E+02  0.7818608E-02  0.1130116E+00
         25   -1    0    0    0    0  0.00000000000E+00  0.00000000000E+00  0.99999998245E-14  0.12500000000E+03  0.12500000000E+03 0.  0.
        -11    1    3    3    0    0 -0.18995448912E+02 -0.32436423063E+02 -0.47702437159E+02  0.60732784652E+02  0.51100000000E-03 0. -1.
         23    2    1    0    0    0  0.53944595041E-01 -0.20598524728E+02 -0.21451477040E+02  0.95259993305E+02  0.90498609527E+02 0.  0.
         11    1    3    3    0    0  0.19049393507E+02  0.11837898335E+02  0.26250960118E+02  0.34527208653E+02  0.51100000000E-03 0.  1.
         22    1    1    0    0    0 -0.53944595041E-01  0.20598524728E+02  0.21451477040E+02  0.29740006695E+02  0.00000000000E+00 0. -1.
</event>
<event>
 5    1  0.8962782E-005  0.9118800E+02  0.7818608E-02  0.1130116E+00
         25   -1    0    0    0    0  0.00000000000E+00  0.00000000000E+00  0.99999998245E-14  0.12500000000E+03  0.12500000000E+03 0.  0.
        -11    1    3    3    0    0 -0.19905787523E+02 -0.20097361326E+02 -0.47212207531E+02  0.55037594873E+02  0.51100000000E-03 0.  1.
         23    2    1    0    0    0  0.11709561772E+02 -0.15726315263E+02 -0.20184859246E+02  0.96860004061E+02  0.92682258364E+02 0.  0.
         11    1    3    3    0    0  0.31615349296E+02  0.43710460626E+01  0.27027348285E+02  0.41822409189E+02  0.51100000000E-03 0. -1.
         22    1    1    0    0    0 -0.11709561772E+02  0.15726315263E+02  0.20184859246E+02  0.28139995939E+02  0.00000000000E+00 0.  1.
</event>
<event>
 5    1  0.8962782E-005  0.9118800E+02  0.7818608E-02  0.1130116E+00
         25   -1    0    0    0    0  0.00000000000E+00  0.00000000000E+00  0.99999998245E-14  0.12500000000E+03  0.12500000000E+03 0.  0.
        -11    1    3    3    0    0  0.10597577748E+02 -0.52792926330E+02  0.17682023112E+02  0.56675000364E+02  0.51100000000E-03 0.  1.
         23    2    1    0    0    0 -0.13003900860E+02 -0.28783547738E+02  0.34476050704E+01  0.93227684399E+02  0.87646569241E+02 0.  0.
         11    1    3    3    0    0 -0.23601478609E+02  0.24009378593E+02 -0.14234418041E+02  0.36552684035E+02  0.51100000000E-03 0. -1.
         22    1    1    0    0    0  0.13003900860E+02  0.28783547738E+02 -0.34476050704E+01  0.31772315601E+02  0.00000000000E+00 0.  1.
</event>
<event>
 5    1  0.8962782E-005  0.9118800E+02  0.7818608E-02  0.1130116E+00
         25   -1    0    0    0    0  0.00000000000E+00  0.00000000000E+00  0.99999998245E-14  0.12500000000E+03  0.12500000000E+03 0.  0.
        -11    1    3    3    0    0  0.79860990559E+01  0.36528143251E+02  0.29218780680E+02  0.47453347324E+02  0.51100000000E-03 0.  1.
         23    2    1    0    0    0 -0.23067580159E+02  0.17887600002E+02 -0.26405022097E+01  0.95690415558E+02  0.91091184478E+02 0.  0.
         11    1    3    3    0    0 -0.31053679214E+02 -0.18640543249E+02 -0.31859282890E+02  0.48237068235E+02  0.51100000000E-03 0. -1.
         22    1    1    0    0    0  0.23067580159E+02 -0.17887600002E+02  0.26405022097E+01  0.29309584442E+02  0.00000000000E+00 0. -1.
</event>
<event>
 5    1  0.8962782E-005  0.9118800E+02  0.7818608E-02  0.1130116E+00
         25   -1    0    0    0    0  0.00000000000E+00  0.00000000000E+00  0.99999998245E-14  0.12500000000E+03  0.12500000000E+03 0.  0.
        -11    1    3    3    0    0 -0.63237092699E+01  0.28942199505E+02  0.21801829176E+02  0.36782604133E+02  0.51100000000E-03 0. -1.
         23    2    1    0    0    0  0.99751589852E+01 -0.26010506859E+02  0.10648393651E+02  0.95176543607E+02  0.90383272246E+02 0.  0.
         11    1    3    3    0    0  0.16298868255E+02 -0.54952706364E+02 -0.11153435524E+02  0.58393939475E+02  0.51100000000E-03 0.  1.
         22    1    1    0    0    0 -0.99751589852E+01  0.26010506859E+02 -0.10648393651E+02  0.29823456393E+02  0.00000000000E+00 0.  1.
</event>
<event>
 5    1  0.8962782E-005  0.9118800E+02  0.7818608E-02  0.1130116E+00
         25   -1    0    0    0    0  0.00000000000E+00  0.00000000000E+00  0.99999998245E-14  0.12500000000E+03  0.12500000000E+03 0.  0.
        -11    1    3    3    0    0 -0.72302602456E+00 -0.48234796709E+02  0.19096540537E+02  0.51882523463E+02  0.51100000000E-03 0.  1.
         23    2    1    0    0    0 -0.67966760903E+01 -0.59723425459E+01  0.28066429457E+02  0.95511220035E+02  0.90844950375E+02 0.  0.
         11    1    3    3    0    0 -0.60736500658E+01  0.42262454163E+02  0.89698889205E+01  0.43628696571E+02  0.51100000000E-03 0. -1.
         22    1    1    0    0    0  0.67966760903E+01  0.59723425459E+01 -0.28066429457E+02  0.29488779965E+02  0.00000000000E+00 0.  1.
</event>
<event>
 5    1  0.8962782E-005  0.9118800E+02  0.7818608E-02  0.1130116E+00
         25   -1    0    0    0    0  0.00000000000E+00  0.00000000000E+00  0.99999998245E-14  0.12500000000E+03  0.12500000000E+03 0.  0.
        -11    1    3    3    0    0 -0.41451937960E+01  0.22247145592E+02 -0.33085919783E+02  0.40084862564E+02  0.51100000000E-03 0.  1.
         23    2    1    0    0    0 -0.12908318340E+02  0.19776006919E+02  0.20065607462E+02  0.94010586730E+02  0.88756107860E+02 0.  0.
         11    1    3    3    0    0 -0.87631245441E+01 -0.24711386726E+01  0.53151527245E+02  0.53925724166E+02  0.51100000000E-03 0. -1.
         22    1    1    0    0    0  0.12908318340E+02 -0.19776006919E+02 -0.20065607462E+02  0.30989413270E+02  0.00000000000E+00 0. -1.
</event>
<event>
 5    1  0.8962782E-005  0.9118800E+02  0.7818608E-02  0.1130116E+00
         25   -1    0    0    0    0  0.00000000000E+00  0.00000000000E+00  0.99999998245E-14  0.12500000000E+03  0.12500000000E+03 0.  0.
        -11    1    3    3    0    0 -0.16465088914E+02  0.29126340564E+02 -0.73980472130E+01  0.34266222004E+02  0.51100000000E-03 0.  1.
         23    2    1    0    0    0  0.42440008995E+01 -0.28332759405E+02 -0.76633155722E+01  0.95343917914E+02  0.90614455130E+02 0.  0.
         11    1    3    3    0    0  0.20709089813E+02 -0.57459099969E+02 -0.26526835920E+00  0.61077695910E+02  0.51100000000E-03 0. -1.
         22    1    1    0    0    0 -0.42440008995E+01  0.28332759405E+02  0.76633155722E+01  0.29656082086E+02  0.00000000000E+00 0. -1.
</event>
<event>
 5    1  0.8962782E-005  0.9118800E+02  0.7818608E-02  0.1130116E+00
         25   -1    0    0    0    0  0.00000000000E+00  0.00000000000E+00  0.99999998245E-14  0.12500000000E+03  0.12500000000E+03 0.  0.
        -11    1    3    3    0    0  0.82110412286E+01  0.43134765013E+02 -0.36048181246E+02  0.56811095063E+02  0.51100000000E-03 0. -1.
         23    2    1    0    0    0 -0.13238735426E+02  0.26038129490E+02 -0.25586414075E+02  0.86168145959E+02  0.76922275641E+02 0.  0.
         11    1    3    3    0    0 -0.21449776655E+02 -0.17096635523E+02  0.10461767171E+02  0.29357050897E+02  0.51100000000E-03 0.  1.
         22    1    1    0    0    0  0.13238735426E+02 -0.26038129490E+02  0.25586414075E+02  0.38831854041E+02  0.00000000000E+00 0. -1.
</event>
<event>
 5    1  0.8962782E-005  0.9118800E+02  0.7818608E-02  0.1130116E+00
         25   -1    0    0    0    0  0.00000000000E+00  0.00000000000E+00  0.99999998245E-14  0.12500000000E+03  0.12500000000E+03 0.  0.
        -11    1    3    3    0    0  0.22791855546E+02 -0.87609367798E+01  0.35422240464E+02  0.43022759236E+02  0.51100000000E-03 0. -1.
         23    2    1    0    0    0 -0.21308927713E+02  0.12364700637E+02  0.15917078773E+02  0.95668964922E+02  0.91061744056E+02 0.  0.
         11    1    3    3    0    0 -0.44100783259E+02  0.21125637417E+02 -0.19505161691E+02  0.52646205686E+02  0.51100000000E-03 0.  1.
         22    1    1    0    0    0  0.21308927713E+02 -0.12364700637E+02 -0.15917078773E+02  0.29331035078E+02  0.00000000000E+00 0.  1.
</event>
<event>
 5    1  0.8962782E-005  0.9118800E+02  0.7818608E-02  0.1130116E+00
         25   -1    0    0    0    0  0.00000000000E+00  0.00000000000E+00  0.99999998245E-14  0.12500000000E+03  0.12500000000E+03 0.  0.
        -11    1    3    3    0    0 -0.44958447330E+02 -0.17049364078E+02  0.33531396809E+02  0.58619940072E+02  0.51100000000E-03 0.  1.
         23    2    1    0    0    0 -0.12592122909E+02 -0.20513507263E+02  0.19307504314E+02  0.94143148858E+02  0.88942606294E+02 0.  0.
         11    1    3    3    0    0  0.32366324421E+02 -0.34641431841E+01 -0.14223892495E+02  0.35523208786E+02  0.51100000000E-03 0. -1.
         22    1    1    0    0    0  0.12592122909E+02  0.20513507263E+02 -0.19307504314E+02  0.30856851142E+02  0.00000000000E+00 0.  1.
</event>
<event>
 5    1  0.8962782E-005  0.9118800E+02  0.7818608E-02  0.1130116E+00
         25   -1    0    0    0    0  0.00000000000E+00  0.00000000000E+00  0.99999998245E-14  0.12500000000E+03  0.12500000000E+03 0.  0.
        -11    1    3    3    0    0 -0.67020988823E+00  0.53873574685E+02  0.27501835708E+02  0.60491009235E+02  0.51100000000E-03 0. -1.
         23    2    1    0    0    0 -0.10243118003E+02  0.27212554355E+02  0.81322339314E+01  0.94807653128E+02  0.89871648933E+02 0.  0.
         11    1    3    3    0    0 -0.95729081150E+01 -0.26661020330E+02 -0.19369601777E+02  0.34316643893E+02  0.51100000000E-03 0.  1.
         22    1    1    0    0    0  0.10243118003E+02 -0.27212554355E+02 -0.81322339314E+01  0.30192346872E+02  0.00000000000E+00 0. -1.
</event>
<event>
 5    1  0.8962782E-005  0.9118800E+02  0.7818608E-02  0.1130116E+00
         25   -1    0    0    0    0  0.00000000000E+00  0.00000000000E+00  0.99999998245E-14  0.12500000000E+03  0.12500000000E+03 0.  0.
        -11    1    3    3    0    0 -0.55734463403E+01 -0.32201790825E+02  0.47560107667E+02  0.57706000364E+02  0.51100000000E-03 0. -1.
         23    2    1    0    0    0  0.10991467825E+02 -0.39727236743E+01  0.24835991542E+02  0.97551477741E+02  0.93610199419E+02 0.  0.
         11    1    3    3    0    0  0.16564914165E+02  0.28229067150E+02 -0.22724116125E+02  0.39845477377E+02  0.51100000000E-03 0.  1.
         22    1    1    0    0    0 -0.10991467825E+02  0.39727236743E+01 -0.24835991542E+02  0.27448522259E+02  0.00000000000E+00 0. -1.
</event>
<event>
 5    1  0.8962782E-005  0.9118800E+02  0.7818608E-02  0.1130116E+00
         25   -1    0    0    0    0  0.00000000000E+00  0.00000000000E+00  0.99999998245E-14  0.12500000000E+03  0.12500000000E+03 0.  0.
        -11    1    3    3    0    0 -0.20123927568E+02  0.16454855355E+02  0.30238581549E+02  0.39876139983E+02  0.51100000000E-03 0. -1.
         23    2    1    0    0    0 -0.13645009515E+02  0.97001250115E+01 -0.24454252346E+02  0.95364056153E+02  0.90642230987E+02 0.  0.
         11    1    3    3    0    0  0.64789180536E+01 -0.67547303436E+01 -0.54692833896E+02  0.55487916170E+02  0.51100000000E-03 0.  1.
         22    1    1    0    0    0  0.13645009515E+02 -0.97001250115E+01  0.24454252346E+02  0.29635943847E+02  0.00000000000E+00 0.  1.
</event>
<event>
 5    1  0.8962782E-005  0.9118800E+02  0.7818608E-02  0.1130116E+00
         25   -1    0    0    0    0  0.00000000000E+00  0.00000000000E+00  0.99999998245E-14  0.12500000000E+03  0.12500000000E+03 0.  0.
        -11    1    3    3    0    0  0.47797960834E+02  0.27443956345E+02 -0.94472067062E+01  0.55920170909E+02  0.51100000000E-03 0. -1.
         23    2    1    0    0    0  0.25108964657E+02  0.27682664206E+02  0.10551139253E+02  0.86165523781E+02  0.76918014438E+02 0.  0.
         11    1    3    3    0    0 -0.22688996177E+02  0.23870786106E+00  0.19998345959E+02  0.30245352871E+02  0.51100000000E-03 0.  1.
         22    1    1    0    0    0 -0.25108964657E+02 -0.27682664206E+02 -0.10551139253E+02  0.38834476219E+02  0.00000000000E+00 0. -1.
</event>
<event>
 5    1  0.8962782E-005  0.9118800E+02  0.7818608E-02  0.1130116E+00
         25   -1    0    0    0    0  0.00000000000E+00  0.00000000000E+00  0.99999998245E-14  0.12500000000E+03  0.12500000000E+03 0.  0.
        -11    1    3    3    0    0  0.28514603551E+02  0.37636787695E+02 -0.15251140046E+02  0.49620637608E+02  0.51100000000E-03 0. -1.
         23    2    1    0    0    0  0.26681532978E+02 -0.10687227085E+00  0.11526849879E+02  0.95934833703E+02  0.91425972381E+02 0.  0.
         11    1    3    3    0    0 -0.18330705730E+01 -0.37743659966E+02  0.26777989925E+02  0.46314196096E+02  0.51100000000E-03 0.  1.
         22    1    1    0    0    0 -0.26681532978E+02  0.10687227085E+00 -0.11526849879E+02  0.29065166297E+02  0.00000000000E+00 0. -1.
</event>
<event>
 5    1  0.8962782E-005  0.9118800E+02  0.7818608E-02  0.1130116E+00
         25   -1    0    0    0    0  0.00000000000E+00  0.00000000000E+00  0.99999998245E-14  0.12500000000E+03  0.12500000000E+03 0.  0.
        -11    1    3    3    0    0 -0.23949493928E+02 -0.20294359132E+02  0.31551918622E+02  0.44508008729E+02  0.51100000000E-03 0.  1.
         23    2    1    0    0    0 -0.20744163690E+02  0.15580764966E+02 -0.78528939547E+01  0.97893755192E+02  0.94066140550E+02 0.  0.
         11    1    3    3    0    0  0.32053302382E+01  0.35875124098E+02 -0.39404812576E+02  0.53385746463E+02  0.51100000000E-03 0. -1.
         22    1    1    0    0    0  0.20744163690E+02 -0.15580764966E+02  0.78528939547E+01  0.27106244808E+02  0.00000000000E+00 0. -1.
</event>
<event>
 5    1  0.8962782E-005  0.9118800E+02  0.7818608E-02  0.1130116E+00
         25   -1    0    0    0    0  0.00000000000E+00  0.00000000000E+00  0.99999998245E-14  0.12500000000E+03  0.12500000000E+03 0.  0.
        -11    1    3    3    0    0 -0.29049994663E+02 -0.18416044841E+02  0.10186125689E+02  0.35872134789E+02  0.51100000000E-03 0.  1.
         23    2    1    0    0    0  0.17640319812E+02  0.19368440677E+02  0.12484132122E+02  0.95979818537E+02  0.91487456157E+02 0.  0.
         11    1    3    3    0    0  0.46690314476E+02  0.37784485518E+02  0.22980064323E+01  0.60107683747E+02  0.51100000000E-03 0. -1.
         22    1    1    0    0    0 -0.17640319812E+02 -0.19368440677E+02 -0.12484132122E+02  0.29020181463E+02  0.00000000000E+00 0. -1.
</event>
<event>
 5    1  0.8962782E-005  0.9118800E+02  0.7818608E-02  0.1130116E+00
         25   -1    0    0    0    0  0.00000000000E+00  0.00000000000E+00  0.99999998245E-14  0.12500000000E+03  0.12500000000E+03 0.  0.
        -11    1    3    3    0    0 -0.12407446407E+02 -0.99786925192E+01  0.30943349606E+02  0.34799567753E+02  0.51100000000E-03 0. -1.
         23    2    1    0    0    0 -0.69504649102E+01  0.11335751467E+02 -0.25973355905E+02  0.95820838930E+02  0.91269982647E+02 0.  0.
         11    1    3    3    0    0  0.54569814970E+01  0.21314443986E+02 -0.56916705511E+02  0.61021271176E+02  0.51100000000E-03 0.  1.
         22    1    1    0    0    0  0.69504649102E+01 -0.11335751467E+02  0.25973355905E+02  0.29179161070E+02  0.00000000000E+00 0.  1.
</event>
<event>
 5    1  0.8962782E-005  0.9118800E+02  0.7818608E-02  0.1130116E+00
         25   -1    0    0    0    0  0.00000000000E+00  0.00000000000E+00  0.99999998245E-14  0.12500000000E+03  0.12500000000E+03 0.  0.
        -11    1    3    3    0    0  0.10999026424E+02 -0.37321024198E+02  0.25203319380E+02  0.46357790472E+02  0.51100000000E-03 0.  1.
         23    2    1    0    0    0 -0.23592539933E+02 -0.75860485115E+01  0.21618452860E+02  0.92113626278E+02  0.86043050676E+02 0.  0.
         11    1    3    3    0    0 -0.34591566357E+02  0.29734975686E+02 -0.35848665198E+01  0.45755835806E+02  0.51100000000E-03 0. -1.
         22    1    1    0    0    0  0.23592539933E+02  0.75860485115E+01 -0.21618452860E+02  0.32886373722E+02  0.00000000000E+00 0.  1.
</event>
<event>
 5    1  0.8962782E-005  0.9118800E+02  0.7818608E-02  0.1130116E+00
         25   -1    0    0    0    0  0.00000000000E+00  0.00000000000E+00  0.99999998245E-14  0.12500000000E+03  0.12500000000E+03 0.  0.
        -11    1    3    3    0    0 -0.22874738340E+02  0.47577593276E+00  0.30096827256E+01  0.23076789362E+02  0.51100000000E-03 0.  1.
         23    2    1    0    0    0  0.23846363037E+02 -0.23392580603E+02  0.28207570157E+02  0.81278965342E+02  0.68518182518E+02 0.  0.
         11    1    3    3    0    0  0.46721101377E+02 -0.23868356536E+02  0.25197887431E+02  0.58202175981E+02  0.51100000000E-03 0. -1.
         22    1    1    0    0    0 -0.23846363037E+02  0.23392580603E+02 -0.28207570157E+02  0.43721034658E+02  0.00000000000E+00 0. -1.
</event>
<event>
 5    1  0.8962782E-005  0.9118800E+02  0.7818608E-02  0.1130116E+00
         25   -1    0    0    0    0  0.00000000000E+00  0.00000000000E+00  0.99999998245E-14  0.12500000000E+03  0.12500000000E+03 0.  0.
        -11    1    3    3    0    0  0.35308670055E+02  0.66576869074E+01  0.45842974511E+02  0.58246075304E+02  0.51100000000E-03 0.  1.
         23    2    1    0    0    0  0.27920115660E+02  0.31630330177E+01  0.97424996398E+01  0.95260229733E+02  0.90498936089E+02 0.  0.
         11    1    3    3    0    0 -0.73885543957E+01 -0.34946538897E+01 -0.36100474871E+02  0.37014154429E+02  0.51100000000E-03 0. -1.
         22    1    1    0    0    0 -0.27920115660E+02 -0.31630330177E+01 -0.97424996398E+01  0.29739770267E+02  0.00000000000E+00 0.  1.
</event>
<event>
 5    1  0.8962782E-005  0.9118800E+02  0.7818608E-02  0.1130116E+00
         25   -1    0    0    0    0  0.00000000000E+00  0.00000000000E+00  0.99999998245E-14  0.12500000000E+03  0.12500000000E+03 0.  0.
        -11    1    3    3    0    0 -0.58081931663E+01 -0.61664873919E+02 -0.74468551323E+01  0.62383871592E+02  0.51100000000E-03 0.  1.
         23    2    1    0    0    0 -0.47553078275E+01 -0.28806244471E+02 -0.52764543694E+01  0.95330931195E+02  0.90596538558E+02 0.  0.
         11    1    3    3    0    0  0.10528853388E+01  0.32858629448E+02  0.21704007629E+01  0.32947059602E+02  0.51100000000E-03 0. -1.
         22    1    1    0    0    0  0.47553078275E+01  0.28806244471E+02  0.52764543694E+01  0.29669068805E+02  0.00000000000E+00 0.  1.
</event>
<event>
 5    1  0.8962782E-005  0.9118800E+02  0.7818608E-02  0.1130116E+00
         25   -1    0    0    0    0  0.00000000000E+00  0.00000000000E+00  0.99999998245E-14  0.12500000000E+03  0.12500000000E+03 0.  0.
        -11    1    3    3    0    0 -0.79697165170E+01  0.32825531841E+02  0.47277757082E+02  0.58105234162E+02  0.51100000000E-03 0.  1.
         23    2    1    0    0    0 -0.69452181503E+00  0.12663423916E+00  0.28467756108E+02  0.96523491531E+02  0.92227289251E+02 0.  0.
         11    1    3    3    0    0  0.72751947020E+01 -0.32698897602E+02 -0.18810000974E+02  0.38418257369E+02  0.51100000000E-03 0. -1.
         22    1    1    0    0    0  0.69452181503E+00 -0.12663423916E+00 -0.28467756108E+02  0.28476508469E+02  0.00000000000E+00 0.  1.
</event>
<event>
 5    1  0.8962782E-005  0.9118800E+02  0.7818608E-02  0.1130116E+00
         25   -1    0    0    0    0  0.00000000000E+00  0.00000000000E+00  0.99999998245E-14  0.12500000000E+03  0.12500000000E+03 0.  0.
        -11    1    3    3    0    0  0.28687942468E+02 -0.73418948808E+01 -0.14956279560E+02  0.33175167852E+02  0.51100000000E-03 0. -1.
         23    2    1    0    0    0 -0.29744374097E+02  0.48541899340E+01  0.58410304303E+00  0.94856474548E+02  0.89939527667E+02 0.  0.
         11    1    3    3    0    0 -0.58432316565E+02  0.12196084815E+02  0.15540382603E+02  0.61681306695E+02  0.51100000000E-03 0.  1.
         22    1    1    0    0    0  0.29744374097E+02 -0.48541899340E+01 -0.58410304303E+00  0.30143525452E+02  0.00000000000E+00 0.  1.
</event>
<event>
 5    1  0.8962782E-005  0.9118800E+02  0.7818608E-02  0.1130116E+00
         25   -1    0    0    0    0  0.00000000000E+00  0.00000000000E+00  0.99999998245E-14  0.12500000000E+03  0.12500000000E+03 0.  0.
        -11    1    3    3    0    0  0.18742526258E+02  0.11702952163E+02 -0.26861071318E+02  0.34781583237E+02  0.51100000000E-03 0.  1.
         23    2    1    0    0    0 -0.16789178262E+02 -0.21489630767E+02  0.10163848561E+02  0.95897000931E+02  0.91374231777E+02 0.  0.
         11    1    3    3    0    0 -0.35531704520E+02 -0.33192582930E+02  0.37024919878E+02  0.61115417694E+02  0.51100000000E-03 0. -1.
         22    1    1    0    0    0  0.16789178262E+02  0.21489630767E+02 -0.10163848561E+02  0.29102999069E+02  0.00000000000E+00 0. -1.
</event>
<event>
 5    1  0.8962782E-005  0.9118800E+02  0.7818608E-02  0.1130116E+00
         25   -1    0    0    0    0  0.00000000000E+00  0.00000000000E+00  0.99999998245E-14  0.12500000000E+03  0.12500000000E+03 0.  0.
        -11    1    3    3    0    0  0.14392005924E+02 -0.49843836475E+02  0.19053028440E+02  0.55268035627E+02  0.51100000000E-03 0.  1.
         23    2    1    0    0    0  0.24335475796E+02 -0.12221355276E+02  0.13594728109E+02  0.94563286325E+02  0.89531120741E+02 0.  0.
         11    1    3    3    0    0  0.99434698723E+01  0.37622481199E+02 -0.54583003309E+01  0.39295250698E+02  0.51100000000E-03 0. -1.
         22    1    1    0    0    0 -0.24335475796E+02  0.12221355276E+02 -0.13594728109E+02  0.30436713675E+02  0.00000000000E+00 0.  1.
</event>
<event>
 5    1  0.8962782E-005  0.9118800E+02  0.7818608E-02  0.1130116E+00
         25   -1    0    0    0    0  0.00000000000E+00  0.00000000000E+00  0.99999998245E-14  0.12500000000E+03  0.12500000000E+03 0.  0.
        -11    1    3    3    0    0 -0.14230781571E+02  0.22544014457E+02  0.20433158965E+02  0.33589607284E+02  0.51100000000E-03 0.  1.
         23    2    1    0    0    0  0.11059925936E+02 -0.21352128977E+02 -0.16110910297E+02  0.96055280202E+02  0.91590501967E+02 0.  0.
         11    1    3    3    0    0  0.25290707506E+02 -0.43896143434E+02 -0.36544069262E+02  0.62465672918E+02  0.51100000000E-03 0. -1.
         22    1    1    0    0    0 -0.11059925936E+02  0.21352128977E+02  0.16110910297E+02  0.28944719798E+02  0.00000000000E+00 0. -1.
</event>
<event>
 5    1  0.8962782E-005  0.9118800E+02  0.7818608E-02  0.1130116E+00
         25   -1    0    0    0    0  0.00000000000E+00  0.00000000000E+00  0.99999998245E-14  0.12500000000E+03  0.12500000000E+03 0.  0.
        -11    1    3    3    0    0  0.66706080037E+01  0.41252899788E+02  0.12398433832E+02  0.43589217862E+02  0.51100000000E-03 0. -1.
         23    2    1    0    0    0  0.85829600627E+01 -0.13861023672E+02  0.19933274185E+02  0.99248677696E+02  0.95849723129E+02 0.  0.
         11    1    3    3    0    0  0.19123520590E+01 -0.55113923460E+02  0.75348403529E+01  0.55659459834E+02  0.51100000000E-03 0.  1.
         22    1    1    0    0    0 -0.85829600627E+01  0.13861023672E+02 -0.19933274185E+02  0.25751322304E+02  0.00000000000E+00 0.  1.
</event>
<event>
 5    1  0.8962782E-005  0.9118800E+02  0.7818608E-02  0.1130116E+00
         25   -1    0    0    0    0  0.00000000000E+00  0.00000000000E+00  0.99999998245E-14  0.12500000000E+03  0.12500000000E+03 0.  0.
        -11    1    3    3    0    0 -0.22017516434E+01  0.41477931830E+01 -0.38733061005E+02  0.39016687631E+02  0.51100000000E-03 0. -1.
         23    2    1    0    0    0  0.78594607307E+00 -0.13054734030E+02  0.20452259550E+02  0.10072370060E+03  0.97754412433E+02 0.  0.
         11    1    3    3    0    0  0.29876977165E+01 -0.17202527213E+02  0.59185320555E+02  0.61707012970E+02  0.51100000000E-03 0.  1.
         22    1    1    0    0    0 -0.78594607307E+00  0.13054734030E+02 -0.20452259550E+02  0.24276299399E+02  0.00000000000E+00 0.  1.
</event>
<event>
 5    1  0.8962782E-005  0.9118800E+02  0.7818608E-02  0.1130116E+00
         25   -1    0    0    0    0  0.00000000000E+00  0.00000000000E+00  0.99999998245E-14  0.12500000000E+03  0.12500000000E+03 0.  0.
        -11    1    3    3    0    0  0.43547687926E+01  0.41169484355E+02  0.74548498991E+01  0.42065012072E+02  0.51100000000E-03 0.  1.
         23    2    1    0    0    0  0.51435301300E+01 -0.67110107628E+01 -0.24130829007E+02  0.99430673137E+02  0.96086774762E+02 0.  0.
         11    1    3    3    0    0  0.78876133739E+00 -0.47880495118E+02 -0.31585678907E+02  0.57365661065E+02  0.51100000000E-03 0. -1.
         22    1    1    0    0    0 -0.51435301300E+01  0.67110107628E+01  0.24130829007E+02  0.25569326863E+02  0.00000000000E+00 0. -1.
</event>
<event>
 5    1  0.8962782E-005  0.9118800E+02  0.7818608E-02  0.1130116E+00
         25   -1    0    0    0    0  0.00000000000E+00  0.00000000000E+00  0.99999998245E-14  0.12500000000E+03  0.12500000000E+03 0.  0.
        -11    1    3    3    0    0 -0.29152810703E+02 -0.30423419168E+02  0.14211705078E+02  0.44468453619E+02  0.51100000000E-03 0.  1.
         23    2    1    0    0    0  0.11024974409E+02 -0.23874340774E+02 -0.15141193749E+02  0.94655478974E+02  0.89659744276E+02 0.  0.
         11    1    3    3    0    0  0.40177785111E+02  0.65490783938E+01 -0.29352898827E+02  0.50187025356E+02  0.51100000000E-03 0. -1.
         22    1    1    0    0    0 -0.11024974409E+02  0.23874340774E+02  0.15141193749E+02  0.30344521026E+02  0.00000000000E+00 0.  1.
</event>
<event>
 5    1  0.8962782E-005  0.9118800E+02  0.7818608E-02  0.1130116E+00
         25   -1    0    0    0    0  0.00000000000E+00  0.00000000000E+00  0.99999998245E-14  0.12500000000E+03  0.12500000000E+03 0.  0.
        -11    1    3    3    0    0 -0.39065524783E+02 -0.39112649717E+02 -0.10773334565E+01  0.55290824212E+02  0.51100000000E-03 0.  1.
         23    2    1    0    0    0 -0.26133193004E+02 -0.39158445986E+01  0.13258665931E+02  0.95435327876E+02  0.90740464893E+02 0.  0.
         11    1    3    3    0    0  0.12932331778E+02  0.35196805118E+02  0.14335999387E+02  0.40144503664E+02  0.51100000000E-03 0. -1.
         22    1    1    0    0    0  0.26133193004E+02  0.39158445986E+01 -0.13258665931E+02  0.29564672124E+02  0.00000000000E+00 0.  1.
</event>
<event>
 5    1  0.8962782E-005  0.9118800E+02  0.7818608E-02  0.1130116E+00
         25   -1    0    0    0    0  0.00000000000E+00  0.00000000000E+00  0.99999998245E-14  0.12500000000E+03  0.12500000000E+03 0.  0.
        -11    1    3    3    0    0 -0.17395101310E+02  0.24370417981E+02 -0.47599724638E+02  0.56233803073E+02  0.51100000000E-03 0.  1.
         23    2    1    0    0    0  0.80424975197E+01  0.15092461282E+01 -0.28377141326E+02  0.95466599585E+02  0.90783533178E+02 0.  0.
         11    1    3    3    0    0  0.25437598830E+02 -0.22861171853E+02  0.19222583313E+02  0.39232796512E+02  0.51100000000E-03 0. -1.
         22    1    1    0    0    0 -0.80424975197E+01 -0.15092461282E+01  0.28377141326E+02  0.29533400415E+02  0.00000000000E+00 0.  1.
</event>
<event>
 5    1  0.8962782E-005  0.9118800E+02  0.7818608E-02  0.1130116E+00
         25   -1    0    0    0    0  0.00000000000E+00  0.00000000000E+00  0.99999998245E-14  0.12500000000E+03  0.12500000000E+03 0.  0.
        -11    1    3    3    0    0  0.53701853931E+02  0.12085070416E+02 -0.25441162947E+02  0.60639845110E+02  0.51100000000E-03 0.  1.
         23    2    1    0    0    0  0.25208547063E+02  0.57855370916E+01 -0.23775251874E+02  0.89868733497E+02  0.82717491344E+02 0.  0.
         11    1    3    3    0    0 -0.28493306868E+02 -0.62995333242E+01  0.16659110730E+01  0.29228888387E+02  0.51100000000E-03 0. -1.
         22    1    1    0    0    0 -0.25208547063E+02 -0.57855370916E+01  0.23775251874E+02  0.35131266503E+02  0.00000000000E+00 0.  1.
</event>
<event>
 5    1  0.8962782E-005  0.9118800E+02  0.7818608E-02  0.1130116E+00
         25   -1    0    0    0    0  0.00000000000E+00  0.00000000000E+00  0.99999998245E-14  0.12500000000E+03  0.12500000000E+03 0.  0.
        -11    1    3    3    0    0  0.19875787694E+02 -0.13967396479E+02 -0.33352669957E+02  0.41261794609E+02  0.51100000000E-03 0.  1.
         23    2    1    0    0    0 -0.86651939706E+01 -0.27129931410E+02  0.10005558657E+02  0.94813414090E+02  0.89879661340E+02 0.  0.
         11    1    3    3    0    0 -0.28540981665E+02 -0.13162534931E+02  0.43358228614E+02  0.53551619481E+02  0.51100000000E-03 0. -1.
         22    1    1    0    0    0  0.86651939706E+01  0.27129931410E+02 -0.10005558657E+02  0.30186585910E+02  0.00000000000E+00 0.  1.
</event>
<event>
 5    1  0.8962782E-005  0.9118800E+02  0.7818608E-02  0.1130116E+00
         25   -1    0    0    0    0  0.00000000000E+00  0.00000000000E+00  0.99999998245E-14  0.12500000000E+03  0.12500000000E+03 0.  0.
        -11    1    3    3    0    0  0.18981598894E+02 -0.24832218428E+02  0.24123369842E+02  0.39482618218E+02  0.51100000000E-03 0.  1.
         23    2    1    0    0    0 -0.20674488991E+02  0.13130620963E+02  0.17756894484E+02  0.94748471053E+02  0.89789296485E+02 0.  0.
         11    1    3    3    0    0 -0.39656087884E+02  0.37962839390E+02 -0.63664753572E+01  0.55265852835E+02  0.51100000000E-03 0. -1.
         22    1    1    0    0    0  0.20674488991E+02 -0.13130620963E+02 -0.17756894484E+02  0.30251528947E+02  0.00000000000E+00 0.  1.
</event>
<event>
 5    1  0.8962782E-005  0.9118800E+02  0.7818608E-02  0.1130116E+00
         25   -1    0    0    0    0  0.00000000000E+00  0.00000000000E+00  0.99999998245E-14  0.12500000000E+03  0.12500000000E+03 0.  0.
        -11    1    3    3    0    0 -0.12504924448E+02 -0.28875735722E+02  0.35848248840E+02  0.47699876248E+02  0.51100000000E-03 0. -1.
         23    2    1    0    0    0 -0.11428168244E+02 -0.33499982312E+02 -0.53775516700E+01  0.89198185713E+02  0.81697897330E+02 0.  0.
         11    1    3    3    0    0  0.10767562034E+01 -0.46242465894E+01 -0.41225800510E+02  0.41498309465E+02  0.51100000000E-03 0.  1.
         22    1    1    0    0    0  0.11428168244E+02  0.33499982312E+02  0.53775516700E+01  0.35801814287E+02  0.00000000000E+00 0. -1.
</event>
<event>
 5    1  0.8962782E-005  0.9118800E+02  0.7818608E-02  0.1130116E+00
         25   -1    0    0    0    0  0.00000000000E+00  0.00000000000E+00  0.99999998245E-14  0.12500000000E+03  0.12500000000E+03 0.  0.
        -11    1    3    3    0    0  0.43459523144E+02 -0.12429127837E+02  0.53085254309E+01  0.45512567640E+02  0.51100000000E-03 0. -1.
         23    2    1    0    0    0 -0.36338656336E+01 -0.28951994071E+02  0.48371182289E+01  0.95422632759E+02  0.90722974983E+02 0.  0.
         11    1    3    3    0    0 -0.47093388778E+02 -0.16522866234E+02 -0.47140720208E+00  0.49910065119E+02  0.51100000000E-03 0.  1.
         22    1    1    0    0    0  0.36338656336E+01  0.28951994071E+02 -0.48371182289E+01  0.29577367241E+02  0.00000000000E+00 0.  1.
</event>
<event>
 5    1  0.8962782E-005  0.9118800E+02  0.7818608E-02  0.1130116E+00
         25   -1    0    0    0    0  0.00000000000E+00  0.00000000000E+00  0.99999998245E-14  0.12500000000E+03  0.12500000000E+03 0.  0.
        -11    1    3    3    0    0  0.13713805763E+02  0.81312550780E+01 -0.32290380163E+02  0.36011865114E+02  0.51100000000E-03 0.  1.
         23    2    1    0    0    0  0.13106533575E+02  0.13060545298E+02  0.25211230831E+02  0.93727564440E+02  0.88356613279E+02 0.  0.
         11    1    3    3    0    0 -0.60727218862E+00  0.49292902201E+01  0.57501610994E+02  0.57715699326E+02  0.51100000000E-03 0. -1.
         22    1    1    0    0    0 -0.13106533575E+02 -0.13060545298E+02 -0.25211230831E+02  0.31272435560E+02  0.00000000000E+00 0. -1.
</event>
<event>
 5    1  0.8962782E-005  0.9118800E+02  0.7818608E-02  0.1130116E+00
         25   -1    0    0    0    0  0.00000000000E+00  0.00000000000E+00  0.99999998245E-14  0.12500000000E+03  0.12500000000E+03 0.  0.
        -11    1    3    3    0    0 -0.13171549958E+02  0.27464583084E+02  0.25996256196E+02  0.40044954598E+02  0.51100000000E-03 0. -1.
         23    2    1    0    0    0  0.70911026118E+01  0.13719431811E+02 -0.24428062387E+02  0.96099536726E+02  0.91650882055E+02 0.  0.
         11    1    3    3    0    0  0.20262652570E+02 -0.13745151273E+02 -0.50424318583E+02  0.56054582128E+02  0.51100000000E-03 0.  1.
         22    1    1    0    0    0 -0.70911026118E+01 -0.13719431811E+02  0.24428062387E+02  0.28900463274E+02  0.00000000000E+00 0.  1.
</event>
<event>
 5    1  0.8962782E-005  0.9118800E+02  0.7818608E-02  0.1130116E+00
         25   -1    0    0    0    0  0.00000000000E+00  0.00000000000E+00  0.99999998245E-14  0.12500000000E+03  0.12500000000E+03 0.  0.
        -11    1    3    3    0    0  0.36043297076E+02  0.11191668030E+02 -0.14628025383E+02  0.40476558948E+02  0.51100000000E-03 0.  1.
         23    2    1    0    0    0 -0.15648830190E+02  0.21889076221E+02  0.64723820205E+01  0.97324934089E+02  0.93307199735E+02 0.  0.
         11    1    3    3    0    0 -0.51692127266E+02  0.10697408192E+02  0.21100407404E+02  0.56848375141E+02  0.51100000000E-03 0. -1.
         22    1    1    0    0    0  0.15648830190E+02 -0.21889076221E+02 -0.64723820205E+01  0.27675065911E+02  0.00000000000E+00 0. -1.
</event>
<event>
 5    1  0.8962782E-005  0.9118800E+02  0.7818608E-02  0.1130116E+00
         25   -1    0    0    0    0  0.00000000000E+00  0.00000000000E+00  0.99999998245E-14  0.12500000000E+03  0.12500000000E+03 0.  0.
        -11    1    3    3    0    0  0.56334767736E+01  0.49758087780E+02 -0.29371784917E+02  0.58054328948E+02  0.51100000000E-03 0.  1.
         23    2    1    0    0    0 -0.82559716310E+01  0.15900483866E+02 -0.24012135825E+02  0.95040542034E+02  0.90194986049E+02 0.  0.
         11    1    3    3    0    0 -0.13889448405E+02 -0.33857603914E+02  0.53596490919E+01  0.36986213086E+02  0.51100000000E-03 0. -1.
         22    1    1    0    0    0  0.82559716310E+01 -0.15900483866E+02  0.24012135825E+02  0.29959457966E+02  0.00000000000E+00 0.  1.
</event>
<event>
 5    1  0.8962782E-005  0.9118800E+02  0.7818608E-02  0.1130116E+00
         25   -1    0    0    0    0  0.00000000000E+00  0.00000000000E+00  0.99999998245E-14  0.12500000000E+03  0.12500000000E+03 0.  0.
        -11    1    3    3    0    0 -0.15574308800E+02 -0.37928403468E+02  0.13315867452E+02  0.43109572145E+02  0.51100000000E-03 0.  1.
         23    2    1    0    0    0  0.25935117973E+02 -0.13609578803E+02 -0.62615302942E+01  0.95049077792E+02  0.90206814865E+02 0.  0.
         11    1    3    3    0    0  0.41509426773E+02  0.24318824665E+02 -0.19577397746E+02  0.51939505647E+02  0.51100000000E-03 0. -1.
         22    1    1    0    0    0 -0.25935117973E+02  0.13609578803E+02  0.62615302942E+01  0.29950922208E+02  0.00000000000E+00 0.  1.
</event>
<event>
 5    1  0.8962782E-005  0.9118800E+02  0.7818608E-02  0.1130116E+00
         25   -1    0    0    0    0  0.00000000000E+00  0.00000000000E+00  0.99999998245E-14  0.12500000000E+03  0.12500000000E+03 0.  0.
        -11    1    3    3    0    0  0.36617973204E+02  0.27040033624E+02 -0.83891965200E+01  0.46286261444E+02  0.51100000000E-03 0. -1.
         23    2    1    0    0    0  0.21149196535E+02 -0.16958714678E+02  0.95530470157E+01  0.96257223084E+02  0.91865694200E+02 0.  0.
         11    1    3    3    0    0 -0.15468776669E+02 -0.43998748302E+02  0.17942243536E+02  0.49970961639E+02  0.51100000000E-03 0.  1.
         22    1    1    0    0    0 -0.21149196535E+02  0.16958714678E+02 -0.95530470157E+01  0.28742776916E+02  0.00000000000E+00 0.  1.
</event>
<event>
 5    1  0.8962782E-005  0.9118800E+02  0.7818608E-02  0.1130116E+00
         25   -1    0    0    0    0  0.00000000000E+00  0.00000000000E+00  0.99999998245E-14  0.12500000000E+03  0.12500000000E+03 0.  0.
        -11    1    3    3    0    0 -0.30843117062E+02 -0.11039900056E+02  0.37279084107E+02  0.49627687589E+02  0.51100000000E-03 0. -1.
         23    2    1    0    0    0  0.80856320909E+01 -0.22848577844E+02  0.18888946161E+02  0.94271719168E+02  0.89123115924E+02 0.  0.
         11    1    3    3    0    0  0.38928749153E+02 -0.11808677788E+02 -0.18390137946E+02  0.44644031579E+02  0.51100000000E-03 0.  1.
         22    1    1    0    0    0 -0.80856320909E+01  0.22848577844E+02 -0.18888946161E+02  0.30728280832E+02  0.00000000000E+00 0. -1.
</event>
<event>
 5    1  0.8962782E-005  0.9118800E+02  0.7818608E-02  0.1130116E+00
         25   -1    0    0    0    0  0.00000000000E+00  0.00000000000E+00  0.99999998245E-14  0.12500000000E+03  0.12500000000E+03 0.  0.
        -11    1    3    3    0    0  0.20419684216E+02  0.18707013592E+02 -0.36039941203E+02  0.45450998044E+02  0.51100000000E-03 0. -1.
         23    2    1    0    0    0 -0.20843897892E+02 -0.68926709905E+01 -0.15223497270E+02  0.98284239449E+02  0.94583613074E+02 0.  0.
         11    1    3    3    0    0 -0.41263582107E+02 -0.25599684582E+02  0.20816443933E+02  0.52833241405E+02  0.51100000000E-03 0.  1.
         22    1    1    0    0    0  0.20843897892E+02  0.68926709905E+01  0.15223497270E+02  0.26715760551E+02  0.00000000000E+00 0. -1.
</event>
<event>
 5    1  0.8962782E-005  0.9118800E+02  0.7818608E-02  0.1130116E+00
         25   -1    0    0    0    0  0.00000000000E+00  0.00000000000E+00  0.99999998245E-14  0.12500000000E+03  0.12500000000E+03 0.  0.
        -11    1    3    3    0    0 -0.16613070467E+02 -0.10718718575E+02  0.56551301795E+02  0.59907718811E+02  0.51100000000E-03 0.  1.
         23    2    1    0    0    0  0.34045584134E+01 -0.11485395630E+02  0.24945114492E+02  0.97327557610E+02  0.93310714297E+02 0.  0.
         11    1    3    3    0    0  0.20017628881E+02 -0.76667705466E+00 -0.31606187302E+02  0.37419838799E+02  0.51100000000E-03 0. -1.
         22    1    1    0    0    0 -0.34045584134E+01  0.11485395630E+02 -0.24945114492E+02  0.27672442390E+02  0.00000000000E+00 0.  1.
</event>
<event>
 5    1  0.8962782E-005  0.9118800E+02  0.7818608E-02  0.1130116E+00
         25   -1    0    0    0    0  0.00000000000E+00  0.00000000000E+00  0.99999998245E-14  0.12500000000E+03  0.12500000000E+03 0.  0.
        -11    1    3    3    0    0  0.50528619147E+02 -0.23112192271E+02 -0.26238268430E+02  0.61447225445E+02  0.51100000000E-03 0. -1.
         23    2    1    0    0    0  0.29259577729E+02 -0.10355211993E+02 -0.61612779846E+01  0.93356443773E+02  0.87830011631E+02 0.  0.
         11    1    3    3    0    0 -0.21269041418E+02  0.12756980278E+02  0.20076990445E+02  0.31909218327E+02  0.51100000000E-03 0.  1.
         22    1    1    0    0    0 -0.29259577729E+02  0.10355211993E+02  0.61612779846E+01  0.31643556227E+02  0.00000000000E+00 0. -1.
</event>
<event>
 5    1  0.8962782E-005  0.9118800E+02  0.7818608E-02  0.1130116E+00
         25   -1    0    0    0    0  0.00000000000E+00  0.00000000000E+00  0.99999998245E-14  0.12500000000E+03  0.12500000000E+03 0.  0.
        -11    1    3    3    0    0 -0.32358085613E+01  0.27362293698E+02 -0.45144818866E+02  0.52888753475E+02  0.51100000000E-03 0.  1.
         23    2    1    0    0    0  0.17001595305E+02  0.78953239706E+00 -0.31944876254E+02  0.88803968129E+02  0.81092490603E+02 0.  0.
         11    1    3    3    0    0  0.20237403866E+02 -0.26572761301E+02  0.13199942612E+02  0.35915214654E+02  0.51100000000E-03 0. -1.
         22    1    1    0    0    0 -0.17001595305E+02 -0.78953239706E+00  0.31944876254E+02  0.36196031871E+02  0.00000000000E+00 0.  1.
</event>
<event>
 5    1  0.8962782E-005  0.9118800E+02  0.7818608E-02  0.1130116E+00
         25   -1    0    0    0    0  0.00000000000E+00  0.00000000000E+00  0.99999998245E-14  0.12500000000E+03  0.12500000000E+03 0.  0.
        -11    1    3    3    0    0 -0.30200825371E+02  0.63783436219E+01 -0.38986339464E+02  0.49726328896E+02  0.51100000000E-03 0.  1.
         23    2    1    0    0    0 -0.28283254004E+02 -0.15882157286E+01  0.64927022829E+01  0.95937652036E+02  0.91429825598E+02 0.  0.
         11    1    3    3    0    0  0.19175713671E+01 -0.79665593505E+01  0.45479041746E+02  0.46211323139E+02  0.51100000000E-03 0. -1.
         22    1    1    0    0    0  0.28283254004E+02  0.15882157286E+01 -0.64927022829E+01  0.29062347964E+02  0.00000000000E+00 0.  1.
</event>
<event>
 5    1  0.8962782E-005  0.9118800E+02  0.7818608E-02  0.1130116E+00
         25   -1    0    0    0    0  0.00000000000E+00  0.00000000000E+00  0.99999998245E-14  0.12500000000E+03  0.12500000000E+03 0.  0.
        -11    1    3    3    0    0  0.55076029517E+02  0.18328604473E+02 -0.15194475564E+01  0.58065613666E+02  0.51100000000E-03 0. -1.
         23    2    1    0    0    0  0.29044826120E+02 -0.72294007517E+01  0.34002258045E+01  0.94876459453E+02  0.89967298855E+02 0.  0.
         11    1    3    3    0    0 -0.26031203397E+02 -0.25558005224E+02  0.49196733609E+01  0.36810845787E+02  0.51100000000E-03 0.  1.
         22    1    1    0    0    0 -0.29044826120E+02  0.72294007517E+01 -0.34002258045E+01  0.30123540547E+02  0.00000000000E+00 0. -1.
</event>
<event>
 5    1  0.8962782E-005  0.9118800E+02  0.7818608E-02  0.1130116E+00
         25   -1    0    0    0    0  0.00000000000E+00  0.00000000000E+00  0.99999998245E-14  0.12500000000E+03  0.12500000000E+03 0.  0.
        -11    1    3    3    0    0 -0.34211090916E+02 -0.78535768935E+01 -0.50320437522E+02  0.61353270852E+02  0.51100000000E-03 0. -1.
         23    2    1    0    0    0 -0.14521274734E+02  0.45348296376E+01 -0.24978589854E+02  0.95753426682E+02  0.91177610577E+02 0.  0.
         11    1    3    3    0    0  0.19689816181E+02  0.12388406531E+02  0.25341847668E+02  0.34400155830E+02  0.51100000000E-03 0.  1.
         22    1    1    0    0    0  0.14521274734E+02 -0.45348296376E+01  0.24978589854E+02  0.29246573318E+02  0.00000000000E+00 0. -1.
</event>
<event>
 5    1  0.8962782E-005  0.9118800E+02  0.7818608E-02  0.1130116E+00
         25   -1    0    0    0    0  0.00000000000E+00  0.00000000000E+00  0.99999998245E-14  0.12500000000E+03  0.12500000000E+03 0.  0.
        -11    1    3    3    0    0 -0.14183980084E+02  0.39917641382E+02 -0.78085492435E+01  0.43076406838E+02  0.51100000000E-03 0. -1.
         23    2    1    0    0    0  0.10368573421E+02 -0.59070153452E+01 -0.24558414623E+02  0.97695863429E+02  0.93802803035E+02 0.  0.
         11    1    3    3    0    0  0.24552553505E+02 -0.45824656727E+02 -0.16749865380E+02  0.54619456591E+02  0.51100000000E-03 0.  1.
         22    1    1    0    0    0 -0.10368573421E+02  0.59070153452E+01  0.24558414623E+02  0.27304136571E+02  0.00000000000E+00 0.  1.
</event>
<event>
 5    1  0.8962782E-005  0.9118800E+02  0.7818608E-02  0.1130116E+00
         25   -1    0    0    0    0  0.00000000000E+00  0.00000000000E+00  0.99999998245E-14  0.12500000000E+03  0.12500000000E+03 0.  0.
        -11    1    3    3    0    0  0.22564885736E+02 -0.18940638264E+02 -0.31347365407E+02  0.43018358457E+02  0.51100000000E-03 0.  1.
         23    2    1    0    0    0  0.23798922747E+02 -0.14925588116E+01  0.17837496432E+02  0.95220934623E+02  0.90444644152E+02 0.  0.
         11    1    3    3    0    0  0.12340370107E+01  0.17448079453E+02  0.49184861839E+02  0.52202576166E+02  0.51100000000E-03 0. -1.
         22    1    1    0    0    0 -0.23798922747E+02  0.14925588116E+01 -0.17837496432E+02  0.29779065377E+02  0.00000000000E+00 0. -1.
</event>
<event>
 5    1  0.8962782E-005  0.9118800E+02  0.7818608E-02  0.1130116E+00
         25   -1    0    0    0    0  0.00000000000E+00  0.00000000000E+00  0.99999998245E-14  0.12500000000E+03  0.12500000000E+03 0.  0.
        -11    1    3    3    0    0  0.12998300915E+02 -0.37406307214E+02 -0.41042324836E+02  0.57032096878E+02  0.51100000000E-03 0.  1.
         23    2    1    0    0    0 -0.45794037390E+01 -0.61156977972E+01 -0.29187481299E+02  0.94829123931E+02  0.89901507122E+02 0.  0.
         11    1    3    3    0    0 -0.17577704654E+02  0.31290609417E+02  0.11854843537E+02  0.37797027054E+02  0.51100000000E-03 0. -1.
         22    1    1    0    0    0  0.45794037390E+01  0.61156977972E+01  0.29187481299E+02  0.30170876069E+02  0.00000000000E+00 0.  1.
</event>
<event>
 5    1  0.8962782E-005  0.9118800E+02  0.7818608E-02  0.1130116E+00
         25   -1    0    0    0    0  0.00000000000E+00  0.00000000000E+00  0.99999998245E-14  0.12500000000E+03  0.12500000000E+03 0.  0.
        -11    1    3    3    0    0 -0.16190257720E+02  0.11861106601E+02  0.28575265269E+02  0.34919279493E+02  0.51100000000E-03 0.  1.
         23    2    1    0    0    0  0.18479175295E+02 -0.19037465806E+02 -0.11331428152E+02  0.96150280974E+02  0.91720064564E+02 0.  0.
         11    1    3    3    0    0  0.34669433015E+02 -0.30898572406E+02 -0.39906693421E+02  0.61231001482E+02  0.51100000000E-03 0. -1.
         22    1    1    0    0    0 -0.18479175295E+02  0.19037465806E+02  0.11331428152E+02  0.28849719026E+02  0.00000000000E+00 0. -1.
</event>
<event>
 5    1  0.8962782E-005  0.9118800E+02  0.7818608E-02  0.1130116E+00
         25   -1    0    0    0    0  0.00000000000E+00  0.00000000000E+00  0.99999998245E-14  0.12500000000E+03  0.12500000000E+03 0.  0.
        -11    1    3    3    0    0  0.21046748440E+02 -0.34654703025E+02  0.25814116647E+02  0.48065400032E+02  0.51100000000E-03 0. -1.
         23    2    1    0    0    0  0.13128476470E+02  0.13571488962E+02  0.20345693920E+02  0.97242307946E+02  0.93196442993E+02 0.  0.
         11    1    3    3    0    0 -0.79182719703E+01  0.48226191987E+02 -0.54684227274E+01  0.49176907914E+02  0.51100000000E-03 0.  1.
         22    1    1    0    0    0 -0.13128476470E+02 -0.13571488962E+02 -0.20345693920E+02  0.27757692054E+02  0.00000000000E+00 0.  1.
</event>
<event>
 5    1  0.8962782E-005  0.9118800E+02  0.7818608E-02  0.1130116E+00
         25   -1    0    0    0    0  0.00000000000E+00  0.00000000000E+00  0.99999998245E-14  0.12500000000E+03  0.12500000000E+03 0.  0.
        -11    1    3    3    0    0  0.58826515646E+02 -0.15238216466E+02 -0.49562155783E+01  0.60969879918E+02  0.51100000000E-03 0.  1.
         23    2    1    0    0    0  0.28116373400E+02 -0.27807346250E+01  0.64520092211E+01  0.96019120765E+02  0.91541139338E+02 0.  0.
         11    1    3    3    0    0 -0.30710142247E+02  0.12457481841E+02  0.11408224799E+02  0.35049240847E+02  0.51100000000E-03 0. -1.
         22    1    1    0    0    0 -0.28116373400E+02  0.27807346250E+01 -0.64520092211E+01  0.28980879235E+02  0.00000000000E+00 0.  1.
</event>
<event>
 5    1  0.8962782E-005  0.9118800E+02  0.7818608E-02  0.1130116E+00
         25   -1    0    0    0    0  0.00000000000E+00  0.00000000000E+00  0.99999998245E-14  0.12500000000E+03  0.12500000000E+03 0.  0.
        -11    1    3    3    0    0 -0.73993350585E+00  0.26694085785E+02  0.33340038174E+02  0.42716271644E+02  0.51100000000E-03 0.  1.
         23    2    1    0    0    0 -0.10901311279E+02 -0.22252997161E+02  0.15379961880E+02  0.95835334775E+02  0.91289833464E+02 0.  0.
         11    1    3    3    0    0 -0.10161377773E+02 -0.48947082946E+02 -0.17960076295E+02  0.53119063131E+02  0.51100000000E-03 0. -1.
         22    1    1    0    0    0  0.10901311279E+02  0.22252997161E+02 -0.15379961880E+02  0.29164665225E+02  0.00000000000E+00 0. -1.
</event>
<event>
 5    1  0.8962782E-005  0.9118800E+02  0.7818608E-02  0.1130116E+00
         25   -1    0    0    0    0  0.00000000000E+00  0.00000000000E+00  0.99999998245E-14  0.12500000000E+03  0.12500000000E+03 0.  0.
        -11    1    3    3    0    0  0.42047986912E+02  0.17150077212E+02 -0.18564634676E+02  0.49059188870E+02  0.51100000000E-03 0.  1.
         23    2    1    0    0    0  0.88525232207E+01 -0.18124614694E+02 -0.18695572717E+02  0.97497395316E+02  0.93537953949E+02 0.  0.
         11    1    3    3    0    0 -0.33195463691E+02 -0.35274691905E+02 -0.13093804105E+00  0.48438206446E+02  0.51100000000E-03 0. -1.
         22    1    1    0    0    0 -0.88525232207E+01  0.18124614694E+02  0.18695572717E+02  0.27502604684E+02  0.00000000000E+00 0. -1.
</event>
<event>
 5    1  0.8962782E-005  0.9118800E+02  0.7818608E-02  0.1130116E+00
         25   -1    0    0    0    0  0.00000000000E+00  0.00000000000E+00  0.99999998245E-14  0.12500000000E+03  0.12500000000E+03 0.  0.
        -11    1    3    3    0    0  0.32699180118E+02  0.14579540327E+02 -0.14330399372E+02  0.38563709922E+02  0.51100000000E-03 0. -1.
         23    2    1    0    0    0 -0.10314541631E+02  0.12952658501E+02  0.23758735372E+02  0.96040741761E+02  0.91570658183E+02 0.  0.
         11    1    3    3    0    0 -0.43013721748E+02 -0.16268818265E+01  0.38089134744E+02  0.57477031838E+02  0.51100000000E-03 0.  1.
         22    1    1    0    0    0  0.10314541631E+02 -0.12952658501E+02 -0.23758735372E+02  0.28959258239E+02  0.00000000000E+00 0.  1.
</event>
<event>
 5    1  0.8962782E-005  0.9118800E+02  0.7818608E-02  0.1130116E+00
         25   -1    0    0    0    0  0.00000000000E+00  0.00000000000E+00  0.99999998245E-14  0.12500000000E+03  0.12500000000E+03 0.  0.
        -11    1    3    3    0    0 -0.38260855011E+02 -0.57457592518E+01 -0.46695049258E+02  0.60641029023E+02  0.51100000000E-03 0.  1.
         23    2    1    0    0    0 -0.23625112535E+02 -0.74300769156E+01 -0.13883959127E+02  0.96607812584E+02  0.92341502836E+02 0.  0.
         11    1    3    3    0    0  0.14635742476E+02 -0.16843176637E+01  0.32811090131E+02  0.35966783560E+02  0.51100000000E-03 0. -1.
         22    1    1    0    0    0  0.23625112535E+02  0.74300769156E+01  0.13883959127E+02  0.28392187416E+02  0.00000000000E+00 0.  1.
</event>
<event>
 5    1  0.8962782E-005  0.9118800E+02  0.7818608E-02  0.1130116E+00
         25   -1    0    0    0    0  0.00000000000E+00  0.00000000000E+00  0.99999998245E-14  0.12500000000E+03  0.12500000000E+03 0.  0.
        -11    1    3    3    0    0  0.46474692920E+02  0.23596338992E+02 -0.24887312805E+02  0.57758658526E+02  0.51100000000E-03 0.  1.
         23    2    1    0    0    0  0.26845702006E+02  0.91619420945E+01  0.48706338417E+01  0.96218826064E+02  0.91813433200E+02 0.  0.
         11    1    3    3    0    0 -0.19628990914E+02 -0.14434396898E+02  0.29757946647E+02  0.38460167538E+02  0.51100000000E-03 0. -1.
         22    1    1    0    0    0 -0.26845702006E+02 -0.91619420945E+01 -0.48706338417E+01  0.28781173936E+02  0.00000000000E+00 0.  1.
</event>
<event>
 5    1  0.8962782E-005  0.9118800E+02  0.7818608E-02  0.1130116E+00
         25   -1    0    0    0    0  0.00000000000E+00  0.00000000000E+00  0.99999998245E-14  0.12500000000E+03  0.12500000000E+03 0.  0.
        -11    1    3    3    0    0 -0.35693786546E+02  0.57425592782E+01  0.45285552023E+02  0.57946566830E+02  0.51100000000E-03 0. -1.
         23    2    1    0    0    0 -0.13891589484E+01  0.23205399592E+01  0.28645285229E+02  0.96227321394E+02  0.91824998495E+02 0.  0.
         11    1    3    3    0    0  0.34304627597E+02 -0.34220193190E+01 -0.16640266794E+02  0.38280754565E+02  0.51100000000E-03 0.  1.
         22    1    1    0    0    0  0.13891589484E+01 -0.23205399592E+01 -0.28645285229E+02  0.28772678606E+02  0.00000000000E+00 0. -1.
</event>
<event>
 5    1  0.8962782E-005  0.9118800E+02  0.7818608E-02  0.1130116E+00
         25   -1    0    0    0    0  0.00000000000E+00  0.00000000000E+00  0.99999998245E-14  0.12500000000E+03  0.12500000000E+03 0.  0.
        -11    1    3    3    0    0 -0.33608872731E+02 -0.33384508402E+01  0.44580126842E+01  0.34067219693E+02  0.51100000000E-03 0. -1.
         23    2    1    0    0    0  0.22088189701E+02 -0.20724584812E+02 -0.78759922045E+01  0.93704188889E+02  0.88323537192E+02 0.  0.
         11    1    3    3    0    0  0.55697062432E+02 -0.17386133972E+02 -0.12334004889E+02  0.59636969196E+02  0.51100000000E-03 0.  1.
         22    1    1    0    0    0 -0.22088189701E+02  0.20724584812E+02  0.78759922045E+01  0.31295811111E+02  0.00000000000E+00 0.  1.
</event>
<event>
 5    1  0.8962782E-005  0.9118800E+02  0.7818608E-02  0.1130116E+00
         25   -1    0    0    0    0  0.00000000000E+00  0.00000000000E+00  0.99999998245E-14  0.12500000000E+03  0.12500000000E+03 0.  0.
        -11    1    3    3    0    0  0.38827525242E+02 -0.29433941978E+01  0.40627986633E+02  0.56274981866E+02  0.51100000000E-03 0. -1.
         23    2    1    0    0    0  0.17734976030E+02  0.18090341039E+02  0.15080849459E+02  0.95517431691E+02  0.90853497031E+02 0.  0.
         11    1    3    3    0    0 -0.21092549212E+02  0.21033735236E+02 -0.25547137174E+02  0.39242449826E+02  0.51100000000E-03 0.  1.
         22    1    1    0    0    0 -0.17734976030E+02 -0.18090341039E+02 -0.15080849459E+02  0.29482568309E+02  0.00000000000E+00 0. -1.
</event>
<event>
 5    1  0.8962782E-005  0.9118800E+02  0.7818608E-02  0.1130116E+00
         25   -1    0    0    0    0  0.00000000000E+00  0.00000000000E+00  0.99999998245E-14  0.12500000000E+03  0.12500000000E+03 0.  0.
        -11    1    3    3    0    0 -0.55239765600E+02 -0.11979828713E+02  0.26502120941E+01  0.56585966670E+02  0.51100000000E-03 0. -1.
         23    2    1    0    0    0 -0.19457974969E+02 -0.20470079228E+02 -0.93186033769E+01  0.95259904130E+02  0.90498486354E+02 0.  0.
         11    1    3    3    0    0  0.35781790631E+02 -0.84902505149E+01 -0.11968815471E+02  0.38673937460E+02  0.51100000000E-03 0.  1.
         22    1    1    0    0    0  0.19457974969E+02  0.20470079228E+02  0.93186033769E+01  0.29740095870E+02  0.00000000000E+00 0. -1.
</event>
<event>
 5    1  0.8962782E-005  0.9118800E+02  0.7818608E-02  0.1130116E+00
         25   -1    0    0    0    0  0.00000000000E+00  0.00000000000E+00  0.99999998245E-14  0.12500000000E+03  0.12500000000E+03 0.  0.
        -11    1    3    3    0    0 -0.44979206897E+02 -0.30391380879E+02 -0.16892882324E+02  0.56851865038E+02  0.51100000000E-03 0. -1.
         23    2    1    0    0    0 -0.78431125973E+01 -0.20627676144E+02 -0.19788163400E+02  0.95359034276E+02  0.90635305311E+02 0.  0.
         11    1    3    3    0    0  0.37136094299E+02  0.97637047344E+01 -0.28952810759E+01  0.38507169238E+02  0.51100000000E-03 0.  1.
         22    1    1    0    0    0  0.78431125973E+01  0.20627676144E+02  0.19788163400E+02  0.29640965724E+02  0.00000000000E+00 0. -1.
</event>
<event>
 5    1  0.8962782E-005  0.9118800E+02  0.7818608E-02  0.1130116E+00
         25   -1    0    0    0    0  0.00000000000E+00  0.00000000000E+00  0.99999998245E-14  0.12500000000E+03  0.12500000000E+03 0.  0.
        -11    1    3    3    0    0 -0.11446915287E+02 -0.39799019540E+02  0.35570742933E+02  0.54591863670E+02  0.51100000000E-03 0.  1.
         23    2    1    0    0    0  0.10212208417E+02 -0.26134108780E+02  0.19246096124E+01  0.96875545078E+02  0.92703216069E+02 0.  0.
         11    1    3    3    0    0  0.21659123704E+02  0.13664910760E+02 -0.33646133320E+02  0.42283681408E+02  0.51100000000E-03 0. -1.
         22    1    1    0    0    0 -0.10212208417E+02  0.26134108780E+02 -0.19246096124E+01  0.28124454922E+02  0.00000000000E+00 0.  1.
</event>
<event>
 5    1  0.8962782E-005  0.9118800E+02  0.7818608E-02  0.1130116E+00
         25   -1    0    0    0    0  0.00000000000E+00  0.00000000000E+00  0.99999998245E-14  0.12500000000E+03  0.12500000000E+03 0.  0.
        -11    1    3    3    0    0 -0.46028018036E+02 -0.40204481189E+02 -0.81856530123E+01  0.61660227599E+02  0.51100000000E-03 0. -1.
         23    2    1    0    0    0 -0.25374001796E+02 -0.12865532330E+02 -0.54532275333E+01  0.96032784396E+02  0.91559795211E+02 0.  0.
         11    1    3    3    0    0  0.20654016240E+02  0.27338948859E+02  0.27324254790E+01  0.34372556798E+02  0.51100000000E-03 0.  1.
         22    1    1    0    0    0  0.25374001796E+02  0.12865532330E+02  0.54532275333E+01  0.28967215604E+02  0.00000000000E+00 0. -1.
</event>
<event>
 5    1  0.8962782E-005  0.9118800E+02  0.7818608E-02  0.1130116E+00
         25   -1    0    0    0    0  0.00000000000E+00  0.00000000000E+00  0.99999998245E-14  0.12500000000E+03  0.12500000000E+03 0.  0.
        -11    1    3    3    0    0 -0.22988023662E+02  0.35499572723E+02 -0.17363450622E+02  0.45718249236E+02  0.51100000000E-03 0.  1.
         23    2    1    0    0    0  0.44778664937E+01 -0.55981034702E+01 -0.27844152612E+02  0.96247836855E+02  0.91852921640E+02 0.  0.
         11    1    3    3    0    0  0.27465890155E+02 -0.41097676193E+02 -0.10480701990E+02  0.50529587620E+02  0.51100000000E-03 0. -1.
         22    1    1    0    0    0 -0.44778664937E+01  0.55981034702E+01  0.27844152612E+02  0.28752163145E+02  0.00000000000E+00 0.  1.
</event>
<event>
 5    1  0.8962782E-005  0.9118800E+02  0.7818608E-02  0.1130116E+00
         25   -1    0    0    0    0  0.00000000000E+00  0.00000000000E+00  0.99999998245E-14  0.12500000000E+03  0.12500000000E+03 0.  0.
        -11    1    3    3    0    0  0.14026347993E+02  0.34823211457E+02  0.10020372242E+02  0.38856175240E+02  0.51100000000E-03 0.  1.
         23    2    1    0    0    0 -0.27260369602E+02 -0.90982520735E+00 -0.83643315964E+01  0.96470759284E+02  0.92155791034E+02 0.  0.
         11    1    3    3    0    0 -0.41286717595E+02 -0.35733036664E+02 -0.18384703839E+02  0.57614584044E+02  0.51100000000E-03 0. -1.
         22    1    1    0    0    0  0.27260369602E+02  0.90982520735E+00  0.83643315964E+01  0.28529240716E+02  0.00000000000E+00 0. -1.
</event>
<event>
 5    1  0.8962782E-005  0.9118800E+02  0.7818608E-02  0.1130116E+00
         25   -1    0    0    0    0  0.00000000000E+00  0.00000000000E+00  0.99999998245E-14  0.12500000000E+03  0.12500000000E+03 0.  0.
        -11    1    3    3    0    0 -0.63583309251E+01 -0.13741206432E+02  0.23050750893E+02  0.27578728096E+02  0.51100000000E-03 0.  1.
         23    2    1    0    0    0  0.17006418246E+02  0.86191138208E+01 -0.29849307065E+02  0.89581240608E+02  0.82281894436E+02 0.  0.
         11    1    3    3    0    0  0.23364749171E+02  0.22360320253E+02 -0.52900057958E+02  0.62002512513E+02  0.51100000000E-03 0. -1.
         22    1    1    0    0    0 -0.17006418246E+02 -0.86191138208E+01  0.29849307065E+02  0.35418759392E+02  0.00000000000E+00 0. -1.
</event>
<event>
 5    1  0.8962782E-005  0.9118800E+02  0.7818608E-02  0.1130116E+00
         25   -1    0    0    0    0  0.00000000000E+00  0.00000000000E+00  0.99999998245E-14  0.12500000000E+03  0.12500000000E+03 0.  0.
        -11    1    3    3    0    0  0.19535833326E+01 -0.24943454877E+02  0.22822396677E+02  0.33865236148E+02  0.51100000000E-03 0.  1.
         23    2    1    0    0    0  0.12338658441E+02  0.21002048060E+02 -0.16793184832E+02  0.95413861833E+02  0.90710889414E+02 0.  0.
         11    1    3    3    0    0  0.10385075108E+02  0.45945502937E+02 -0.39615581509E+02  0.61548625685E+02  0.51100000000E-03 0. -1.
         22    1    1    0    0    0 -0.12338658441E+02 -0.21002048060E+02  0.16793184832E+02  0.29586138167E+02  0.00000000000E+00 0. -1.
</event>
<event>
 5    1  0.8962782E-005  0.9118800E+02  0.7818608E-02  0.1130116E+00
         25   -1    0    0    0    0  0.00000000000E+00  0.00000000000E+00  0.99999998245E-14  0.12500000000E+03  0.12500000000E+03 0.  0.
        -11    1    3    3    0    0 -0.26452407427E+02  0.21996754657E+02 -0.43613160907E+02  0.55549031303E+02  0.51100000000E-03 0.  1.
         23    2    1    0    0    0  0.83043694800E+01  0.16232252112E+02 -0.10187599225E+02  0.10411374282E+03  0.10199723381E+03 0.  0.
         11    1    3    3    0    0  0.34756776907E+02 -0.57645025457E+01  0.33425561682E+02  0.48564711516E+02  0.51100000000E-03 0. -1.
         22    1    1    0    0    0 -0.83043694800E+01 -0.16232252112E+02  0.10187599225E+02  0.20886257181E+02  0.00000000000E+00 0.  1.
</event>
<event>
 5    1  0.8962782E-005  0.9118800E+02  0.7818608E-02  0.1130116E+00
         25   -1    0    0    0    0  0.00000000000E+00  0.00000000000E+00  0.99999998245E-14  0.12500000000E+03  0.12500000000E+03 0.  0.
        -11    1    3    3    0    0  0.85770682354E+01 -0.54285876563E+02 -0.22951541003E+02  0.59559178373E+02  0.51100000000E-03 0. -1.
         23    2    1    0    0    0 -0.96710704934E+01 -0.24655191660E+02 -0.10090530261E+02  0.96658742420E+02  0.92410419353E+02 0.  0.
         11    1    3    3    0    0 -0.18248138729E+02  0.29630684904E+02  0.12861010742E+02  0.37099564047E+02  0.51100000000E-03 0.  1.
         22    1    1    0    0    0  0.96710704934E+01  0.24655191660E+02  0.10090530261E+02  0.28341257580E+02  0.00000000000E+00 0. -1.
</event>
<event>
 5    1  0.8962782E-005  0.9118800E+02  0.7818608E-02  0.1130116E+00
         25   -1    0    0    0    0  0.00000000000E+00  0.00000000000E+00  0.99999998245E-14  0.12500000000E+03  0.12500000000E+03 0.  0.
        -11    1    3    3    0    0 -0.38752447528E+02 -0.35744012641E+02  0.16332670494E+02  0.55191872181E+02  0.51100000000E-03 0. -1.
         23    2    1    0    0    0 -0.25145511240E+02  0.19535394977E+01  0.15731935497E+02  0.95274474831E+02  0.90518609732E+02 0.  0.
         11    1    3    3    0    0  0.13606936288E+02  0.37697552139E+02 -0.60073499693E+00  0.40082602650E+02  0.51100000000E-03 0.  1.
         22    1    1    0    0    0  0.25145511240E+02 -0.19535394977E+01 -0.15731935497E+02  0.29725525169E+02  0.00000000000E+00 0. -1.
</event>
<event>
 5    1  0.8962782E-005  0.9118800E+02  0.7818608E-02  0.1130116E+00
         25   -1    0    0    0    0  0.00000000000E+00  0.00000000000E+00  0.99999998245E-14  0.12500000000E+03  0.12500000000E+03 0.  0.
        -11    1    3    3    0    0  0.70256447435E+01 -0.37672315173E+02 -0.22725868767E+02  0.44553654464E+02  0.51100000000E-03 0.  1.
         23    2    1    0    0    0  0.20435711561E+02  0.52213604018E+01  0.11438063931E+02  0.10100603789E+03  0.98114777029E+02 0.  0.
         11    1    3    3    0    0  0.13410066818E+02  0.42893675575E+02  0.34163932698E+02  0.56452383422E+02  0.51100000000E-03 0. -1.
         22    1    1    0    0    0 -0.20435711561E+02 -0.52213604018E+01 -0.11438063931E+02  0.23993962114E+02  0.00000000000E+00 0. -1.
</event>
<event>
 5    1  0.8962782E-005  0.9118800E+02  0.7818608E-02  0.1130116E+00
         25   -1    0    0    0    0  0.00000000000E+00  0.00000000000E+00  0.99999998245E-14  0.12500000000E+03  0.12500000000E+03 0.  0.
        -11    1    3    3    0    0  0.21909550504E+02  0.77088160824E+00 -0.32687422569E+02  0.39358483917E+02  0.51100000000E-03 0. -1.
         23    2    1    0    0    0 -0.75188020137E+01 -0.32237709647E+02 -0.50301176038E+01  0.91517103021E+02  0.85172036228E+02 0.  0.
         11    1    3    3    0    0 -0.29428352518E+02 -0.33008591255E+02  0.27657304965E+02  0.52158619104E+02  0.51100000000E-03 0.  1.
         22    1    1    0    0    0  0.75188020137E+01  0.32237709647E+02  0.50301176038E+01  0.33482896979E+02  0.00000000000E+00 0. -1.
</event>
<event>
 5    1  0.8962782E-005  0.9118800E+02  0.7818608E-02  0.1130116E+00
         25   -1    0    0    0    0  0.00000000000E+00  0.00000000000E+00  0.99999998245E-14  0.12500000000E+03  0.12500000000E+03 0.  0.
        -11    1    3    3    0    0  0.26538761682E+02 -0.21065290335E+01 -0.26778041413E+02  0.37759857499E+02  0.51100000000E-03 0. -1.
         23    2    1    0    0    0 -0.13174623505E+01 -0.30242339597E+02  0.11296852974E+02  0.92689727664E+02  0.86875957065E+02 0.  0.
         11    1    3    3    0    0 -0.27856224032E+02 -0.28135810563E+02  0.38074894387E+02  0.54929870164E+02  0.51100000000E-03 0.  1.
         22    1    1    0    0    0  0.13174623505E+01  0.30242339597E+02 -0.11296852974E+02  0.32310272336E+02  0.00000000000E+00 0.  1.
</event>
<event>
 5    1  0.8962782E-005  0.9118800E+02  0.7818608E-02  0.1130116E+00
         25   -1    0    0    0    0  0.00000000000E+00  0.00000000000E+00  0.99999998245E-14  0.12500000000E+03  0.12500000000E+03 0.  0.
        -11    1    3    3    0    0 -0.88368243064E+01 -0.28698301425E+02  0.14671853867E+02  0.33420731062E+02  0.51100000000E-03 0. -1.
         23    2    1    0    0    0  0.20828777589E+02  0.99226063314E+01 -0.21011994729E+02  0.93794231066E+02  0.88450877703E+02 0.  0.
         11    1    3    3    0    0  0.29665601896E+02  0.38620907757E+02 -0.35683848597E+02  0.60373500004E+02  0.51100000000E-03 0.  1.
         22    1    1    0    0    0 -0.20828777589E+02 -0.99226063314E+01  0.21011994729E+02  0.31205768934E+02  0.00000000000E+00 0.  1.
</event>
<event>
 5    1  0.8962782E-005  0.9118800E+02  0.7818608E-02  0.1130116E+00
         25   -1    0    0    0    0  0.00000000000E+00  0.00000000000E+00  0.99999998245E-14  0.12500000000E+03  0.12500000000E+03 0.  0.
        -11    1    3    3    0    0  0.34911366099E+02  0.29274253085E+02  0.35041901811E+02  0.57477998046E+02  0.51100000000E-03 0.  1.
         23    2    1    0    0    0  0.16697885422E+02 -0.29365321405E+01  0.23070221783E+02  0.96369985475E+02  0.92019000042E+02 0.  0.
         11    1    3    3    0    0 -0.18213480677E+02 -0.32210785225E+02 -0.11971680028E+02  0.38891987429E+02  0.51100000000E-03 0. -1.
         22    1    1    0    0    0 -0.16697885422E+02  0.29365321405E+01 -0.23070221783E+02  0.28630014525E+02  0.00000000000E+00 0.  1.
</event>
<event>
 5    1  0.8962782E-005  0.9118800E+02  0.7818608E-02  0.1130116E+00
         25   -1    0    0    0    0  0.00000000000E+00  0.00000000000E+00  0.99999998245E-14  0.12500000000E+03  0.12500000000E+03 0.  0.
        -11    1    3    3    0    0  0.58318607309E+01  0.10412615817E+01  0.27517598067E+02  0.28148055508E+02  0.51100000000E-03 0. -1.
         23    2    1    0    0    0  0.21972330988E+02 -0.39691544109E+02  0.48589424170E+00  0.79629986819E+02  0.65440787776E+02 0.  0.
         11    1    3    3    0    0  0.16140470258E+02 -0.40732805691E+02 -0.27031703825E+02  0.51481931311E+02  0.51100000000E-03 0.  1.
         22    1    1    0    0    0 -0.21972330988E+02  0.39691544109E+02 -0.48589424170E+00  0.45370013181E+02  0.00000000000E+00 0.  1.
</event>
<event>
 5    1  0.8962782E-005  0.9118800E+02  0.7818608E-02  0.1130116E+00
         25   -1    0    0    0    0  0.00000000000E+00  0.00000000000E+00  0.99999998245E-14  0.12500000000E+03  0.12500000000E+03 0.  0.
        -11    1    3    3    0    0  0.38215859762E+02 -0.19120824593E+01  0.29641256682E+02  0.48401571200E+02  0.51100000000E-03 0. -1.
         23    2    1    0    0    0  0.73641495546E+01 -0.27821636585E+02  0.45538565130E+01  0.95862193458E+02  0.91326602721E+02 0.  0.
         11    1    3    3    0    0 -0.30851710207E+02 -0.25909554125E+02 -0.25087400169E+02  0.47460622259E+02  0.51100000000E-03 0.  1.
         22    1    1    0    0    0 -0.73641495546E+01  0.27821636585E+02 -0.45538565130E+01  0.29137806542E+02  0.00000000000E+00 0.  1.
</event>
<event>
 5    1  0.8962782E-005  0.9118800E+02  0.7818608E-02  0.1130116E+00
         25   -1    0    0    0    0  0.00000000000E+00  0.00000000000E+00  0.99999998245E-14  0.12500000000E+03  0.12500000000E+03 0.  0.
        -11    1    3    3    0    0  0.59370324698E+00  0.29620765763E+02  0.52762188760E+02  0.60511080068E+02  0.51100000000E-03 0.  1.
         23    2    1    0    0    0 -0.10778911898E+02  0.12322554631E+02  0.22670456651E+02  0.97036096497E+02  0.92919449655E+02 0.  0.
         11    1    3    3    0    0 -0.11372615145E+02 -0.17298211132E+02 -0.30091732109E+02  0.36525016429E+02  0.51100000000E-03 0. -1.
         22    1    1    0    0    0  0.10778911898E+02 -0.12322554631E+02 -0.22670456651E+02  0.27963903503E+02  0.00000000000E+00 0.  1.
</event>
<event>
 5    1  0.8962782E-005  0.9118800E+02  0.7818608E-02  0.1130116E+00
         25   -1    0    0    0    0  0.00000000000E+00  0.00000000000E+00  0.99999998245E-14  0.12500000000E+03  0.12500000000E+03 0.  0.
        -11    1    3    3    0    0  0.35239396732E+02  0.96256737247E+01 -0.19346177386E+02  0.41336947836E+02  0.51100000000E-03 0. -1.
         23    2    1    0    0    0 -0.18266717068E+02 -0.10963943994E+02 -0.15222365032E+02  0.98816008373E+02  0.95283797643E+02 0.  0.
         11    1    3    3    0    0 -0.53506113799E+02 -0.20589617718E+02  0.41238123542E+01  0.57479060538E+02  0.51100000000E-03 0.  1.
         22    1    1    0    0    0  0.18266717068E+02  0.10963943994E+02  0.15222365032E+02  0.26183991627E+02  0.00000000000E+00 0.  1.
</event>
<event>
 5    1  0.8962782E-005  0.9118800E+02  0.7818608E-02  0.1130116E+00
         25   -1    0    0    0    0  0.00000000000E+00  0.00000000000E+00  0.99999998245E-14  0.12500000000E+03  0.12500000000E+03 0.  0.
        -11    1    3    3    0    0 -0.29851504140E+02 -0.47426886151E+01 -0.36705372178E+02  0.47548814304E+02  0.51100000000E-03 0. -1.
         23    2    1    0    0    0  0.16270278015E+02  0.94337081143E+01 -0.16929108769E+02  0.99695622529E+02  0.96430833411E+02 0.  0.
         11    1    3    3    0    0  0.46121782155E+02  0.14176396729E+02  0.19776263409E+02  0.52146808226E+02  0.51100000000E-03 0.  1.
         22    1    1    0    0    0 -0.16270278015E+02 -0.94337081143E+01  0.16929108769E+02  0.25304377471E+02  0.00000000000E+00 0. -1.
</event>
<event>
 5    1  0.8962782E-005  0.9118800E+02  0.7818608E-02  0.1130116E+00
         25   -1    0    0    0    0  0.00000000000E+00  0.00000000000E+00  0.99999998245E-14  0.12500000000E+03  0.12500000000E+03 0.  0.
        -11    1    3    3    0    0 -0.25216207430E+02 -0.37191404022E+02 -0.42071384465E+02  0.61555333167E+02  0.51100000000E-03 0.  1.
         23    2    1    0    0    0 -0.93190867246E+01 -0.24431254174E+02 -0.17250519162E+02  0.93674100663E+02  0.88280944522E+02 0.  0.
         11    1    3    3    0    0  0.15897120705E+02  0.12760149847E+02  0.24820865302E+02  0.32118767496E+02  0.51100000000E-03 0. -1.
         22    1    1    0    0    0  0.93190867246E+01  0.24431254174E+02  0.17250519162E+02  0.31325899337E+02  0.00000000000E+00 0.  1.
</event>
<event>
 5    1  0.8962782E-005  0.9118800E+02  0.7818608E-02  0.1130116E+00
         25   -1    0    0    0    0  0.00000000000E+00  0.00000000000E+00  0.99999998245E-14  0.12500000000E+03  0.12500000000E+03 0.  0.
        -11    1    3    3    0    0 -0.38753540033E+02  0.46163765474E+01  0.97077446401E+01  0.40216763964E+02  0.51100000000E-03 0.  1.
         23    2    1    0    0    0  0.22565769312E+01  0.13230400296E+02 -0.26304087410E+02  0.95469665666E+02  0.90787754771E+02 0.  0.
         11    1    3    3    0    0  0.41010116964E+02  0.86140237483E+01 -0.36011832050E+02  0.55252901701E+02  0.51100000000E-03 0. -1.
         22    1    1    0    0    0 -0.22565769312E+01 -0.13230400296E+02  0.26304087410E+02  0.29530334334E+02  0.00000000000E+00 0. -1.
</event>
<event>
 5    1  0.8962782E-005  0.9118800E+02  0.7818608E-02  0.1130116E+00
         25   -1    0    0    0    0  0.00000000000E+00  0.00000000000E+00  0.99999998245E-14  0.12500000000E+03  0.12500000000E+03 0.  0.
        -11    1    3    3    0    0  0.32393402652E+02 -0.13714121891E+02 -0.10918235110E+02  0.36832289269E+02  0.51100000000E-03 0. -1.
         23    2    1    0    0    0  0.12762328499E+02  0.13138269624E+02  0.30175075521E+02  0.89700901710E+02  0.82463479356E+02 0.  0.
         11    1    3    3    0    0 -0.19631074154E+02  0.26852391515E+02  0.41093310631E+02  0.52868612440E+02  0.51100000000E-03 0.  1.
         22    1    1    0    0    0 -0.12762328499E+02 -0.13138269624E+02 -0.30175075521E+02  0.35299098290E+02  0.00000000000E+00 0.  1.
</event>
<event>
 5    1  0.8962782E-005  0.9118800E+02  0.7818608E-02  0.1130116E+00
         25   -1    0    0    0    0  0.00000000000E+00  0.00000000000E+00  0.99999998245E-14  0.12500000000E+03  0.12500000000E+03 0.  0.
        -11    1    3    3    0    0  0.25677202356E+02 -0.16157162546E+02 -0.81760281177E+01  0.31420058217E+02  0.51100000000E-03 0.  1.
         23    2    1    0    0    0 -0.16591745061E+02  0.26414077454E+02  0.64012533436E+01  0.93157174492E+02  0.87545951494E+02 0.  0.
         11    1    3    3    0    0 -0.42268947417E+02  0.42571240000E+02  0.14577281461E+02  0.61737116275E+02  0.51100000000E-03 0. -1.
         22    1    1    0    0    0  0.16591745061E+02 -0.26414077454E+02 -0.64012533436E+01  0.31842825508E+02  0.00000000000E+00 0. -1.
</event>
<event>
 5    1  0.8962782E-005  0.9118800E+02  0.7818608E-02  0.1130116E+00
         25   -1    0    0    0    0  0.00000000000E+00  0.00000000000E+00  0.99999998245E-14  0.12500000000E+03  0.12500000000E+03 0.  0.
        -11    1    3    3    0    0 -0.76819043506E+01  0.35985883028E+02  0.17512536218E+02  0.40751495148E+02  0.51100000000E-03 0.  1.
         23    2    1    0    0    0 -0.15690210707E+02 -0.19094289635E+02  0.14172215981E+02  0.96510943952E+02  0.92210281357E+02 0.  0.
         11    1    3    3    0    0 -0.80083063559E+01 -0.55080172664E+02 -0.33403202370E+01  0.55759448804E+02  0.51100000000E-03 0. -1.
         22    1    1    0    0    0  0.15690210707E+02  0.19094289635E+02 -0.14172215981E+02  0.28489056048E+02  0.00000000000E+00 0. -1.
</event>
<event>
 5    1  0.8962782E-005  0.9118800E+02  0.7818608E-02  0.1130116E+00
         25   -1    0    0    0    0  0.00000000000E+00  0.00000000000E+00  0.99999998245E-14  0.12500000000E+03  0.12500000000E+03 0.  0.
        -11    1    3    3    0    0  0.37346163855E+02 -0.93429577612E+01  0.35906648365E+02  0.52643273184E+02  0.51100000000E-03 0.  1.
         23    2    1    0    0    0 -0.48008959710E+01  0.44691146802E+01  0.26128386604E+02  0.98060917337E+02  0.94288012676E+02 0.  0.
         11    1    3    3    0    0 -0.42147059826E+02  0.13812072441E+02 -0.97782617610E+01  0.45417644153E+02  0.51100000000E-03 0. -1.
         22    1    1    0    0    0  0.48008959710E+01 -0.44691146802E+01 -0.26128386604E+02  0.26939082663E+02  0.00000000000E+00 0.  1.
</event>
<event>
 5    1  0.8962782E-005  0.9118800E+02  0.7818608E-02  0.1130116E+00
         25   -1    0    0    0    0  0.00000000000E+00  0.00000000000E+00  0.99999998245E-14  0.12500000000E+03  0.12500000000E+03 0.  0.
        -11    1    3    3    0    0  0.18616150473E+02  0.11407579350E+02  0.57351120595E+02  0.61366480743E+02  0.51100000000E-03 0. -1.
         23    2    1    0    0    0  0.14863727402E+02  0.28167593276E+00  0.23537130194E+02  0.97161066267E+02  0.93087413579E+02 0.  0.
         11    1    3    3    0    0 -0.37524230706E+01 -0.11125903417E+02 -0.33813990401E+02  0.35794585524E+02  0.51100000000E-03 0.  1.
         22    1    1    0    0    0 -0.14863727402E+02 -0.28167593276E+00 -0.23537130194E+02  0.27838933733E+02  0.00000000000E+00 0. -1.
</event>
<event>
 5    1  0.8962782E-005  0.9118800E+02  0.7818608E-02  0.1130116E+00
         25   -1    0    0    0    0  0.00000000000E+00  0.00000000000E+00  0.99999998245E-14  0.12500000000E+03  0.12500000000E+03 0.  0.
        -11    1    3    3    0    0  0.91719030273E+01  0.36295746067E+02 -0.25500824155E+02  0.45296766116E+02  0.51100000000E-03 0. -1.
         23    2    1    0    0    0  0.24287706560E+02  0.61478844744E+01  0.13242034238E+02  0.96662028227E+02  0.92414863830E+02 0.  0.
         11    1    3    3    0    0  0.15115803533E+02 -0.30147861593E+02  0.38742858392E+02  0.51365262111E+02  0.51100000000E-03 0.  1.
         22    1    1    0    0    0 -0.24287706560E+02 -0.61478844744E+01 -0.13242034238E+02  0.28337971773E+02  0.00000000000E+00 0.  1.
</event>
<event>
 5    1  0.8962782E-005  0.9118800E+02  0.7818608E-02  0.1130116E+00
         25   -1    0    0    0    0  0.00000000000E+00  0.00000000000E+00  0.99999998245E-14  0.12500000000E+03  0.12500000000E+03 0.  0.
        -11    1    3    3    0    0 -0.18291591286E+02 -0.13400775268E+02 -0.20327810440E+02  0.30452963191E+02  0.51100000000E-03 0. -1.
         23    2    1    0    0    0  0.20919692585E+02  0.22793830087E+02  0.10799651658E+02  0.92230735379E+02  0.86213014358E+02 0.  0.
         11    1    3    3    0    0  0.39211283871E+02  0.36194605355E+02  0.31127462097E+02  0.61777772188E+02  0.51100000000E-03 0.  1.
         22    1    1    0    0    0 -0.20919692585E+02 -0.22793830087E+02 -0.10799651658E+02  0.32769264621E+02  0.00000000000E+00 0.  1.
</event>
<event>
 5    1  0.8962782E-005  0.9118800E+02  0.7818608E-02  0.1130116E+00
         25   -1    0    0    0    0  0.00000000000E+00  0.00000000000E+00  0.99999998245E-14  0.12500000000E+03  0.12500000000E+03 0.  0.
        -11    1    3    3    0    0  0.44956397838E+02  0.17088648232E+02  0.13785576677E+02  0.50031407431E+02  0.51100000000E-03 0. -1.
         23    2    1    0    0    0  0.22309370033E+02 -0.76954942157E+01 -0.17263065543E+02  0.95760607830E+02  0.91187455045E+02 0.  0.
         11    1    3    3    0    0 -0.22647027804E+02 -0.24784142447E+02 -0.31048642220E+02  0.45729200400E+02  0.51100000000E-03 0.  1.
         22    1    1    0    0    0 -0.22309370033E+02  0.76954942157E+01  0.17263065543E+02  0.29239392170E+02  0.00000000000E+00 0.  1.
</event>
<event>
 5    1  0.8962782E-005  0.9118800E+02  0.7818608E-02  0.1130116E+00
         25   -1    0    0    0    0  0.00000000000E+00  0.00000000000E+00  0.99999998245E-14  0.12500000000E+03  0.12500000000E+03 0.  0.
        -11    1    3    3    0    0 -0.28126593853E+02  0.45643752284E+02 -0.48980328889E+01  0.53837237399E+02  0.51100000000E-03 0. -1.
         23    2    1    0    0    0  0.73563369836E+01  0.27211144634E+02  0.77342519260E+01  0.95770208024E+02  0.91200614066E+02 0.  0.
         11    1    3    3    0    0  0.35482930836E+02 -0.18432607650E+02  0.12632284815E+02  0.41932970625E+02  0.51100000000E-03 0.  1.
         22    1    1    0    0    0 -0.73563369836E+01 -0.27211144634E+02 -0.77342519260E+01  0.29229791976E+02  0.00000000000E+00 0.  1.
</event>
<event>
 5    1  0.8962782E-005  0.9118800E+02  0.7818608E-02  0.1130116E+00
         25   -1    0    0    0    0  0.00000000000E+00  0.00000000000E+00  0.99999998245E-14  0.12500000000E+03  0.12500000000E+03 0.  0.
        -11    1    3    3    0    0  0.17110979433E+02 -0.18168150529E+02 -0.22869117391E+02  0.33850610649E+02  0.51100000000E-03 0. -1.
         23    2    1    0    0    0 -0.75220602447E+00  0.14143433179E+02  0.26175213594E+02  0.95238543001E+02  0.90468976729E+02 0.  0.
         11    1    3    3    0    0 -0.17863185457E+02  0.32311583708E+02  0.49044330985E+02  0.61387932352E+02  0.51100000000E-03 0.  1.
         22    1    1    0    0    0  0.75220602447E+00 -0.14143433179E+02 -0.26175213594E+02  0.29761456999E+02  0.00000000000E+00 0.  1.
</event>
<event>
 5    1  0.8962782E-005  0.9118800E+02  0.7818608E-02  0.1130116E+00
         25   -1    0    0    0    0  0.00000000000E+00  0.00000000000E+00  0.99999998245E-14  0.12500000000E+03  0.12500000000E+03 0.  0.
        -11    1    3    3    0    0 -0.42416833579E+02 -0.29750407413E+02  0.29626764879E+02  0.59682658365E+02  0.51100000000E-03 0.  1.
         23    2    1    0    0    0 -0.83045960496E+01 -0.21267597531E+02  0.14519960971E+02  0.97942537316E+02  0.94130942463E+02 0.  0.
         11    1    3    3    0    0  0.34112237529E+02  0.84828098814E+01 -0.15106803908E+02  0.38259878950E+02  0.51100000000E-03 0. -1.
         22    1    1    0    0    0  0.83045960496E+01  0.21267597531E+02 -0.14519960971E+02  0.27057462684E+02  0.00000000000E+00 0.  1.
</event>
<event>
 5    1  0.8962782E-005  0.9118800E+02  0.7818608E-02  0.1130116E+00
         25   -1    0    0    0    0  0.00000000000E+00  0.00000000000E+00  0.99999998245E-14  0.12500000000E+03  0.12500000000E+03 0.  0.
        -11    1    3    3    0    0  0.60681864174E+02 -0.10245821868E+02  0.79491279562E+01  0.62052027694E+02  0.51100000000E-03 0. -1.
         23    2    1    0    0    0  0.29186498925E+02 -0.52253569204E+01 -0.14885068109E+01  0.95312094602E+02  0.90570545159E+02 0.  0.
         11    1    3    3    0    0 -0.31495365249E+02  0.50204649477E+01 -0.94376347671E+01  0.33260066908E+02  0.51100000000E-03 0.  1.
         22    1    1    0    0    0 -0.29186498925E+02  0.52253569204E+01  0.14885068109E+01  0.29687905398E+02  0.00000000000E+00 0. -1.
</event>
<event>
 5    1  0.8962782E-005  0.9118800E+02  0.7818608E-02  0.1130116E+00
         25   -1    0    0    0    0  0.00000000000E+00  0.00000000000E+00  0.99999998245E-14  0.12500000000E+03  0.12500000000E+03 0.  0.
        -11    1    3    3    0    0 -0.65371791358E+01 -0.43059827416E+02  0.39345131015E+02  0.58693464568E+02  0.51100000000E-03 0.  1.
         23    2    1    0    0    0 -0.89998353685E+01 -0.10870381176E+02  0.29258165727E+02  0.92516119609E+02  0.86625803905E+02 0.  0.
         11    1    3    3    0    0 -0.24626562326E+01  0.32189446240E+02 -0.10086965288E+02  0.33822655040E+02  0.51100000000E-03 0. -1.
         22    1    1    0    0    0  0.89998353685E+01  0.10870381176E+02 -0.29258165727E+02  0.32483880391E+02  0.00000000000E+00 0.  1.
</event>
<event>
 5    1  0.8962782E-005  0.9118800E+02  0.7818608E-02  0.1130116E+00
         25   -1    0    0    0    0  0.00000000000E+00  0.00000000000E+00  0.99999998245E-14  0.12500000000E+03  0.12500000000E+03 0.  0.
        -11    1    3    3    0    0  0.11978980349E+02  0.95198209980E+01  0.58664407515E+02  0.60627020968E+02  0.51100000000E-03 0.  1.
         23    2    1    0    0    0 -0.38248683960E+00 -0.53287791043E+01  0.24944114257E+02  0.99490177990E+02  0.96164153912E+02 0.  0.
         11    1    3    3    0    0 -0.12361467188E+02 -0.14848600102E+02 -0.33720293259E+02  0.38863157022E+02  0.51100000000E-03 0. -1.
         22    1    1    0    0    0  0.38248683960E+00  0.53287791043E+01 -0.24944114257E+02  0.25509822010E+02  0.00000000000E+00 0.  1.
</event>
<event>
 5    1  0.8962782E-005  0.9118800E+02  0.7818608E-02  0.1130116E+00
         25   -1    0    0    0    0  0.00000000000E+00  0.00000000000E+00  0.99999998245E-14  0.12500000000E+03  0.12500000000E+03 0.  0.
        -11    1    3    3    0    0  0.29463356414E+02 -0.97393136491E+00 -0.30939759051E+02  0.42735308632E+02  0.51100000000E-03 0. -1.
         23    2    1    0    0    0 -0.19366912233E+02  0.15238068812E+02 -0.12291342193E+02  0.97461787940E+02  0.93490357711E+02 0.  0.
         11    1    3    3    0    0 -0.48830268647E+02  0.16212000177E+02  0.18648416858E+02  0.54726479308E+02  0.51100000000E-03 0.  1.
         22    1    1    0    0    0  0.19366912233E+02 -0.15238068812E+02  0.12291342193E+02  0.27538212060E+02  0.00000000000E+00 0. -1.
</event>
<event>
 5    1  0.8962782E-005  0.9118800E+02  0.7818608E-02  0.1130116E+00
         25   -1    0    0    0    0  0.00000000000E+00  0.00000000000E+00  0.99999998245E-14  0.12500000000E+03  0.12500000000E+03 0.  0.
        -11    1    3    3    0    0 -0.56768100541E+02  0.96500914061E+01 -0.20293918098E+02  0.61053948400E+02  0.51100000000E-03 0.  1.
         23    2    1    0    0    0 -0.23525406681E+02  0.13575407206E+02 -0.95160361181E+01  0.96219948164E+02  0.91814960877E+02 0.  0.
         11    1    3    3    0    0  0.33242693860E+02  0.39253157995E+01  0.10777881980E+02  0.35165999764E+02  0.51100000000E-03 0. -1.
         22    1    1    0    0    0  0.23525406681E+02 -0.13575407206E+02  0.95160361181E+01  0.28780051836E+02  0.00000000000E+00 0.  1.
</event>
<event>
 5    1  0.8962782E-005  0.9118800E+02  0.7818608E-02  0.1130116E+00
         25   -1    0    0    0    0  0.00000000000E+00  0.00000000000E+00  0.99999998245E-14  0.12500000000E+03  0.12500000000E+03 0.  0.
        -11    1    3    3    0    0  0.33796048068E+02  0.11153298339E+02  0.14627391323E+02  0.38477649435E+02  0.51100000000E-03 0. -1.
         23    2    1    0    0    0 -0.21785036775E+02  0.65145942434E+01  0.20272440429E+02  0.94536914037E+02  0.89494293166E+02 0.  0.
         11    1    3    3    0    0 -0.55581084843E+02 -0.46387040958E+01  0.56450491058E+01  0.56059264602E+02  0.51100000000E-03 0.  1.
         22    1    1    0    0    0  0.21785036775E+02 -0.65145942434E+01 -0.20272440429E+02  0.30463085963E+02  0.00000000000E+00 0.  1.
</event>
<event>
 5    1  0.8962782E-005  0.9118800E+02  0.7818608E-02  0.1130116E+00
         25   -1    0    0    0    0  0.00000000000E+00  0.00000000000E+00  0.99999998245E-14  0.12500000000E+03  0.12500000000E+03 0.  0.
        -11    1    3    3    0    0 -0.89406843770E+01  0.37852052914E+02  0.89352073656E+01  0.39906787366E+02  0.51100000000E-03 0.  1.
         23    2    1    0    0    0  0.13496803053E+02  0.23545577882E+02 -0.28375752986E+02  0.85734986465E+02  0.76215133774E+02 0.  0.
         11    1    3    3    0    0  0.22437487430E+02 -0.14306475033E+02 -0.37310960351E+02  0.45828199099E+02  0.51100000000E-03 0. -1.
         22    1    1    0    0    0 -0.13496803053E+02 -0.23545577882E+02  0.28375752986E+02  0.39265013535E+02  0.00000000000E+00 0.  1.
</event>
<event>
 5    1  0.8962782E-005  0.9118800E+02  0.7818608E-02  0.1130116E+00
         25   -1    0    0    0    0  0.00000000000E+00  0.00000000000E+00  0.99999998245E-14  0.12500000000E+03  0.12500000000E+03 0.  0.
        -11    1    3    3    0    0 -0.42122090974E+02 -0.26614631593E+02 -0.21248133220E+02  0.54167262515E+02  0.51100000000E-03 0. -1.
         23    2    1    0    0    0 -0.22598083105E+02 -0.11221916071E+02  0.13101392681E+02  0.96570240055E+02  0.92290627985E+02 0.  0.
         11    1    3    3    0    0  0.19524007868E+02  0.15392715522E+02  0.34349525901E+02  0.42402977540E+02  0.51100000000E-03 0.  1.
         22    1    1    0    0    0  0.22598083105E+02  0.11221916071E+02 -0.13101392681E+02  0.28429759945E+02  0.00000000000E+00 0.  1.
</event>
<event>
 5    1  0.8962782E-005  0.9118800E+02  0.7818608E-02  0.1130116E+00
         25   -1    0    0    0    0  0.00000000000E+00  0.00000000000E+00  0.99999998245E-14  0.12500000000E+03  0.12500000000E+03 0.  0.
        -11    1    3    3    0    0  0.53794562888E+02  0.23363682918E+02  0.11896307682E+02  0.59843452546E+02  0.51100000000E-03 0. -1.
         23    2    1    0    0    0  0.28462190447E+02  0.42257666882E+01 -0.49785765288E+01  0.95798294341E+02  0.91239101186E+02 0.  0.
         11    1    3    3    0    0 -0.25332372441E+02 -0.19137916230E+02 -0.16874884211E+02  0.35954841795E+02  0.51100000000E-03 0.  1.
         22    1    1    0    0    0 -0.28462190447E+02 -0.42257666882E+01  0.49785765288E+01  0.29201705659E+02  0.00000000000E+00 0. -1.
</event>
<event>
 5    1  0.8962782E-005  0.9118800E+02  0.7818608E-02  0.1130116E+00
         25   -1    0    0    0    0  0.00000000000E+00  0.00000000000E+00  0.99999998245E-14  0.12500000000E+03  0.12500000000E+03 0.  0.
        -11    1    3    3    0    0 -0.27270188173E+02  0.12766169343E+02 -0.18663673637E+02  0.35425569248E+02  0.51100000000E-03 0.  1.
         23    2    1    0    0    0  0.23777604042E+02  0.28806928415E+01  0.14408779357E+02  0.97048510455E+02  0.92936148046E+02 0.  0.
         11    1    3    3    0    0  0.51047792215E+02 -0.98854765011E+01  0.33072452994E+02  0.61622941207E+02  0.51100000000E-03 0. -1.
         22    1    1    0    0    0 -0.23777604042E+02 -0.28806928415E+01 -0.14408779357E+02  0.27951489545E+02  0.00000000000E+00 0. -1.
</event>
<event>
 5    1  0.8962782E-005  0.9118800E+02  0.7818608E-02  0.1130116E+00
         25   -1    0    0    0    0  0.00000000000E+00  0.00000000000E+00  0.99999998245E-14  0.12500000000E+03  0.12500000000E+03 0.  0.
        -11    1    3    3    0    0 -0.41875467922E+01  0.48614573316E+01 -0.38842737595E+02  0.39369119620E+02  0.51100000000E-03 0.  1.
         23    2    1    0    0    0 -0.95635222701E+01  0.88609223484E+01  0.21377262092E+02  0.99960746065E+02  0.96773893775E+02 0.  0.
         11    1    3    3    0    0 -0.53759754780E+01  0.39994650168E+01  0.60219999687E+02  0.60591626445E+02  0.51100000000E-03 0. -1.
         22    1    1    0    0    0  0.95635222701E+01 -0.88609223484E+01 -0.21377262092E+02  0.25039253935E+02  0.00000000000E+00 0. -1.
</event>
<event>
 5    1  0.8962782E-005  0.9118800E+02  0.7818608E-02  0.1130116E+00
         25   -1    0    0    0    0  0.00000000000E+00  0.00000000000E+00  0.99999998245E-14  0.12500000000E+03  0.12500000000E+03 0.  0.
        -11    1    3    3    0    0  0.35716701857E+02  0.44251610740E+01  0.10551844030E+02  0.37504749763E+02  0.51100000000E-03 0.  1.
         23    2    1    0    0    0 -0.12693072580E+02 -0.16189522601E+02 -0.18259857790E+02  0.97492961990E+02  0.93532029260E+02 0.  0.
         11    1    3    3    0    0 -0.48409774438E+02 -0.20614683675E+02 -0.28811701820E+02  0.59988212227E+02  0.51100000000E-03 0. -1.
         22    1    1    0    0    0  0.12693072580E+02  0.16189522601E+02  0.18259857790E+02  0.27507038010E+02  0.00000000000E+00 0. -1.
</event>
<event>
 5    1  0.8962782E-005  0.9118800E+02  0.7818608E-02  0.1130116E+00
         25   -1    0    0    0    0  0.00000000000E+00  0.00000000000E+00  0.99999998245E-14  0.12500000000E+03  0.12500000000E+03 0.  0.
        -11    1    3    3    0    0 -0.44176837392E+01  0.41908289196E+01  0.34871125709E+02  0.35398790730E+02  0.51100000000E-03 0.  1.
         23    2    1    0    0    0 -0.17708652151E+02  0.71259329548E+01 -0.23149985142E+02  0.94995048849E+02  0.90131915614E+02 0.  0.
         11    1    3    3    0    0 -0.13290968412E+02  0.29351040352E+01 -0.58021110852E+02  0.59596258119E+02  0.51100000000E-03 0. -1.
         22    1    1    0    0    0  0.17708652151E+02 -0.71259329548E+01  0.23149985142E+02  0.30004951151E+02  0.00000000000E+00 0. -1.
</event>
<event>
 5    1  0.8962782E-005  0.9118800E+02  0.7818608E-02  0.1130116E+00
         25   -1    0    0    0    0  0.00000000000E+00  0.00000000000E+00  0.99999998245E-14  0.12500000000E+03  0.12500000000E+03 0.  0.
        -11    1    3    3    0    0 -0.13457578425E+02  0.23919083001E+02 -0.54377708989E+02  0.60911117079E+02  0.51100000000E-03 0.  1.
         23    2    1    0    0    0 -0.29723805593E+01  0.21647532653E+01 -0.28334644678E+02  0.96427753117E+02  0.92097439049E+02 0.  0.
         11    1    3    3    0    0  0.10485197866E+02 -0.21754329736E+02  0.26043064311E+02  0.35516636039E+02  0.51100000000E-03 0. -1.
         22    1    1    0    0    0  0.29723805593E+01 -0.21647532653E+01  0.28334644678E+02  0.28572246883E+02  0.00000000000E+00 0.  1.
</event>
<event>
 5    1  0.8962782E-005  0.9118800E+02  0.7818608E-02  0.1130116E+00
         25   -1    0    0    0    0  0.00000000000E+00  0.00000000000E+00  0.99999998245E-14  0.12500000000E+03  0.12500000000E+03 0.  0.
        -11    1    3    3    0    0  0.25314579017E+01  0.17162443403E+02 -0.55669651196E+02  0.58310100388E+02  0.51100000000E-03 0.  1.
         23    2    1    0    0    0 -0.13084051648E+02  0.14625856784E+02 -0.21948949581E+02  0.95557437579E+02  0.90908522124E+02 0.  0.
         11    1    3    3    0    0 -0.15615509549E+02 -0.25365866184E+01  0.33720701615E+02  0.37247337191E+02  0.51100000000E-03 0. -1.
         22    1    1    0    0    0  0.13084051648E+02 -0.14625856784E+02  0.21948949581E+02  0.29442562421E+02  0.00000000000E+00 0.  1.
</event>
<event>
 5    1  0.8962782E-005  0.9118800E+02  0.7818608E-02  0.1130116E+00
         25   -1    0    0    0    0  0.00000000000E+00  0.00000000000E+00  0.99999998245E-14  0.12500000000E+03  0.12500000000E+03 0.  0.
        -11    1    3    3    0    0 -0.17201185578E+01 -0.30135927689E+02 -0.20973277837E+02  0.36756106010E+02  0.51100000000E-03 0.  1.
         23    2    1    0    0    0  0.25562551286E+02  0.17380790613E+02 -0.68760543668E+01  0.93332729290E+02  0.87796254604E+02 0.  0.
         11    1    3    3    0    0  0.27282669844E+02  0.47516718301E+02  0.14097223470E+02  0.56576623280E+02  0.51100000000E-03 0. -1.
         22    1    1    0    0    0 -0.25562551286E+02 -0.17380790613E+02  0.68760543668E+01  0.31667270710E+02  0.00000000000E+00 0. -1.
</event>
<event>
 5    1  0.8962782E-005  0.9118800E+02  0.7818608E-02  0.1130116E+00
         25   -1    0    0    0    0  0.00000000000E+00  0.00000000000E+00  0.99999998245E-14  0.12500000000E+03  0.12500000000E+03 0.  0.
        -11    1    3    3    0    0  0.11737340170E+02  0.34982735021E+02  0.30408334218E+02  0.47814471596E+02  0.51100000000E-03 0.  1.
         23    2    1    0    0    0 -0.61612264102E+01  0.25935872066E+02 -0.12783830028E+02  0.95435553770E+02  0.90740776074E+02 0.  0.
         11    1    3    3    0    0 -0.17898566580E+02 -0.90468629555E+01 -0.43192164246E+02  0.47621082174E+02  0.51100000000E-03 0. -1.
         22    1    1    0    0    0  0.61612264102E+01 -0.25935872066E+02  0.12783830028E+02  0.29564446230E+02  0.00000000000E+00 0. -1.
</event>
<event>
 5    1  0.8962782E-005  0.9118800E+02  0.7818608E-02  0.1130116E+00
         25   -1    0    0    0    0  0.00000000000E+00  0.00000000000E+00  0.99999998245E-14  0.12500000000E+03  0.12500000000E+03 0.  0.
        -11    1    3    3    0    0 -0.52287618855E+02  0.22061827065E+02  0.19895101300E+02  0.60137628445E+02  0.51100000000E-03 0.  1.
         23    2    1    0    0    0 -0.19942171223E+02  0.71469478313E+01  0.20158734325E+02  0.95757161117E+02  0.91182730159E+02 0.  0.
         11    1    3    3    0    0  0.32345447633E+02 -0.14914879234E+02  0.26363302481E+00  0.35619532672E+02  0.51100000000E-03 0. -1.
         22    1    1    0    0    0  0.19942171223E+02 -0.71469478313E+01 -0.20158734325E+02  0.29242838883E+02  0.00000000000E+00 0.  1.
</event>
<event>
 5    1  0.8962782E-005  0.9118800E+02  0.7818608E-02  0.1130116E+00
         25   -1    0    0    0    0  0.00000000000E+00  0.00000000000E+00  0.99999998245E-14  0.12500000000E+03  0.12500000000E+03 0.  0.
        -11    1    3    3    0    0  0.46980273867E+02  0.18600297186E+02  0.31127066845E+02  0.59346537209E+02  0.51100000000E-03 0. -1.
         23    2    1    0    0    0  0.32131693608E+02  0.24158753172E+02  0.14649307115E+02  0.82213398266E+02  0.70202204855E+02 0.  0.
         11    1    3    3    0    0 -0.14848580258E+02  0.55584559860E+01 -0.16477759730E+02  0.22866861057E+02  0.51100000000E-03 0.  1.
         22    1    1    0    0    0 -0.32131693608E+02 -0.24158753172E+02 -0.14649307115E+02  0.42786601734E+02  0.00000000000E+00 0. -1.
</event>
<event>
 5    1  0.8962782E-005  0.9118800E+02  0.7818608E-02  0.1130116E+00
         25   -1    0    0    0    0  0.00000000000E+00  0.00000000000E+00  0.99999998245E-14  0.12500000000E+03  0.12500000000E+03 0.  0.
        -11    1    3    3    0    0  0.42016342930E+02  0.73766360513E+01  0.21033804815E+01  0.42710795385E+02  0.51100000000E-03 0. -1.
         23    2    1    0    0    0 -0.86851166540E+01  0.26576203016E+02  0.25195211878E+01  0.96927347737E+02  0.92773039911E+02 0.  0.
         11    1    3    3    0    0 -0.50701459584E+02  0.19199566965E+02  0.41614070630E+00  0.54216552352E+02  0.51100000000E-03 0.  1.
         22    1    1    0    0    0  0.86851166540E+01 -0.26576203016E+02 -0.25195211878E+01  0.28072652263E+02  0.00000000000E+00 0.  1.
</event>
<event>
 5    1  0.8962782E-005  0.9118800E+02  0.7818608E-02  0.1130116E+00
         25   -1    0    0    0    0  0.00000000000E+00  0.00000000000E+00  0.99999998245E-14  0.12500000000E+03  0.12500000000E+03 0.  0.
        -11    1    3    3    0    0 -0.31666160875E+02 -0.42251186790E+02 -0.15048881305E+02  0.54903345604E+02  0.51100000000E-03 0.  1.
         23    2    1    0    0    0 -0.27549714334E+02 -0.20902930972E+01 -0.21396547757E+01  0.97288374142E+02  0.93258208945E+02 0.  0.
         11    1    3    3    0    0  0.41164465410E+01  0.40160893693E+02  0.12909226530E+02  0.42385028538E+02  0.51100000000E-03 0. -1.
         22    1    1    0    0    0  0.27549714334E+02  0.20902930972E+01  0.21396547757E+01  0.27711625858E+02  0.00000000000E+00 0.  1.
</event>
<event>
 5    1  0.8962782E-005  0.9118800E+02  0.7818608E-02  0.1130116E+00
         25   -1    0    0    0    0  0.00000000000E+00  0.00000000000E+00  0.99999998245E-14  0.12500000000E+03  0.12500000000E+03 0.  0.
        -11    1    3    3    0    0  0.20219211143E+02 -0.43443437242E+02 -0.30301052315E+02  0.56694819078E+02  0.51100000000E-03 0.  1.
         23    2    1    0    0    0 -0.75960278701E+01 -0.17846006049E+02 -0.22503411367E+02  0.95291699906E+02  0.90542393256E+02 0.  0.
         11    1    3    3    0    0 -0.27815239013E+02  0.25597431193E+02  0.77976409475E+01  0.38596880828E+02  0.51100000000E-03 0. -1.
         22    1    1    0    0    0  0.75960278701E+01  0.17846006049E+02  0.22503411367E+02  0.29708300094E+02  0.00000000000E+00 0.  1.
</event>
<event>
 5    1  0.8962782E-005  0.9118800E+02  0.7818608E-02  0.1130116E+00
         25   -1    0    0    0    0  0.00000000000E+00  0.00000000000E+00  0.99999998245E-14  0.12500000000E+03  0.12500000000E+03 0.  0.
        -11    1    3    3    0    0  0.19177008367E+02 -0.13320839062E+01  0.51838088336E+02  0.55287607111E+02  0.51100000000E-03 0. -1.
         23    2    1    0    0    0  0.12010542224E+01 -0.20377439382E+02  0.22000751671E+02  0.94988075018E+02  0.90122243395E+02 0.  0.
         11    1    3    3    0    0 -0.17975954144E+02 -0.19045355475E+02 -0.29837336665E+02  0.39700467908E+02  0.51100000000E-03 0.  1.
         22    1    1    0    0    0 -0.12010542224E+01  0.20377439382E+02 -0.22000751671E+02  0.30011924982E+02  0.00000000000E+00 0. -1.
</event>
<event>
 5    1  0.8962782E-005  0.9118800E+02  0.7818608E-02  0.1130116E+00
         25   -1    0    0    0    0  0.00000000000E+00  0.00000000000E+00  0.99999998245E-14  0.12500000000E+03  0.12500000000E+03 0.  0.
        -11    1    3    3    0    0  0.51054605671E+01  0.36435020583E+02 -0.11252468577E+02  0.38473295957E+02  0.51100000000E-03 0. -1.
         23    2    1    0    0    0  0.24980339694E+02 -0.15659386334E+02  0.75092862767E+00  0.95507668024E+02  0.90840062781E+02 0.  0.
         11    1    3    3    0    0  0.19874879127E+02 -0.52094406917E+02  0.12003397204E+02  0.57034372067E+02  0.51100000000E-03 0.  1.
         22    1    1    0    0    0 -0.24980339694E+02  0.15659386334E+02 -0.75092862767E+00  0.29492331976E+02  0.00000000000E+00 0.  1.
</event>
<event>
 5    1  0.8962782E-005  0.9118800E+02  0.7818608E-02  0.1130116E+00
         25   -1    0    0    0    0  0.00000000000E+00  0.00000000000E+00  0.99999998245E-14  0.12500000000E+03  0.12500000000E+03 0.  0.
        -11    1    3    3    0    0 -0.93401495810E+01  0.21937161969E+00 -0.37204850729E+02  0.38359971796E+02  0.51100000000E-03 0. -1.
         23    2    1    0    0    0  0.18239801714E+02  0.20944334673E+02  0.88024314210E+01  0.95865169979E+02  0.91330676636E+02 0.  0.
         11    1    3    3    0    0  0.27579951295E+02  0.20724963053E+02  0.46007282150E+02  0.57505198183E+02  0.51100000000E-03 0.  1.
         22    1    1    0    0    0 -0.18239801714E+02 -0.20944334673E+02 -0.88024314210E+01  0.29134830021E+02  0.00000000000E+00 0.  1.
</event>
<event>
 5    1  0.8962782E-005  0.9118800E+02  0.7818608E-02  0.1130116E+00
         25   -1    0    0    0    0  0.00000000000E+00  0.00000000000E+00  0.99999998245E-14  0.12500000000E+03  0.12500000000E+03 0.  0.
        -11    1    3    3    0    0  0.25861554933E+02  0.40165490734E+02  0.22083585519E+02  0.52628617872E+02  0.51100000000E-03 0.  1.
         23    2    1    0    0    0 -0.10048207418E+02  0.15695989978E+02  0.22110458309E+02  0.96082826204E+02  0.91628088221E+02 0.  0.
         11    1    3    3    0    0 -0.35909762351E+02 -0.24469500756E+02  0.26872790603E-01  0.43454208332E+02  0.51100000000E-03 0. -1.
         22    1    1    0    0    0  0.10048207418E+02 -0.15695989978E+02 -0.22110458309E+02  0.28917173796E+02  0.00000000000E+00 0.  1.
</event>
<event>
 5    1  0.8962782E-005  0.9118800E+02  0.7818608E-02  0.1130116E+00
         25   -1    0    0    0    0  0.00000000000E+00  0.00000000000E+00  0.99999998245E-14  0.12500000000E+03  0.12500000000E+03 0.  0.
        -11    1    3    3    0    0 -0.10297996810E+02  0.39374274656E+02  0.36986848099E+02  0.54994628606E+02  0.51100000000E-03 0.  1.
         23    2    1    0    0    0 -0.13889892343E+02  0.24959909682E+02 -0.16491030961E+01  0.96388014021E+02  0.92043487033E+02 0.  0.
         11    1    3    3    0    0 -0.35918955332E+01 -0.14414364974E+02 -0.38635951195E+02  0.41393385415E+02  0.51100000000E-03 0. -1.
         22    1    1    0    0    0  0.13889892343E+02 -0.24959909682E+02  0.16491030961E+01  0.28611985979E+02  0.00000000000E+00 0.  1.
</event>
<event>
 5    1  0.8962782E-005  0.9118800E+02  0.7818608E-02  0.1130116E+00
         25   -1    0    0    0    0  0.00000000000E+00  0.00000000000E+00  0.99999998245E-14  0.12500000000E+03  0.12500000000E+03 0.  0.
        -11    1    3    3    0    0  0.94108548540E+01  0.49111950104E+02  0.77747470615E+01  0.50606269614E+02  0.51100000000E-03 0.  1.
         23    2    1    0    0    0 -0.38925207820E+01  0.14133778410E+02 -0.22092217892E+02  0.98486201676E+02  0.94850147174E+02 0.  0.
         11    1    3    3    0    0 -0.13303375636E+02 -0.34978171694E+02 -0.29866964954E+02  0.47879932061E+02  0.51100000000E-03 0. -1.
         22    1    1    0    0    0  0.38925207820E+01 -0.14133778410E+02  0.22092217892E+02  0.26513798324E+02  0.00000000000E+00 0. -1.
</event>
<event>
 5    1  0.8962782E-005  0.9118800E+02  0.7818608E-02  0.1130116E+00
         25   -1    0    0    0    0  0.00000000000E+00  0.00000000000E+00  0.99999998245E-14  0.12500000000E+03  0.12500000000E+03 0.  0.
        -11    1    3    3    0    0 -0.35720263356E+02 -0.37899188079E+02  0.63786892993E+01  0.52468784517E+02  0.51100000000E-03 0.  1.
         23    2    1    0    0    0  0.11707388367E+02 -0.16107197291E+02  0.38087635031E+01  0.10472658326E+03  0.10274553915E+03 0.  0.
         11    1    3    3    0    0  0.47427651723E+02  0.21791990789E+02 -0.25699257961E+01  0.52257798742E+02  0.51100000000E-03 0. -1.
         22    1    1    0    0    0 -0.11707388367E+02  0.16107197291E+02 -0.38087635031E+01  0.20273416741E+02  0.00000000000E+00 0. -1.
</event>
<event>
 5    1  0.8962782E-005  0.9118800E+02  0.7818608E-02  0.1130116E+00
         25   -1    0    0    0    0  0.00000000000E+00  0.00000000000E+00  0.99999998245E-14  0.12500000000E+03  0.12500000000E+03 0.  0.
        -11    1    3    3    0    0  0.56127037606E+02 -0.28589719676E+00 -0.24698015843E+02  0.61321432424E+02  0.51100000000E-03 0.  1.
         23    2    1    0    0    0  0.25377708625E+02  0.81829423552E+01 -0.13402757614E+02  0.95156700043E+02  0.90355824443E+02 0.  0.
         11    1    3    3    0    0 -0.30749328981E+02  0.84688395519E+01  0.11295258229E+02  0.33835267619E+02  0.51100000000E-03 0. -1.
         22    1    1    0    0    0 -0.25377708625E+02 -0.81829423552E+01  0.13402757614E+02  0.29843299957E+02  0.00000000000E+00 0.  1.
</event>
<event>
 5    1  0.8962782E-005  0.9118800E+02  0.7818608E-02  0.1130116E+00
         25   -1    0    0    0    0  0.00000000000E+00  0.00000000000E+00  0.99999998245E-14  0.12500000000E+03  0.12500000000E+03 0.  0.
        -11    1    3    3    0    0 -0.45744780533E+02  0.21588782857E+02 -0.32960545137E+02  0.60374315957E+02  0.51100000000E-03 0.  1.
         23    2    1    0    0    0 -0.21676437002E+02  0.83723990193E+01 -0.28556768607E+02  0.88183508862E+02  0.80130376360E+02 0.  0.
         11    1    3    3    0    0  0.24068343531E+02 -0.13216383838E+02  0.44037765306E+01  0.27809192906E+02  0.51100000000E-03 0. -1.
         22    1    1    0    0    0  0.21676437002E+02 -0.83723990193E+01  0.28556768607E+02  0.36816491138E+02  0.00000000000E+00 0.  1.
</event>
<event>
 5    1  0.8962782E-005  0.9118800E+02  0.7818608E-02  0.1130116E+00
         25   -1    0    0    0    0  0.00000000000E+00  0.00000000000E+00  0.99999998245E-14  0.12500000000E+03  0.12500000000E+03 0.  0.
        -11    1    3    3    0    0 -0.26654089127E+02 -0.15759839802E+02 -0.15033075159E+02  0.34421016353E+02  0.51100000000E-03 0.  1.
         23    2    1    0    0    0  0.25881584619E+02  0.13197382930E+02 -0.15422870538E+01  0.95906942616E+02  0.91387830995E+02 0.  0.
         11    1    3    3    0    0  0.52535673747E+02  0.28957222732E+02  0.13490788105E+02  0.61485926262E+02  0.51100000000E-03 0. -1.
         22    1    1    0    0    0 -0.25881584619E+02 -0.13197382930E+02  0.15422870538E+01  0.29093057384E+02  0.00000000000E+00 0. -1.
</event>
<event>
 5    1  0.8962782E-005  0.9118800E+02  0.7818608E-02  0.1130116E+00
         25   -1    0    0    0    0  0.00000000000E+00  0.00000000000E+00  0.99999998245E-14  0.12500000000E+03  0.12500000000E+03 0.  0.
        -11    1    3    3    0    0 -0.26873790363E+02  0.67209877812E+01 -0.54093589676E+02  0.60774079421E+02  0.51100000000E-03 0.  1.
         23    2    1    0    0    0 -0.72697156600E+01 -0.53312315844E+01 -0.28093261065E+02  0.95495727204E+02  0.90823630190E+02 0.  0.
         11    1    3    3    0    0  0.19604074703E+02 -0.12052219366E+02  0.26000328611E+02  0.34721647782E+02  0.51100000000E-03 0. -1.
         22    1    1    0    0    0  0.72697156600E+01  0.53312315844E+01  0.28093261065E+02  0.29504272796E+02  0.00000000000E+00 0.  1.
</event>
<event>
 5    1  0.8962782E-005  0.9118800E+02  0.7818608E-02  0.1130116E+00
         25   -1    0    0    0    0  0.00000000000E+00  0.00000000000E+00  0.99999998245E-14  0.12500000000E+03  0.12500000000E+03 0.  0.
        -11    1    3    3    0    0  0.20262199565E+02  0.75668957551E+01 -0.25584554555E+02  0.33502001054E+02  0.51100000000E-03 0. -1.
         23    2    1    0    0    0 -0.18379155577E+02 -0.46600219731E+01  0.21966568213E+02  0.95982086850E+02  0.91490555319E+02 0.  0.
         11    1    3    3    0    0 -0.38641355142E+02 -0.12226917728E+02  0.47551122768E+02  0.62480085796E+02  0.51100000000E-03 0.  1.
         22    1    1    0    0    0  0.18379155577E+02  0.46600219731E+01 -0.21966568213E+02  0.29017913150E+02  0.00000000000E+00 0.  1.
</event>
<event>
 5    1  0.8962782E-005  0.9118800E+02  0.7818608E-02  0.1130116E+00
         25   -1    0    0    0    0  0.00000000000E+00  0.00000000000E+00  0.99999998245E-14  0.12500000000E+03  0.12500000000E+03 0.  0.
        -11    1    3    3    0    0  0.48390695119E+02 -0.19182919293E+02  0.24028511739E+02  0.57332478957E+02  0.51100000000E-03 0.  1.
         23    2    1    0    0    0  0.13252193081E+02 -0.24329801373E+02  0.93490184842E+01  0.95760232509E+02  0.91186940552E+02 0.  0.
         11    1    3    3    0    0 -0.35138502037E+02 -0.51468820796E+01 -0.14679493255E+02  0.38427753552E+02  0.51100000000E-03 0. -1.
         22    1    1    0    0    0 -0.13252193081E+02  0.24329801373E+02 -0.93490184842E+01  0.29239767491E+02  0.00000000000E+00 0.  1.
</event>
<event>
 5    1  0.8962782E-005  0.9118800E+02  0.7818608E-02  0.1130116E+00
         25   -1    0    0    0    0  0.00000000000E+00  0.00000000000E+00  0.99999998245E-14  0.12500000000E+03  0.12500000000E+03 0.  0.
        -11    1    3    3    0    0  0.46241375307E+02 -0.34602168401E+02  0.22741815154E+02  0.62070645277E+02  0.51100000000E-03 0. -1.
         23    2    1    0    0    0  0.27804205415E+02 -0.15082108659E+02  0.97447177686E+01  0.91901610844E+02  0.85734489624E+02 0.  0.
         11    1    3    3    0    0 -0.18437169893E+02  0.19520059742E+02 -0.12997097385E+02  0.29830965567E+02  0.51100000000E-03 0.  1.
         22    1    1    0    0    0 -0.27804205415E+02  0.15082108659E+02 -0.97447177686E+01  0.33098389156E+02  0.00000000000E+00 0. -1.
</event>
<event>
 5    1  0.8962782E-005  0.9118800E+02  0.7818608E-02  0.1130116E+00
         25   -1    0    0    0    0  0.00000000000E+00  0.00000000000E+00  0.99999998245E-14  0.12500000000E+03  0.12500000000E+03 0.  0.
        -11    1    3    3    0    0  0.92793598619E+01  0.47551151866E+02  0.31418269142E+02  0.57743624751E+02  0.51100000000E-03 0. -1.
         23    2    1    0    0    0 -0.10749247485E+02  0.27678361297E+02  0.84401890433E+01  0.94131329852E+02  0.88925994305E+02 0.  0.
         11    1    3    3    0    0 -0.20028607347E+02 -0.19872790569E+02 -0.22978080099E+02  0.36387705101E+02  0.51100000000E-03 0.  1.
         22    1    1    0    0    0  0.10749247485E+02 -0.27678361297E+02 -0.84401890433E+01  0.30868670148E+02  0.00000000000E+00 0. -1.
</event>
<event>
 5    1  0.8962782E-005  0.9118800E+02  0.7818608E-02  0.1130116E+00
         25   -1    0    0    0    0  0.00000000000E+00  0.00000000000E+00  0.99999998245E-14  0.12500000000E+03  0.12500000000E+03 0.  0.
        -11    1    3    3    0    0  0.12089528868E+02  0.48862888338E+02  0.19511440318E+02  0.53985506096E+02  0.51100000000E-03 0.  1.
         23    2    1    0    0    0 -0.12549403779E+02  0.15663104385E+02  0.21768879569E+02  0.95390803931E+02  0.90679109957E+02 0.  0.
         11    1    3    3    0    0 -0.24638932647E+02 -0.33199783953E+02  0.22574392514E+01  0.41405297834E+02  0.51100000000E-03 0. -1.
         22    1    1    0    0    0  0.12549403779E+02 -0.15663104385E+02 -0.21768879569E+02  0.29609196069E+02  0.00000000000E+00 0.  1.
</event>
<event>
 5    1  0.8962782E-005  0.9118800E+02  0.7818608E-02  0.1130116E+00
         25   -1    0    0    0    0  0.00000000000E+00  0.00000000000E+00  0.99999998245E-14  0.12500000000E+03  0.12500000000E+03 0.  0.
        -11    1    3    3    0    0 -0.21619771945E+01 -0.30152810143E+02 -0.27856290594E+02  0.41107651731E+02  0.51100000000E-03 0.  1.
         23    2    1    0    0    0 -0.26211887184E+02  0.13061862813E+02 -0.63719679060E+01  0.95028726005E+02  0.90178608889E+02 0.  0.
         11    1    3    3    0    0 -0.24049909990E+02  0.43214672956E+02  0.21484322688E+02  0.53921074274E+02  0.51100000000E-03 0. -1.
         22    1    1    0    0    0  0.26211887184E+02 -0.13061862813E+02  0.63719679060E+01  0.29971273995E+02  0.00000000000E+00 0. -1.
</event>
<event>
 5    1  0.8962782E-005  0.9118800E+02  0.7818608E-02  0.1130116E+00
         25   -1    0    0    0    0  0.00000000000E+00  0.00000000000E+00  0.99999998245E-14  0.12500000000E+03  0.12500000000E+03 0.  0.
        -11    1    3    3    0    0  0.91212820772E+01 -0.25248358064E+02  0.30053865766E+02  0.40297794225E+02  0.51100000000E-03 0. -1.
         23    2    1    0    0    0 -0.21288972699E+02  0.16868581859E+02  0.12146455995E+02  0.95245911108E+02  0.90479156589E+02 0.  0.
         11    1    3    3    0    0 -0.30410254777E+02  0.42116939923E+02 -0.17907409771E+02  0.54948116883E+02  0.51100000000E-03 0.  1.
         22    1    1    0    0    0  0.21288972699E+02 -0.16868581859E+02 -0.12146455995E+02  0.29754088892E+02  0.00000000000E+00 0.  1.
</event>
<event>
 5    1  0.8962782E-005  0.9118800E+02  0.7818608E-02  0.1130116E+00
         25   -1    0    0    0    0  0.00000000000E+00  0.00000000000E+00  0.99999998245E-14  0.12500000000E+03  0.12500000000E+03 0.  0.
        -11    1    3    3    0    0  0.49285316728E+02 -0.11064881786E+02 -0.24059985662E+02  0.55949593066E+02  0.51100000000E-03 0. -1.
         23    2    1    0    0    0  0.11192325160E+02 -0.19457933509E+02 -0.19580896593E+02  0.95212572613E+02  0.90433086607E+02 0.  0.
         11    1    3    3    0    0 -0.38092991568E+02 -0.83930517224E+01  0.44790890684E+01  0.39262979547E+02  0.51100000000E-03 0.  1.
         22    1    1    0    0    0 -0.11192325160E+02  0.19457933509E+02  0.19580896593E+02  0.29787427387E+02  0.00000000000E+00 0. -1.
</event>
<event>
 5    1  0.8962782E-005  0.9118800E+02  0.7818608E-02  0.1130116E+00
         25   -1    0    0    0    0  0.00000000000E+00  0.00000000000E+00  0.99999998245E-14  0.12500000000E+03  0.12500000000E+03 0.  0.
        -11    1    3    3    0    0 -0.67620482025E+01 -0.29710817702E+02  0.26703979121E+02  0.40516175604E+02  0.51100000000E-03 0. -1.
         23    2    1    0    0    0  0.13754408001E+01 -0.14791273773E+02 -0.25539605685E+02  0.95454356061E+02  0.90766673484E+02 0.  0.
         11    1    3    3    0    0  0.81374890026E+01  0.14919543929E+02 -0.52243584806E+02  0.54938180457E+02  0.51100000000E-03 0.  1.
         22    1    1    0    0    0 -0.13754408001E+01  0.14791273773E+02  0.25539605685E+02  0.29545643939E+02  0.00000000000E+00 0.  1.
</event>
<event>
 5    1  0.8962782E-005  0.9118800E+02  0.7818608E-02  0.1130116E+00
         25   -1    0    0    0    0  0.00000000000E+00  0.00000000000E+00  0.99999998245E-14  0.12500000000E+03  0.12500000000E+03 0.  0.
        -11    1    3    3    0    0 -0.17337381039E+01 -0.55565406694E+02 -0.16989096964E+02  0.58130454022E+02  0.51100000000E-03 0. -1.
         23    2    1    0    0    0 -0.90233314932E+00 -0.28878879322E+02  0.83342622663E+01  0.94929020576E+02  0.90040297334E+02 0.  0.
         11    1    3    3    0    0  0.83140495458E+00  0.26686527372E+02  0.25323359231E+02  0.36798566553E+02  0.51100000000E-03 0.  1.
         22    1    1    0    0    0  0.90233314932E+00  0.28878879322E+02 -0.83342622663E+01  0.30070979424E+02  0.00000000000E+00 0. -1.
</event>
<event>
 5    1  0.8962782E-005  0.9118800E+02  0.7818608E-02  0.1130116E+00
         25   -1    0    0    0    0  0.00000000000E+00  0.00000000000E+00  0.99999998245E-14  0.12500000000E+03  0.12500000000E+03 0.  0.
        -11    1    3    3    0    0 -0.26023235440E+02  0.33523293643E+02 -0.17134194168E+02  0.45766806853E+02  0.51100000000E-03 0.  1.
         23    2    1    0    0    0 -0.14475525100E+02  0.83688185386E+01  0.24244210718E+02  0.95549028811E+02  0.90896959260E+02 0.  0.
         11    1    3    3    0    0  0.11547710341E+02 -0.25154475104E+02  0.41378404886E+02  0.49782221958E+02  0.51100000000E-03 0. -1.
         22    1    1    0    0    0  0.14475525100E+02 -0.83688185386E+01 -0.24244210718E+02  0.29450971189E+02  0.00000000000E+00 0. -1.
</event>
<event>
 5    1  0.8962782E-005  0.9118800E+02  0.7818608E-02  0.1130116E+00
         25   -1    0    0    0    0  0.00000000000E+00  0.00000000000E+00  0.99999998245E-14  0.12500000000E+03  0.12500000000E+03 0.  0.
        -11    1    3    3    0    0 -0.31966235781E+02 -0.27945899900E-01  0.20292214739E+02  0.37863108565E+02  0.51100000000E-03 0.  1.
         23    2    1    0    0    0  0.22843624740E+02 -0.15669396304E+02  0.79246479012E+01  0.96187481607E+02  0.91770749162E+02 0.  0.
         11    1    3    3    0    0  0.54809860520E+02 -0.15641450404E+02 -0.12367566838E+02  0.58324373042E+02  0.51100000000E-03 0. -1.
         22    1    1    0    0    0 -0.22843624740E+02  0.15669396304E+02 -0.79246479012E+01  0.28812518393E+02  0.00000000000E+00 0. -1.
</event>
<event>
 5    1  0.8962782E-005  0.9118800E+02  0.7818608E-02  0.1130116E+00
         25   -1    0    0    0    0  0.00000000000E+00  0.00000000000E+00  0.99999998245E-14  0.12500000000E+03  0.12500000000E+03 0.  0.
        -11    1    3    3    0    0  0.22870062067E+02 -0.23128082171E+02  0.36734915496E+02  0.49065282437E+02  0.51100000000E-03 0.  1.
         23    2    1    0    0    0  0.45299603395E+01 -0.28870169571E+02 -0.53136457763E+01  0.95297440124E+02  0.90550317675E+02 0.  0.
         11    1    3    3    0    0 -0.18340101728E+02 -0.57420874000E+01 -0.42048561272E+02  0.46232157687E+02  0.51100000000E-03 0. -1.
         22    1    1    0    0    0 -0.45299603395E+01  0.28870169571E+02  0.53136457763E+01  0.29702559876E+02  0.00000000000E+00 0. -1.
</event>
<event>
 5    1  0.8962782E-005  0.9118800E+02  0.7818608E-02  0.1130116E+00
         25   -1    0    0    0    0  0.00000000000E+00  0.00000000000E+00  0.99999998245E-14  0.12500000000E+03  0.12500000000E+03 0.  0.
        -11    1    3    3    0    0  0.29532692609E+02 -0.33710677112E+02 -0.21206814876E+02  0.49581434847E+02  0.51100000000E-03 0. -1.
         23    2    1    0    0    0 -0.12984189901E+02 -0.25868411714E+02 -0.11243866616E+02  0.93948615998E+02  0.88668788192E+02 0.  0.
         11    1    3    3    0    0 -0.42516882510E+02  0.78422653982E+01  0.99629482603E+01  0.44367181150E+02  0.51100000000E-03 0.  1.
         22    1    1    0    0    0  0.12984189901E+02  0.25868411714E+02  0.11243866616E+02  0.31051384002E+02  0.00000000000E+00 0. -1.
</event>
<event>
 5    1  0.8962782E-005  0.9118800E+02  0.7818608E-02  0.1130116E+00
         25   -1    0    0    0    0  0.00000000000E+00  0.00000000000E+00  0.99999998245E-14  0.12500000000E+03  0.12500000000E+03 0.  0.
        -11    1    3    3    0    0 -0.13059431319E+02  0.32796480766E+02 -0.61977067809E+01  0.35840890985E+02  0.51100000000E-03 0.  1.
         23    2    1    0    0    0  0.11172062778E+02 -0.22647822708E+02 -0.12763656412E+02  0.96704244398E+02  0.92471947635E+02 0.  0.
         11    1    3    3    0    0  0.24231494096E+02 -0.55444303474E+02 -0.65659496310E+01  0.60863353413E+02  0.51100000000E-03 0. -1.
         22    1    1    0    0    0 -0.11172062778E+02  0.22647822708E+02  0.12763656412E+02  0.28295755602E+02  0.00000000000E+00 0. -1.
</event>
<event>
 5    1  0.8962782E-005  0.9118800E+02  0.7818608E-02  0.1130116E+00
         25   -1    0    0    0    0  0.00000000000E+00  0.00000000000E+00  0.99999998245E-14  0.12500000000E+03  0.12500000000E+03 0.  0.
        -11    1    3    3    0    0 -0.58095918209E+01 -0.59101142861E+02 -0.16107337013E+02  0.61531640239E+02  0.51100000000E-03 0.  1.
         23    2    1    0    0    0 -0.10332817638E+02 -0.26707469075E+02 -0.87438703012E+01  0.95058201581E+02  0.90219456855E+02 0.  0.
         11    1    3    3    0    0 -0.45232258173E+01  0.32393673786E+02  0.73634667113E+01  0.33526561342E+02  0.51100000000E-03 0. -1.
         22    1    1    0    0    0  0.10332817638E+02  0.26707469075E+02  0.87438703012E+01  0.29941798419E+02  0.00000000000E+00 0.  1.
</event>
<event>
 5    1  0.8962782E-005  0.9118800E+02  0.7818608E-02  0.1130116E+00
         25   -1    0    0    0    0  0.00000000000E+00  0.00000000000E+00  0.99999998245E-14  0.12500000000E+03  0.12500000000E+03 0.  0.
        -11    1    3    3    0    0  0.54107451011E+02 -0.40496767220E+01 -0.17110520248E+02  0.56892759117E+02  0.51100000000E-03 0.  1.
         23    2    1    0    0    0  0.22354068374E+02  0.16638368110E+02 -0.95870715698E+01  0.95530496992E+02  0.90871471035E+02 0.  0.
         11    1    3    3    0    0 -0.31753382637E+02  0.20688044832E+02  0.75234486779E+01  0.38637737876E+02  0.51100000000E-03 0. -1.
         22    1    1    0    0    0 -0.22354068374E+02 -0.16638368110E+02  0.95870715698E+01  0.29469503008E+02  0.00000000000E+00 0.  1.
</event>
<event>
 5    1  0.8962782E-005  0.9118800E+02  0.7818608E-02  0.1130116E+00
         25   -1    0    0    0    0  0.00000000000E+00  0.00000000000E+00  0.99999998245E-14  0.12500000000E+03  0.12500000000E+03 0.  0.
        -11    1    3    3    0    0  0.22655239439E+02  0.13375243842E+02  0.37055901010E+02  0.45445536874E+02  0.51100000000E-03 0.  1.
         23    2    1    0    0    0 -0.19184293518E+02  0.19208180013E+02  0.80683179514E+01  0.96678823263E+02  0.92437577942E+02 0.  0.
         11    1    3    3    0    0 -0.41839532957E+02  0.58329361708E+01 -0.28987583058E+02  0.51233286389E+02  0.51100000000E-03 0. -1.
         22    1    1    0    0    0  0.19184293518E+02 -0.19208180013E+02 -0.80683179514E+01  0.28321176737E+02  0.00000000000E+00 0. -1.
</event>
<event>
 5    1  0.8962782E-005  0.9118800E+02  0.7818608E-02  0.1130116E+00
         25   -1    0    0    0    0  0.00000000000E+00  0.00000000000E+00  0.99999998245E-14  0.12500000000E+03  0.12500000000E+03 0.  0.
        -11    1    3    3    0    0  0.20062678198E+02  0.18106243099E+02  0.38448470187E+02  0.46996084471E+02  0.51100000000E-03 0.  1.
         23    2    1    0    0    0 -0.10092398284E+02 -0.16462467554E+02  0.21997293659E+02  0.95729703291E+02  0.91145081177E+02 0.  0.
         11    1    3    3    0    0 -0.30155076482E+02 -0.34568710653E+02 -0.16451176528E+02  0.48733618820E+02  0.51100000000E-03 0. -1.
         22    1    1    0    0    0  0.10092398284E+02  0.16462467554E+02 -0.21997293659E+02  0.29270296709E+02  0.00000000000E+00 0. -1.
</event>
<event>
 5    1  0.8962782E-005  0.9118800E+02  0.7818608E-02  0.1130116E+00
         25   -1    0    0    0    0  0.00000000000E+00  0.00000000000E+00  0.99999998245E-14  0.12500000000E+03  0.12500000000E+03 0.  0.
        -11    1    3    3    0    0 -0.17592915090E+02 -0.22323256527E+02 -0.51226525996E+02  0.58583234881E+02  0.51100000000E-03 0. -1.
         23    2    1    0    0    0 -0.16994982215E+02  0.25672971187E+01 -0.24036414187E+02  0.95450555979E+02  0.90761440021E+02 0.  0.
         11    1    3    3    0    0  0.59793287461E+00  0.24890553645E+02  0.27190111808E+02  0.36867321098E+02  0.51100000000E-03 0.  1.
         22    1    1    0    0    0  0.16994982215E+02 -0.25672971187E+01  0.24036414187E+02  0.29549444021E+02  0.00000000000E+00 0. -1.
</event>
<event>
 5    1  0.8962782E-005  0.9118800E+02  0.7818608E-02  0.1130116E+00
         25   -1    0    0    0    0  0.00000000000E+00  0.00000000000E+00  0.99999998245E-14  0.12500000000E+03  0.12500000000E+03 0.  0.
        -11    1    3    3    0    0 -0.22357517933E+02 -0.51677612877E+02  0.18775438406E+02  0.59354455338E+02  0.51100000000E-03 0.  1.
         23    2    1    0    0    0 -0.14735353705E+02 -0.15357634990E+02  0.19004816875E+02  0.96466324006E+02  0.92149774832E+02 0.  0.
         11    1    3    3    0    0  0.76221642287E+01  0.36319977888E+02  0.22937846908E+00  0.37111868668E+02  0.51100000000E-03 0. -1.
         22    1    1    0    0    0  0.14735353705E+02  0.15357634990E+02 -0.19004816875E+02  0.28533675994E+02  0.00000000000E+00 0.  1.
</event>
<event>
 5    1  0.8962782E-005  0.9118800E+02  0.7818608E-02  0.1130116E+00
         25   -1    0    0    0    0  0.00000000000E+00  0.00000000000E+00  0.99999998245E-14  0.12500000000E+03  0.12500000000E+03 0.  0.
        -11    1    3    3    0    0 -0.11359831602E+02 -0.53198452276E+02 -0.29433660877E+02  0.61850315209E+02  0.51100000000E-03 0.  1.
         23    2    1    0    0    0 -0.90114492748E+01 -0.22026378295E+02 -0.18095032097E+02  0.95103549618E+02  0.90282265172E+02 0.  0.
         11    1    3    3    0    0  0.23483823273E+01  0.31172073980E+02  0.11338628781E+02  0.33253234409E+02  0.51100000000E-03 0. -1.
         22    1    1    0    0    0  0.90114492748E+01  0.22026378295E+02  0.18095032097E+02  0.29896450382E+02  0.00000000000E+00 0.  1.
</event>
<event>
 5    1  0.8962782E-005  0.9118800E+02  0.7818608E-02  0.1130116E+00
         25   -1    0    0    0    0  0.00000000000E+00  0.00000000000E+00  0.99999998245E-14  0.12500000000E+03  0.12500000000E+03 0.  0.
        -11    1    3    3    0    0 -0.21708048953E+02 -0.41236079132E+02  0.80078918536E+01  0.47284034765E+02  0.51100000000E-03 0.  1.
         23    2    1    0    0    0 -0.28104002148E+02  0.64183680286E+01  0.68014489630E+01  0.95380916745E+02  0.90665479573E+02 0.  0.
         11    1    3    3    0    0 -0.63959531953E+01  0.47654447160E+02 -0.12064428906E+01  0.48096881979E+02  0.51100000000E-03 0. -1.
         22    1    1    0    0    0  0.28104002148E+02 -0.64183680286E+01 -0.68014489630E+01  0.29619083255E+02  0.00000000000E+00 0. -1.
</event>
<event>
 5    1  0.8962782E-005  0.9118800E+02  0.7818608E-02  0.1130116E+00
         25   -1    0    0    0    0  0.00000000000E+00  0.00000000000E+00  0.99999998245E-14  0.12500000000E+03  0.12500000000E+03 0.  0.
        -11    1    3    3    0    0 -0.38580923364E+02  0.10785177697E+01  0.47850340140E+02  0.61476059568E+02  0.51100000000E-03 0.  1.
         23    2    1    0    0    0 -0.20762947594E+02 -0.69530573683E+01  0.21222930191E+02  0.94506430753E+02  0.89451705898E+02 0.  0.
         11    1    3    3    0    0  0.17817975770E+02 -0.80315751380E+01 -0.26627409949E+02  0.33030371185E+02  0.51100000000E-03 0. -1.
         22    1    1    0    0    0  0.20762947594E+02  0.69530573683E+01 -0.21222930191E+02  0.30493569247E+02  0.00000000000E+00 0.  1.
</event>
<event>
 5    1  0.8962782E-005  0.9118800E+02  0.7818608E-02  0.1130116E+00
         25   -1    0    0    0    0  0.00000000000E+00  0.00000000000E+00  0.99999998245E-14  0.12500000000E+03  0.12500000000E+03 0.  0.
        -11    1    3    3    0    0  0.85194482563E+00  0.19024301909E+01 -0.40224987423E+02  0.40278960563E+02  0.51100000000E-03 0. -1.
         23    2    1    0    0    0  0.18600494965E+02 -0.18169848083E+02  0.99492623195E+01  0.97159209548E+02  0.93084920298E+02 0.  0.
         11    1    3    3    0    0  0.17748550139E+02 -0.20072278274E+02  0.50174249742E+02  0.56880248985E+02  0.51100000000E-03 0.  1.
         22    1    1    0    0    0 -0.18600494965E+02  0.18169848083E+02 -0.99492623195E+01  0.27840790452E+02  0.00000000000E+00 0.  1.
</event>
<event>
 5    1  0.8962782E-005  0.9118800E+02  0.7818608E-02  0.1130116E+00
         25   -1    0    0    0    0  0.00000000000E+00  0.00000000000E+00  0.99999998245E-14  0.12500000000E+03  0.12500000000E+03 0.  0.
        -11    1    3    3    0    0 -0.30631462735E+02  0.24711737355E+02 -0.39609587422E+00  0.39358777479E+02  0.51100000000E-03 0.  1.
         23    2    1    0    0    0  0.12056389335E+02 -0.31079674273E+01 -0.25844195525E+02  0.96313096583E+02  0.91941688835E+02 0.  0.
         11    1    3    3    0    0  0.42687852070E+02 -0.27819704783E+02 -0.25448099651E+02  0.56954319104E+02  0.51100000000E-03 0. -1.
         22    1    1    0    0    0 -0.12056389335E+02  0.31079674273E+01  0.25844195525E+02  0.28686903417E+02  0.00000000000E+00 0. -1.
</event>
<event>
 5    1  0.8962782E-005  0.9118800E+02  0.7818608E-02  0.1130116E+00
         25   -1    0    0    0    0  0.00000000000E+00  0.00000000000E+00  0.99999998245E-14  0.12500000000E+03  0.12500000000E+03 0.  0.
        -11    1    3    3    0    0 -0.26034020558E+02  0.15517527072E+02  0.26878701177E+02  0.40509609355E+02  0.51100000000E-03 0.  1.
         23    2    1    0    0    0  0.80063003989E+01  0.23301924618E+02 -0.15858603665E+02  0.95698535068E+02  0.91102325804E+02 0.  0.
         11    1    3    3    0    0  0.34040320957E+02  0.77843975454E+01 -0.42737304842E+02  0.55188925713E+02  0.51100000000E-03 0. -1.
         22    1    1    0    0    0 -0.80063003989E+01 -0.23301924618E+02  0.15858603665E+02  0.29301464932E+02  0.00000000000E+00 0. -1.
</event>
<event>
 5    1  0.8962782E-005  0.9118800E+02  0.7818608E-02  0.1130116E+00
         25   -1    0    0    0    0  0.00000000000E+00  0.00000000000E+00  0.99999998245E-14  0.12500000000E+03  0.12500000000E+03 0.  0.
        -11    1    3    3    0    0 -0.14089756694E+02 -0.55907020386E+02  0.14690024209E+02  0.59497167863E+02  0.51100000000E-03 0.  1.
         23    2    1    0    0    0 -0.50131125047E+01 -0.17347866252E+02  0.18320296758E+02  0.99276216574E+02  0.95885630537E+02 0.  0.
         11    1    3    3    0    0  0.90766441892E+01  0.38559154135E+02  0.36302725489E+01  0.39779048711E+02  0.51100000000E-03 0. -1.
         22    1    1    0    0    0  0.50131125047E+01  0.17347866252E+02 -0.18320296758E+02  0.25723783426E+02  0.00000000000E+00 0.  1.
</event>
<event>
 5    1  0.8962782E-005  0.9118800E+02  0.7818608E-02  0.1130116E+00
         25   -1    0    0    0    0  0.00000000000E+00  0.00000000000E+00  0.99999998245E-14  0.12500000000E+03  0.12500000000E+03 0.  0.
        -11    1    3    3    0    0  0.99411962988E+01  0.27753054329E+02  0.10823974419E+02  0.31404105320E+02  0.51100000000E-03 0.  1.
         23    2    1    0    0    0 -0.22264916277E+02 -0.23199670796E+02  0.85627277906E+01  0.91724310239E+02  0.85475596282E+02 0.  0.
         11    1    3    3    0    0 -0.32206112576E+02 -0.50952725125E+02 -0.22612466284E+01  0.60320204919E+02  0.51100000000E-03 0. -1.
         22    1    1    0    0    0  0.22264916277E+02  0.23199670796E+02 -0.85627277906E+01  0.33275689761E+02  0.00000000000E+00 0. -1.
</event>
<event>
 5    1  0.8962782E-005  0.9118800E+02  0.7818608E-02  0.1130116E+00
         25   -1    0    0    0    0  0.00000000000E+00  0.00000000000E+00  0.99999998245E-14  0.12500000000E+03  0.12500000000E+03 0.  0.
        -11    1    3    3    0    0  0.35355579127E+01  0.20983847079E+02  0.36302682386E+02  0.42079766595E+02  0.51100000000E-03 0.  1.
         23    2    1    0    0    0 -0.26379513503E+02  0.54230903960E+01 -0.72019276501E+01  0.97122474931E+02  0.93035577779E+02 0.  0.
         11    1    3    3    0    0 -0.29915071416E+02 -0.15560756683E+02 -0.43504610036E+02  0.55042708336E+02  0.51100000000E-03 0. -1.
         22    1    1    0    0    0  0.26379513503E+02 -0.54230903960E+01  0.72019276501E+01  0.27877525069E+02  0.00000000000E+00 0.  1.
</event>
<event>
 5    1  0.8962782E-005  0.9118800E+02  0.7818608E-02  0.1130116E+00
         25   -1    0    0    0    0  0.00000000000E+00  0.00000000000E+00  0.99999998245E-14  0.12500000000E+03  0.12500000000E+03 0.  0.
        -11    1    3    3    0    0  0.25889230961E+02  0.44125252839E+01 -0.48166398276E+01  0.26700611952E+02  0.51100000000E-03 0. -1.
         23    2    1    0    0    0 -0.35743454023E+02  0.70527160166E+01 -0.13604943238E+00  0.88567132721E+02  0.80726595248E+02 0.  0.
         11    1    3    3    0    0 -0.61632684984E+02  0.26401907327E+01  0.46805903952E+01  0.61866520769E+02  0.51100000000E-03 0.  1.
         22    1    1    0    0    0  0.35743454023E+02 -0.70527160166E+01  0.13604943238E+00  0.36432867279E+02  0.00000000000E+00 0.  1.
</event>
<event>
 5    1  0.8962782E-005  0.9118800E+02  0.7818608E-02  0.1130116E+00
         25   -1    0    0    0    0  0.00000000000E+00  0.00000000000E+00  0.99999998245E-14  0.12500000000E+03  0.12500000000E+03 0.  0.
        -11    1    3    3    0    0 -0.27570498751E+02 -0.14007653836E+02 -0.23202116156E+01  0.31011774370E+02  0.51100000000E-03 0. -1.
         23    2    1    0    0    0  0.24110577442E+02  0.20525607072E+02  0.16284650956E+01  0.93293969204E+02  0.87741052542E+02 0.  0.
         11    1    3    3    0    0  0.51681076193E+02  0.34533260907E+02  0.39486767112E+01  0.62282194834E+02  0.51100000000E-03 0.  1.
         22    1    1    0    0    0 -0.24110577442E+02 -0.20525607072E+02 -0.16284650956E+01  0.31706030796E+02  0.00000000000E+00 0.  1.
</event>
<event>
 5    1  0.8962782E-005  0.9118800E+02  0.7818608E-02  0.1130116E+00
         25   -1    0    0    0    0  0.00000000000E+00  0.00000000000E+00  0.99999998245E-14  0.12500000000E+03  0.12500000000E+03 0.  0.
        -11    1    3    3    0    0 -0.32045608014E+02  0.11737571026E+02  0.34090165875E+02  0.48237236407E+02  0.51100000000E-03 0.  1.
         23    2    1    0    0    0  0.15345730899E+01 -0.18625738150E+02  0.23932661097E+02  0.94634801114E+02  0.89630911401E+02 0.  0.
         11    1    3    3    0    0  0.33580181104E+02 -0.30363309177E+02 -0.10157504778E+02  0.46397564707E+02  0.51100000000E-03 0. -1.
         22    1    1    0    0    0 -0.15345730899E+01  0.18625738150E+02 -0.23932661097E+02  0.30365198886E+02  0.00000000000E+00 0.  1.
</event>
<event>
 5    1  0.8962782E-005  0.9118800E+02  0.7818608E-02  0.1130116E+00
         25   -1    0    0    0    0  0.00000000000E+00  0.00000000000E+00  0.99999998245E-14  0.12500000000E+03  0.12500000000E+03 0.  0.
        -11    1    3    3    0    0 -0.10073327370E+02  0.34287483575E+02 -0.37729059103E+01  0.35935195471E+02  0.51100000000E-03 0.  1.
         23    2    1    0    0    0 -0.19660275554E+02 -0.17550956568E+02  0.18119327638E+02  0.93017621330E+02  0.87346467201E+02 0.  0.
         11    1    3    3    0    0 -0.95869481835E+01 -0.51838440144E+02  0.21892233549E+02  0.57082425860E+02  0.51100000000E-03 0. -1.
         22    1    1    0    0    0  0.19660275554E+02  0.17550956568E+02 -0.18119327638E+02  0.31982378670E+02  0.00000000000E+00 0. -1.
</event>
<event>
 5    1  0.8962782E-005  0.9118800E+02  0.7818608E-02  0.1130116E+00
         25   -1    0    0    0    0  0.00000000000E+00  0.00000000000E+00  0.99999998245E-14  0.12500000000E+03  0.12500000000E+03 0.  0.
        -11    1    3    3    0    0  0.47156565612E+02 -0.26565771124E+02 -0.29779214014E+02  0.61776075169E+02  0.51100000000E-03 0.  1.
         23    2    1    0    0    0  0.19801662599E+02 -0.99568587360E+01 -0.19750222620E+02  0.95313030281E+02  0.90571836517E+02 0.  0.
         11    1    3    3    0    0 -0.27354903013E+02  0.16608912388E+02  0.10028991393E+02  0.33536955112E+02  0.51100000000E-03 0. -1.
         22    1    1    0    0    0 -0.19801662599E+02  0.99568587360E+01  0.19750222620E+02  0.29686969719E+02  0.00000000000E+00 0.  1.
</event>
<event>
 5    1  0.8962782E-005  0.9118800E+02  0.7818608E-02  0.1130116E+00
         25   -1    0    0    0    0  0.00000000000E+00  0.00000000000E+00  0.99999998245E-14  0.12500000000E+03  0.12500000000E+03 0.  0.
        -11    1    3    3    0    0  0.12445043683E+02  0.29555018491E+01  0.31565032590E+02  0.34058264579E+02  0.51100000000E-03 0.  1.
         23    2    1    0    0    0 -0.20645108016E+02 -0.49239163758E+01 -0.20003450464E+02  0.95834892973E+02  0.91289228517E+02 0.  0.
         11    1    3    3    0    0 -0.33090151699E+02 -0.78794182250E+01 -0.51568483054E+02  0.61776628394E+02  0.51100000000E-03 0. -1.
         22    1    1    0    0    0  0.20645108016E+02  0.49239163758E+01  0.20003450464E+02  0.29165107027E+02  0.00000000000E+00 0. -1.
</event>
<event>
 5    1  0.8962782E-005  0.9118800E+02  0.7818608E-02  0.1130116E+00
         25   -1    0    0    0    0  0.00000000000E+00  0.00000000000E+00  0.99999998245E-14  0.12500000000E+03  0.12500000000E+03 0.  0.
        -11    1    3    3    0    0  0.30277290019E+01 -0.34013452765E+02  0.77285511388E+01  0.35011606859E+02  0.51100000000E-03 0. -1.
         23    2    1    0    0    0 -0.19620176119E+01  0.26732020474E+02  0.10947522063E+02  0.96046612097E+02  0.91578671230E+02 0.  0.
         11    1    3    3    0    0 -0.49897466138E+01  0.60745473239E+02  0.32189709243E+01  0.61035005238E+02  0.51100000000E-03 0.  1.
         22    1    1    0    0    0  0.19620176119E+01 -0.26732020474E+02 -0.10947522063E+02  0.28953387903E+02  0.00000000000E+00 0.  1.
</event>
<event>
 5    1  0.8962782E-005  0.9118800E+02  0.7818608E-02  0.1130116E+00
         25   -1    0    0    0    0  0.00000000000E+00  0.00000000000E+00  0.99999998245E-14  0.12500000000E+03  0.12500000000E+03 0.  0.
        -11    1    3    3    0    0  0.25185262783E+02  0.31731699551E+02 -0.73122933671E+01  0.41166343685E+02  0.51100000000E-03 0.  1.
         23    2    1    0    0    0  0.81511161961E+01 -0.21491326991E+02 -0.14968059586E+02  0.97570806814E+02  0.93636006448E+02 0.  0.
         11    1    3    3    0    0 -0.17034146587E+02 -0.53223026542E+02 -0.76557662187E+01  0.56404463129E+02  0.51100000000E-03 0. -1.
         22    1    1    0    0    0 -0.81511161961E+01  0.21491326991E+02  0.14968059586E+02  0.27429193186E+02  0.00000000000E+00 0. -1.
</event>
<event>
 5    1  0.8962782E-005  0.9118800E+02  0.7818608E-02  0.1130116E+00
         25   -1    0    0    0    0  0.00000000000E+00  0.00000000000E+00  0.99999998245E-14  0.12500000000E+03  0.12500000000E+03 0.  0.
        -11    1    3    3    0    0  0.99872077993E+01 -0.29482169808E+02 -0.18534874824E+02  0.36228224373E+02  0.51100000000E-03 0. -1.
         23    2    1    0    0    0 -0.13563436552E+01  0.28041624005E+02 -0.80931940516E+01  0.95782331803E+02  0.91217229462E+02 0.  0.
         11    1    3    3    0    0 -0.11343551454E+02  0.57523793813E+02  0.10441680772E+02  0.59554107430E+02  0.51100000000E-03 0.  1.
         22    1    1    0    0    0  0.13563436552E+01 -0.28041624005E+02  0.80931940516E+01  0.29217668197E+02  0.00000000000E+00 0.  1.
</event>
<event>
 5    1  0.8962782E-005  0.9118800E+02  0.7818608E-02  0.1130116E+00
         25   -1    0    0    0    0  0.00000000000E+00  0.00000000000E+00  0.99999998245E-14  0.12500000000E+03  0.12500000000E+03 0.  0.
        -11    1    3    3    0    0  0.10879722533E+02  0.26953641350E+02  0.24535649013E+02  0.38037681543E+02  0.51100000000E-03 0.  1.
         23    2    1    0    0    0 -0.29067472505E+02  0.46599863459E+01 -0.83755395680E+01  0.94393087486E+02  0.89293179311E+02 0.  0.
         11    1    3    3    0    0 -0.39947195039E+02 -0.22293655005E+02 -0.32911188581E+02  0.56355405943E+02  0.51100000000E-03 0. -1.
         22    1    1    0    0    0  0.29067472505E+02 -0.46599863459E+01  0.83755395680E+01  0.30606912514E+02  0.00000000000E+00 0. -1.
</event>
<event>
 5    1  0.8962782E-005  0.9118800E+02  0.7818608E-02  0.1130116E+00
         25   -1    0    0    0    0  0.00000000000E+00  0.00000000000E+00  0.99999998245E-14  0.12500000000E+03  0.12500000000E+03 0.  0.
        -11    1    3    3    0    0 -0.44693476957E+02 -0.15222782914E+02  0.21646056074E+02  0.51940270947E+02  0.51100000000E-03 0.  1.
         23    2    1    0    0    0 -0.13858348424E+02  0.12601046912E+02  0.25173467840E+02  0.93622560853E+02  0.88207937359E+02 0.  0.
         11    1    3    3    0    0  0.30835128533E+02  0.27823829826E+02  0.35274117662E+01  0.41682289906E+02  0.51100000000E-03 0. -1.
         22    1    1    0    0    0  0.13858348424E+02 -0.12601046912E+02 -0.25173467840E+02  0.31377439147E+02  0.00000000000E+00 0.  1.
</event>
<event>
 5    1  0.8962782E-005  0.9118800E+02  0.7818608E-02  0.1130116E+00
         25   -1    0    0    0    0  0.00000000000E+00  0.00000000000E+00  0.99999998245E-14  0.12500000000E+03  0.12500000000E+03 0.  0.
        -11    1    3    3    0    0 -0.40881903195E+02 -0.14325920084E+02  0.16964891357E+02  0.46522785107E+02  0.51100000000E-03 0. -1.
         23    2    1    0    0    0  0.78812465982E+01 -0.21014943905E+02  0.18719671972E+02  0.95773846747E+02  0.91205601180E+02 0.  0.
         11    1    3    3    0    0  0.48763149793E+02 -0.66890238211E+01  0.17547806147E+01  0.49251061640E+02  0.51100000000E-03 0.  1.
         22    1    1    0    0    0 -0.78812465982E+01  0.21014943905E+02 -0.18719671972E+02  0.29226153253E+02  0.00000000000E+00 0. -1.
</event>
<event>
 5    1  0.8962782E-005  0.9118800E+02  0.7818608E-02  0.1130116E+00
         25   -1    0    0    0    0  0.00000000000E+00  0.00000000000E+00  0.99999998245E-14  0.12500000000E+03  0.12500000000E+03 0.  0.
        -11    1    3    3    0    0 -0.55826848309E+01 -0.10244421380E+02 -0.43740134355E+02  0.45269348272E+02  0.51100000000E-03 0.  1.
         23    2    1    0    0    0 -0.27286880222E+02  0.10919316282E+02 -0.38693542333E+01  0.95355823464E+02  0.90630877001E+02 0.  0.
         11    1    3    3    0    0 -0.21704195391E+02  0.21163737661E+02  0.39870780122E+02  0.50086475192E+02  0.51100000000E-03 0. -1.
         22    1    1    0    0    0  0.27286880222E+02 -0.10919316282E+02  0.38693542333E+01  0.29644176536E+02  0.00000000000E+00 0. -1.
</event>
<event>
 5    1  0.8962782E-005  0.9118800E+02  0.7818608E-02  0.1130116E+00
         25   -1    0    0    0    0  0.00000000000E+00  0.00000000000E+00  0.99999998245E-14  0.12500000000E+03  0.12500000000E+03 0.  0.
        -11    1    3    3    0    0  0.19880262542E+02 -0.20301259125E+02 -0.19081491412E+02  0.34226733346E+02  0.51100000000E-03 0.  1.
         23    2    1    0    0    0 -0.21943134997E+01  0.30295729650E+02  0.45703941763E+01  0.94282989246E+02  0.89138921417E+02 0.  0.
         11    1    3    3    0    0 -0.22074576041E+02  0.50596988775E+02  0.23651885588E+02  0.60056255899E+02  0.51100000000E-03 0. -1.
         22    1    1    0    0    0  0.21943134997E+01 -0.30295729650E+02 -0.45703941763E+01  0.30717010754E+02  0.00000000000E+00 0. -1.
</event>
<event>
 5    1  0.8962782E-005  0.9118800E+02  0.7818608E-02  0.1130116E+00
         25   -1    0    0    0    0  0.00000000000E+00  0.00000000000E+00  0.99999998245E-14  0.12500000000E+03  0.12500000000E+03 0.  0.
        -11    1    3    3    0    0  0.12309575466E+02 -0.79712012832E+01  0.55447065672E+02  0.57353664137E+02  0.51100000000E-03 0. -1.
         23    2    1    0    0    0  0.23847497392E+02 -0.90750055702E+01  0.28165213586E+02  0.86995551388E+02  0.78255273604E+02 0.  0.
         11    1    3    3    0    0  0.11537921926E+02 -0.11038042870E+01 -0.27281852086E+02  0.29641887251E+02  0.51100000000E-03 0.  1.
         22    1    1    0    0    0 -0.23847497392E+02  0.90750055702E+01 -0.28165213586E+02  0.38004448612E+02  0.00000000000E+00 0. -1.
</event>
<event>
 5    1  0.8962782E-005  0.9118800E+02  0.7818608E-02  0.1130116E+00
         25   -1    0    0    0    0  0.00000000000E+00  0.00000000000E+00  0.99999998245E-14  0.12500000000E+03  0.12500000000E+03 0.  0.
        -11    1    3    3    0    0  0.22563712778E+02  0.32978547531E+02 -0.11884700320E+02  0.41688749484E+02  0.51100000000E-03 0.  1.
         23    2    1    0    0    0  0.10450265970E+00 -0.10985658497E+02 -0.29038561563E+02  0.93952718781E+02  0.88674571864E+02 0.  0.
         11    1    3    3    0    0 -0.22459210119E+02 -0.43964206028E+02 -0.17153861243E+02  0.52263969297E+02  0.51100000000E-03 0. -1.
         22    1    1    0    0    0 -0.10450265970E+00  0.10985658497E+02  0.29038561563E+02  0.31047281219E+02  0.00000000000E+00 0. -1.
</event>
<event>
 5    1  0.8962782E-005  0.9118800E+02  0.7818608E-02  0.1130116E+00
         25   -1    0    0    0    0  0.00000000000E+00  0.00000000000E+00  0.99999998245E-14  0.12500000000E+03  0.12500000000E+03 0.  0.
        -11    1    3    3    0    0 -0.45618713237E+01  0.30270359935E+02  0.93213415128E+01  0.31999887007E+02  0.51100000000E-03 0.  1.
         23    2    1    0    0    0  0.70108549111E+01 -0.28347324417E+02  0.15274683163E+02  0.92044896694E+02  0.85943145006E+02 0.  0.
         11    1    3    3    0    0  0.11572726235E+02 -0.58617684352E+02  0.59533416497E+01  0.60045009687E+02  0.51100000000E-03 0. -1.
         22    1    1    0    0    0 -0.70108549111E+01  0.28347324417E+02 -0.15274683163E+02  0.32955103306E+02  0.00000000000E+00 0. -1.
</event>
<event>
 5    1  0.8962782E-005  0.9118800E+02  0.7818608E-02  0.1130116E+00
         25   -1    0    0    0    0  0.00000000000E+00  0.00000000000E+00  0.99999998245E-14  0.12500000000E+03  0.12500000000E+03 0.  0.
        -11    1    3    3    0    0 -0.36661686968E+02  0.44880679255E+02  0.14851644271E+01  0.57970340480E+02  0.51100000000E-03 0.  1.
         23    2    1    0    0    0 -0.36515317638E+01  0.30527804176E+02  0.36935999350E+01  0.94033515012E+02  0.88788393121E+02 0.  0.
         11    1    3    3    0    0  0.33010155204E+02 -0.14352875079E+02  0.22084355079E+01  0.36063174532E+02  0.51100000000E-03 0. -1.
         22    1    1    0    0    0  0.36515317638E+01 -0.30527804176E+02 -0.36935999350E+01  0.30966484988E+02  0.00000000000E+00 0.  1.
</event>
<event>
 5    1  0.8962782E-005  0.9118800E+02  0.7818608E-02  0.1130116E+00
         25   -1    0    0    0    0  0.00000000000E+00  0.00000000000E+00  0.99999998245E-14  0.12500000000E+03  0.12500000000E+03 0.  0.
        -11    1    3    3    0    0  0.17650484808E+02 -0.31374164187E+02 -0.50612080583E+02  0.62108457505E+02  0.51100000000E-03 0.  1.
         23    2    1    0    0    0  0.10852326384E+02 -0.17470190695E+02 -0.20519327722E+02  0.95947919850E+02  0.91443862356E+02 0.  0.
         11    1    3    3    0    0 -0.67981584235E+01  0.13903973492E+02  0.30092752861E+02  0.33839462346E+02  0.51100000000E-03 0. -1.
         22    1    1    0    0    0 -0.10852326384E+02  0.17470190695E+02  0.20519327722E+02  0.29052080150E+02  0.00000000000E+00 0.  1.
</event>
<event>
 5    1  0.8962782E-005  0.9118800E+02  0.7818608E-02  0.1130116E+00
         25   -1    0    0    0    0  0.00000000000E+00  0.00000000000E+00  0.99999998245E-14  0.12500000000E+03  0.12500000000E+03 0.  0.
        -11    1    3    3    0    0 -0.11638429631E+02 -0.37791384305E+02  0.26147994620E+02  0.47406322309E+02  0.51100000000E-03 0.  1.
         23    2    1    0    0    0 -0.91395948737E+01 -0.36675477839E+02 -0.11762071025E+02  0.85415038412E+02  0.75688569831E+02 0.  0.
         11    1    3    3    0    0  0.24988347569E+01  0.11159064664E+01 -0.37910065644E+02  0.38008716103E+02  0.51100000000E-03 0. -1.
         22    1    1    0    0    0  0.91395948737E+01  0.36675477839E+02  0.11762071025E+02  0.39584961588E+02  0.00000000000E+00 0. -1.
</event>
<event>
 5    1  0.8962782E-005  0.9118800E+02  0.7818608E-02  0.1130116E+00
         25   -1    0    0    0    0  0.00000000000E+00  0.00000000000E+00  0.99999998245E-14  0.12500000000E+03  0.12500000000E+03 0.  0.
        -11    1    3    3    0    0 -0.44684873184E+02 -0.20756661326E+02  0.30031129209E+02  0.57701348361E+02  0.51100000000E-03 0.  1.
         23    2    1    0    0    0 -0.24636560511E+02  0.62064898948E+01  0.63370222232E+01  0.98815300626E+02  0.95282869166E+02 0.  0.
         11    1    3    3    0    0  0.20048312673E+02  0.26963151220E+02 -0.23694106986E+02  0.41113952265E+02  0.51100000000E-03 0. -1.
         22    1    1    0    0    0  0.24636560511E+02 -0.62064898948E+01 -0.63370222232E+01  0.26184699374E+02  0.00000000000E+00 0.  1.
</event>
<event>
 5    1  0.8962782E-005  0.9118800E+02  0.7818608E-02  0.1130116E+00
         25   -1    0    0    0    0  0.00000000000E+00  0.00000000000E+00  0.99999998245E-14  0.12500000000E+03  0.12500000000E+03 0.  0.
        -11    1    3    3    0    0  0.95427853714E+01  0.29119510415E+02 -0.35896798020E+02  0.47197359543E+02  0.51100000000E-03 0. -1.
         23    2    1    0    0    0 -0.25768629700E+02  0.12496543788E+02 -0.77055932179E+01  0.95342588614E+02  0.90612621381E+02 0.  0.
         11    1    3    3    0    0 -0.35311415072E+02 -0.16622966627E+02  0.28191204802E+02  0.48145229071E+02  0.51100000000E-03 0.  1.
         22    1    1    0    0    0  0.25768629700E+02 -0.12496543788E+02  0.77055932179E+01  0.29657411386E+02  0.00000000000E+00 0.  1.
</event>
<event>
 5    1  0.8962782E-005  0.9118800E+02  0.7818608E-02  0.1130116E+00
         25   -1    0    0    0    0  0.00000000000E+00  0.00000000000E+00  0.99999998245E-14  0.12500000000E+03  0.12500000000E+03 0.  0.
        -11    1    3    3    0    0  0.16709470493E+02  0.34367385163E+02  0.44730009157E+02  0.58831091156E+02  0.51100000000E-03 0.  1.
         23    2    1    0    0    0  0.20335436706E+02  0.14544351228E+02  0.11998876446E+02  0.97268408364E+02  0.93231443682E+02 0.  0.
         11    1    3    3    0    0  0.36259662133E+01 -0.19823033934E+02 -0.32731132711E+02  0.38437317208E+02  0.51100000000E-03 0. -1.
         22    1    1    0    0    0 -0.20335436706E+02 -0.14544351228E+02 -0.11998876446E+02  0.27731591636E+02  0.00000000000E+00 0.  1.
</event>
<event>
 5    1  0.8962782E-005  0.9118800E+02  0.7818608E-02  0.1130116E+00
         25   -1    0    0    0    0  0.00000000000E+00  0.00000000000E+00  0.99999998245E-14  0.12500000000E+03  0.12500000000E+03 0.  0.
        -11    1    3    3    0    0  0.55804556375E+02 -0.22340769344E+01 -0.10967368793E+02  0.56915927388E+02  0.51100000000E-03 0. -1.
         23    2    1    0    0    0  0.31216020760E+02 -0.13684785398E+02  0.79699197992E+01  0.89996672657E+02  0.82910603448E+02 0.  0.
         11    1    3    3    0    0 -0.24588535615E+02 -0.11450708464E+02  0.18937288592E+02  0.33080745268E+02  0.51100000000E-03 0.  1.
         22    1    1    0    0    0 -0.31216020760E+02  0.13684785398E+02 -0.79699197992E+01  0.35003327343E+02  0.00000000000E+00 0. -1.
</event>
<event>
 5    1  0.8962782E-005  0.9118800E+02  0.7818608E-02  0.1130116E+00
         25   -1    0    0    0    0  0.00000000000E+00  0.00000000000E+00  0.99999998245E-14  0.12500000000E+03  0.12500000000E+03 0.  0.
        -11    1    3    3    0    0 -0.31646087377E+02  0.53820779995E+02 -0.47192179694E+00  0.62436959535E+02  0.51100000000E-03 0. -1.
         23    2    1    0    0    0 -0.10390974161E+02  0.14299450345E+02  0.38665129882E+00  0.10731961190E+03  0.10585321429E+03 0.  0.
         11    1    3    3    0    0  0.21255113216E+02 -0.39521329650E+02  0.85857309576E+00  0.44882652363E+02  0.51100000000E-03 0.  1.
         22    1    1    0    0    0  0.10390974161E+02 -0.14299450345E+02 -0.38665129882E+00  0.17680388101E+02  0.00000000000E+00 0. -1.
</event>
<event>
 5    1  0.8962782E-005  0.9118800E+02  0.7818608E-02  0.1130116E+00
         25   -1    0    0    0    0  0.00000000000E+00  0.00000000000E+00  0.99999998245E-14  0.12500000000E+03  0.12500000000E+03 0.  0.
        -11    1    3    3    0    0 -0.12266865335E+02 -0.19418528697E+02  0.24829368294E+02  0.33823849161E+02  0.51100000000E-03 0. -1.
         23    2    1    0    0    0  0.22344125514E+02 -0.64002422879E+01 -0.21661996673E+02  0.93227918763E+02  0.87646903486E+02 0.  0.
         11    1    3    3    0    0  0.34610990849E+02  0.13018286409E+02 -0.46491364966E+02  0.59404069602E+02  0.51100000000E-03 0.  1.
         22    1    1    0    0    0 -0.22344125514E+02  0.64002422879E+01  0.21661996673E+02  0.31772081237E+02  0.00000000000E+00 0.  1.
</event>
<event>
 5    1  0.8962782E-005  0.9118800E+02  0.7818608E-02  0.1130116E+00
         25   -1    0    0    0    0  0.00000000000E+00  0.00000000000E+00  0.99999998245E-14  0.12500000000E+03  0.12500000000E+03 0.  0.
        -11    1    3    3    0    0  0.28363704660E+02  0.36068709581E+02 -0.33350017606E+02  0.56724555771E+02  0.51100000000E-03 0.  1.
         23    2    1    0    0    0  0.72796716608E+00  0.28787214533E+02 -0.75407809848E+01  0.95232617942E+02  0.90460789768E+02 0.  0.
         11    1    3    3    0    0 -0.27635737494E+02 -0.72814950479E+01  0.25809236621E+02  0.38508062171E+02  0.51100000000E-03 0. -1.
         22    1    1    0    0    0 -0.72796716608E+00 -0.28787214533E+02  0.75407809848E+01  0.29767382058E+02  0.00000000000E+00 0.  1.
</event>
<event>
 5    1  0.8962782E-005  0.9118800E+02  0.7818608E-02  0.1130116E+00
         25   -1    0    0    0    0  0.00000000000E+00  0.00000000000E+00  0.99999998245E-14  0.12500000000E+03  0.12500000000E+03 0.  0.
        -11    1    3    3    0    0  0.15728297476E+00  0.35942194829E+02 -0.47687197105E+02  0.59715449216E+02  0.51100000000E-03 0.  1.
         23    2    1    0    0    0  0.13058352543E+02  0.15368268382E+02 -0.19112809130E+02  0.97215045132E+02  0.93159869487E+02 0.  0.
         11    1    3    3    0    0  0.12901069569E+02 -0.20573926447E+02  0.28574387975E+02  0.37499595916E+02  0.51100000000E-03 0. -1.
         22    1    1    0    0    0 -0.13058352543E+02 -0.15368268382E+02  0.19112809130E+02  0.27784954868E+02  0.00000000000E+00 0.  1.
</event>
<event>
 5    1  0.8962782E-005  0.9118800E+02  0.7818608E-02  0.1130116E+00
         25   -1    0    0    0    0  0.00000000000E+00  0.00000000000E+00  0.99999998245E-14  0.12500000000E+03  0.12500000000E+03 0.  0.
        -11    1    3    3    0    0 -0.12987732683E+02  0.41491106168E+02 -0.13306818427E+02  0.45467180561E+02  0.51100000000E-03 0.  1.
         23    2    1    0    0    0  0.16327762206E+02  0.16516502820E+02  0.18414486154E+02  0.95360769504E+02  0.90637698426E+02 0.  0.
         11    1    3    3    0    0  0.29315494890E+02 -0.24974603347E+02  0.31721304581E+02  0.49893588943E+02  0.51100000000E-03 0. -1.
         22    1    1    0    0    0 -0.16327762206E+02 -0.16516502820E+02 -0.18414486154E+02  0.29639230496E+02  0.00000000000E+00 0.  1.
</event>
<event>
 5    1  0.8962782E-005  0.9118800E+02  0.7818608E-02  0.1130116E+00
         25   -1    0    0    0    0  0.00000000000E+00  0.00000000000E+00  0.99999998245E-14  0.12500000000E+03  0.12500000000E+03 0.  0.
        -11    1    3    3    0    0 -0.57099038167E+01  0.18541812155E+02 -0.35073277828E+02  0.40081624437E+02  0.51100000000E-03 0.  1.
         23    2    1    0    0    0 -0.18879590660E+02 -0.21581569752E+02  0.19735526884E+01  0.96258079281E+02  0.91866859205E+02 0.  0.
         11    1    3    3    0    0 -0.13169686843E+02 -0.40123381907E+02  0.37046830517E+02  0.56176454844E+02  0.51100000000E-03 0. -1.
         22    1    1    0    0    0  0.18879590660E+02  0.21581569752E+02 -0.19735526884E+01  0.28741920719E+02  0.00000000000E+00 0. -1.
</event>
<event>
 5    1  0.8962782E-005  0.9118800E+02  0.7818608E-02  0.1130116E+00
         25   -1    0    0    0    0  0.00000000000E+00  0.00000000000E+00  0.99999998245E-14  0.12500000000E+03  0.12500000000E+03 0.  0.
        -11    1    3    3    0    0 -0.28652991989E+02 -0.34362976690E+01  0.25894252902E+02  0.38772598896E+02  0.51100000000E-03 0. -1.
         23    2    1    0    0    0 -0.13170757479E+02  0.52499693385E+01 -0.26965715623E+02  0.94533939381E+02  0.89490138257E+02 0.  0.
         11    1    3    3    0    0  0.15482234510E+02  0.86862670074E+01 -0.52859968524E+02  0.55761340484E+02  0.51100000000E-03 0.  1.
         22    1    1    0    0    0  0.13170757479E+02 -0.52499693385E+01  0.26965715623E+02  0.30466060619E+02  0.00000000000E+00 0.  1.
</event>
<event>
 5    1  0.8962782E-005  0.9118800E+02  0.7818608E-02  0.1130116E+00
         25   -1    0    0    0    0  0.00000000000E+00  0.00000000000E+00  0.99999998245E-14  0.12500000000E+03  0.12500000000E+03 0.  0.
        -11    1    3    3    0    0  0.34173921289E+02 -0.25791125620E+01 -0.27665158867E+02  0.44043952289E+02  0.51100000000E-03 0.  1.
         23    2    1    0    0    0  0.13872736252E+02 -0.95561182077E+01  0.21497282633E+02  0.97688731869E+02  0.93793299160E+02 0.  0.
         11    1    3    3    0    0 -0.20301185037E+02 -0.69770056457E+01  0.49162441500E+02  0.53644779580E+02  0.51100000000E-03 0. -1.
         22    1    1    0    0    0 -0.13872736252E+02  0.95561182077E+01 -0.21497282633E+02  0.27311268131E+02  0.00000000000E+00 0. -1.
</event>
<event>
 5    1  0.8962782E-005  0.9118800E+02  0.7818608E-02  0.1130116E+00
         25   -1    0    0    0    0  0.00000000000E+00  0.00000000000E+00  0.99999998245E-14  0.12500000000E+03  0.12500000000E+03 0.  0.
        -11    1    3    3    0    0  0.12781226483E+02 -0.25809212272E+02  0.22883112516E+02  0.36784671090E+02  0.51100000000E-03 0.  1.
         23    2    1    0    0    0 -0.23525938197E+02  0.16630538438E+02  0.31565146565E+01  0.96017105708E+02  0.91538387723E+02 0.  0.
         11    1    3    3    0    0 -0.36307164680E+02  0.42439750710E+02 -0.19726597859E+02  0.59232434618E+02  0.51100000000E-03 0. -1.
         22    1    1    0    0    0  0.23525938197E+02 -0.16630538438E+02 -0.31565146565E+01  0.28982894292E+02  0.00000000000E+00 0. -1.
</event>
<event>
 5    1  0.8962782E-005  0.9118800E+02  0.7818608E-02  0.1130116E+00
         25   -1    0    0    0    0  0.00000000000E+00  0.00000000000E+00  0.99999998245E-14  0.12500000000E+03  0.12500000000E+03 0.  0.
        -11    1    3    3    0    0 -0.15045896790E+02  0.27239380214E+02  0.22320514096E+02  0.38295798653E+02  0.51100000000E-03 0. -1.
         23    2    1    0    0    0  0.25827554313E+02  0.60167382115E+01 -0.12157988469E+02  0.95826717975E+02  0.91278034016E+02 0.  0.
         11    1    3    3    0    0  0.40873451103E+02 -0.21222642003E+02 -0.34478502565E+02  0.57530919322E+02  0.51100000000E-03 0.  1.
         22    1    1    0    0    0 -0.25827554313E+02 -0.60167382115E+01  0.12157988469E+02  0.29173282025E+02  0.00000000000E+00 0.  1.
</event>
<event>
 5    1  0.8962782E-005  0.9118800E+02  0.7818608E-02  0.1130116E+00
         25   -1    0    0    0    0  0.00000000000E+00  0.00000000000E+00  0.99999998245E-14  0.12500000000E+03  0.12500000000E+03 0.  0.
        -11    1    3    3    0    0  0.21813038441E+02  0.38875978340E+02 -0.27686010566E+02  0.52475380125E+02  0.51100000000E-03 0. -1.
         23    2    1    0    0    0  0.33293179805E+02  0.10629774990E+02 -0.69004242750E+01  0.89376359071E+02  0.81970054091E+02 0.  0.
         11    1    3    3    0    0  0.11480141365E+02 -0.28246203350E+02  0.20785586291E+02  0.36900978946E+02  0.51100000000E-03 0.  1.
         22    1    1    0    0    0 -0.33293179805E+02 -0.10629774990E+02  0.69004242750E+01  0.35623640929E+02  0.00000000000E+00 0. -1.
</event>
<event>
 5    1  0.8962782E-005  0.9118800E+02  0.7818608E-02  0.1130116E+00
         25   -1    0    0    0    0  0.00000000000E+00  0.00000000000E+00  0.99999998245E-14  0.12500000000E+03  0.12500000000E+03 0.  0.
        -11    1    3    3    0    0  0.94776041333E+01 -0.35809152270E+02  0.44505438539E+01  0.37308547376E+02  0.51100000000E-03 0.  1.
         23    2    1    0    0    0 -0.28059595548E+02  0.71770524835E+01  0.92935925399E+01  0.94582540426E+02  0.89557998562E+02 0.  0.
         11    1    3    3    0    0 -0.37537199681E+02  0.42986204754E+02  0.48430486860E+01  0.57273993050E+02  0.51100000000E-03 0. -1.
         22    1    1    0    0    0  0.28059595548E+02 -0.71770524835E+01 -0.92935925399E+01  0.30417459574E+02  0.00000000000E+00 0. -1.
</event>
<event>
 5    1  0.8962782E-005  0.9118800E+02  0.7818608E-02  0.1130116E+00
         25   -1    0    0    0    0  0.00000000000E+00  0.00000000000E+00  0.99999998245E-14  0.12500000000E+03  0.12500000000E+03 0.  0.
        -11    1    3    3    0    0 -0.29597242839E+02 -0.18877103311E+02  0.11216729110E+02  0.36853179311E+02  0.51100000000E-03 0. -1.
         23    2    1    0    0    0  0.82318204362E+00  0.22684274229E+02 -0.17966209247E+02  0.96051103636E+02  0.91584801737E+02 0.  0.
         11    1    3    3    0    0  0.30420424883E+02  0.41561377540E+02 -0.29182938357E+02  0.59197924326E+02  0.51100000000E-03 0.  1.
         22    1    1    0    0    0 -0.82318204362E+00 -0.22684274229E+02  0.17966209247E+02  0.28948896364E+02  0.00000000000E+00 0.  1.
</event>
<event>
 5    1  0.8962782E-005  0.9118800E+02  0.7818608E-02  0.1130116E+00
         25   -1    0    0    0    0  0.00000000000E+00  0.00000000000E+00  0.99999998245E-14  0.12500000000E+03  0.12500000000E+03 0.  0.
        -11    1    3    3    0    0  0.34423607935E+02  0.12159132088E+02  0.27746653148E+02  0.45855272734E+02  0.51100000000E-03 0. -1.
         23    2    1    0    0    0 -0.11499728535E+02  0.15597967567E+02  0.26813592466E+02  0.91916634248E+02  0.85756390793E+02 0.  0.
         11    1    3    3    0    0 -0.45923336470E+02  0.34388354783E+01 -0.93306068232E+00  0.46061361513E+02  0.51100000000E-03 0.  1.
         22    1    1    0    0    0  0.11499728535E+02 -0.15597967567E+02 -0.26813592466E+02  0.33083365752E+02  0.00000000000E+00 0. -1.
</event>
<event>
 5    1  0.8962782E-005  0.9118800E+02  0.7818608E-02  0.1130116E+00
         25   -1    0    0    0    0  0.00000000000E+00  0.00000000000E+00  0.99999998245E-14  0.12500000000E+03  0.12500000000E+03 0.  0.
        -11    1    3    3    0    0  0.44656412680E+01 -0.33705474407E+02 -0.49721871679E+02  0.60235085128E+02  0.51100000000E-03 0.  1.
         23    2    1    0    0    0  0.77747983413E+01 -0.22295320439E+02 -0.14774651319E+02  0.97146470164E+02  0.93067811520E+02 0.  0.
         11    1    3    3    0    0  0.33091570733E+01  0.11410153968E+02  0.34947220360E+02  0.36911385036E+02  0.51100000000E-03 0. -1.
         22    1    1    0    0    0 -0.77747983413E+01  0.22295320439E+02  0.14774651319E+02  0.27853529836E+02  0.00000000000E+00 0.  1.
</event>
<event>
 5    1  0.8962782E-005  0.9118800E+02  0.7818608E-02  0.1130116E+00
         25   -1    0    0    0    0  0.00000000000E+00  0.00000000000E+00  0.99999998245E-14  0.12500000000E+03  0.12500000000E+03 0.  0.
        -11    1    3    3    0    0  0.15193779560E+02  0.30408977029E+02  0.13639183947E+02  0.36627642025E+02  0.51100000000E-03 0. -1.
         23    2    1    0    0    0 -0.18255257072E+02 -0.19827294500E+02  0.47915610758E+01  0.97626014622E+02  0.93709677491E+02 0.  0.
         11    1    3    3    0    0 -0.33449036632E+02 -0.50236271529E+02 -0.88476228712E+01  0.60998372597E+02  0.51100000000E-03 0.  1.
         22    1    1    0    0    0  0.18255257072E+02  0.19827294500E+02 -0.47915610758E+01  0.27373985378E+02  0.00000000000E+00 0.  1.
</event>
<event>
 5    1  0.8962782E-005  0.9118800E+02  0.7818608E-02  0.1130116E+00
         25   -1    0    0    0    0  0.00000000000E+00  0.00000000000E+00  0.99999998245E-14  0.12500000000E+03  0.12500000000E+03 0.  0.
        -11    1    3    3    0    0 -0.39996263672E+02 -0.17087624512E+02 -0.68329595059E+01  0.44027007110E+02  0.51100000000E-03 0. -1.
         23    2    1    0    0    0 -0.29807940670E+01 -0.10621777736E+02  0.27776483704E+02  0.95112873298E+02  0.90295173317E+02 0.  0.
         11    1    3    3    0    0  0.37015469605E+02  0.64658467769E+01  0.34609443210E+02  0.51085866188E+02  0.51100000000E-03 0.  1.
         22    1    1    0    0    0  0.29807940670E+01  0.10621777736E+02 -0.27776483704E+02  0.29887126702E+02  0.00000000000E+00 0.  1.
</event>
<event>
 5    1  0.8962782E-005  0.9118800E+02  0.7818608E-02  0.1130116E+00
         25   -1    0    0    0    0  0.00000000000E+00  0.00000000000E+00  0.99999998245E-14  0.12500000000E+03  0.12500000000E+03 0.  0.
        -11    1    3    3    0    0 -0.81044335763E+01  0.21272160741E+02 -0.37641036532E+02  0.43989024741E+02  0.51100000000E-03 0.  1.
         23    2    1    0    0    0  0.23514682963E+02  0.16103757934E+02  0.36660625380E+01  0.96264806439E+02  0.91876012156E+02 0.  0.
         11    1    3    3    0    0  0.31619116539E+02 -0.51684028068E+01  0.41307099070E+02  0.52275781698E+02  0.51100000000E-03 0. -1.
         22    1    1    0    0    0 -0.23514682963E+02 -0.16103757934E+02 -0.36660625380E+01  0.28735193561E+02  0.00000000000E+00 0. -1.
</event>
<event>
 5    1  0.8962782E-005  0.9118800E+02  0.7818608E-02  0.1130116E+00
         25   -1    0    0    0    0  0.00000000000E+00  0.00000000000E+00  0.99999998245E-14  0.12500000000E+03  0.12500000000E+03 0.  0.
        -11    1    3    3    0    0 -0.34502513453E+02 -0.19636531876E+02  0.27538331570E+02  0.48315386003E+02  0.51100000000E-03 0. -1.
         23    2    1    0    0    0  0.52725033586E+01 -0.29965773309E+02  0.13119491815E+02  0.91865909894E+02  0.85682422196E+02 0.  0.
         11    1    3    3    0    0  0.39775016812E+02 -0.10329241433E+02 -0.14418839755E+02  0.43550523890E+02  0.51100000000E-03 0.  1.
         22    1    1    0    0    0 -0.52725033586E+01  0.29965773309E+02 -0.13119491815E+02  0.33134090106E+02  0.00000000000E+00 0.  1.
</event>
<event>
 5    1  0.8962782E-005  0.9118800E+02  0.7818608E-02  0.1130116E+00
         25   -1    0    0    0    0  0.00000000000E+00  0.00000000000E+00  0.99999998245E-14  0.12500000000E+03  0.12500000000E+03 0.  0.
        -11    1    3    3    0    0 -0.30465893782E+02 -0.12050629687E+02  0.35927023876E+02  0.48622416689E+02  0.51100000000E-03 0. -1.
         23    2    1    0    0    0 -0.17467014866E+02  0.21678229681E+02  0.39537443232E+01  0.96881067861E+02  0.92710662630E+02 0.  0.
         11    1    3    3    0    0  0.12998878916E+02  0.33728859368E+02 -0.31973279553E+02  0.48258651172E+02  0.51100000000E-03 0.  1.
         22    1    1    0    0    0  0.17467014866E+02 -0.21678229681E+02 -0.39537443232E+01  0.28118932139E+02  0.00000000000E+00 0.  1.
</event>
<event>
 5    1  0.8962782E-005  0.9118800E+02  0.7818608E-02  0.1130116E+00
         25   -1    0    0    0    0  0.00000000000E+00  0.00000000000E+00  0.99999998245E-14  0.12500000000E+03  0.12500000000E+03 0.  0.
        -11    1    3    3    0    0  0.18169178333E+02 -0.60594017017E+01 -0.19458011218E+02  0.27302922758E+02  0.51100000000E-03 0. -1.
         23    2    1    0    0    0 -0.25331311696E+01  0.40784267839E+02  0.45860765477E+01  0.83880596371E+02  0.73110526553E+02 0.  0.
         11    1    3    3    0    0 -0.20702309503E+02  0.46843669541E+02  0.24044087766E+02  0.56577673614E+02  0.51100000000E-03 0.  1.
         22    1    1    0    0    0  0.25331311696E+01 -0.40784267839E+02 -0.45860765477E+01  0.41119403629E+02  0.00000000000E+00 0.  1.
</event>
<event>
 5    1  0.8962782E-005  0.9118800E+02  0.7818608E-02  0.1130116E+00
         25   -1    0    0    0    0  0.00000000000E+00  0.00000000000E+00  0.99999998245E-14  0.12500000000E+03  0.12500000000E+03 0.  0.
        -11    1    3    3    0    0  0.13939440921E+01 -0.18381533807E+02 -0.35532005451E+02  0.40029330207E+02  0.51100000000E-03 0. -1.
         23    2    1    0    0    0  0.16827496999E+02 -0.15581728545E+02  0.18021548332E+02  0.95832704548E+02  0.91286231914E+02 0.  0.
         11    1    3    3    0    0  0.15433552907E+02  0.27998052620E+01  0.53553553783E+02  0.55803374341E+02  0.51100000000E-03 0.  1.
         22    1    1    0    0    0 -0.16827496999E+02  0.15581728545E+02 -0.18021548332E+02  0.29167295452E+02  0.00000000000E+00 0.  1.
</event>
<event>
 5    1  0.8962782E-005  0.9118800E+02  0.7818608E-02  0.1130116E+00
         25   -1    0    0    0    0  0.00000000000E+00  0.00000000000E+00  0.99999998245E-14  0.12500000000E+03  0.12500000000E+03 0.  0.
        -11    1    3    3    0    0  0.26055299398E+02 -0.23793407981E+02  0.23443483136E+02  0.42362740609E+02  0.51100000000E-03 0.  1.
         23    2    1    0    0    0 -0.14697856884E+02  0.13937427196E+02  0.17526255800E+02  0.98214770560E+02  0.94491759640E+02 0.  0.
         11    1    3    3    0    0 -0.40753156281E+02  0.37730835177E+02 -0.59172273358E+01  0.55852029951E+02  0.51100000000E-03 0. -1.
         22    1    1    0    0    0  0.14697856884E+02 -0.13937427196E+02 -0.17526255800E+02  0.26785229440E+02  0.00000000000E+00 0. -1.
</event>
<event>
 5    1  0.8962782E-005  0.9118800E+02  0.7818608E-02  0.1130116E+00
         25   -1    0    0    0    0  0.00000000000E+00  0.00000000000E+00  0.99999998245E-14  0.12500000000E+03  0.12500000000E+03 0.  0.
        -11    1    3    3    0    0 -0.51313562484E+02  0.22800150904E+02 -0.25951917218E+02  0.61858148886E+02  0.51100000000E-03 0.  1.
         23    2    1    0    0    0 -0.26928459019E+02  0.13115919023E+02 -0.20629975340E+02  0.88630161954E+02  0.80824133082E+02 0.  0.
         11    1    3    3    0    0  0.24385103465E+02 -0.96842318809E+01  0.53219418788E+01  0.26772013068E+02  0.51100000000E-03 0. -1.
         22    1    1    0    0    0  0.26928459019E+02 -0.13115919023E+02  0.20629975340E+02  0.36369838046E+02  0.00000000000E+00 0.  1.
</event>
<event>
 5    1  0.8962782E-005  0.9118800E+02  0.7818608E-02  0.1130116E+00
         25   -1    0    0    0    0  0.00000000000E+00  0.00000000000E+00  0.99999998245E-14  0.12500000000E+03  0.12500000000E+03 0.  0.
        -11    1    3    3    0    0 -0.48791016975E+02 -0.15453991405E+01 -0.12442418640E+02  0.50376238226E+02  0.51100000000E-03 0. -1.
         23    2    1    0    0    0 -0.17228997564E+02  0.25990049493E+02 -0.96697905538E+01  0.92353011179E+02  0.86390119775E+02 0.  0.
         11    1    3    3    0    0  0.31562019411E+02  0.27535448634E+02  0.27726280861E+01  0.41976772952E+02  0.51100000000E-03 0.  1.
         22    1    1    0    0    0  0.17228997564E+02 -0.25990049493E+02  0.96697905538E+01  0.32646988821E+02  0.00000000000E+00 0. -1.
</event>
<event>
 5    1  0.8962782E-005  0.9118800E+02  0.7818608E-02  0.1130116E+00
         25   -1    0    0    0    0  0.00000000000E+00  0.00000000000E+00  0.99999998245E-14  0.12500000000E+03  0.12500000000E+03 0.  0.
        -11    1    3    3    0    0  0.33394514614E+02  0.15938818925E+02 -0.98828330295E+01  0.38300260364E+02  0.51100000000E-03 0. -1.
         23    2    1    0    0    0 -0.24042237614E+02  0.84310861638E+01 -0.13171669158E+02  0.96318903929E+02  0.91949583916E+02 0.  0.
         11    1    3    3    0    0 -0.57436752228E+02 -0.75077327615E+01 -0.32888361288E+01  0.58018643565E+02  0.51100000000E-03 0.  1.
         22    1    1    0    0    0  0.24042237614E+02 -0.84310861638E+01  0.13171669158E+02  0.28681096071E+02  0.00000000000E+00 0.  1.
</event>
<event>
 5    1  0.8962782E-005  0.9118800E+02  0.7818608E-02  0.1130116E+00
         25   -1    0    0    0    0  0.00000000000E+00  0.00000000000E+00  0.99999998245E-14  0.12500000000E+03  0.12500000000E+03 0.  0.
        -11    1    3    3    0    0 -0.10872487196E+02  0.36337676938E+02 -0.84135116206E+01  0.38851318138E+02  0.51100000000E-03 0. -1.
         23    2    1    0    0    0  0.28863664029E+02 -0.60726093351E+00  0.70736844231E+01  0.95275988186E+02  0.90520699547E+02 0.  0.
         11    1    3    3    0    0  0.39736151224E+02 -0.36944937871E+02  0.15487196044E+02  0.56424670048E+02  0.51100000000E-03 0.  1.
         22    1    1    0    0    0 -0.28863664029E+02  0.60726093351E+00 -0.70736844231E+01  0.29724011814E+02  0.00000000000E+00 0.  1.
</event>
<event>
 5    1  0.8962782E-005  0.9118800E+02  0.7818608E-02  0.1130116E+00
         25   -1    0    0    0    0  0.00000000000E+00  0.00000000000E+00  0.99999998245E-14  0.12500000000E+03  0.12500000000E+03 0.  0.
        -11    1    3    3    0    0 -0.52619528583E+02 -0.16853097595E+02 -0.21926754855E+02  0.59444295484E+02  0.51100000000E-03 0.  1.
         23    2    1    0    0    0 -0.23700566227E+02  0.33755353445E+01 -0.18190701344E+02  0.94933196150E+02  0.90046093961E+02 0.  0.
         11    1    3    3    0    0  0.28918962357E+02  0.20228632939E+02  0.37360535111E+01  0.35488900666E+02  0.51100000000E-03 0. -1.
         22    1    1    0    0    0  0.23700566227E+02 -0.33755353445E+01  0.18190701344E+02  0.30066803850E+02  0.00000000000E+00 0.  1.
</event>
<event>
 5    1  0.8962782E-005  0.9118800E+02  0.7818608E-02  0.1130116E+00
         25   -1    0    0    0    0  0.00000000000E+00  0.00000000000E+00  0.99999998245E-14  0.12500000000E+03  0.12500000000E+03 0.  0.
        -11    1    3    3    0    0 -0.24069356322E+01 -0.11536698591E+02  0.35250470822E+02  0.37168325856E+02  0.51100000000E-03 0. -1.
         23    2    1    0    0    0 -0.21404157046E+02  0.10769743666E+02 -0.15989595477E+02  0.96193881188E+02  0.91779465552E+02 0.  0.
         11    1    3    3    0    0 -0.18997221413E+02  0.22306442257E+02 -0.51240066300E+02  0.59025555332E+02  0.51100000000E-03 0.  1.
         22    1    1    0    0    0  0.21404157046E+02 -0.10769743666E+02  0.15989595477E+02  0.28806118812E+02  0.00000000000E+00 0. -1.
</event>
<event>
 5    1  0.8962782E-005  0.9118800E+02  0.7818608E-02  0.1130116E+00
         25   -1    0    0    0    0  0.00000000000E+00  0.00000000000E+00  0.99999998245E-14  0.12500000000E+03  0.12500000000E+03 0.  0.
        -11    1    3    3    0    0  0.22690452814E+02 -0.97335688351E+01 -0.50119998738E+02  0.55871399526E+02  0.51100000000E-03 0.  1.
         23    2    1    0    0    0  0.76305776232E+01  0.13687301854E+02 -0.32760820277E+02  0.88684172980E+02  0.80907621674E+02 0.  0.
         11    1    3    3    0    0 -0.15059875191E+02  0.23420870690E+02  0.17359178461E+02  0.32812773454E+02  0.51100000000E-03 0. -1.
         22    1    1    0    0    0 -0.76305776232E+01 -0.13687301854E+02  0.32760820277E+02  0.36315827020E+02  0.00000000000E+00 0.  1.
</event>
<event>
 5    1  0.8962782E-005  0.9118800E+02  0.7818608E-02  0.1130116E+00
         25   -1    0    0    0    0  0.00000000000E+00  0.00000000000E+00  0.99999998245E-14  0.12500000000E+03  0.12500000000E+03 0.  0.
        -11    1    3    3    0    0  0.47829371280E+02  0.21543612591E+02 -0.17022986552E+02  0.55150322501E+02  0.51100000000E-03 0. -1.
         23    2    1    0    0    0  0.16157863422E+02  0.10014998101E+02  0.14338608318E+02  0.10118881721E+03  0.98347365510E+02 0.  0.
         11    1    3    3    0    0 -0.31671507859E+02 -0.11528614490E+02  0.31361594870E+02  0.46038494710E+02  0.51100000000E-03 0.  1.
         22    1    1    0    0    0 -0.16157863422E+02 -0.10014998101E+02 -0.14338608318E+02  0.23811182789E+02  0.00000000000E+00 0.  1.
</event>
<event>
 5    1  0.8962782E-005  0.9118800E+02  0.7818608E-02  0.1130116E+00
         25   -1    0    0    0    0  0.00000000000E+00  0.00000000000E+00  0.99999998245E-14  0.12500000000E+03  0.12500000000E+03 0.  0.
        -11    1    3    3    0    0  0.45177005417E+02  0.20202170896E+02  0.35064072717E+02  0.60651287894E+02  0.51100000000E-03 0. -1.
         23    2    1    0    0    0  0.19175324269E+02  0.27866885527E+00  0.21728656283E+02  0.96018881646E+02  0.91540812819E+02 0.  0.
         11    1    3    3    0    0 -0.26001681149E+02 -0.19923502041E+02 -0.13335416434E+02  0.35367593752E+02  0.51100000000E-03 0.  1.
         22    1    1    0    0    0 -0.19175324269E+02 -0.27866885527E+00 -0.21728656283E+02  0.28981118354E+02  0.00000000000E+00 0. -1.
</event>
<event>
 5    1  0.8962782E-005  0.9118800E+02  0.7818608E-02  0.1130116E+00
         25   -1    0    0    0    0  0.00000000000E+00  0.00000000000E+00  0.99999998245E-14  0.12500000000E+03  0.12500000000E+03 0.  0.
        -11    1    3    3    0    0  0.23413806538E+02 -0.38036377546E+01 -0.26426780202E+02  0.35511247639E+02  0.51100000000E-03 0.  1.
         23    2    1    0    0    0 -0.92442125617E+01 -0.10510798996E+02  0.24736015282E+02  0.96578127904E+02  0.92301310803E+02 0.  0.
         11    1    3    3    0    0 -0.32658019100E+02 -0.67071612413E+01  0.51162795483E+02  0.61066880265E+02  0.51100000000E-03 0. -1.
         22    1    1    0    0    0  0.92442125617E+01  0.10510798996E+02 -0.24736015282E+02  0.28421872096E+02  0.00000000000E+00 0. -1.
</event>
<event>
 5    1  0.8962782E-005  0.9118800E+02  0.7818608E-02  0.1130116E+00
         25   -1    0    0    0    0  0.00000000000E+00  0.00000000000E+00  0.99999998245E-14  0.12500000000E+03  0.12500000000E+03 0.  0.
        -11    1    3    3    0    0  0.22266821127E+01 -0.61015661891E+02  0.73339928027E+00  0.61060682800E+02  0.51100000000E-03 0. -1.
         23    2    1    0    0    0  0.98484736071E+01 -0.30398805683E+02  0.40682886833E+01  0.92787722959E+02  0.87016841702E+02 0.  0.
         11    1    3    3    0    0  0.76217914944E+01  0.30616856208E+02  0.33348894031E+01  0.31727040159E+02  0.51100000000E-03 0.  1.
         22    1    1    0    0    0 -0.98484736071E+01  0.30398805683E+02 -0.40682886833E+01  0.32212277041E+02  0.00000000000E+00 0. -1.
</event>
<event>
 5    1  0.8962782E-005  0.9118800E+02  0.7818608E-02  0.1130116E+00
         25   -1    0    0    0    0  0.00000000000E+00  0.00000000000E+00  0.99999998245E-14  0.12500000000E+03  0.12500000000E+03 0.  0.
        -11    1    3    3    0    0  0.30692818127E+02  0.77254596625E+01  0.26695197236E+02  0.41404895451E+02  0.51100000000E-03 0.  1.
         23    2    1    0    0    0 -0.20759866913E+02 -0.72785787665E+01  0.19726951452E+02  0.95451693844E+02  0.90763007117E+02 0.  0.
         11    1    3    3    0    0 -0.51452685040E+02 -0.15004038429E+02 -0.69682457835E+01  0.54046798393E+02  0.51100000000E-03 0. -1.
         22    1    1    0    0    0  0.20759866913E+02  0.72785787665E+01 -0.19726951452E+02  0.29548306156E+02  0.00000000000E+00 0. -1.
</event>
<event>
 5    1  0.8962782E-005  0.9118800E+02  0.7818608E-02  0.1130116E+00
         25   -1    0    0    0    0  0.00000000000E+00  0.00000000000E+00  0.99999998245E-14  0.12500000000E+03  0.12500000000E+03 0.  0.
        -11    1    3    3    0    0  0.47405070710E+02 -0.40345143411E+02  0.16322890977E+01  0.62270664794E+02  0.51100000000E-03 0. -1.
         23    2    1    0    0    0  0.18785322245E+02 -0.20413915700E+02  0.23924594606E+01  0.97155069611E+02  0.93079360778E+02 0.  0.
         11    1    3    3    0    0 -0.28619748464E+02  0.19931227711E+02  0.76017036290E+00  0.34884404818E+02  0.51100000000E-03 0.  1.
         22    1    1    0    0    0 -0.18785322245E+02  0.20413915700E+02 -0.23924594606E+01  0.27844930389E+02  0.00000000000E+00 0. -1.
</event>
<event>
 5    1  0.8962782E-005  0.9118800E+02  0.7818608E-02  0.1130116E+00
         25   -1    0    0    0    0  0.00000000000E+00  0.00000000000E+00  0.99999998245E-14  0.12500000000E+03  0.12500000000E+03 0.  0.
        -11    1    3    3    0    0  0.35338107932E+02 -0.81899098015E+01  0.28799117843E+02  0.46316796992E+02  0.51100000000E-03 0.  1.
         23    2    1    0    0    0  0.91952998274E+01 -0.34626289282E+02  0.11106624886E+02  0.87491460110E+02  0.79043437599E+02 0.  0.
         11    1    3    3    0    0 -0.26142808105E+02 -0.26436379480E+02 -0.17692492957E+02  0.41174663118E+02  0.51100000000E-03 0. -1.
         22    1    1    0    0    0 -0.91952998274E+01  0.34626289282E+02 -0.11106624886E+02  0.37508539890E+02  0.00000000000E+00 0.  1.
</event>
<event>
 5    1  0.8962782E-005  0.9118800E+02  0.7818608E-02  0.1130116E+00
         25   -1    0    0    0    0  0.00000000000E+00  0.00000000000E+00  0.99999998245E-14  0.12500000000E+03  0.12500000000E+03 0.  0.
        -11    1    3    3    0    0  0.12396124058E+02 -0.22723931506E+02 -0.35261083963E+02  0.43742256427E+02  0.51100000000E-03 0. -1.
         23    2    1    0    0    0 -0.26445129715E+02  0.27265337791E+01 -0.10072984420E+02  0.96570369556E+02  0.92290803382E+02 0.  0.
         11    1    3    3    0    0 -0.38841253773E+02  0.25450465286E+02  0.25188099543E+02  0.52828113129E+02  0.51100000000E-03 0.  1.
         22    1    1    0    0    0  0.26445129715E+02 -0.27265337791E+01  0.10072984420E+02  0.28429630444E+02  0.00000000000E+00 0.  1.
</event>
<event>
 5    1  0.8962782E-005  0.9118800E+02  0.7818608E-02  0.1130116E+00
         25   -1    0    0    0    0  0.00000000000E+00  0.00000000000E+00  0.99999998245E-14  0.12500000000E+03  0.12500000000E+03 0.  0.
        -11    1    3    3    0    0  0.11443879793E+02 -0.87600956572E+01 -0.55246663477E+02  0.57095494448E+02  0.51100000000E-03 0. -1.
         23    2    1    0    0    0  0.13950267766E+02  0.11961358454E+02 -0.22208753808E+02  0.96174441679E+02  0.91752985890E+02 0.  0.
         11    1    3    3    0    0  0.25063879729E+01  0.20721454112E+02  0.33037909669E+02  0.39078947232E+02  0.51100000000E-03 0.  1.
         22    1    1    0    0    0 -0.13950267766E+02 -0.11961358454E+02  0.22208753808E+02  0.28825558321E+02  0.00000000000E+00 0. -1.
</event>
<event>
 5    1  0.8962782E-005  0.9118800E+02  0.7818608E-02  0.1130116E+00
         25   -1    0    0    0    0  0.00000000000E+00  0.00000000000E+00  0.99999998245E-14  0.12500000000E+03  0.12500000000E+03 0.  0.
        -11    1    3    3    0    0 -0.45534267312E+02 -0.23678160433E+02  0.33132544643E+02  0.61088381022E+02  0.51100000000E-03 0. -1.
         23    2    1    0    0    0 -0.26591813969E+02 -0.10588457337E+02  0.77737695518E+01  0.95340743570E+02  0.90610076109E+02 0.  0.
         11    1    3    3    0    0  0.18942453343E+02  0.13089703096E+02 -0.25358775091E+02  0.34252362549E+02  0.51100000000E-03 0.  1.
         22    1    1    0    0    0  0.26591813969E+02  0.10588457337E+02 -0.77737695518E+01  0.29659256430E+02  0.00000000000E+00 0. -1.
</event>
<event>
 5    1  0.8962782E-005  0.9118800E+02  0.7818608E-02  0.1130116E+00
         25   -1    0    0    0    0  0.00000000000E+00  0.00000000000E+00  0.99999998245E-14  0.12500000000E+03  0.12500000000E+03 0.  0.
        -11    1    3    3    0    0  0.49610255302E+01  0.48317624229E+02  0.12888852534E+02  0.50252632820E+02  0.51100000000E-03 0.  1.
         23    2    1    0    0    0  0.10858577121E+02  0.57582981865E+01  0.26883293704E+02  0.95440260904E+02  0.90747260157E+02 0.  0.
         11    1    3    3    0    0  0.58975515905E+01 -0.42559326042E+02  0.13994441169E+02  0.45187628084E+02  0.51100000000E-03 0. -1.
         22    1    1    0    0    0 -0.10858577121E+02 -0.57582981865E+01 -0.26883293704E+02  0.29559739096E+02  0.00000000000E+00 0.  1.
</event>
<event>
 5    1  0.8962782E-005  0.9118800E+02  0.7818608E-02  0.1130116E+00
         25   -1    0    0    0    0  0.00000000000E+00  0.00000000000E+00  0.99999998245E-14  0.12500000000E+03  0.12500000000E+03 0.  0.
        -11    1    3    3    0    0 -0.35598687170E+02 -0.21461799210E+02 -0.14155868777E+02  0.43912002627E+02  0.51100000000E-03 0. -1.
         23    2    1    0    0    0  0.11912242015E+02 -0.18453974643E+02  0.13742517107E+02  0.99090398181E+02  0.95643084148E+02 0.  0.
         11    1    3    3    0    0  0.47510929186E+02  0.30078245671E+01  0.27898385884E+02  0.55178395554E+02  0.51100000000E-03 0.  1.
         22    1    1    0    0    0 -0.11912242015E+02  0.18453974643E+02 -0.13742517107E+02  0.25909601819E+02  0.00000000000E+00 0. -1.
</event>
<event>
 5    1  0.8962782E-005  0.9118800E+02  0.7818608E-02  0.1130116E+00
         25   -1    0    0    0    0  0.00000000000E+00  0.00000000000E+00  0.99999998245E-14  0.12500000000E+03  0.12500000000E+03 0.  0.
        -11    1    3    3    0    0  0.39372695275E+02 -0.14394426800E+02  0.43660795130E+02  0.60528288327E+02  0.51100000000E-03 0.  1.
         23    2    1    0    0    0  0.89761158711E+01 -0.12410230448E+02  0.23116041030E+02  0.97270307813E+02  0.93233990332E+02 0.  0.
         11    1    3    3    0    0 -0.30396579404E+02  0.19841963516E+01 -0.20544754101E+02  0.36742019486E+02  0.51100000000E-03 0. -1.
         22    1    1    0    0    0 -0.89761158711E+01  0.12410230448E+02 -0.23116041030E+02  0.27729692187E+02  0.00000000000E+00 0.  1.
</event>
<event>
 5    1  0.8962782E-005  0.9118800E+02  0.7818608E-02  0.1130116E+00
         25   -1    0    0    0    0  0.00000000000E+00  0.00000000000E+00  0.99999998245E-14  0.12500000000E+03  0.12500000000E+03 0.  0.
        -11    1    3    3    0    0  0.24203511368E+02  0.37884842632E+02 -0.21281509466E+02  0.49739058186E+02  0.51100000000E-03 0. -1.
         23    2    1    0    0    0  0.25821715650E+02  0.52584160099E+01  0.11707098691E+02  0.96164811466E+02  0.91739865197E+02 0.  0.
         11    1    3    3    0    0  0.16182042825E+01 -0.32626426622E+02  0.32988608157E+02  0.46425753280E+02  0.51100000000E-03 0.  1.
         22    1    1    0    0    0 -0.25821715650E+02 -0.52584160099E+01 -0.11707098691E+02  0.28835188534E+02  0.00000000000E+00 0. -1.
</event>
<event>
 5    1  0.8962782E-005  0.9118800E+02  0.7818608E-02  0.1130116E+00
         25   -1    0    0    0    0  0.00000000000E+00  0.00000000000E+00  0.99999998245E-14  0.12500000000E+03  0.12500000000E+03 0.  0.
        -11    1    3    3    0    0 -0.36715868996E+02 -0.40859215517E+02  0.21286552475E+02  0.58912204553E+02  0.51100000000E-03 0. -1.
         23    2    1    0    0    0 -0.58035917879E+01 -0.24178330302E+02  0.18224788905E+02  0.94171178023E+02  0.88981989784E+02 0.  0.
         11    1    3    3    0    0  0.30912277208E+02  0.16680885214E+02 -0.30617635701E+01  0.35258973470E+02  0.51100000000E-03 0.  1.
         22    1    1    0    0    0  0.58035917879E+01  0.24178330302E+02 -0.18224788905E+02  0.30828821977E+02  0.00000000000E+00 0. -1.
</event>
<event>
 5    1  0.8962782E-005  0.9118800E+02  0.7818608E-02  0.1130116E+00
         25   -1    0    0    0    0  0.00000000000E+00  0.00000000000E+00  0.99999998245E-14  0.12500000000E+03  0.12500000000E+03 0.  0.
        -11    1    3    3    0    0 -0.20030620733E+02 -0.52457516403E+01  0.56885288774E+02  0.60536598487E+02  0.51100000000E-03 0.  1.
         23    2    1    0    0    0 -0.68283544839E+01  0.44228268981E+01  0.40489307020E+02  0.83701430949E+02  0.72803555800E+02 0.  0.
         11    1    3    3    0    0  0.13202266249E+02  0.96685785384E+01 -0.16395981754E+02  0.23164832462E+02  0.51100000000E-03 0. -1.
         22    1    1    0    0    0  0.68283544839E+01 -0.44228268981E+01 -0.40489307020E+02  0.41298569051E+02  0.00000000000E+00 0.  1.
</event>
<event>
 5    1  0.8962782E-005  0.9118800E+02  0.7818608E-02  0.1130116E+00
         25   -1    0    0    0    0  0.00000000000E+00  0.00000000000E+00  0.99999998245E-14  0.12500000000E+03  0.12500000000E+03 0.  0.
        -11    1    3    3    0    0  0.43475213223E+02 -0.44659522249E+01  0.39330267147E+02  0.58795482890E+02  0.51100000000E-03 0.  1.
         23    2    1    0    0    0  0.29065767985E+02  0.39408157103E+01  0.75124184236E+01  0.94721536902E+02  0.89751792324E+02 0.  0.
         11    1    3    3    0    0 -0.14409445238E+02  0.84067679352E+01 -0.31817848724E+02  0.35926054012E+02  0.51100000000E-03 0. -1.
         22    1    1    0    0    0 -0.29065767985E+02 -0.39408157103E+01 -0.75124184236E+01  0.30278463098E+02  0.00000000000E+00 0.  1.
</event>
<event>
 5    1  0.8962782E-005  0.9118800E+02  0.7818608E-02  0.1130116E+00
         25   -1    0    0    0    0  0.00000000000E+00  0.00000000000E+00  0.99999998245E-14  0.12500000000E+03  0.12500000000E+03 0.  0.
        -11    1    3    3    0    0 -0.22476796900E+02  0.19306977854E+02  0.36859594077E+02  0.47292657660E+02  0.51100000000E-03 0.  1.
         23    2    1    0    0    0 -0.22858686773E+02  0.12183525377E+02 -0.11845307391E+02  0.96517212938E+02  0.92218779186E+02 0.  0.
         11    1    3    3    0    0 -0.38188987355E+00 -0.71234524767E+01 -0.48704901468E+02  0.49224555278E+02  0.51100000000E-03 0. -1.
         22    1    1    0    0    0  0.22858686773E+02 -0.12183525377E+02  0.11845307391E+02  0.28482787062E+02  0.00000000000E+00 0. -1.
</event>
<event>
 5    1  0.8962782E-005  0.9118800E+02  0.7818608E-02  0.1130116E+00
         25   -1    0    0    0    0  0.00000000000E+00  0.00000000000E+00  0.99999998245E-14  0.12500000000E+03  0.12500000000E+03 0.  0.
        -11    1    3    3    0    0  0.19778991492E+02 -0.41818233886E+02  0.37404815236E+02  0.59490279818E+02  0.51100000000E-03 0. -1.
         23    2    1    0    0    0  0.30285909773E+01 -0.28471835258E+02  0.91580061699E+01  0.94938615413E+02  0.90053616547E+02 0.  0.
         11    1    3    3    0    0 -0.16750400515E+02  0.13346398628E+02 -0.28246809066E+02  0.35448335595E+02  0.51100000000E-03 0.  1.
         22    1    1    0    0    0 -0.30285909773E+01  0.28471835258E+02 -0.91580061699E+01  0.30061384587E+02  0.00000000000E+00 0. -1.
</event>
<event>
 5    1  0.8962782E-005  0.9118800E+02  0.7818608E-02  0.1130116E+00
         25   -1    0    0    0    0  0.00000000000E+00  0.00000000000E+00  0.99999998245E-14  0.12500000000E+03  0.12500000000E+03 0.  0.
        -11    1    3    3    0    0 -0.21978837002E+02 -0.43310462102E+02 -0.34880733355E+02  0.59795743687E+02  0.51100000000E-03 0. -1.
         23    2    1    0    0    0 -0.22501253808E+02 -0.16528034925E+02 -0.13956986462E+02  0.93786544047E+02  0.88440013635E+02 0.  0.
         11    1    3    3    0    0 -0.52241680653E+00  0.26782427177E+02  0.20923746893E+02  0.33990800360E+02  0.51100000000E-03 0.  1.
         22    1    1    0    0    0  0.22501253808E+02  0.16528034925E+02  0.13956986462E+02  0.31213455953E+02  0.00000000000E+00 0. -1.
</event>
<event>
 5    1  0.8962782E-005  0.9118800E+02  0.7818608E-02  0.1130116E+00
         25   -1    0    0    0    0  0.00000000000E+00  0.00000000000E+00  0.99999998245E-14  0.12500000000E+03  0.12500000000E+03 0.  0.
        -11    1    3    3    0    0  0.17426682671E+02  0.11311564084E+02 -0.43807818660E+02  0.48484695801E+02  0.51100000000E-03 0. -1.
         23    2    1    0    0    0 -0.23293418692E-01 -0.23645929248E+02 -0.15667827141E+02  0.96634328495E+02  0.92377389678E+02 0.  0.
         11    1    3    3    0    0 -0.17449976090E+02 -0.34957493332E+02  0.28139991519E+02  0.48149632694E+02  0.51100000000E-03 0.  1.
         22    1    1    0    0    0  0.23293418692E-01  0.23645929248E+02  0.15667827141E+02  0.28365671505E+02  0.00000000000E+00 0. -1.
</event>
<event>
 5    1  0.8962782E-005  0.9118800E+02  0.7818608E-02  0.1130116E+00
         25   -1    0    0    0    0  0.00000000000E+00  0.00000000000E+00  0.99999998245E-14  0.12500000000E+03  0.12500000000E+03 0.  0.
        -11    1    3    3    0    0 -0.11898103115E+02  0.50475969274E+02 -0.17288555360E+02  0.54665185251E+02  0.51100000000E-03 0.  1.
         23    2    1    0    0    0  0.12210210494E+02  0.24185210019E+02  0.59810590523E+01  0.97254969970E+02  0.93213424422E+02 0.  0.
         11    1    3    3    0    0  0.24108313609E+02 -0.26290759255E+02  0.23269614412E+02  0.42589784719E+02  0.51100000000E-03 0. -1.
         22    1    1    0    0    0 -0.12210210494E+02 -0.24185210019E+02 -0.59810590523E+01  0.27745030030E+02  0.00000000000E+00 0.  1.
</event>
<event>
 5    1  0.8962782E-005  0.9118800E+02  0.7818608E-02  0.1130116E+00
         25   -1    0    0    0    0  0.00000000000E+00  0.00000000000E+00  0.99999998245E-14  0.12500000000E+03  0.12500000000E+03 0.  0.
        -11    1    3    3    0    0  0.86138414641E+01  0.55301525364E+02 -0.74109045196E-01  0.55968405952E+02  0.51100000000E-03 0. -1.
         23    2    1    0    0    0 -0.26222827351E+01  0.21683812387E+02  0.18849427005E+02  0.96149263704E+02  0.91718678174E+02 0.  0.
         11    1    3    3    0    0 -0.11236124199E+02 -0.33617712977E+02  0.18923536051E+02  0.40180857752E+02  0.51100000000E-03 0.  1.
         22    1    1    0    0    0  0.26222827351E+01 -0.21683812387E+02 -0.18849427005E+02  0.28850736296E+02  0.00000000000E+00 0. -1.
</event>
<event>
 5    1  0.8962782E-005  0.9118800E+02  0.7818608E-02  0.1130116E+00
         25   -1    0    0    0    0  0.00000000000E+00  0.00000000000E+00  0.99999998245E-14  0.12500000000E+03  0.12500000000E+03 0.  0.
        -11    1    3    3    0    0  0.25167213374E+02  0.39086065626E+02  0.84647994103E+01  0.47252110899E+02  0.51100000000E-03 0.  1.
         23    2    1    0    0    0  0.28111647940E+02  0.38562713682E+00 -0.15528939897E+02  0.92882069921E+02  0.87152266065E+02 0.  0.
         11    1    3    3    0    0  0.29444345664E+01 -0.38700438489E+02 -0.23993739307E+02  0.45629959022E+02  0.51100000000E-03 0. -1.
         22    1    1    0    0    0 -0.28111647940E+02 -0.38562713682E+00  0.15528939897E+02  0.32117930079E+02  0.00000000000E+00 0.  1.
</event>
<event>
 5    1  0.8962782E-005  0.9118800E+02  0.7818608E-02  0.1130116E+00
         25   -1    0    0    0    0  0.00000000000E+00  0.00000000000E+00  0.99999998245E-14  0.12500000000E+03  0.12500000000E+03 0.  0.
        -11    1    3    3    0    0 -0.39224060943E+02  0.19464337682E+02  0.44367741644E+02  0.62336858255E+02  0.51100000000E-03 0. -1.
         23    2    1    0    0    0 -0.15281736858E+02  0.83839509533E+01  0.22050987722E+02  0.96891848611E+02  0.92725196968E+02 0.  0.
         11    1    3    3    0    0  0.23942324085E+02 -0.11080386729E+02 -0.22316753922E+02  0.34554990356E+02  0.51100000000E-03 0.  1.
         22    1    1    0    0    0  0.15281736858E+02 -0.83839509533E+01 -0.22050987722E+02  0.28108151389E+02  0.00000000000E+00 0. -1.
</event>
<event>
 5    1  0.8962782E-005  0.9118800E+02  0.7818608E-02  0.1130116E+00
         25   -1    0    0    0    0  0.00000000000E+00  0.00000000000E+00  0.99999998245E-14  0.12500000000E+03  0.12500000000E+03 0.  0.
        -11    1    3    3    0    0  0.41372399329E+02  0.36677138937E+02 -0.64010841486E+01  0.55658438942E+02  0.51100000000E-03 0. -1.
         23    2    1    0    0    0  0.28529097661E+01  0.29677902492E+02 -0.44270663799E+01  0.94858402378E+02  0.89942206969E+02 0.  0.
         11    1    3    3    0    0 -0.38519489563E+02 -0.69992364452E+01  0.19740177687E+01  0.39199963436E+02  0.51100000000E-03 0.  1.
         22    1    1    0    0    0 -0.28529097661E+01 -0.29677902492E+02  0.44270663799E+01  0.30141597622E+02  0.00000000000E+00 0. -1.
</event>
<event>
 5    1  0.8962782E-005  0.9118800E+02  0.7818608E-02  0.1130116E+00
         25   -1    0    0    0    0  0.00000000000E+00  0.00000000000E+00  0.99999998245E-14  0.12500000000E+03  0.12500000000E+03 0.  0.
        -11    1    3    3    0    0 -0.16497717863E+02  0.12958278218E+02 -0.27960544639E+02  0.34955453449E+02  0.51100000000E-03 0.  1.
         23    2    1    0    0    0  0.20761427235E+02 -0.13355915435E+01  0.19168926137E+02  0.96710984555E+02  0.92481058270E+02 0.  0.
         11    1    3    3    0    0  0.37259145098E+02 -0.14293869762E+02  0.47129470776E+02  0.61755531106E+02  0.51100000000E-03 0. -1.
         22    1    1    0    0    0 -0.20761427235E+02  0.13355915435E+01 -0.19168926137E+02  0.28289015445E+02  0.00000000000E+00 0. -1.
</event>
<event>
 5    1  0.8962782E-005  0.9118800E+02  0.7818608E-02  0.1130116E+00
         25   -1    0    0    0    0  0.00000000000E+00  0.00000000000E+00  0.99999998245E-14  0.12500000000E+03  0.12500000000E+03 0.  0.
        -11    1    3    3    0    0 -0.39725465590E+02 -0.20493253925E+01 -0.12998764876E+02  0.41848300318E+02  0.51100000000E-03 0. -1.
         23    2    1    0    0    0  0.64070800070E+01  0.26777218115E+02 -0.71047274169E+01  0.96565034977E+02  0.92283577868E+02 0.  0.
         11    1    3    3    0    0  0.46132545597E+02  0.28826543508E+02  0.58940374589E+01  0.54716734659E+02  0.51100000000E-03 0.  1.
         22    1    1    0    0    0 -0.64070800070E+01 -0.26777218115E+02  0.71047274169E+01  0.28434965023E+02  0.00000000000E+00 0.  1.
</event>
<event>
 5    1  0.8962782E-005  0.9118800E+02  0.7818608E-02  0.1130116E+00
         25   -1    0    0    0    0  0.00000000000E+00  0.00000000000E+00  0.99999998245E-14  0.12500000000E+03  0.12500000000E+03 0.  0.
        -11    1    3    3    0    0  0.15126023130E+02  0.66815341254E+01 -0.27188931529E+02  0.31822593734E+02  0.51100000000E-03 0.  1.
         23    2    1    0    0    0  0.44062798618E+01 -0.75009168645E+01  0.31070749075E+02  0.92734375814E+02  0.86940174565E+02 0.  0.
         11    1    3    3    0    0 -0.10719743268E+02 -0.14182450990E+02  0.58259680604E+02  0.60911782080E+02  0.51100000000E-03 0. -1.
         22    1    1    0    0    0 -0.44062798618E+01  0.75009168645E+01 -0.31070749075E+02  0.32265624186E+02  0.00000000000E+00 0. -1.
</event>
<event>
 5    1  0.8962782E-005  0.9118800E+02  0.7818608E-02  0.1130116E+00
         25   -1    0    0    0    0  0.00000000000E+00  0.00000000000E+00  0.99999998245E-14  0.12500000000E+03  0.12500000000E+03 0.  0.
        -11    1    3    3    0    0 -0.14304160508E+02  0.74316800245E+01 -0.30255131362E+02  0.34281363010E+02  0.51100000000E-03 0.  1.
         23    2    1    0    0    0  0.26155575892E+02 -0.10541960361E+02  0.10937135486E+02  0.94753214863E+02  0.89795900328E+02 0.  0.
         11    1    3    3    0    0  0.40459736399E+02 -0.17973640385E+02  0.41192266848E+02  0.60471851853E+02  0.51100000000E-03 0. -1.
         22    1    1    0    0    0 -0.26155575892E+02  0.10541960361E+02 -0.10937135486E+02  0.30246785137E+02  0.00000000000E+00 0. -1.
</event>
<event>
 5    1  0.8962782E-005  0.9118800E+02  0.7818608E-02  0.1130116E+00
         25   -1    0    0    0    0  0.00000000000E+00  0.00000000000E+00  0.99999998245E-14  0.12500000000E+03  0.12500000000E+03 0.  0.
        -11    1    3    3    0    0  0.63832476513E+01 -0.33528118540E+02  0.13751363395E+02  0.36796475088E+02  0.51100000000E-03 0.  1.
         23    2    1    0    0    0  0.81122568628E+01  0.13081052164E+02 -0.23786875912E+02  0.96667366822E+02  0.92422084512E+02 0.  0.
         11    1    3    3    0    0  0.17290092116E+01  0.46609170704E+02 -0.37538239307E+02  0.59870891735E+02  0.51100000000E-03 0. -1.
         22    1    1    0    0    0 -0.81122568628E+01 -0.13081052164E+02  0.23786875912E+02  0.28332633178E+02  0.00000000000E+00 0. -1.
</event>
<event>
 5    1  0.8962782E-005  0.9118800E+02  0.7818608E-02  0.1130116E+00
         25   -1    0    0    0    0  0.00000000000E+00  0.00000000000E+00  0.99999998245E-14  0.12500000000E+03  0.12500000000E+03 0.  0.
        -11    1    3    3    0    0  0.13370223272E+02  0.29054958262E+02 -0.25612211140E+02  0.40974856067E+02  0.51100000000E-03 0.  1.
         23    2    1    0    0    0  0.22740126412E+00  0.14772089219E+02  0.25433901056E+02  0.95586573573E+02  0.90948575543E+02 0.  0.
         11    1    3    3    0    0 -0.13142822008E+02 -0.14282869043E+02  0.51046112196E+02  0.54611717506E+02  0.51100000000E-03 0. -1.
         22    1    1    0    0    0 -0.22740126412E+00 -0.14772089219E+02 -0.25433901056E+02  0.29413426427E+02  0.00000000000E+00 0.  1.
</event>
<event>
 5    1  0.8962782E-005  0.9118800E+02  0.7818608E-02  0.1130116E+00
         25   -1    0    0    0    0  0.00000000000E+00  0.00000000000E+00  0.99999998245E-14  0.12500000000E+03  0.12500000000E+03 0.  0.
        -11    1    3    3    0    0  0.13842390623E+02  0.14308525808E+02 -0.46898585005E+02  0.50949219471E+02  0.51100000000E-03 0.  1.
         23    2    1    0    0    0  0.23922162443E+02 -0.11872742687E+02 -0.12012602240E+02  0.95716310215E+02  0.91126711527E+02 0.  0.
         11    1    3    3    0    0  0.10079771820E+02 -0.26181268495E+02  0.34885982765E+02  0.44767090744E+02  0.51100000000E-03 0. -1.
         22    1    1    0    0    0 -0.23922162443E+02  0.11872742687E+02  0.12012602240E+02  0.29283689785E+02  0.00000000000E+00 0. -1.
</event>
<event>
 5    1  0.8962782E-005  0.9118800E+02  0.7818608E-02  0.1130116E+00
         25   -1    0    0    0    0  0.00000000000E+00  0.00000000000E+00  0.99999998245E-14  0.12500000000E+03  0.12500000000E+03 0.  0.
        -11    1    3    3    0    0  0.36554692886E+01 -0.60310667657E+02  0.15923160856E+00  0.60421556120E+02  0.51100000000E-03 0.  1.
         23    2    1    0    0    0  0.10181992441E+02 -0.47180350500E+02 -0.60709597281E+01  0.76353160479E+02  0.58849724890E+02 0.  0.
         11    1    3    3    0    0  0.65265231522E+01  0.13130317157E+02 -0.62301913367E+01  0.15931604359E+02  0.51100000000E-03 0. -1.
         22    1    1    0    0    0 -0.10181992441E+02  0.47180350500E+02  0.60709597281E+01  0.48646839521E+02  0.00000000000E+00 0.  1.
</event>
<event>
 5    1  0.8962782E-005  0.9118800E+02  0.7818608E-02  0.1130116E+00
         25   -1    0    0    0    0  0.00000000000E+00  0.00000000000E+00  0.99999998245E-14  0.12500000000E+03  0.12500000000E+03 0.  0.
        -11    1    3    3    0    0 -0.55103639215E+02  0.18294059818E+02  0.19290455637E+02  0.61181740399E+02  0.51100000000E-03 0.  1.
         23    2    1    0    0    0 -0.21598526104E+02  0.15619778585E+02  0.12868795894E+02  0.95401356101E+02  0.90693654823E+02 0.  0.
         11    1    3    3    0    0  0.33505113110E+02 -0.26742812324E+01 -0.64216597431E+01  0.34219615702E+02  0.51100000000E-03 0. -1.
         22    1    1    0    0    0  0.21598526104E+02 -0.15619778585E+02 -0.12868795894E+02  0.29598643899E+02  0.00000000000E+00 0.  1.
</event>
<event>
 5    1  0.8962782E-005  0.9118800E+02  0.7818608E-02  0.1130116E+00
         25   -1    0    0    0    0  0.00000000000E+00  0.00000000000E+00  0.99999998245E-14  0.12500000000E+03  0.12500000000E+03 0.  0.
        -11    1    3    3    0    0  0.44642693468E+02 -0.19458428421E+02 -0.12928137249E+02  0.50385883436E+02  0.51100000000E-03 0. -1.
         23    2    1    0    0    0  0.75571053221E+01 -0.25918603420E+02  0.11916258697E+02  0.95489305914E+02  0.90814792179E+02 0.  0.
         11    1    3    3    0    0 -0.37085588145E+02 -0.64601749986E+01  0.24844395945E+02  0.45103422478E+02  0.51100000000E-03 0.  1.
         22    1    1    0    0    0 -0.75571053221E+01  0.25918603420E+02 -0.11916258697E+02  0.29510694086E+02  0.00000000000E+00 0. -1.
</event>
<event>
 5    1  0.8962782E-005  0.9118800E+02  0.7818608E-02  0.1130116E+00
         25   -1    0    0    0    0  0.00000000000E+00  0.00000000000E+00  0.99999998245E-14  0.12500000000E+03  0.12500000000E+03 0.  0.
        -11    1    3    3    0    0 -0.38175932903E+02  0.20731902765E+02 -0.11283861595E+02  0.44883618147E+02  0.51100000000E-03 0.  1.
         23    2    1    0    0    0  0.86368439489E+01  0.26030280655E+02  0.89418579770E+01  0.96153381335E+02  0.91724289769E+02 0.  0.
         11    1    3    3    0    0  0.46812776852E+02  0.52983778898E+01  0.20225719572E+02  0.51269763187E+02  0.51100000000E-03 0. -1.
         22    1    1    0    0    0 -0.86368439489E+01 -0.26030280655E+02 -0.89418579770E+01  0.28846618665E+02  0.00000000000E+00 0.  1.
</event>
<event>
 5    1  0.8962782E-005  0.9118800E+02  0.7818608E-02  0.1130116E+00
         25   -1    0    0    0    0  0.00000000000E+00  0.00000000000E+00  0.99999998245E-14  0.12500000000E+03  0.12500000000E+03 0.  0.
        -11    1    3    3    0    0  0.14087395932E+02 -0.21137522749E+02  0.32244429109E+02  0.41048176585E+02  0.51100000000E-03 0.  1.
         23    2    1    0    0    0  0.17411101295E+02  0.11938873950E+02 -0.15204512219E+02  0.98983460043E+02  0.95503219897E+02 0.  0.
         11    1    3    3    0    0  0.33237053635E+01  0.33076396699E+02 -0.47448941328E+02  0.57935283458E+02  0.51100000000E-03 0. -1.
         22    1    1    0    0    0 -0.17411101295E+02 -0.11938873950E+02  0.15204512219E+02  0.26016539957E+02  0.00000000000E+00 0. -1.
</event>
<event>
 5    1  0.8962782E-005  0.9118800E+02  0.7818608E-02  0.1130116E+00
         25   -1    0    0    0    0  0.00000000000E+00  0.00000000000E+00  0.99999998245E-14  0.12500000000E+03  0.12500000000E+03 0.  0.
        -11    1    3    3    0    0  0.36061812586E+02 -0.62654337341E+01  0.39128495629E+00  0.36604140354E+02  0.51100000000E-03 0.  1.
         23    2    1    0    0    0 -0.21705609162E+02 -0.13535029942E+01  0.17537168129E+02  0.97062253036E+02  0.92954630110E+02 0.  0.
         11    1    3    3    0    0 -0.57767421748E+02  0.49119307399E+01  0.17145883172E+02  0.60458112682E+02  0.51100000000E-03 0. -1.
         22    1    1    0    0    0  0.21705609162E+02  0.13535029942E+01 -0.17537168129E+02  0.27937746964E+02  0.00000000000E+00 0. -1.
</event>
<event>
 5    1  0.8962782E-005  0.9118800E+02  0.7818608E-02  0.1130116E+00
         25   -1    0    0    0    0  0.00000000000E+00  0.00000000000E+00  0.99999998245E-14  0.12500000000E+03  0.12500000000E+03 0.  0.
        -11    1    3    3    0    0  0.73795531857E+01 -0.26929117758E+02 -0.11588085260E+02  0.30231091755E+02  0.51100000000E-03 0. -1.
         23    2    1    0    0    0  0.21788922602E+02  0.20352027229E+02  0.20188646677E+02  0.88992450581E+02  0.81382508227E+02 0.  0.
         11    1    3    3    0    0  0.14409369416E+02  0.47281144987E+02  0.31776731937E+02  0.58761358826E+02  0.51100000000E-03 0.  1.
         22    1    1    0    0    0 -0.21788922602E+02 -0.20352027229E+02 -0.20188646677E+02  0.36007549419E+02  0.00000000000E+00 0.  1.
</event>
<event>
 5    1  0.8962782E-005  0.9118800E+02  0.7818608E-02  0.1130116E+00
         25   -1    0    0    0    0  0.00000000000E+00  0.00000000000E+00  0.99999998245E-14  0.12500000000E+03  0.12500000000E+03 0.  0.
        -11    1    3    3    0    0  0.21216491067E+01 -0.85141760868E+01 -0.38104112142E+02  0.39101354858E+02  0.51100000000E-03 0.  1.
         23    2    1    0    0    0  0.87871856743E+01  0.30867305956E+02 -0.21622378290E+01  0.92833550375E+02  0.87082648063E+02 0.  0.
         11    1    3    3    0    0  0.66655365676E+01  0.39381482043E+02  0.35941874313E+02  0.53732195516E+02  0.51100000000E-03 0. -1.
         22    1    1    0    0    0 -0.87871856743E+01 -0.30867305956E+02  0.21622378290E+01  0.32166449625E+02  0.00000000000E+00 0.  1.
</event>
<event>
 5    1  0.8962782E-005  0.9118800E+02  0.7818608E-02  0.1130116E+00
         25   -1    0    0    0    0  0.00000000000E+00  0.00000000000E+00  0.99999998245E-14  0.12500000000E+03  0.12500000000E+03 0.  0.
        -11    1    3    3    0    0  0.13484008436E+02  0.39302388030E+01 -0.44828058714E+02  0.46976803945E+02  0.51100000000E-03 0. -1.
         23    2    1    0    0    0  0.14349002101E+02 -0.26422157393E+02 -0.97054775957E+01  0.93405371375E+02  0.87899617995E+02 0.  0.
         11    1    3    3    0    0  0.86499366517E+00 -0.30352396196E+02  0.35122581119E+02  0.46428567430E+02  0.51100000000E-03 0.  1.
         22    1    1    0    0    0 -0.14349002101E+02  0.26422157393E+02  0.97054775957E+01  0.31594628625E+02  0.00000000000E+00 0.  1.
</event>
<event>
 5    1  0.8962782E-005  0.9118800E+02  0.7818608E-02  0.1130116E+00
         25   -1    0    0    0    0  0.00000000000E+00  0.00000000000E+00  0.99999998245E-14  0.12500000000E+03  0.12500000000E+03 0.  0.
        -11    1    3    3    0    0 -0.88614447054E+01  0.36024077414E+01 -0.55323888568E+02  0.56144769929E+02  0.51100000000E-03 0.  1.
         23    2    1    0    0    0 -0.24234796441E+01  0.20595005228E+02 -0.18491132399E+02  0.97216021320E+02  0.93161179307E+02 0.  0.
         11    1    3    3    0    0  0.64379650614E+01  0.16992597487E+02  0.36832756170E+02  0.41071251390E+02  0.51100000000E-03 0. -1.
         22    1    1    0    0    0  0.24234796441E+01 -0.20595005228E+02  0.18491132399E+02  0.27783978680E+02  0.00000000000E+00 0.  1.
</event>
<event>
 5    1  0.8962782E-005  0.9118800E+02  0.7818608E-02  0.1130116E+00
         25   -1    0    0    0    0  0.00000000000E+00  0.00000000000E+00  0.99999998245E-14  0.12500000000E+03  0.12500000000E+03 0.  0.
        -11    1    3    3    0    0 -0.36248907340E+02  0.35450716216E+02  0.28287613012E+02  0.58059672870E+02  0.51100000000E-03 0.  1.
         23    2    1    0    0    0 -0.56639631555E+01 -0.15260002586E+01  0.16521936482E+02  0.10746764304E+03  0.10602787728E+03 0.  0.
         11    1    3    3    0    0  0.30584944185E+02 -0.36976716474E+02 -0.11765676531E+02  0.49407970172E+02  0.51100000000E-03 0. -1.
         22    1    1    0    0    0  0.56639631555E+01  0.15260002586E+01 -0.16521936482E+02  0.17532356958E+02  0.00000000000E+00 0. -1.
</event>
<event>
 5    1  0.8962782E-005  0.9118800E+02  0.7818608E-02  0.1130116E+00
         25   -1    0    0    0    0  0.00000000000E+00  0.00000000000E+00  0.99999998245E-14  0.12500000000E+03  0.12500000000E+03 0.  0.
        -11    1    3    3    0    0 -0.77980874736E+01 -0.15836094106E+02 -0.34377282909E+02  0.38644399662E+02  0.51100000000E-03 0.  1.
         23    2    1    0    0    0  0.22982124086E+02  0.16243090249E+02  0.29613258835E+01  0.96701847068E+02  0.92468706961E+02 0.  0.
         11    1    3    3    0    0  0.30780211560E+02  0.32079184355E+02  0.37338608792E+02  0.58057447407E+02  0.51100000000E-03 0. -1.
         22    1    1    0    0    0 -0.22982124086E+02 -0.16243090249E+02 -0.29613258835E+01  0.28298152932E+02  0.00000000000E+00 0. -1.
</event>
<event>
 5    1  0.8962782E-005  0.9118800E+02  0.7818608E-02  0.1130116E+00
         25   -1    0    0    0    0  0.00000000000E+00  0.00000000000E+00  0.99999998245E-14  0.12500000000E+03  0.12500000000E+03 0.  0.
        -11    1    3    3    0    0  0.38801634407E+02 -0.78912268656E-01 -0.41341730226E+02  0.56698427828E+02  0.51100000000E-03 0.  1.
         23    2    1    0    0    0  0.48827059701E+01 -0.11023238891E+02 -0.27573035850E+02  0.94906397370E+02  0.90008884798E+02 0.  0.
         11    1    3    3    0    0 -0.33918928437E+02 -0.10944326622E+02  0.13768694376E+02  0.38207969543E+02  0.51100000000E-03 0. -1.
         22    1    1    0    0    0 -0.48827059701E+01  0.11023238891E+02  0.27573035850E+02  0.30093602630E+02  0.00000000000E+00 0.  1.
</event>
<event>
 5    1  0.8962782E-005  0.9118800E+02  0.7818608E-02  0.1130116E+00
         25   -1    0    0    0    0  0.00000000000E+00  0.00000000000E+00  0.99999998245E-14  0.12500000000E+03  0.12500000000E+03 0.  0.
        -11    1    3    3    0    0 -0.23213888810E+02 -0.12698906470E+02 -0.23156059722E+02  0.35161768462E+02  0.51100000000E-03 0. -1.
         23    2    1    0    0    0 -0.69929253172E+01  0.11516549383E+02  0.27937079631E+02  0.93983676354E+02  0.88718200435E+02 0.  0.
         11    1    3    3    0    0  0.16220963493E+02  0.24215455853E+02  0.51093139354E+02  0.58821907892E+02  0.51100000000E-03 0.  1.
         22    1    1    0    0    0  0.69929253172E+01 -0.11516549383E+02 -0.27937079631E+02  0.31016323646E+02  0.00000000000E+00 0.  1.
</event>
<event>
 5    1  0.8962782E-005  0.9118800E+02  0.7818608E-02  0.1130116E+00
         25   -1    0    0    0    0  0.00000000000E+00  0.00000000000E+00  0.99999998245E-14  0.12500000000E+03  0.12500000000E+03 0.  0.
        -11    1    3    3    0    0 -0.17417834168E+01  0.23919531634E+02 -0.49730038837E+02  0.55211000407E+02  0.51100000000E-03 0.  1.
         23    2    1    0    0    0  0.20068740047E+02  0.69317800432E+01 -0.19567545615E+02  0.96126262053E+02  0.91687324714E+02 0.  0.
         11    1    3    3    0    0  0.21810523464E+02 -0.16987751590E+02  0.30162493222E+02  0.40915261645E+02  0.51100000000E-03 0. -1.
         22    1    1    0    0    0 -0.20068740047E+02 -0.69317800432E+01  0.19567545615E+02  0.28873737947E+02  0.00000000000E+00 0.  1.
</event>
<event>
 5    1  0.8962782E-005  0.9118800E+02  0.7818608E-02  0.1130116E+00
         25   -1    0    0    0    0  0.00000000000E+00  0.00000000000E+00  0.99999998245E-14  0.12500000000E+03  0.12500000000E+03 0.  0.
        -11    1    3    3    0    0 -0.34592650233E+02 -0.19242696145E+02  0.19209895510E+02  0.43999464666E+02  0.51100000000E-03 0. -1.
         23    2    1    0    0    0  0.67015265538E+01 -0.25618754351E+02 -0.11776296312E+02  0.96018761457E+02  0.91540648699E+02 0.  0.
         11    1    3    3    0    0  0.41294176787E+02 -0.63760582060E+01 -0.30986191822E+02  0.52019296791E+02  0.51100000000E-03 0.  1.
         22    1    1    0    0    0 -0.67015265538E+01  0.25618754351E+02  0.11776296312E+02  0.28981238543E+02  0.00000000000E+00 0.  1.
</event>
<event>
 5    1  0.8962782E-005  0.9118800E+02  0.7818608E-02  0.1130116E+00
         25   -1    0    0    0    0  0.00000000000E+00  0.00000000000E+00  0.99999998245E-14  0.12500000000E+03  0.12500000000E+03 0.  0.
        -11    1    3    3    0    0 -0.19599313266E+02  0.31858490832E+02 -0.46953212559E+02  0.60030831149E+02  0.51100000000E-03 0.  1.
         23    2    1    0    0    0 -0.66744424863E+01  0.45422819844E+01 -0.28362089643E+02  0.95511211672E+02  0.90844938868E+02 0.  0.
         11    1    3    3    0    0  0.12924870780E+02 -0.27316208848E+02  0.18591122916E+02  0.35480380523E+02  0.51100000000E-03 0. -1.
         22    1    1    0    0    0  0.66744424863E+01 -0.45422819844E+01  0.28362089643E+02  0.29488788328E+02  0.00000000000E+00 0.  1.
</event>
<event>
 5    1  0.8962782E-005  0.9118800E+02  0.7818608E-02  0.1130116E+00
         25   -1    0    0    0    0  0.00000000000E+00  0.00000000000E+00  0.99999998245E-14  0.12500000000E+03  0.12500000000E+03 0.  0.
        -11    1    3    3    0    0  0.22716070869E+02  0.52373275639E+02  0.15094135421E+02  0.59049240480E+02  0.51100000000E-03 0.  1.
         23    2    1    0    0    0  0.16268809241E+02  0.18198881273E+02  0.19029592603E+02  0.94048443847E+02  0.88809408070E+02 0.  0.
         11    1    3    3    0    0 -0.64472616284E+01 -0.34174394366E+02  0.39354571817E+01  0.34999203367E+02  0.51100000000E-03 0. -1.
         22    1    1    0    0    0 -0.16268809241E+02 -0.18198881273E+02 -0.19029592603E+02  0.30951556153E+02  0.00000000000E+00 0.  1.
</event>
<event>
 5    1  0.8962782E-005  0.9118800E+02  0.7818608E-02  0.1130116E+00
         25   -1    0    0    0    0  0.00000000000E+00  0.00000000000E+00  0.99999998245E-14  0.12500000000E+03  0.12500000000E+03 0.  0.
        -11    1    3    3    0    0  0.30456645249E+02 -0.50158162386E+02  0.17659355791E+01  0.58707469904E+02  0.51100000000E-03 0.  1.
         23    2    1    0    0    0  0.24334705213E+02 -0.14839483695E+02 -0.70867296685E+01  0.95629778831E+02  0.91007937609E+02 0.  0.
         11    1    3    3    0    0 -0.61219400367E+01  0.35318678691E+02 -0.88526652477E+01  0.36922308927E+02  0.51100000000E-03 0. -1.
         22    1    1    0    0    0 -0.24334705213E+02  0.14839483695E+02  0.70867296685E+01  0.29370221169E+02  0.00000000000E+00 0.  1.
</event>
<event>
 5    1  0.8962782E-005  0.9118800E+02  0.7818608E-02  0.1130116E+00
         25   -1    0    0    0    0  0.00000000000E+00  0.00000000000E+00  0.99999998245E-14  0.12500000000E+03  0.12500000000E+03 0.  0.
        -11    1    3    3    0    0 -0.14515949012E+02 -0.47311286880E+02  0.37049088826E+02  0.61819945204E+02  0.51100000000E-03 0.  1.
         23    2    1    0    0    0 -0.29128002225E+01 -0.25540313148E+02  0.13327125941E+02  0.96044788264E+02  0.91576181761E+02 0.  0.
         11    1    3    3    0    0  0.11603148789E+02  0.21770973732E+02 -0.23721962885E+02  0.34224843060E+02  0.51100000000E-03 0. -1.
         22    1    1    0    0    0  0.29128002225E+01  0.25540313148E+02 -0.13327125941E+02  0.28955211736E+02  0.00000000000E+00 0.  1.
</event>
<event>
 5    1  0.8962782E-005  0.9118800E+02  0.7818608E-02  0.1130116E+00
         25   -1    0    0    0    0  0.00000000000E+00  0.00000000000E+00  0.99999998245E-14  0.12500000000E+03  0.12500000000E+03 0.  0.
        -11    1    3    3    0    0  0.77634288538E+01 -0.44383115126E+02 -0.41529251556E+01  0.45247967064E+02  0.51100000000E-03 0. -1.
         23    2    1    0    0    0  0.24054378163E+02  0.33275867942E+01 -0.14503797108E+02  0.96714914297E+02  0.92486369668E+02 0.  0.
         11    1    3    3    0    0  0.16290949309E+02  0.47710701920E+02 -0.10350871953E+02  0.51466947233E+02  0.51100000000E-03 0.  1.
         22    1    1    0    0    0 -0.24054378163E+02 -0.33275867942E+01  0.14503797108E+02  0.28285085703E+02  0.00000000000E+00 0.  1.
</event>
<event>
 5    1  0.8962782E-005  0.9118800E+02  0.7818608E-02  0.1130116E+00
         25   -1    0    0    0    0  0.00000000000E+00  0.00000000000E+00  0.99999998245E-14  0.12500000000E+03  0.12500000000E+03 0.  0.
        -11    1    3    3    0    0  0.34124616135E+02  0.44224311193E+02 -0.35042373896E+01  0.55969266627E+02  0.51100000000E-03 0.  1.
         23    2    1    0    0    0  0.27719956946E+02  0.40784032290E+01  0.15665172173E+01  0.96937866043E+02  0.92787210923E+02 0.  0.
         11    1    3    3    0    0 -0.64046591891E+01 -0.40145907964E+02  0.50707546068E+01  0.40968599416E+02  0.51100000000E-03 0. -1.
         22    1    1    0    0    0 -0.27719956946E+02 -0.40784032290E+01 -0.15665172173E+01  0.28062133957E+02  0.00000000000E+00 0.  1.
</event>
<event>
 5    1  0.8962782E-005  0.9118800E+02  0.7818608E-02  0.1130116E+00
         25   -1    0    0    0    0  0.00000000000E+00  0.00000000000E+00  0.99999998245E-14  0.12500000000E+03  0.12500000000E+03 0.  0.
        -11    1    3    3    0    0 -0.15508044599E+02  0.38132172872E+02  0.19814053134E+02  0.45685432658E+02  0.51100000000E-03 0. -1.
         23    2    1    0    0    0 -0.38722901258E+00 -0.88735897144E+01  0.27899328682E+02  0.95720944660E+02  0.91133068449E+02 0.  0.
         11    1    3    3    0    0  0.15120815587E+02 -0.47005762587E+02  0.80852755480E+01  0.50035512002E+02  0.51100000000E-03 0.  1.
         22    1    1    0    0    0  0.38722901258E+00  0.88735897144E+01 -0.27899328682E+02  0.29279055340E+02  0.00000000000E+00 0.  1.
</event>
<event>
 5    1  0.8962782E-005  0.9118800E+02  0.7818608E-02  0.1130116E+00
         25   -1    0    0    0    0  0.00000000000E+00  0.00000000000E+00  0.99999998245E-14  0.12500000000E+03  0.12500000000E+03 0.  0.
        -11    1    3    3    0    0 -0.20046903638E+01  0.61099489970E+01 -0.25740049866E+02  0.26531121868E+02  0.51100000000E-03 0.  1.
         23    2    1    0    0    0 -0.21977810151E+01 -0.30351259192E+02  0.22610452959E+02  0.87088764740E+02  0.78404025311E+02 0.  0.
         11    1    3    3    0    0 -0.19309065131E+00 -0.36461208189E+02  0.48350502824E+02  0.60557642872E+02  0.51100000000E-03 0. -1.
         22    1    1    0    0    0  0.21977810151E+01  0.30351259192E+02 -0.22610452959E+02  0.37911235260E+02  0.00000000000E+00 0. -1.
</event>
<event>
 5    1  0.8962782E-005  0.9118800E+02  0.7818608E-02  0.1130116E+00
         25   -1    0    0    0    0  0.00000000000E+00  0.00000000000E+00  0.99999998245E-14  0.12500000000E+03  0.12500000000E+03 0.  0.
        -11    1    3    3    0    0 -0.11530208132E+02 -0.10738561584E+02 -0.27267291484E+02  0.31492341761E+02  0.51100000000E-03 0.  1.
         23    2    1    0    0    0  0.27295300976E+02  0.14104723407E+02  0.11971629665E+02  0.92025819273E+02  0.85915393373E+02 0.  0.
         11    1    3    3    0    0  0.38825509107E+02  0.24843284992E+02  0.39238921148E+02  0.60533477513E+02  0.51100000000E-03 0. -1.
         22    1    1    0    0    0 -0.27295300976E+02 -0.14104723407E+02 -0.11971629665E+02  0.32974180727E+02  0.00000000000E+00 0. -1.
</event>
<event>
 5    1  0.8962782E-005  0.9118800E+02  0.7818608E-02  0.1130116E+00
         25   -1    0    0    0    0  0.00000000000E+00  0.00000000000E+00  0.99999998245E-14  0.12500000000E+03  0.12500000000E+03 0.  0.
        -11    1    3    3    0    0 -0.21099902693E+02 -0.20783258087E+02 -0.29289332437E+02  0.41653507718E+02  0.51100000000E-03 0. -1.
         23    2    1    0    0    0  0.25865433576E+02  0.70581250218E+00 -0.14317751425E+02  0.95427769255E+02  0.90730051878E+02 0.  0.
         11    1    3    3    0    0  0.46965336269E+02  0.21489070589E+02  0.14971581012E+02  0.53774261537E+02  0.51100000000E-03 0.  1.
         22    1    1    0    0    0 -0.25865433576E+02 -0.70581250218E+00  0.14317751425E+02  0.29572230745E+02  0.00000000000E+00 0.  1.
</event>
<event>
 5    1  0.8962782E-005  0.9118800E+02  0.7818608E-02  0.1130116E+00
         25   -1    0    0    0    0  0.00000000000E+00  0.00000000000E+00  0.99999998245E-14  0.12500000000E+03  0.12500000000E+03 0.  0.
        -11    1    3    3    0    0 -0.52663468921E+02  0.27154094025E+02 -0.27262782523E+01  0.59314571351E+02  0.51100000000E-03 0.  1.
         23    2    1    0    0    0 -0.28335166329E+02  0.43670130105E+00 -0.72978113799E+01  0.95736876280E+02  0.91154917970E+02 0.  0.
         11    1    3    3    0    0  0.24328302593E+02 -0.26717392724E+02 -0.45715331276E+01  0.36422304930E+02  0.51100000000E-03 0. -1.
         22    1    1    0    0    0  0.28335166329E+02 -0.43670130105E+00  0.72978113799E+01  0.29263123720E+02  0.00000000000E+00 0.  1.
</event>
<event>
 5    1  0.8962782E-005  0.9118800E+02  0.7818608E-02  0.1130116E+00
         25   -1    0    0    0    0  0.00000000000E+00  0.00000000000E+00  0.99999998245E-14  0.12500000000E+03  0.12500000000E+03 0.  0.
        -11    1    3    3    0    0 -0.29375435436E+02  0.73857080815E+01 -0.53190954757E+02  0.61210640898E+02  0.51100000000E-03 0. -1.
         23    2    1    0    0    0 -0.86517371293E+01  0.81996074350E+01 -0.31955880839E+02  0.90893337342E+02  0.84251613252E+02 0.  0.
         11    1    3    3    0    0  0.20723698307E+02  0.81389935349E+00  0.21235073918E+02  0.29682696445E+02  0.51100000000E-03 0.  1.
         22    1    1    0    0    0  0.86517371293E+01 -0.81996074350E+01  0.31955880839E+02  0.34106662658E+02  0.00000000000E+00 0. -1.
</event>
<event>
 5    1  0.8962782E-005  0.9118800E+02  0.7818608E-02  0.1130116E+00
         25   -1    0    0    0    0  0.00000000000E+00  0.00000000000E+00  0.99999998245E-14  0.12500000000E+03  0.12500000000E+03 0.  0.
        -11    1    3    3    0    0  0.25330997565E+01  0.35076691855E+02 -0.32614153782E+02  0.47963256072E+02  0.51100000000E-03 0.  1.
         23    2    1    0    0    0 -0.24401168384E+02  0.16573275687E+02  0.18350717746E+01  0.95445677576E+02  0.90754721057E+02 0.  0.
         11    1    3    3    0    0 -0.26934268141E+02 -0.18503416168E+02  0.34449225557E+02  0.47482421504E+02  0.51100000000E-03 0. -1.
         22    1    1    0    0    0  0.24401168384E+02 -0.16573275687E+02 -0.18350717746E+01  0.29554322424E+02  0.00000000000E+00 0. -1.
</event>
<event>
 5    1  0.8962782E-005  0.9118800E+02  0.7818608E-02  0.1130116E+00
         25   -1    0    0    0    0  0.00000000000E+00  0.00000000000E+00  0.99999998245E-14  0.12500000000E+03  0.12500000000E+03 0.  0.
        -11    1    3    3    0    0  0.54506310601E+01  0.21669731379E+02  0.50156704610E+02  0.54908848600E+02  0.51100000000E-03 0.  1.
         23    2    1    0    0    0  0.20406733829E+02  0.73123578153E+01  0.43006295090E+02  0.76839364833E+02  0.59873543474E+02 0.  0.
         11    1    3    3    0    0  0.14956102768E+02 -0.14357373564E+02 -0.71504095197E+01  0.21930516233E+02  0.51100000000E-03 0. -1.
         22    1    1    0    0    0 -0.20406733829E+02 -0.73123578153E+01 -0.43006295090E+02  0.48160635167E+02  0.00000000000E+00 0.  1.
</event>
<event>
 5    1  0.8962782E-005  0.9118800E+02  0.7818608E-02  0.1130116E+00
         25   -1    0    0    0    0  0.00000000000E+00  0.00000000000E+00  0.99999998245E-14  0.12500000000E+03  0.12500000000E+03 0.  0.
        -11    1    3    3    0    0  0.54059481508E+02 -0.18483981305E+02 -0.22925233205E+02  0.61560144766E+02  0.51100000000E-03 0.  1.
         23    2    1    0    0    0  0.26061650679E+02 -0.16732056633E+01 -0.13772794997E+02  0.95475448601E+02  0.90795716585E+02 0.  0.
         11    1    3    3    0    0 -0.27997830829E+02  0.16810775642E+02  0.91524382074E+01  0.33915303835E+02  0.51100000000E-03 0. -1.
         22    1    1    0    0    0 -0.26061650679E+02  0.16732056633E+01  0.13772794997E+02  0.29524551399E+02  0.00000000000E+00 0.  1.
</event>
<event>
 5    1  0.8962782E-005  0.9118800E+02  0.7818608E-02  0.1130116E+00
         25   -1    0    0    0    0  0.00000000000E+00  0.00000000000E+00  0.99999998245E-14  0.12500000000E+03  0.12500000000E+03 0.  0.
        -11    1    3    3    0    0  0.12910498591E+02 -0.23974883494E+02 -0.43093246850E+02  0.50975522918E+02  0.51100000000E-03 0.  1.
         23    2    1    0    0    0 -0.16387603212E+02 -0.25741800935E+02 -0.25779092712E+02  0.85053091791E+02  0.75088434181E+02 0.  0.
         11    1    3    3    0    0 -0.29298101803E+02 -0.17669174408E+01  0.17314154138E+02  0.34077568873E+02  0.51100000000E-03 0. -1.
         22    1    1    0    0    0  0.16387603212E+02  0.25741800935E+02  0.25779092712E+02  0.39946908209E+02  0.00000000000E+00 0.  1.
</event>
<event>
 5    1  0.8962782E-005  0.9118800E+02  0.7818608E-02  0.1130116E+00
         25   -1    0    0    0    0  0.00000000000E+00  0.00000000000E+00  0.99999998245E-14  0.12500000000E+03  0.12500000000E+03 0.  0.
        -11    1    3    3    0    0  0.32343683208E+02  0.45239190818E+02 -0.32318324261E+01  0.55705861185E+02  0.51100000000E-03 0.  1.
         23    2    1    0    0    0  0.31879201327E+02  0.92727852808E+01 -0.28524642493E+01  0.91677266373E+02  0.85406771354E+02 0.  0.
         11    1    3    3    0    0 -0.46448188078E+00 -0.35966405537E+02  0.37936817685E+00  0.35971405187E+02  0.51100000000E-03 0. -1.
         22    1    1    0    0    0 -0.31879201327E+02 -0.92727852808E+01  0.28524642493E+01  0.33322733627E+02  0.00000000000E+00 0.  1.
</event>
<event>
 5    1  0.8962782E-005  0.9118800E+02  0.7818608E-02  0.1130116E+00
         25   -1    0    0    0    0  0.00000000000E+00  0.00000000000E+00  0.99999998245E-14  0.12500000000E+03  0.12500000000E+03 0.  0.
        -11    1    3    3    0    0 -0.28663452059E+02  0.83389367543E+01 -0.33053630595E+02  0.44538453564E+02  0.51100000000E-03 0. -1.
         23    2    1    0    0    0 -0.22989625154E+02 -0.17198997917E+02  0.97287705853E+01  0.94685360448E+02  0.89701394148E+02 0.  0.
         11    1    3    3    0    0  0.56738269048E+01 -0.25537934671E+02  0.42782401180E+02  0.50146906884E+02  0.51100000000E-03 0.  1.
         22    1    1    0    0    0  0.22989625154E+02  0.17198997917E+02 -0.97287705853E+01  0.30314639552E+02  0.00000000000E+00 0. -1.
</event>
<event>
 5    1  0.8962782E-005  0.9118800E+02  0.7818608E-02  0.1130116E+00
         25   -1    0    0    0    0  0.00000000000E+00  0.00000000000E+00  0.99999998245E-14  0.12500000000E+03  0.12500000000E+03 0.  0.
        -11    1    3    3    0    0  0.86958142391E+01  0.60059219090E+01  0.49171549919E+02  0.50294429164E+02  0.51100000000E-03 0.  1.
         23    2    1    0    0    0 -0.33651843808E+01 -0.23614537364E+02  0.16623248268E+02  0.95925901152E+02  0.91413758746E+02 0.  0.
         11    1    3    3    0    0 -0.12060998620E+02 -0.29620459273E+02 -0.32548301651E+02  0.45631471989E+02  0.51100000000E-03 0. -1.
         22    1    1    0    0    0  0.33651843808E+01  0.23614537364E+02 -0.16623248268E+02  0.29074098848E+02  0.00000000000E+00 0.  1.
</event>
<event>
 5    1  0.8962782E-005  0.9118800E+02  0.7818608E-02  0.1130116E+00
         25   -1    0    0    0    0  0.00000000000E+00  0.00000000000E+00  0.99999998245E-14  0.12500000000E+03  0.12500000000E+03 0.  0.
        -11    1    3    3    0    0 -0.22024891256E+02  0.36216776921E+02 -0.17283402527E+02  0.45776268617E+02  0.51100000000E-03 0. -1.
         23    2    1    0    0    0 -0.10820239368E+02  0.10474912452E+02  0.24574872333E+02  0.96177687097E+02  0.91757407191E+02 0.  0.
         11    1    3    3    0    0  0.11204651887E+02 -0.25741864469E+02  0.41858274860E+02  0.50401418480E+02  0.51100000000E-03 0.  1.
         22    1    1    0    0    0  0.10820239368E+02 -0.10474912452E+02 -0.24574872333E+02  0.28822312903E+02  0.00000000000E+00 0.  1.
</event>
<event>
 5    1  0.8962782E-005  0.9118800E+02  0.7818608E-02  0.1130116E+00
         25   -1    0    0    0    0  0.00000000000E+00  0.00000000000E+00  0.99999998245E-14  0.12500000000E+03  0.12500000000E+03 0.  0.
        -11    1    3    3    0    0  0.43178891317E+02 -0.28739095413E+02 -0.26148909852E+02  0.58087156474E+02  0.51100000000E-03 0. -1.
         23    2    1    0    0    0  0.25357535258E+02 -0.16679477536E+02  0.32010595104E+01  0.94480230223E+02  0.89415085729E+02 0.  0.
         11    1    3    3    0    0 -0.17821356059E+02  0.12059617877E+02  0.29349969362E+02  0.36393073750E+02  0.51100000000E-03 0.  1.
         22    1    1    0    0    0 -0.25357535258E+02  0.16679477536E+02 -0.32010595104E+01  0.30519769777E+02  0.00000000000E+00 0. -1.
</event>
<event>
 5    1  0.8962782E-005  0.9118800E+02  0.7818608E-02  0.1130116E+00
         25   -1    0    0    0    0  0.00000000000E+00  0.00000000000E+00  0.99999998245E-14  0.12500000000E+03  0.12500000000E+03 0.  0.
        -11    1    3    3    0    0 -0.49899791363E+02  0.19600449719E+01  0.47045414788E+01  0.50159382624E+02  0.51100000000E-03 0.  1.
         23    2    1    0    0    0 -0.12346597943E+02  0.21491463074E+02 -0.14108279008E+02  0.96480445263E+02  0.92168928147E+02 0.  0.
         11    1    3    3    0    0  0.37553193420E+02  0.19531418102E+02 -0.18812820487E+02  0.46321062640E+02  0.51100000000E-03 0. -1.
         22    1    1    0    0    0  0.12346597943E+02 -0.21491463074E+02  0.14108279008E+02  0.28519554737E+02  0.00000000000E+00 0.  1.
</event>
<event>
 5    1  0.8962782E-005  0.9118800E+02  0.7818608E-02  0.1130116E+00
         25   -1    0    0    0    0  0.00000000000E+00  0.00000000000E+00  0.99999998245E-14  0.12500000000E+03  0.12500000000E+03 0.  0.
        -11    1    3    3    0    0  0.32059107514E+02  0.18844103618E+02 -0.19000341236E+02  0.41760023744E+02  0.51100000000E-03 0.  1.
         23    2    1    0    0    0 -0.17780717955E+01  0.27066951331E+02  0.17903327484E+02  0.92499068803E+02  0.86601196301E+02 0.  0.
         11    1    3    3    0    0 -0.33837179310E+02  0.82228477133E+01  0.36903668720E+02  0.50739045059E+02  0.51100000000E-03 0. -1.
         22    1    1    0    0    0  0.17780717955E+01 -0.27066951331E+02 -0.17903327484E+02  0.32500931197E+02  0.00000000000E+00 0. -1.
</event>
<event>
 5    1  0.8962782E-005  0.9118800E+02  0.7818608E-02  0.1130116E+00
         25   -1    0    0    0    0  0.00000000000E+00  0.00000000000E+00  0.99999998245E-14  0.12500000000E+03  0.12500000000E+03 0.  0.
        -11    1    3    3    0    0 -0.32305583797E+02 -0.75946024340E+01  0.19674944546E+02  0.38580204428E+02  0.51100000000E-03 0.  1.
         23    2    1    0    0    0  0.13988805581E+02  0.23926993903E+02  0.24518685894E+01  0.97175561490E+02  0.93106876075E+02 0.  0.
         11    1    3    3    0    0  0.46294389378E+02  0.31521596337E+02 -0.17223075957E+02  0.58595357062E+02  0.51100000000E-03 0. -1.
         22    1    1    0    0    0 -0.13988805581E+02 -0.23926993903E+02 -0.24518685894E+01  0.27824438510E+02  0.00000000000E+00 0. -1.
</event>
<event>
 5    1  0.8962782E-005  0.9118800E+02  0.7818608E-02  0.1130116E+00
         25   -1    0    0    0    0  0.00000000000E+00  0.00000000000E+00  0.99999998245E-14  0.12500000000E+03  0.12500000000E+03 0.  0.
        -11    1    3    3    0    0 -0.47814752155E+02  0.35912438639E+02  0.81101116489E+01  0.60346728858E+02  0.51100000000E-03 0. -1.
         23    2    1    0    0    0 -0.26968026952E+02  0.12008628620E+02 -0.56895285265E+01  0.94935862330E+02  0.90049795016E+02 0.  0.
         11    1    3    3    0    0  0.20846725203E+02 -0.23903810019E+02 -0.13799640175E+02  0.34589133472E+02  0.51100000000E-03 0.  1.
         22    1    1    0    0    0  0.26968026952E+02 -0.12008628620E+02  0.56895285265E+01  0.30064137670E+02  0.00000000000E+00 0. -1.
</event>
<event>
 5    1  0.8962782E-005  0.9118800E+02  0.7818608E-02  0.1130116E+00
         25   -1    0    0    0    0  0.00000000000E+00  0.00000000000E+00  0.99999998245E-14  0.12500000000E+03  0.12500000000E+03 0.  0.
        -11    1    3    3    0    0  0.30324921297E+01  0.26784682870E+02  0.27207870239E+02  0.38299914467E+02  0.51100000000E-03 0.  1.
         23    2    1    0    0    0  0.14906453647E+02  0.62694141926E+01 -0.24764864748E+02  0.95422873016E+02  0.90723306013E+02 0.  0.
         11    1    3    3    0    0  0.11873961517E+02 -0.20515268677E+02 -0.51972734987E+02  0.57122958549E+02  0.51100000000E-03 0. -1.
         22    1    1    0    0    0 -0.14906453647E+02 -0.62694141926E+01  0.24764864748E+02  0.29577126984E+02  0.00000000000E+00 0. -1.
</event>
<event>
 5    1  0.8962782E-005  0.9118800E+02  0.7818608E-02  0.1130116E+00
         25   -1    0    0    0    0  0.00000000000E+00  0.00000000000E+00  0.99999998245E-14  0.12500000000E+03  0.12500000000E+03 0.  0.
        -11    1    3    3    0    0  0.38313715904E+01  0.40613999331E+02 -0.24765892582E+02  0.47723430153E+02  0.51100000000E-03 0. -1.
         23    2    1    0    0    0  0.29511178090E+02  0.65238503901E+01 -0.68592703428E+01  0.94007745390E+02  0.88752106158E+02 0.  0.
         11    1    3    3    0    0  0.25679806500E+02 -0.34090148941E+02  0.17906622239E+02  0.46284315237E+02  0.51100000000E-03 0.  1.
         22    1    1    0    0    0 -0.29511178090E+02 -0.65238503901E+01  0.68592703428E+01  0.30992254610E+02  0.00000000000E+00 0. -1.
</event>
<event>
 5    1  0.8962782E-005  0.9118800E+02  0.7818608E-02  0.1130116E+00
         25   -1    0    0    0    0  0.00000000000E+00  0.00000000000E+00  0.99999998245E-14  0.12500000000E+03  0.12500000000E+03 0.  0.
        -11    1    3    3    0    0  0.39923485313E+02 -0.40111981919E+01 -0.24626452982E+02  0.47079046053E+02  0.51100000000E-03 0. -1.
         23    2    1    0    0    0  0.12857276768E+02  0.27631939394E+02 -0.20279584171E+01  0.94455831065E+02  0.89380969822E+02 0.  0.
         11    1    3    3    0    0 -0.27066208545E+02  0.31643137586E+02  0.22598494565E+02  0.47376785013E+02  0.51100000000E-03 0.  1.
         22    1    1    0    0    0 -0.12857276768E+02 -0.27631939394E+02  0.20279584171E+01  0.30544168935E+02  0.00000000000E+00 0. -1.
</event>
<event>
 5    1  0.8962782E-005  0.9118800E+02  0.7818608E-02  0.1130116E+00
         25   -1    0    0    0    0  0.00000000000E+00  0.00000000000E+00  0.99999998245E-14  0.12500000000E+03  0.12500000000E+03 0.  0.
        -11    1    3    3    0    0 -0.44439421613E+02 -0.29246912479E+02  0.10269415547E+02  0.54182146310E+02  0.51100000000E-03 0. -1.
         23    2    1    0    0    0 -0.15569429262E+02 -0.18875224574E+02 -0.16983112481E+02  0.95215652772E+02  0.90437344017E+02 0.  0.
         11    1    3    3    0    0  0.28869992351E+02  0.10371687905E+02 -0.27252528028E+02  0.41033506461E+02  0.51100000000E-03 0.  1.
         22    1    1    0    0    0  0.15569429262E+02  0.18875224574E+02  0.16983112481E+02  0.29784347228E+02  0.00000000000E+00 0. -1.
</event>
<event>
 5    1  0.8962782E-005  0.9118800E+02  0.7818608E-02  0.1130116E+00
         25   -1    0    0    0    0  0.00000000000E+00  0.00000000000E+00  0.99999998245E-14  0.12500000000E+03  0.12500000000E+03 0.  0.
        -11    1    3    3    0    0 -0.18748351173E+02 -0.46884809771E+02  0.18878705150E+02  0.53908177184E+02  0.51100000000E-03 0. -1.
         23    2    1    0    0    0 -0.27209709768E+02 -0.78379438726E+01  0.10949912522E+02  0.94640450365E+02  0.89638789547E+02 0.  0.
         11    1    3    3    0    0 -0.84613585945E+01  0.39046865898E+02 -0.79287926281E+01  0.40732273181E+02  0.51100000000E-03 0.  1.
         22    1    1    0    0    0  0.27209709768E+02  0.78379438726E+01 -0.10949912522E+02  0.30359549635E+02  0.00000000000E+00 0. -1.
</event>
<event>
 5    1  0.8962782E-005  0.9118800E+02  0.7818608E-02  0.1130116E+00
         25   -1    0    0    0    0  0.00000000000E+00  0.00000000000E+00  0.99999998245E-14  0.12500000000E+03  0.12500000000E+03 0.  0.
        -11    1    3    3    0    0  0.50781147480E+01 -0.35155375947E+02 -0.29748654698E+02  0.46332172019E+02  0.51100000000E-03 0. -1.
         23    2    1    0    0    0 -0.27018169719E+02 -0.28728904140E+01 -0.13430409361E+02  0.94691405676E+02  0.89709817852E+02 0.  0.
         11    1    3    3    0    0 -0.32096284467E+02  0.32282485533E+02  0.16318245337E+02  0.48359233657E+02  0.51100000000E-03 0.  1.
         22    1    1    0    0    0  0.27018169719E+02  0.28728904140E+01  0.13430409361E+02  0.30308594324E+02  0.00000000000E+00 0. -1.
</event>
<event>
 5    1  0.8962782E-005  0.9118800E+02  0.7818608E-02  0.1130116E+00
         25   -1    0    0    0    0  0.00000000000E+00  0.00000000000E+00  0.99999998245E-14  0.12500000000E+03  0.12500000000E+03 0.  0.
        -11    1    3    3    0    0  0.25988958787E+02 -0.33129900836E+02  0.30829985860E+02  0.52187204721E+02  0.51100000000E-03 0.  1.
         23    2    1    0    0    0  0.23727595608E+02 -0.36832725402E+01 -0.68200495606E+01  0.10003846227E+03  0.96874225504E+02 0.  0.
         11    1    3    3    0    0 -0.22613631793E+01  0.29446628296E+02 -0.37650035420E+02  0.47851257547E+02  0.51100000000E-03 0. -1.
         22    1    1    0    0    0 -0.23727595608E+02  0.36832725402E+01  0.68200495606E+01  0.24961537732E+02  0.00000000000E+00 0.  1.
</event>
<event>
 5    1  0.8962782E-005  0.9118800E+02  0.7818608E-02  0.1130116E+00
         25   -1    0    0    0    0  0.00000000000E+00  0.00000000000E+00  0.99999998245E-14  0.12500000000E+03  0.12500000000E+03 0.  0.
        -11    1    3    3    0    0  0.29923807185E+02 -0.99079165186E+01 -0.32008715358E+02  0.44923923530E+02  0.51100000000E-03 0.  1.
         23    2    1    0    0    0  0.22235233654E+02  0.19534710907E+02  0.71841483540E+01  0.94543103680E+02  0.89502938053E+02 0.  0.
         11    1    3    3    0    0 -0.76885735309E+01  0.29442627425E+02  0.39192863712E+02  0.49619180151E+02  0.51100000000E-03 0. -1.
         22    1    1    0    0    0 -0.22235233654E+02 -0.19534710907E+02 -0.71841483540E+01  0.30456896320E+02  0.00000000000E+00 0. -1.
</event>
<event>
 5    1  0.8962782E-005  0.9118800E+02  0.7818608E-02  0.1130116E+00
         25   -1    0    0    0    0  0.00000000000E+00  0.00000000000E+00  0.99999998245E-14  0.12500000000E+03  0.12500000000E+03 0.  0.
        -11    1    3    3    0    0 -0.33487539138E+02  0.72033102991E+01 -0.27174924636E+02  0.43723900627E+02  0.51100000000E-03 0. -1.
         23    2    1    0    0    0 -0.19511229615E+02  0.62443210023E+01  0.22049195538E+02  0.94902713582E+02  0.90003768785E+02 0.  0.
         11    1    3    3    0    0  0.13976309523E+02 -0.95898929686E+00  0.49224120174E+02  0.51178812955E+02  0.51100000000E-03 0.  1.
         22    1    1    0    0    0  0.19511229615E+02 -0.62443210023E+01 -0.22049195538E+02  0.30097286418E+02  0.00000000000E+00 0.  1.
</event>
<event>
 5    1  0.8962782E-005  0.9118800E+02  0.7818608E-02  0.1130116E+00
         25   -1    0    0    0    0  0.00000000000E+00  0.00000000000E+00  0.99999998245E-14  0.12500000000E+03  0.12500000000E+03 0.  0.
        -11    1    3    3    0    0 -0.14041618815E+01  0.52787720399E+02 -0.24855368062E+02  0.58363553844E+02  0.51100000000E-03 0.  1.
         23    2    1    0    0    0  0.14730582521E+02  0.20438368554E+02 -0.14337476937E+02  0.96012412734E+02  0.91531979022E+02 0.  0.
         11    1    3    3    0    0  0.16134744403E+02 -0.32349351845E+02  0.10517891125E+02  0.37648858890E+02  0.51100000000E-03 0. -1.
         22    1    1    0    0    0 -0.14730582521E+02 -0.20438368554E+02  0.14337476937E+02  0.28987587266E+02  0.00000000000E+00 0.  1.
</event>
<event>
 5    1  0.8962782E-005  0.9118800E+02  0.7818608E-02  0.1130116E+00
         25   -1    0    0    0    0  0.00000000000E+00  0.00000000000E+00  0.99999998245E-14  0.12500000000E+03  0.12500000000E+03 0.  0.
        -11    1    3    3    0    0  0.29862861693E+02  0.18959459980E+02  0.35375033085E+02  0.50026438982E+02  0.51100000000E-03 0. -1.
         23    2    1    0    0    0  0.79049012509E+01  0.29156718999E+02 -0.21836264627E+01  0.94711884326E+02  0.89738347887E+02 0.  0.
         11    1    3    3    0    0 -0.21957960442E+02  0.10197259019E+02 -0.37558659548E+02  0.44685445344E+02  0.51100000000E-03 0.  1.
         22    1    1    0    0    0 -0.79049012509E+01 -0.29156718999E+02  0.21836264627E+01  0.30288115674E+02  0.00000000000E+00 0. -1.
</event>
<event>
 5    1  0.8962782E-005  0.9118800E+02  0.7818608E-02  0.1130116E+00
         25   -1    0    0    0    0  0.00000000000E+00  0.00000000000E+00  0.99999998245E-14  0.12500000000E+03  0.12500000000E+03 0.  0.
        -11    1    3    3    0    0 -0.77396896899E+00  0.18002886787E+02 -0.39328054212E+02  0.43259667232E+02  0.51100000000E-03 0. -1.
         23    2    1    0    0    0 -0.70957973218E+01 -0.25771324830E+02 -0.93879220037E+01  0.96669016913E+02  0.92424316218E+02 0.  0.
         11    1    3    3    0    0 -0.63218283528E+01 -0.43774211617E+02  0.29940132209E+02  0.53409349681E+02  0.51100000000E-03 0.  1.
         22    1    1    0    0    0  0.70957973218E+01  0.25771324830E+02  0.93879220037E+01  0.28330983087E+02  0.00000000000E+00 0. -1.
</event>
<event>
 5    1  0.8962782E-005  0.9118800E+02  0.7818608E-02  0.1130116E+00
         25   -1    0    0    0    0  0.00000000000E+00  0.00000000000E+00  0.99999998245E-14  0.12500000000E+03  0.12500000000E+03 0.  0.
        -11    1    3    3    0    0  0.11660928437E+02  0.34165089486E+02  0.27872061610E+02  0.45607920477E+02  0.51100000000E-03 0.  1.
         23    2    1    0    0    0 -0.83374684393E+01  0.21319382863E+02 -0.17067509609E+02  0.96446027424E+02  0.92122238661E+02 0.  0.
         11    1    3    3    0    0 -0.19998396877E+02 -0.12845706623E+02 -0.44939571219E+02  0.50838106946E+02  0.51100000000E-03 0. -1.
         22    1    1    0    0    0  0.83374684393E+01 -0.21319382863E+02  0.17067509609E+02  0.28553972576E+02  0.00000000000E+00 0. -1.
</event>
<event>
 5    1  0.8962782E-005  0.9118800E+02  0.7818608E-02  0.1130116E+00
         25   -1    0    0    0    0  0.00000000000E+00  0.00000000000E+00  0.99999998245E-14  0.12500000000E+03  0.12500000000E+03 0.  0.
        -11    1    3    3    0    0  0.19635855413E+02 -0.27981596484E+02 -0.23864040863E+02  0.41689675055E+02  0.51100000000E-03 0.  1.
         23    2    1    0    0    0  0.12815184573E+01  0.24311256060E+02 -0.86988070606E+01  0.99147559012E+02  0.95717760906E+02 0.  0.
         11    1    3    3    0    0 -0.18354336956E+02  0.52292852544E+02  0.15165233802E+02  0.57457883957E+02  0.51100000000E-03 0. -1.
         22    1    1    0    0    0 -0.12815184573E+01 -0.24311256060E+02  0.86988070606E+01  0.25852440988E+02  0.00000000000E+00 0. -1.
</event>
<event>
 5    1  0.8962782E-005  0.9118800E+02  0.7818608E-02  0.1130116E+00
         25   -1    0    0    0    0  0.00000000000E+00  0.00000000000E+00  0.99999998245E-14  0.12500000000E+03  0.12500000000E+03 0.  0.
        -11    1    3    3    0    0  0.25452946241E+02 -0.50380445147E+01  0.26544248548E+02  0.37119152686E+02  0.51100000000E-03 0.  1.
         23    2    1    0    0    0 -0.28408952119E+02  0.33500906980E+01  0.39685441207E+01  0.96120231811E+02  0.91679103142E+02 0.  0.
         11    1    3    3    0    0 -0.53861898360E+02  0.83881352126E+01 -0.22575704427E+02  0.59001079125E+02  0.51100000000E-03 0. -1.
         22    1    1    0    0    0  0.28408952119E+02 -0.33500906980E+01 -0.39685441207E+01  0.28879768189E+02  0.00000000000E+00 0. -1.
</event>
<event>
 5    1  0.8962782E-005  0.9118800E+02  0.7818608E-02  0.1130116E+00
         25   -1    0    0    0    0  0.00000000000E+00  0.00000000000E+00  0.99999998245E-14  0.12500000000E+03  0.12500000000E+03 0.  0.
        -11    1    3    3    0    0  0.18418558697E+02 -0.32264148950E+02 -0.86622468731E+01  0.38147780186E+02  0.51100000000E-03 0. -1.
         23    2    1    0    0    0  0.11637218834E+02  0.25031988761E+02  0.36852853468E+01  0.97150284533E+02  0.93072934482E+02 0.  0.
         11    1    3    3    0    0 -0.67813398630E+01  0.57296137712E+02  0.12347532220E+02  0.59002504347E+02  0.51100000000E-03 0.  1.
         22    1    1    0    0    0 -0.11637218834E+02 -0.25031988761E+02 -0.36852853468E+01  0.27849715467E+02  0.00000000000E+00 0.  1.
</event>
<event>
 5    1  0.8962782E-005  0.9118800E+02  0.7818608E-02  0.1130116E+00
         25   -1    0    0    0    0  0.00000000000E+00  0.00000000000E+00  0.99999998245E-14  0.12500000000E+03  0.12500000000E+03 0.  0.
        -11    1    3    3    0    0 -0.34456177126E+02  0.37553509128E+02  0.22119638984E+02  0.55558731258E+02  0.51100000000E-03 0. -1.
         23    2    1    0    0    0  0.45859074465E+00  0.17000830649E+02  0.23374662620E+02  0.96093021589E+02  0.91641995817E+02 0.  0.
         11    1    3    3    0    0  0.34914767870E+02 -0.20552678478E+02  0.12550236366E+01  0.40534290331E+02  0.51100000000E-03 0.  1.
         22    1    1    0    0    0 -0.45859074465E+00 -0.17000830649E+02 -0.23374662620E+02  0.28906978411E+02  0.00000000000E+00 0. -1.
</event>
<event>
 5    1  0.8962782E-005  0.9118800E+02  0.7818608E-02  0.1130116E+00
         25   -1    0    0    0    0  0.00000000000E+00  0.00000000000E+00  0.99999998245E-14  0.12500000000E+03  0.12500000000E+03 0.  0.
        -11    1    3    3    0    0  0.41839582056E+02 -0.95804261950E+01 -0.19621297487E+02  0.47194602530E+02  0.51100000000E-03 0.  1.
         23    2    1    0    0    0  0.18756331758E+02  0.75070507985E+00  0.22113382778E+02  0.95993703494E+02  0.91506425312E+02 0.  0.
         11    1    3    3    0    0 -0.23083250298E+02  0.10331131275E+02  0.41734680265E+02  0.48799100963E+02  0.51100000000E-03 0. -1.
         22    1    1    0    0    0 -0.18756331758E+02 -0.75070507985E+00 -0.22113382778E+02  0.29006296506E+02  0.00000000000E+00 0.  1.
</event>
<event>
 5    1  0.8962782E-005  0.9118800E+02  0.7818608E-02  0.1130116E+00
         25   -1    0    0    0    0  0.00000000000E+00  0.00000000000E+00  0.99999998245E-14  0.12500000000E+03  0.12500000000E+03 0.  0.
        -11    1    3    3    0    0  0.67461862977E+01  0.18588050698E+02 -0.30318838132E+02  0.36197494447E+02  0.51100000000E-03 0.  1.
         23    2    1    0    0    0  0.20163913423E+02 -0.11487922321E+02  0.18661874860E+02  0.95220454384E+02  0.90443980430E+02 0.  0.
         11    1    3    3    0    0  0.13417727125E+02 -0.30075973019E+02  0.48980712992E+02  0.59022959937E+02  0.51100000000E-03 0. -1.
         22    1    1    0    0    0 -0.20163913423E+02  0.11487922321E+02 -0.18661874860E+02  0.29779545616E+02  0.00000000000E+00 0. -1.
</event>
<event>
 5    1  0.8962782E-005  0.9118800E+02  0.7818608E-02  0.1130116E+00
         25   -1    0    0    0    0  0.00000000000E+00  0.00000000000E+00  0.99999998245E-14  0.12500000000E+03  0.12500000000E+03 0.  0.
        -11    1    3    3    0    0 -0.26811256534E+02 -0.49135279605E+01 -0.20333103089E+02  0.34006195251E+02  0.51100000000E-03 0.  1.
         23    2    1    0    0    0  0.28329571892E+02  0.11980054835E+02 -0.37499486803E+01  0.94013737357E+02  0.88760544947E+02 0.  0.
         11    1    3    3    0    0  0.55140828426E+02  0.16893582796E+02  0.16583154409E+02  0.60007542106E+02  0.51100000000E-03 0. -1.
         22    1    1    0    0    0 -0.28329571892E+02 -0.11980054835E+02  0.37499486803E+01  0.30986262643E+02  0.00000000000E+00 0. -1.
</event>
<event>
 5    1  0.8962782E-005  0.9118800E+02  0.7818608E-02  0.1130116E+00
         25   -1    0    0    0    0  0.00000000000E+00  0.00000000000E+00  0.99999998245E-14  0.12500000000E+03  0.12500000000E+03 0.  0.
        -11    1    3    3    0    0 -0.23933596814E+02  0.15105133184E+02  0.24123773454E+02  0.37187881775E+02  0.51100000000E-03 0.  1.
         23    2    1    0    0    0  0.17075609923E+02  0.15995156631E+02 -0.17618602337E+02  0.95711151641E+02  0.91119635152E+02 0.  0.
         11    1    3    3    0    0  0.41009206737E+02  0.89002344675E+00 -0.41742375791E+02  0.58523269866E+02  0.51100000000E-03 0. -1.
         22    1    1    0    0    0 -0.17075609923E+02 -0.15995156631E+02  0.17618602337E+02  0.29288848359E+02  0.00000000000E+00 0. -1.
</event>
<event>
 5    1  0.8962782E-005  0.9118800E+02  0.7818608E-02  0.1130116E+00
         25   -1    0    0    0    0  0.00000000000E+00  0.00000000000E+00  0.99999998245E-14  0.12500000000E+03  0.12500000000E+03 0.  0.
        -11    1    3    3    0    0 -0.22981730314E+02 -0.40489247452E+02 -0.56610067129E+01  0.46899745039E+02  0.51100000000E-03 0. -1.
         23    2    1    0    0    0  0.17259770115E+02 -0.20538070520E+02  0.12569073471E+02  0.95374105701E+02  0.90656088737E+02 0.  0.
         11    1    3    3    0    0  0.40241500429E+02  0.19951176932E+02  0.18230080184E+02  0.48474360661E+02  0.51100000000E-03 0.  1.
         22    1    1    0    0    0 -0.17259770115E+02  0.20538070520E+02 -0.12569073471E+02  0.29625894299E+02  0.00000000000E+00 0. -1.
</event>
<event>
 5    1  0.8962782E-005  0.9118800E+02  0.7818608E-02  0.1130116E+00
         25   -1    0    0    0    0  0.00000000000E+00  0.00000000000E+00  0.99999998245E-14  0.12500000000E+03  0.12500000000E+03 0.  0.
        -11    1    3    3    0    0 -0.28152135365E+02 -0.34080916425E+02  0.42936641004E+02  0.61624724996E+02  0.51100000000E-03 0. -1.
         23    2    1    0    0    0 -0.13464913706E+02 -0.24700437256E+02  0.19763435497E+02  0.90619643917E+02  0.83844564399E+02 0.  0.
         11    1    3    3    0    0  0.14687221659E+02  0.93804791683E+01 -0.23173205507E+02  0.28994918920E+02  0.51100000000E-03 0.  1.
         22    1    1    0    0    0  0.13464913706E+02  0.24700437256E+02 -0.19763435497E+02  0.34380356083E+02  0.00000000000E+00 0. -1.
</event>
<event>
 5    1  0.8962782E-005  0.9118800E+02  0.7818608E-02  0.1130116E+00
         25   -1    0    0    0    0  0.00000000000E+00  0.00000000000E+00  0.99999998245E-14  0.12500000000E+03  0.12500000000E+03 0.  0.
        -11    1    3    3    0    0 -0.38222157068E+02 -0.84536824903E+01 -0.16137983518E+01  0.39179106472E+02  0.51100000000E-03 0.  1.
         23    2    1    0    0    0  0.85397415221E+01  0.14906591592E+02  0.22455567448E+02  0.96726581962E+02  0.92502137761E+02 0.  0.
         11    1    3    3    0    0  0.46761898590E+02  0.23360274082E+02  0.24069365800E+02  0.57547475489E+02  0.51100000000E-03 0. -1.
         22    1    1    0    0    0 -0.85397415221E+01 -0.14906591592E+02 -0.22455567448E+02  0.28273418038E+02  0.00000000000E+00 0. -1.
</event>
<event>
 5    1  0.8962782E-005  0.9118800E+02  0.7818608E-02  0.1130116E+00
         25   -1    0    0    0    0  0.00000000000E+00  0.00000000000E+00  0.99999998245E-14  0.12500000000E+03  0.12500000000E+03 0.  0.
        -11    1    3    3    0    0 -0.33178194459E+02  0.50575938620E+02  0.53442443824E+01  0.60722970144E+02  0.51100000000E-03 0. -1.
         23    2    1    0    0    0 -0.89514349371E+01  0.24798323533E+02  0.10786018166E+02  0.96514508512E+02  0.92215113338E+02 0.  0.
         11    1    3    3    0    0  0.24226759522E+02 -0.25777615087E+02  0.54417737832E+01  0.35791538367E+02  0.51100000000E-03 0.  1.
         22    1    1    0    0    0  0.89514349371E+01 -0.24798323533E+02 -0.10786018166E+02  0.28485491488E+02  0.00000000000E+00 0. -1.
</event>
<event>
 5    1  0.8962782E-005  0.9118800E+02  0.7818608E-02  0.1130116E+00
         25   -1    0    0    0    0  0.00000000000E+00  0.00000000000E+00  0.99999998245E-14  0.12500000000E+03  0.12500000000E+03 0.  0.
        -11    1    3    3    0    0  0.34876367513E+01  0.18217543684E+02 -0.58987519615E+02  0.61835022265E+02  0.51100000000E-03 0.  1.
         23    2    1    0    0    0  0.73659834667E+01  0.10740912504E+02 -0.25487161059E+02  0.96377975391E+02  0.92029853025E+02 0.  0.
         11    1    3    3    0    0  0.38783467154E+01 -0.74766311803E+01  0.33500358556E+02  0.34542953126E+02  0.51100000000E-03 0. -1.
         22    1    1    0    0    0 -0.73659834667E+01 -0.10740912504E+02  0.25487161059E+02  0.28622024609E+02  0.00000000000E+00 0.  1.
</event>
<event>
 5    1  0.8962782E-005  0.9118800E+02  0.7818608E-02  0.1130116E+00
         25   -1    0    0    0    0  0.00000000000E+00  0.00000000000E+00  0.99999998245E-14  0.12500000000E+03  0.12500000000E+03 0.  0.
        -11    1    3    3    0    0 -0.12812399001E+02  0.40943764821E+02 -0.20201612704E+02  0.47419981042E+02  0.51100000000E-03 0. -1.
         23    2    1    0    0    0 -0.19378575758E+02  0.14904359117E+02  0.18370621975E+02  0.94419796095E+02  0.89330560414E+02 0.  0.
         11    1    3    3    0    0 -0.65661767564E+01 -0.26039405704E+02  0.38572234680E+02  0.46999815053E+02  0.51100000000E-03 0.  1.
         22    1    1    0    0    0  0.19378575758E+02 -0.14904359117E+02 -0.18370621975E+02  0.30580203905E+02  0.00000000000E+00 0.  1.
</event>
<event>
 5    1  0.8962782E-005  0.9118800E+02  0.7818608E-02  0.1130116E+00
         25   -1    0    0    0    0  0.00000000000E+00  0.00000000000E+00  0.99999998245E-14  0.12500000000E+03  0.12500000000E+03 0.  0.
        -11    1    3    3    0    0 -0.12358383061E+02 -0.21006360435E+02  0.38810777549E+02  0.45828738416E+02  0.51100000000E-03 0. -1.
         23    2    1    0    0    0  0.25726709620E+02 -0.10734888338E+02  0.76637770458E+01  0.96089190705E+02  0.91636770328E+02 0.  0.
         11    1    3    3    0    0  0.38085092681E+02  0.10271472097E+02 -0.31147000503E+02  0.50260452288E+02  0.51100000000E-03 0.  1.
         22    1    1    0    0    0 -0.25726709620E+02  0.10734888338E+02 -0.76637770458E+01  0.28910809295E+02  0.00000000000E+00 0. -1.
</event>
<event>
 5    1  0.8962782E-005  0.9118800E+02  0.7818608E-02  0.1130116E+00
         25   -1    0    0    0    0  0.00000000000E+00  0.00000000000E+00  0.99999998245E-14  0.12500000000E+03  0.12500000000E+03 0.  0.
        -11    1    3    3    0    0  0.27329153544E+02  0.52290218475E+01 -0.44195016727E+02  0.52224752816E+02  0.51100000000E-03 0.  1.
         23    2    1    0    0    0  0.81106480225E+01  0.25578018652E+02 -0.10119430017E+02  0.96322125020E+02  0.91953962693E+02 0.  0.
         11    1    3    3    0    0 -0.19218505522E+02  0.20348996804E+02  0.34075586710E+02  0.44097372204E+02  0.51100000000E-03 0. -1.
         22    1    1    0    0    0 -0.81106480225E+01 -0.25578018652E+02  0.10119430017E+02  0.28677874980E+02  0.00000000000E+00 0.  1.
</event>
<event>
 5    1  0.8962782E-005  0.9118800E+02  0.7818608E-02  0.1130116E+00
         25   -1    0    0    0    0  0.00000000000E+00  0.00000000000E+00  0.99999998245E-14  0.12500000000E+03  0.12500000000E+03 0.  0.
        -11    1    3    3    0    0 -0.37886760320E+02  0.11415421011E+02  0.40960086209E+02  0.56951269581E+02  0.51100000000E-03 0.  1.
         23    2    1    0    0    0 -0.21365345703E+02  0.17349145137E+02  0.49170119764E+01  0.97042034395E+02  0.92927437276E+02 0.  0.
         11    1    3    3    0    0  0.16521414617E+02  0.59337241257E+01 -0.36043074232E+02  0.40090764814E+02  0.51100000000E-03 0. -1.
         22    1    1    0    0    0  0.21365345703E+02 -0.17349145137E+02 -0.49170119764E+01  0.27957965605E+02  0.00000000000E+00 0.  1.
</event>
<event>
 5    1  0.8962782E-005  0.9118800E+02  0.7818608E-02  0.1130116E+00
         25   -1    0    0    0    0  0.00000000000E+00  0.00000000000E+00  0.99999998245E-14  0.12500000000E+03  0.12500000000E+03 0.  0.
        -11    1    3    3    0    0  0.16896219207E+02  0.45126838480E+02 -0.25467513071E+02  0.54502366893E+02  0.51100000000E-03 0. -1.
         23    2    1    0    0    0  0.22676699096E+02  0.19273356378E+02 -0.31491988108E+02  0.81670561243E+02  0.69228897946E+02 0.  0.
         11    1    3    3    0    0  0.57804798891E+01 -0.25853482101E+02 -0.60244750364E+01  0.27168194350E+02  0.51100000000E-03 0.  1.
         22    1    1    0    0    0 -0.22676699096E+02 -0.19273356378E+02  0.31491988108E+02  0.43329438757E+02  0.00000000000E+00 0. -1.
</event>
<event>
 5    1  0.8962782E-005  0.9118800E+02  0.7818608E-02  0.1130116E+00
         25   -1    0    0    0    0  0.00000000000E+00  0.00000000000E+00  0.99999998245E-14  0.12500000000E+03  0.12500000000E+03 0.  0.
        -11    1    3    3    0    0  0.97370950455E+01  0.36198379603E+02  0.38671317308E+02  0.53857260313E+02  0.51100000000E-03 0.  1.
         23    2    1    0    0    0  0.25082386404E+02  0.10684634734E+02  0.80352587280E+01  0.96577246615E+02  0.92300117301E+02 0.  0.
         11    1    3    3    0    0  0.15345291359E+02 -0.25513744869E+02 -0.30636058580E+02  0.42719986303E+02  0.51100000000E-03 0. -1.
         22    1    1    0    0    0 -0.25082386404E+02 -0.10684634734E+02 -0.80352587280E+01  0.28422753385E+02  0.00000000000E+00 0.  1.
</event>
<event>
 5    1  0.8962782E-005  0.9118800E+02  0.7818608E-02  0.1130116E+00
         25   -1    0    0    0    0  0.00000000000E+00  0.00000000000E+00  0.99999998245E-14  0.12500000000E+03  0.12500000000E+03 0.  0.
        -11    1    3    3    0    0 -0.59805541123E+02  0.42222817895E+01 -0.64919250488E+01  0.60304854727E+02  0.51100000000E-03 0.  1.
         23    2    1    0    0    0 -0.26224671805E+02  0.12901381877E+02 -0.68105191722E+01  0.94990630846E+02  0.90125788272E+02 0.  0.
         11    1    3    3    0    0  0.33580869319E+02  0.86791000874E+01 -0.31859412340E+00  0.34685776119E+02  0.51100000000E-03 0. -1.
         22    1    1    0    0    0  0.26224671805E+02 -0.12901381877E+02  0.68105191722E+01  0.30009369154E+02  0.00000000000E+00 0.  1.
</event>
<event>
 5    1  0.8962782E-005  0.9118800E+02  0.7818608E-02  0.1130116E+00
         25   -1    0    0    0    0  0.00000000000E+00  0.00000000000E+00  0.99999998245E-14  0.12500000000E+03  0.12500000000E+03 0.  0.
        -11    1    3    3    0    0  0.25848383353E+01  0.26937709967E+02  0.28282807211E+02  0.39143821881E+02  0.51100000000E-03 0.  1.
         23    2    1    0    0    0  0.67767937458E+01 -0.26454861701E+02  0.12410922148E+02  0.95003072997E+02  0.90143043266E+02 0.  0.
         11    1    3    3    0    0  0.41919554105E+01 -0.53392571668E+02 -0.15871885062E+02  0.55859251115E+02  0.51100000000E-03 0. -1.
         22    1    1    0    0    0 -0.67767937458E+01  0.26454861701E+02 -0.12410922148E+02  0.29996927003E+02  0.00000000000E+00 0. -1.
</event>
<event>
 5    1  0.8962782E-005  0.9118800E+02  0.7818608E-02  0.1130116E+00
         25   -1    0    0    0    0  0.00000000000E+00  0.00000000000E+00  0.99999998245E-14  0.12500000000E+03  0.12500000000E+03 0.  0.
        -11    1    3    3    0    0 -0.24303538824E+02 -0.47003887586E+02 -0.35609043656E+01  0.53034964766E+02  0.51100000000E-03 0. -1.
         23    2    1    0    0    0  0.14348171195E+02 -0.20079542840E+02  0.51138104068E+00  0.10031560072E+03  0.97231168767E+02 0.  0.
         11    1    3    3    0    0  0.38651710019E+02  0.26924344746E+02  0.40722854063E+01  0.47280635953E+02  0.51100000000E-03 0.  1.
         22    1    1    0    0    0 -0.14348171195E+02  0.20079542840E+02 -0.51138104068E+00  0.24684399281E+02  0.00000000000E+00 0. -1.
</event>
<event>
 5    1  0.8962782E-005  0.9118800E+02  0.7818608E-02  0.1130116E+00
         25   -1    0    0    0    0  0.00000000000E+00  0.00000000000E+00  0.99999998245E-14  0.12500000000E+03  0.12500000000E+03 0.  0.
        -11    1    3    3    0    0  0.30703085719E+02 -0.13904400536E+02  0.54268384036E+01  0.34138869376E+02  0.51100000000E-03 0. -1.
         23    2    1    0    0    0 -0.22975679771E+02  0.61815550404E+01 -0.17078013363E+02  0.95712596153E+02  0.91121616746E+02 0.  0.
         11    1    3    3    0    0 -0.53678765490E+02  0.20085955576E+02 -0.22504851767E+02  0.61573726777E+02  0.51100000000E-03 0.  1.
         22    1    1    0    0    0  0.22975679771E+02 -0.61815550404E+01  0.17078013363E+02  0.29287403847E+02  0.00000000000E+00 0.  1.
</event>
<event>
 5    1  0.8962782E-005  0.9118800E+02  0.7818608E-02  0.1130116E+00
         25   -1    0    0    0    0  0.00000000000E+00  0.00000000000E+00  0.99999998245E-14  0.12500000000E+03  0.12500000000E+03 0.  0.
        -11    1    3    3    0    0  0.11300187634E+02 -0.87276154409E+01  0.46630365199E+02  0.48767370964E+02  0.51100000000E-03 0.  1.
         23    2    1    0    0    0  0.90580823422E+01 -0.27324734624E+02  0.32364305191E+01  0.96031664520E+02  0.91558266311E+02 0.  0.
         11    1    3    3    0    0 -0.22421052917E+01 -0.18597119183E+02 -0.43393934680E+02  0.47264293556E+02  0.51100000000E-03 0. -1.
         22    1    1    0    0    0 -0.90580823422E+01  0.27324734624E+02 -0.32364305191E+01  0.28968335480E+02  0.00000000000E+00 0.  1.
</event>
<event>
 5    1  0.8962782E-005  0.9118800E+02  0.7818608E-02  0.1130116E+00
         25   -1    0    0    0    0  0.00000000000E+00  0.00000000000E+00  0.99999998245E-14  0.12500000000E+03  0.12500000000E+03 0.  0.
        -11    1    3    3    0    0 -0.48207578453E+02  0.52847413816E+01  0.53192003888E+01  0.48787221737E+02  0.51100000000E-03 0. -1.
         23    2    1    0    0    0 -0.92967140856E+01 -0.19901635356E+02  0.17730462238E+02  0.96771056098E+02  0.92562217046E+02 0.  0.
         11    1    3    3    0    0  0.38910864368E+02 -0.25186376737E+02  0.12411261850E+02  0.47983834361E+02  0.51100000000E-03 0.  1.
         22    1    1    0    0    0  0.92967140856E+01  0.19901635356E+02 -0.17730462238E+02  0.28228943902E+02  0.00000000000E+00 0. -1.
</event>
<event>
 5    1  0.8962782E-005  0.9118800E+02  0.7818608E-02  0.1130116E+00
         25   -1    0    0    0    0  0.00000000000E+00  0.00000000000E+00  0.99999998245E-14  0.12500000000E+03  0.12500000000E+03 0.  0.
        -11    1    3    3    0    0 -0.17333431482E+02  0.33556507460E+02  0.14043693462E+02  0.40295314445E+02  0.51100000000E-03 0.  1.
         23    2    1    0    0    0  0.22862069095E+02  0.13158903478E+02 -0.15703274027E+02  0.94301078859E+02  0.89164284973E+02 0.  0.
         11    1    3    3    0    0  0.40195500577E+02 -0.20397603982E+02 -0.29746967490E+02  0.54005764414E+02  0.51100000000E-03 0. -1.
         22    1    1    0    0    0 -0.22862069095E+02 -0.13158903478E+02  0.15703274027E+02  0.30698921141E+02  0.00000000000E+00 0. -1.
</event>
<event>
 5    1  0.8962782E-005  0.9118800E+02  0.7818608E-02  0.1130116E+00
         25   -1    0    0    0    0  0.00000000000E+00  0.00000000000E+00  0.99999998245E-14  0.12500000000E+03  0.12500000000E+03 0.  0.
        -11    1    3    3    0    0 -0.24934505659E+02 -0.74231207858E+01 -0.31989807180E+01  0.26211939504E+02  0.51100000000E-03 0.  1.
         23    2    1    0    0    0  0.25455472481E+02  0.14215361666E+01  0.28785344568E+02  0.86547459041E+02  0.77536215798E+02 0.  0.
         11    1    3    3    0    0  0.50389978140E+02  0.88446569523E+01  0.31984325286E+02  0.60335519537E+02  0.51100000000E-03 0. -1.
         22    1    1    0    0    0 -0.25455472481E+02 -0.14215361666E+01 -0.28785344568E+02  0.38452540959E+02  0.00000000000E+00 0. -1.
</event>
<event>
 5    1  0.8962782E-005  0.9118800E+02  0.7818608E-02  0.1130116E+00
         25   -1    0    0    0    0  0.00000000000E+00  0.00000000000E+00  0.99999998245E-14  0.12500000000E+03  0.12500000000E+03 0.  0.
        -11    1    3    3    0    0  0.17431640605E+02  0.78201553207E+01 -0.33476201174E+02  0.38544428504E+02  0.51100000000E-03 0.  1.
         23    2    1    0    0    0  0.54412463685E+01  0.22029056717E+02  0.19745826886E+02  0.94920369329E+02  0.90028286290E+02 0.  0.
         11    1    3    3    0    0 -0.11990394237E+02  0.14208901396E+02  0.53222028060E+02  0.56375940825E+02  0.51100000000E-03 0. -1.
         22    1    1    0    0    0 -0.54412463685E+01 -0.22029056717E+02 -0.19745826886E+02  0.30079630671E+02  0.00000000000E+00 0. -1.
</event>
<event>
 5    1  0.8962782E-005  0.9118800E+02  0.7818608E-02  0.1130116E+00
         25   -1    0    0    0    0  0.00000000000E+00  0.00000000000E+00  0.99999998245E-14  0.12500000000E+03  0.12500000000E+03 0.  0.
        -11    1    3    3    0    0  0.50550858205E+01 -0.45105346539E+02 -0.10623939148E+02  0.46614528447E+02  0.51100000000E-03 0. -1.
         23    2    1    0    0    0 -0.29562822661E+01  0.12748450337E+01 -0.28021621276E+02  0.96794041523E+02  0.92593252350E+02 0.  0.
         11    1    3    3    0    0 -0.80113680866E+01  0.46380191572E+02 -0.17397682128E+02  0.50179513076E+02  0.51100000000E-03 0.  1.
         22    1    1    0    0    0  0.29562822661E+01 -0.12748450337E+01  0.28021621276E+02  0.28205958477E+02  0.00000000000E+00 0.  1.
</event>
<event>
 5    1  0.8962782E-005  0.9118800E+02  0.7818608E-02  0.1130116E+00
         25   -1    0    0    0    0  0.00000000000E+00  0.00000000000E+00  0.99999998245E-14  0.12500000000E+03  0.12500000000E+03 0.  0.
        -11    1    3    3    0    0  0.42746830370E+02 -0.26917164528E+02  0.42888260563E+01  0.50697330128E+02  0.51100000000E-03 0.  1.
         23    2    1    0    0    0 -0.28721929357E+01 -0.28017438559E+02  0.53027050014E+01  0.96340882149E+02  0.91979457148E+02 0.  0.
         11    1    3    3    0    0 -0.45619023306E+02 -0.11002740313E+01  0.10138789451E+01  0.45643552021E+02  0.51100000000E-03 0. -1.
         22    1    1    0    0    0  0.28721929357E+01  0.28017438559E+02 -0.53027050014E+01  0.28659117851E+02  0.00000000000E+00 0. -1.
</event>
<event>
 5    1  0.8962782E-005  0.9118800E+02  0.7818608E-02  0.1130116E+00
         25   -1    0    0    0    0  0.00000000000E+00  0.00000000000E+00  0.99999998245E-14  0.12500000000E+03  0.12500000000E+03 0.  0.
        -11    1    3    3    0    0 -0.15879161995E+02 -0.54164704613E+02 -0.11279886055E+02  0.57560392990E+02  0.51100000000E-03 0.  1.
         23    2    1    0    0    0 -0.21124080928E+01 -0.27087511702E+02  0.11467246765E+02  0.95509436993E+02  0.90842496928E+02 0.  0.
         11    1    3    3    0    0  0.13766753902E+02  0.27077192911E+02  0.22747132820E+02  0.37949044003E+02  0.51100000000E-03 0. -1.
         22    1    1    0    0    0  0.21124080928E+01  0.27087511702E+02 -0.11467246765E+02  0.29490563007E+02  0.00000000000E+00 0.  1.
</event>
<event>
 5    1  0.8962782E-005  0.9118800E+02  0.7818608E-02  0.1130116E+00
         25   -1    0    0    0    0  0.00000000000E+00  0.00000000000E+00  0.99999998245E-14  0.12500000000E+03  0.12500000000E+03 0.  0.
        -11    1    3    3    0    0  0.17332652139E+02 -0.10695798473E+02 -0.31586983545E+02  0.37584018743E+02  0.51100000000E-03 0. -1.
         23    2    1    0    0    0 -0.24904562630E+02 -0.10110909146E+02  0.94807346943E+01  0.96498209637E+02  0.92193017139E+02 0.  0.
         11    1    3    3    0    0 -0.42237214770E+02  0.58488932713E+00  0.41067718239E+02  0.58914190894E+02  0.51100000000E-03 0.  1.
         22    1    1    0    0    0  0.24904562630E+02  0.10110909146E+02 -0.94807346943E+01  0.28501790363E+02  0.00000000000E+00 0.  1.
</event>
<event>
 5    1  0.8962782E-005  0.9118800E+02  0.7818608E-02  0.1130116E+00
         25   -1    0    0    0    0  0.00000000000E+00  0.00000000000E+00  0.99999998245E-14  0.12500000000E+03  0.12500000000E+03 0.  0.
        -11    1    3    3    0    0 -0.34685826023E+02  0.35607983404E+01  0.40388866735E+02  0.53357720792E+02  0.51100000000E-03 0. -1.
         23    2    1    0    0    0 -0.18814422233E+02  0.21477510275E+02  0.51046038000E+01  0.95994433094E+02  0.91507421959E+02 0.  0.
         11    1    3    3    0    0  0.15871403790E+02  0.17916711934E+02 -0.35284262935E+02  0.42636712302E+02  0.51100000000E-03 0.  1.
         22    1    1    0    0    0  0.18814422233E+02 -0.21477510275E+02 -0.51046038000E+01  0.29005566906E+02  0.00000000000E+00 0. -1.
</event>
<event>
 5    1  0.8962782E-005  0.9118800E+02  0.7818608E-02  0.1130116E+00
         25   -1    0    0    0    0  0.00000000000E+00  0.00000000000E+00  0.99999998245E-14  0.12500000000E+03  0.12500000000E+03 0.  0.
        -11    1    3    3    0    0  0.11656882852E+02 -0.33309730312E+02  0.59919107188E+01  0.35795586957E+02  0.51100000000E-03 0. -1.
         23    2    1    0    0    0  0.13410685497E+02  0.25923712118E+02 -0.26969057883E+01  0.95688592045E+02  0.91088682125E+02 0.  0.
         11    1    3    3    0    0  0.17538026450E+01  0.59233442430E+02 -0.86888165071E+01  0.59893005088E+02  0.51100000000E-03 0.  1.
         22    1    1    0    0    0 -0.13410685497E+02 -0.25923712118E+02  0.26969057883E+01  0.29311407955E+02  0.00000000000E+00 0.  1.
</event>
<event>
 5    1  0.8962782E-005  0.9118800E+02  0.7818608E-02  0.1130116E+00
         25   -1    0    0    0    0  0.00000000000E+00  0.00000000000E+00  0.99999998245E-14  0.12500000000E+03  0.12500000000E+03 0.  0.
        -11    1    3    3    0    0  0.29474783453E+02  0.68707163468E+01  0.85600156752E+01  0.31452241118E+02  0.51100000000E-03 0. -1.
         23    2    1    0    0    0 -0.26865620183E+02  0.15271784517E+02 -0.11765450683E+02  0.91933177051E+02  0.85780500481E+02 0.  0.
         11    1    3    3    0    0 -0.56340403637E+02  0.84010681701E+01 -0.20325466359E+02  0.60480935933E+02  0.51100000000E-03 0.  1.
         22    1    1    0    0    0  0.26865620183E+02 -0.15271784517E+02  0.11765450683E+02  0.33066822949E+02  0.00000000000E+00 0.  1.
</event>
<event>
 5    1  0.8962782E-005  0.9118800E+02  0.7818608E-02  0.1130116E+00
         25   -1    0    0    0    0  0.00000000000E+00  0.00000000000E+00  0.99999998245E-14  0.12500000000E+03  0.12500000000E+03 0.  0.
        -11    1    3    3    0    0 -0.28215494134E+02 -0.29592006197E+02 -0.27313619546E+02  0.49171483128E+02  0.51100000000E-03 0. -1.
         23    2    1    0    0    0 -0.19486306900E+02  0.14526857386E+02 -0.17075296517E+02  0.95296271392E+02  0.90548704286E+02 0.  0.
         11    1    3    3    0    0  0.87291872346E+01  0.44118863584E+02  0.10238323029E+02  0.46124788264E+02  0.51100000000E-03 0.  1.
         22    1    1    0    0    0  0.19486306900E+02 -0.14526857386E+02  0.17075296517E+02  0.29703728608E+02  0.00000000000E+00 0. -1.
</event>
<event>
 5    1  0.8962782E-005  0.9118800E+02  0.7818608E-02  0.1130116E+00
         25   -1    0    0    0    0  0.00000000000E+00  0.00000000000E+00  0.99999998245E-14  0.12500000000E+03  0.12500000000E+03 0.  0.
        -11    1    3    3    0    0  0.30411388504E+02  0.43587739485E+02  0.31449167671E+02  0.61755920620E+02  0.51100000000E-03 0. -1.
         23    2    1    0    0    0  0.20148231363E+02  0.22485273828E+02  0.11047368406E+02  0.92850612527E+02  0.87107135941E+02 0.  0.
         11    1    3    3    0    0 -0.10263157142E+02 -0.21102465657E+02 -0.20401799265E+02  0.31094691907E+02  0.51100000000E-03 0.  1.
         22    1    1    0    0    0 -0.20148231363E+02 -0.22485273828E+02 -0.11047368406E+02  0.32149387473E+02  0.00000000000E+00 0. -1.
</event>
<event>
 5    1  0.8962782E-005  0.9118800E+02  0.7818608E-02  0.1130116E+00
         25   -1    0    0    0    0  0.00000000000E+00  0.00000000000E+00  0.99999998245E-14  0.12500000000E+03  0.12500000000E+03 0.  0.
        -11    1    3    3    0    0  0.55295365935E+02  0.20912247623E+02 -0.99078594923E+01  0.59942182764E+02  0.51100000000E-03 0. -1.
         23    2    1    0    0    0  0.40497847146E+02  0.41824726119E+01 -0.12460632968E+02  0.82422587273E+02  0.70573697779E+02 0.  0.
         11    1    3    3    0    0 -0.14797518789E+02 -0.16729775011E+02 -0.25527734754E+01  0.22480404509E+02  0.51100000000E-03 0.  1.
         22    1    1    0    0    0 -0.40497847146E+02 -0.41824726119E+01  0.12460632968E+02  0.42577412727E+02  0.00000000000E+00 0. -1.
</event>
<event>
 5    1  0.8962782E-005  0.9118800E+02  0.7818608E-02  0.1130116E+00
         25   -1    0    0    0    0  0.00000000000E+00  0.00000000000E+00  0.99999998245E-14  0.12500000000E+03  0.12500000000E+03 0.  0.
        -11    1    3    3    0    0  0.52868441504E+02  0.26269660010E+02  0.19905388399E+02  0.62300815658E+02  0.51100000000E-03 0.  1.
         23    2    1    0    0    0  0.25021328939E+02  0.13423924869E+02  0.59765037391E+01  0.95982983308E+02  0.91491780106E+02 0.  0.
         11    1    3    3    0    0 -0.27847112565E+02 -0.12845735141E+02 -0.13928884659E+02  0.33682167650E+02  0.51100000000E-03 0. -1.
         22    1    1    0    0    0 -0.25021328939E+02 -0.13423924869E+02 -0.59765037391E+01  0.29017016692E+02  0.00000000000E+00 0.  1.
</event>
<event>
 5    1  0.8962782E-005  0.9118800E+02  0.7818608E-02  0.1130116E+00
         25   -1    0    0    0    0  0.00000000000E+00  0.00000000000E+00  0.99999998245E-14  0.12500000000E+03  0.12500000000E+03 0.  0.
        -11    1    3    3    0    0 -0.13538200234E+02  0.41385818747E+02  0.18648639564E+02  0.47369194808E+02  0.51100000000E-03 0.  1.
         23    2    1    0    0    0  0.21716783045E+02  0.21202776058E+02 -0.47960289497E+01  0.94272516014E+02  0.89124233537E+02 0.  0.
         11    1    3    3    0    0  0.35254983279E+02 -0.20183042689E+02 -0.23444668514E+02  0.46903321206E+02  0.51100000000E-03 0. -1.
         22    1    1    0    0    0 -0.21716783045E+02 -0.21202776058E+02  0.47960289497E+01  0.30727483986E+02  0.00000000000E+00 0.  1.
</event>
<event>
 5    1  0.8962782E-005  0.9118800E+02  0.7818608E-02  0.1130116E+00
         25   -1    0    0    0    0  0.00000000000E+00  0.00000000000E+00  0.99999998245E-14  0.12500000000E+03  0.12500000000E+03 0.  0.
        -11    1    3    3    0    0  0.18381436057E+02  0.40063960379E+02 -0.19369475706E+02  0.48147426745E+02  0.51100000000E-03 0.  1.
         23    2    1    0    0    0 -0.12922479713E+02  0.21757392625E+02  0.12815877507E+02  0.96634152012E+02  0.92377150871E+02 0.  0.
         11    1    3    3    0    0 -0.31303915770E+02 -0.18306567753E+02  0.32185353213E+02  0.48486725268E+02  0.51100000000E-03 0. -1.
         22    1    1    0    0    0  0.12922479713E+02 -0.21757392625E+02 -0.12815877507E+02  0.28365847988E+02  0.00000000000E+00 0.  1.
</event>
<event>
 5    1  0.8962782E-005  0.9118800E+02  0.7818608E-02  0.1130116E+00
         25   -1    0    0    0    0  0.00000000000E+00  0.00000000000E+00  0.99999998245E-14  0.12500000000E+03  0.12500000000E+03 0.  0.
        -11    1    3    3    0    0  0.34462786463E+02 -0.56124217904E+01  0.43512925856E+02  0.55790300644E+02  0.51100000000E-03 0.  1.
         23    2    1    0    0    0  0.28036490904E+02  0.69795997684E+01  0.65357314841E+01  0.95377788382E+02  0.90661166414E+02 0.  0.
         11    1    3    3    0    0 -0.64262955594E+01  0.12592021559E+02 -0.36977194372E+02  0.39587487738E+02  0.51100000000E-03 0. -1.
         22    1    1    0    0    0 -0.28036490904E+02 -0.69795997684E+01 -0.65357314841E+01  0.29622211618E+02  0.00000000000E+00 0.  1.
</event>
<event>
 5    1  0.8962782E-005  0.9118800E+02  0.7818608E-02  0.1130116E+00
         25   -1    0    0    0    0  0.00000000000E+00  0.00000000000E+00  0.99999998245E-14  0.12500000000E+03  0.12500000000E+03 0.  0.
        -11    1    3    3    0    0  0.34200477908E+02  0.44986644989E+02  0.11942884870E+01  0.56523422063E+02  0.51100000000E-03 0.  1.
         23    2    1    0    0    0  0.25656658318E+02  0.70336185075E+01  0.10290966442E+02  0.96475626288E+02  0.92162392395E+02 0.  0.
         11    1    3    3    0    0 -0.85438195895E+01 -0.37953026482E+02  0.90966779554E+01  0.39952204224E+02  0.51100000000E-03 0. -1.
         22    1    1    0    0    0 -0.25656658318E+02 -0.70336185075E+01 -0.10290966442E+02  0.28524373712E+02  0.00000000000E+00 0.  1.
</event>
<event>
 5    1  0.8962782E-005  0.9118800E+02  0.7818608E-02  0.1130116E+00
         25   -1    0    0    0    0  0.00000000000E+00  0.00000000000E+00  0.99999998245E-14  0.12500000000E+03  0.12500000000E+03 0.  0.
        -11    1    3    3    0    0 -0.26741885464E+02 -0.17338113232E+01  0.33235491179E+02  0.42693470391E+02  0.51100000000E-03 0.  1.
         23    2    1    0    0    0 -0.55899031276E+01 -0.19295065836E+02 -0.16156146543E+02  0.99220790281E+02  0.95813347558E+02 0.  0.
         11    1    3    3    0    0  0.21151982337E+02 -0.17561254513E+02 -0.49391637722E+02  0.56527319890E+02  0.51100000000E-03 0. -1.
         22    1    1    0    0    0  0.55899031276E+01  0.19295065836E+02  0.16156146543E+02  0.25779209719E+02  0.00000000000E+00 0. -1.
</event>
<event>
 5    1  0.8962782E-005  0.9118800E+02  0.7818608E-02  0.1130116E+00
         25   -1    0    0    0    0  0.00000000000E+00  0.00000000000E+00  0.99999998245E-14  0.12500000000E+03  0.12500000000E+03 0.  0.
        -11    1    3    3    0    0 -0.30069768440E+02 -0.17298494274E+02  0.18271388441E+02  0.39208066951E+02  0.51100000000E-03 0.  1.
         23    2    1    0    0    0  0.21465352831E+02 -0.20098054702E+02 -0.38178203110E+01  0.95347530846E+02  0.90619438928E+02 0.  0.
         11    1    3    3    0    0  0.51535121271E+02 -0.27995604285E+01 -0.22089208752E+02  0.56139463896E+02  0.51100000000E-03 0. -1.
         22    1    1    0    0    0 -0.21465352831E+02  0.20098054702E+02  0.38178203110E+01  0.29652469154E+02  0.00000000000E+00 0. -1.
</event>
<event>
 5    1  0.8962782E-005  0.9118800E+02  0.7818608E-02  0.1130116E+00
         25   -1    0    0    0    0  0.00000000000E+00  0.00000000000E+00  0.99999998245E-14  0.12500000000E+03  0.12500000000E+03 0.  0.
        -11    1    3    3    0    0 -0.33182465873E+02  0.20262692804E+02  0.14745398794E+02  0.41582202286E+02  0.51100000000E-03 0.  1.
         23    2    1    0    0    0  0.27054308751E+01 -0.19241809282E+02  0.22228359150E+02  0.95476000760E+02  0.90796476749E+02 0.  0.
         11    1    3    3    0    0  0.35887896748E+02 -0.39504502085E+02  0.74829603552E+01  0.53893798474E+02  0.51100000000E-03 0. -1.
         22    1    1    0    0    0 -0.27054308751E+01  0.19241809282E+02 -0.22228359150E+02  0.29523999240E+02  0.00000000000E+00 0. -1.
</event>
<event>
 5    1  0.8962782E-005  0.9118800E+02  0.7818608E-02  0.1130116E+00
         25   -1    0    0    0    0  0.00000000000E+00  0.00000000000E+00  0.99999998245E-14  0.12500000000E+03  0.12500000000E+03 0.  0.
        -11    1    3    3    0    0 -0.17178015262E+02  0.90574517554E+00 -0.53587494173E+02  0.56280761497E+02  0.51100000000E-03 0.  1.
         23    2    1    0    0    0 -0.25176314403E+02  0.16101895858E+01 -0.15096541558E+02  0.95600253668E+02  0.90967375563E+02 0.  0.
         11    1    3    3    0    0 -0.79982991404E+01  0.70444441023E+00  0.38490952615E+02  0.39319492170E+02  0.51100000000E-03 0. -1.
         22    1    1    0    0    0  0.25176314403E+02 -0.16101895858E+01  0.15096541558E+02  0.29399746332E+02  0.00000000000E+00 0.  1.
</event>
<event>
 5    1  0.8962782E-005  0.9118800E+02  0.7818608E-02  0.1130116E+00
         25   -1    0    0    0    0  0.00000000000E+00  0.00000000000E+00  0.99999998245E-14  0.12500000000E+03  0.12500000000E+03 0.  0.
        -11    1    3    3    0    0  0.50471662243E+02 -0.43915216137E+00 -0.20736952270E+02  0.54567414580E+02  0.51100000000E-03 0.  1.
         23    2    1    0    0    0  0.25714986536E+02 -0.12137025968E+02  0.91766925518E+01  0.95120582033E+02  0.90305844263E+02 0.  0.
         11    1    3    3    0    0 -0.24756675707E+02 -0.11697873806E+02  0.29913644822E+02  0.40553167453E+02  0.51100000000E-03 0. -1.
         22    1    1    0    0    0 -0.25714986536E+02  0.12137025968E+02 -0.91766925518E+01  0.29879417967E+02  0.00000000000E+00 0.  1.
</event>
<event>
 5    1  0.8962782E-005  0.9118800E+02  0.7818608E-02  0.1130116E+00
         25   -1    0    0    0    0  0.00000000000E+00  0.00000000000E+00  0.99999998245E-14  0.12500000000E+03  0.12500000000E+03 0.  0.
        -11    1    3    3    0    0  0.40581398330E+02  0.16766168296E+02 -0.34820170337E+02  0.56039259027E+02  0.51100000000E-03 0. -1.
         23    2    1    0    0    0  0.26593061386E+02 -0.10647403625E+02 -0.14765182588E+02  0.92773167473E+02  0.86995930182E+02 0.  0.
         11    1    3    3    0    0 -0.13988336943E+02 -0.27413571921E+02  0.20054987748E+02  0.36733908446E+02  0.51100000000E-03 0.  1.
         22    1    1    0    0    0 -0.26593061386E+02  0.10647403625E+02  0.14765182588E+02  0.32226832527E+02  0.00000000000E+00 0. -1.
</event>
<event>
 5    1  0.8962782E-005  0.9118800E+02  0.7818608E-02  0.1130116E+00
         25   -1    0    0    0    0  0.00000000000E+00  0.00000000000E+00  0.99999998245E-14  0.12500000000E+03  0.12500000000E+03 0.  0.
        -11    1    3    3    0    0  0.19416731333E+02 -0.38979690768E+02 -0.27310324282E+02  0.51403108473E+02  0.51100000000E-03 0. -1.
         23    2    1    0    0    0 -0.12298263480E+02 -0.31478443581E+02 -0.51483878915E+01  0.90814541208E+02  0.84134626059E+02 0.  0.
         11    1    3    3    0    0 -0.31714994813E+02  0.75012471874E+01  0.22161936391E+02  0.39411432735E+02  0.51100000000E-03 0.  1.
         22    1    1    0    0    0  0.12298263480E+02  0.31478443581E+02  0.51483878915E+01  0.34185458792E+02  0.00000000000E+00 0. -1.
</event>
<event>
 5    1  0.8962782E-005  0.9118800E+02  0.7818608E-02  0.1130116E+00
         25   -1    0    0    0    0  0.00000000000E+00  0.00000000000E+00  0.99999998245E-14  0.12500000000E+03  0.12500000000E+03 0.  0.
        -11    1    3    3    0    0  0.31285617854E+02  0.48925834887E+02 -0.55875731764E+01  0.58341650458E+02  0.51100000000E-03 0. -1.
         23    2    1    0    0    0  0.21035038506E+02  0.14250744436E+02 -0.14720774776E+02  0.95635773943E+02  0.91016171561E+02 0.  0.
         11    1    3    3    0    0 -0.10250579348E+02 -0.34675090451E+02 -0.91332015994E+01  0.37294123484E+02  0.51100000000E-03 0.  1.
         22    1    1    0    0    0 -0.21035038506E+02 -0.14250744436E+02  0.14720774776E+02  0.29364226057E+02  0.00000000000E+00 0. -1.
</event>
<event>
 5    1  0.8962782E-005  0.9118800E+02  0.7818608E-02  0.1130116E+00
         25   -1    0    0    0    0  0.00000000000E+00  0.00000000000E+00  0.99999998245E-14  0.12500000000E+03  0.12500000000E+03 0.  0.
        -11    1    3    3    0    0  0.36423351537E+02 -0.12309578303E+02  0.30689006855E+01  0.38569475066E+02  0.51100000000E-03 0.  1.
         23    2    1    0    0    0 -0.62550536420E+01  0.20210817263E+02  0.21046672530E+02  0.95157660026E+02  0.90357152493E+02 0.  0.
         11    1    3    3    0    0 -0.42678405179E+02  0.32520395566E+02  0.17977771845E+02  0.56588184961E+02  0.51100000000E-03 0. -1.
         22    1    1    0    0    0  0.62550536420E+01 -0.20210817263E+02 -0.21046672530E+02  0.29842339974E+02  0.00000000000E+00 0. -1.
</event>
<event>
 5    1  0.8962782E-005  0.9118800E+02  0.7818608E-02  0.1130116E+00
         25   -1    0    0    0    0  0.00000000000E+00  0.00000000000E+00  0.99999998245E-14  0.12500000000E+03  0.12500000000E+03 0.  0.
        -11    1    3    3    0    0 -0.17019813569E+02  0.30399666740E+02  0.88648048117E+01  0.35949945152E+02  0.51100000000E-03 0.  1.
         23    2    1    0    0    0 -0.32249201167E+01 -0.27052916054E+02  0.12241155486E+02  0.95131852009E+02  0.90321442649E+02 0.  0.
         11    1    3    3    0    0  0.13794893452E+02 -0.57452582794E+02  0.33763506742E+01  0.59181906857E+02  0.51100000000E-03 0. -1.
         22    1    1    0    0    0  0.32249201167E+01  0.27052916054E+02 -0.12241155486E+02  0.29868147991E+02  0.00000000000E+00 0. -1.
</event>
<event>
 5    1  0.8962782E-005  0.9118800E+02  0.7818608E-02  0.1130116E+00
         25   -1    0    0    0    0  0.00000000000E+00  0.00000000000E+00  0.99999998245E-14  0.12500000000E+03  0.12500000000E+03 0.  0.
        -11    1    3    3    0    0  0.16562563399E+02 -0.57796668640E+02  0.70319377537E+01  0.60532813919E+02  0.51100000000E-03 0. -1.
         23    2    1    0    0    0  0.22399914579E+01 -0.29215821898E+02 -0.60598518281E+01  0.95078375461E+02  0.90247403648E+02 0.  0.
         11    1    3    3    0    0 -0.14322571941E+02  0.28580846742E+02 -0.13091789582E+02  0.34545561541E+02  0.51100000000E-03 0.  1.
         22    1    1    0    0    0 -0.22399914579E+01  0.29215821898E+02  0.60598518281E+01  0.29921624539E+02  0.00000000000E+00 0. -1.
</event>
<event>
 5    1  0.8962782E-005  0.9118800E+02  0.7818608E-02  0.1130116E+00
         25   -1    0    0    0    0  0.00000000000E+00  0.00000000000E+00  0.99999998245E-14  0.12500000000E+03  0.12500000000E+03 0.  0.
        -11    1    3    3    0    0 -0.47656858454E+02  0.12501695578E+02 -0.20794691443E+02  0.53477918270E+02  0.51100000000E-03 0.  1.
         23    2    1    0    0    0 -0.14735578652E+02  0.26352687417E+02  0.83775206982E-03  0.94807262247E+02  0.89871105266E+02 0.  0.
         11    1    3    3    0    0  0.32921279803E+02  0.13850991840E+02  0.20795529195E+02  0.41329343977E+02  0.51100000000E-03 0. -1.
         22    1    1    0    0    0  0.14735578652E+02 -0.26352687417E+02 -0.83775206982E-03  0.30192737753E+02  0.00000000000E+00 0.  1.
</event>
<event>
 5    1  0.8962782E-005  0.9118800E+02  0.7818608E-02  0.1130116E+00
         25   -1    0    0    0    0  0.00000000000E+00  0.00000000000E+00  0.99999998245E-14  0.12500000000E+03  0.12500000000E+03 0.  0.
        -11    1    3    3    0    0 -0.21890172501E+02  0.50526751489E+02  0.17340170679E+02  0.57730527346E+02  0.51100000000E-03 0. -1.
         23    2    1    0    0    0 -0.98689691249E+01  0.14601276506E+02  0.22989276293E+02  0.96032765895E+02  0.91559769953E+02 0.  0.
         11    1    3    3    0    0  0.12021203376E+02 -0.35925474983E+02  0.56491056138E+01  0.38302238549E+02  0.51100000000E-03 0.  1.
         22    1    1    0    0    0  0.98689691249E+01 -0.14601276506E+02 -0.22989276293E+02  0.28967234105E+02  0.00000000000E+00 0. -1.
</event>
<event>
 5    1  0.8962782E-005  0.9118800E+02  0.7818608E-02  0.1130116E+00
         25   -1    0    0    0    0  0.00000000000E+00  0.00000000000E+00  0.99999998245E-14  0.12500000000E+03  0.12500000000E+03 0.  0.
        -11    1    3    3    0    0 -0.26414915972E+01  0.53861447663E+00  0.36664787195E+02  0.36763762100E+02  0.51100000000E-03 0.  1.
         23    2    1    0    0    0  0.68029289796E+01  0.22766199702E+02 -0.17114650658E+02  0.95717053449E+02  0.91127731028E+02 0.  0.
         11    1    3    3    0    0  0.94444205768E+01  0.22227585225E+02 -0.53779437853E+02  0.58953291350E+02  0.51100000000E-03 0. -1.
         22    1    1    0    0    0 -0.68029289796E+01 -0.22766199702E+02  0.17114650658E+02  0.29282946551E+02  0.00000000000E+00 0. -1.
</event>
<event>
 5    1  0.8962782E-005  0.9118800E+02  0.7818608E-02  0.1130116E+00
         25   -1    0    0    0    0  0.00000000000E+00  0.00000000000E+00  0.99999998245E-14  0.12500000000E+03  0.12500000000E+03 0.  0.
        -11    1    3    3    0    0 -0.11428062725E+02 -0.18408171490E+02 -0.41150317470E+02  0.46506021367E+02  0.51100000000E-03 0.  1.
         23    2    1    0    0    0 -0.22707902975E+02 -0.13490902843E+02  0.81810574870E+01  0.97348905652E+02  0.93339307973E+02 0.  0.
         11    1    3    3    0    0 -0.11279840251E+02  0.49172686473E+01  0.49331374957E+02  0.50842884285E+02  0.51100000000E-03 0. -1.
         22    1    1    0    0    0  0.22707902975E+02  0.13490902843E+02 -0.81810574870E+01  0.27651094348E+02  0.00000000000E+00 0. -1.
</event>
<event>
 5    1  0.8962782E-005  0.9118800E+02  0.7818608E-02  0.1130116E+00
         25   -1    0    0    0    0  0.00000000000E+00  0.00000000000E+00  0.99999998245E-14  0.12500000000E+03  0.12500000000E+03 0.  0.
        -11    1    3    3    0    0  0.43105497802E+02 -0.30886947400E+02 -0.96936571760E+01  0.53907832920E+02  0.51100000000E-03 0.  1.
         23    2    1    0    0    0  0.88079561010E+00 -0.27997740742E+02 -0.20736372508E+01  0.96911759418E+02  0.92752034233E+02 0.  0.
         11    1    3    3    0    0 -0.42224702192E+02  0.28892066577E+01  0.76200199252E+01  0.43003926498E+02  0.51100000000E-03 0. -1.
         22    1    1    0    0    0 -0.88079561010E+00  0.27997740742E+02  0.20736372508E+01  0.28088240582E+02  0.00000000000E+00 0.  1.
</event>
<event>
 5    1  0.8962782E-005  0.9118800E+02  0.7818608E-02  0.1130116E+00
         25   -1    0    0    0    0  0.00000000000E+00  0.00000000000E+00  0.99999998245E-14  0.12500000000E+03  0.12500000000E+03 0.  0.
        -11    1    3    3    0    0  0.95206811543E+00  0.36434811050E+02  0.15305838554E+02  0.39530628430E+02  0.51100000000E-03 0. -1.
         23    2    1    0    0    0 -0.58756074621E+01 -0.20213074656E+02  0.18912065567E+02  0.96702343311E+02  0.92469377783E+02 0.  0.
         11    1    3    3    0    0 -0.68276755775E+01 -0.56647885707E+02  0.36062270127E+01  0.57171714880E+02  0.51100000000E-03 0.  1.
         22    1    1    0    0    0  0.58756074621E+01  0.20213074656E+02 -0.18912065567E+02  0.28297656689E+02  0.00000000000E+00 0.  1.
</event>
<event>
 5    1  0.8962782E-005  0.9118800E+02  0.7818608E-02  0.1130116E+00
         25   -1    0    0    0    0  0.00000000000E+00  0.00000000000E+00  0.99999998245E-14  0.12500000000E+03  0.12500000000E+03 0.  0.
        -11    1    3    3    0    0  0.55145917396E+02 -0.17243551633E+02  0.13551191501E+02  0.59346837066E+02  0.51100000000E-03 0.  1.
         23    2    1    0    0    0  0.23077149207E+02 -0.11157348710E+02  0.19837102082E+02  0.92587782168E+02  0.86729150475E+02 0.  0.
         11    1    3    3    0    0 -0.32068768189E+02  0.60862029233E+01  0.62859105810E+01  0.33240945102E+02  0.51100000000E-03 0. -1.
         22    1    1    0    0    0 -0.23077149207E+02  0.11157348710E+02 -0.19837102082E+02  0.32412217832E+02  0.00000000000E+00 0.  1.
</event>
<event>
 5    1  0.8962782E-005  0.9118800E+02  0.7818608E-02  0.1130116E+00
         25   -1    0    0    0    0  0.00000000000E+00  0.00000000000E+00  0.99999998245E-14  0.12500000000E+03  0.12500000000E+03 0.  0.
        -11    1    3    3    0    0  0.38439519012E+02 -0.31951263458E+02  0.12210909596E+02  0.51454700192E+02  0.51100000000E-03 0. -1.
         23    2    1    0    0    0  0.35524844515E+01 -0.81615051342E+01  0.27291904542E+02  0.96293234851E+02  0.91914681703E+02 0.  0.
         11    1    3    3    0    0 -0.34887034560E+02  0.23789758324E+02  0.15080994945E+02  0.44838534659E+02  0.51100000000E-03 0.  1.
         22    1    1    0    0    0 -0.35524844515E+01  0.81615051342E+01 -0.27291904542E+02  0.28706765149E+02  0.00000000000E+00 0. -1.
</event>
<event>
 5    1  0.8962782E-005  0.9118800E+02  0.7818608E-02  0.1130116E+00
         25   -1    0    0    0    0  0.00000000000E+00  0.00000000000E+00  0.99999998245E-14  0.12500000000E+03  0.12500000000E+03 0.  0.
        -11    1    3    3    0    0  0.38549118417E+02  0.35553828554E+02 -0.10316449508E+01  0.52451630547E+02  0.51100000000E-03 0. -1.
         23    2    1    0    0    0  0.22615418758E+02 -0.26309868465E+01  0.15975435485E+02  0.97186445816E+02  0.93121487607E+02 0.  0.
         11    1    3    3    0    0 -0.15933699658E+02 -0.38184815400E+02  0.17007080435E+02  0.44734815269E+02  0.51100000000E-03 0.  1.
         22    1    1    0    0    0 -0.22615418758E+02  0.26309868465E+01 -0.15975435485E+02  0.27813554184E+02  0.00000000000E+00 0.  1.
</event>
<event>
 5    1  0.8962782E-005  0.9118800E+02  0.7818608E-02  0.1130116E+00
         25   -1    0    0    0    0  0.00000000000E+00  0.00000000000E+00  0.99999998245E-14  0.12500000000E+03  0.12500000000E+03 0.  0.
        -11    1    3    3    0    0  0.13638554315E+02 -0.31734377384E+02  0.43872768893E+02  0.55838165464E+02  0.51100000000E-03 0. -1.
         23    2    1    0    0    0  0.19268250936E+02 -0.26452158879E+02  0.97075376497E+01  0.90864703154E+02  0.84209119391E+02 0.  0.
         11    1    3    3    0    0  0.56296966214E+01  0.52822185047E+01 -0.34165231244E+02  0.35026537690E+02  0.51100000000E-03 0.  1.
         22    1    1    0    0    0 -0.19268250936E+02  0.26452158879E+02 -0.97075376497E+01  0.34135296846E+02  0.00000000000E+00 0. -1.
</event>
<event>
 5    1  0.8962782E-005  0.9118800E+02  0.7818608E-02  0.1130116E+00
         25   -1    0    0    0    0  0.00000000000E+00  0.00000000000E+00  0.99999998245E-14  0.12500000000E+03  0.12500000000E+03 0.  0.
        -11    1    3    3    0    0  0.35253196898E+02  0.49129891644E+01  0.17194636165E+02  0.39529493636E+02  0.51100000000E-03 0. -1.
         23    2    1    0    0    0  0.39475259520E+01  0.21006679580E+01 -0.29139806856E+02  0.95519089047E+02  0.90855777261E+02 0.  0.
         11    1    3    3    0    0 -0.31305670946E+02 -0.28123212064E+01 -0.46334443021E+02  0.55989595411E+02  0.51100000000E-03 0.  1.
         22    1    1    0    0    0 -0.39475259520E+01 -0.21006679580E+01  0.29139806856E+02  0.29480910953E+02  0.00000000000E+00 0.  1.
</event>
<event>
 5    1  0.8962782E-005  0.9118800E+02  0.7818608E-02  0.1130116E+00
         25   -1    0    0    0    0  0.00000000000E+00  0.00000000000E+00  0.99999998245E-14  0.12500000000E+03  0.12500000000E+03 0.  0.
        -11    1    3    3    0    0 -0.18550239549E+02 -0.35682066810E+02  0.39477855838E+02  0.56354435327E+02  0.51100000000E-03 0. -1.
         23    2    1    0    0    0  0.76542380492E+01 -0.26564967822E+02  0.14051069209E+02  0.93988430846E+02  0.88724899050E+02 0.  0.
         11    1    3    3    0    0  0.26204477598E+02  0.91170989884E+01 -0.25426786629E+02  0.37633995519E+02  0.51100000000E-03 0.  1.
         22    1    1    0    0    0 -0.76542380492E+01  0.26564967822E+02 -0.14051069209E+02  0.31011569154E+02  0.00000000000E+00 0. -1.
</event>
<event>
 5    1  0.8962782E-005  0.9118800E+02  0.7818608E-02  0.1130116E+00
         25   -1    0    0    0    0  0.00000000000E+00  0.00000000000E+00  0.99999998245E-14  0.12500000000E+03  0.12500000000E+03 0.  0.
        -11    1    3    3    0    0  0.37415392998E+02 -0.12594216191E+02  0.32403353673E+02  0.51073508242E+02  0.51100000000E-03 0. -1.
         23    2    1    0    0    0 -0.14871487466E+01  0.10585662058E+02  0.26101105837E+02  0.96794759733E+02  0.92594221921E+02 0.  0.
         11    1    3    3    0    0 -0.38902541744E+02  0.23179878249E+02 -0.63022478357E+01  0.45721251491E+02  0.51100000000E-03 0.  1.
         22    1    1    0    0    0  0.14871487466E+01 -0.10585662058E+02 -0.26101105837E+02  0.28205240267E+02  0.00000000000E+00 0. -1.
</event>
<event>
 5    1  0.8962782E-005  0.9118800E+02  0.7818608E-02  0.1130116E+00
         25   -1    0    0    0    0  0.00000000000E+00  0.00000000000E+00  0.99999998245E-14  0.12500000000E+03  0.12500000000E+03 0.  0.
        -11    1    3    3    0    0  0.41641673822E+02 -0.20265805259E+02 -0.23075292500E+02  0.51741675521E+02  0.51100000000E-03 0. -1.
         23    2    1    0    0    0 -0.22419421583E+01 -0.13371119741E+02 -0.25382559266E+02  0.96223491132E+02  0.91819784267E+02 0.  0.
         11    1    3    3    0    0 -0.43883615980E+02  0.68946855184E+01 -0.23072667660E+01  0.44481815611E+02  0.51100000000E-03 0.  1.
         22    1    1    0    0    0  0.22419421583E+01  0.13371119741E+02  0.25382559266E+02  0.28776508868E+02  0.00000000000E+00 0.  1.
</event>
<event>
 5    1  0.8962782E-005  0.9118800E+02  0.7818608E-02  0.1130116E+00
         25   -1    0    0    0    0  0.00000000000E+00  0.00000000000E+00  0.99999998245E-14  0.12500000000E+03  0.12500000000E+03 0.  0.
        -11    1    3    3    0    0  0.44723307528E+02 -0.30409719355E+02  0.42422302847E+01  0.54248703077E+02  0.51100000000E-03 0. -1.
         23    2    1    0    0    0  0.22656757214E+02  0.32226470843E+01  0.17048106622E+02  0.96463145915E+02  0.92145463690E+02 0.  0.
         11    1    3    3    0    0 -0.22066550314E+02  0.33632366439E+02  0.12805876338E+02  0.42214442838E+02  0.51100000000E-03 0.  1.
         22    1    1    0    0    0 -0.22656757214E+02 -0.32226470843E+01 -0.17048106622E+02  0.28536854085E+02  0.00000000000E+00 0. -1.
</event>
<event>
 5    1  0.8962782E-005  0.9118800E+02  0.7818608E-02  0.1130116E+00
         25   -1    0    0    0    0  0.00000000000E+00  0.00000000000E+00  0.99999998245E-14  0.12500000000E+03  0.12500000000E+03 0.  0.
        -11    1    3    3    0    0 -0.32201319161E+02  0.24530791585E+00 -0.79637016145E+01  0.33172363126E+02  0.51100000000E-03 0.  1.
         23    2    1    0    0    0 -0.22404819024E+01  0.22876080804E+02  0.30423603922E+02  0.86869559303E+02  0.78053762407E+02 0.  0.
         11    1    3    3    0    0  0.29960837258E+02  0.22630772889E+02  0.38387305536E+02  0.53697196178E+02  0.51100000000E-03 0. -1.
         22    1    1    0    0    0  0.22404819024E+01 -0.22876080804E+02 -0.30423603922E+02  0.38130440697E+02  0.00000000000E+00 0. -1.
</event>
<event>
 5    1  0.8962782E-005  0.9118800E+02  0.7818608E-02  0.1130116E+00
         25   -1    0    0    0    0  0.00000000000E+00  0.00000000000E+00  0.99999998245E-14  0.12500000000E+03  0.12500000000E+03 0.  0.
        -11    1    3    3    0    0  0.10402189690E+02 -0.27484617438E+02  0.19365442727E+02  0.35194177335E+02  0.51100000000E-03 0. -1.
         23    2    1    0    0    0 -0.22334437842E+02  0.18134816778E+02 -0.38880451919E+01  0.95968713623E+02  0.91472282172E+02 0.  0.
         11    1    3    3    0    0 -0.32736627532E+02  0.45619434215E+02 -0.23253487919E+02  0.60774536288E+02  0.51100000000E-03 0.  1.
         22    1    1    0    0    0  0.22334437842E+02 -0.18134816778E+02  0.38880451919E+01  0.29031286377E+02  0.00000000000E+00 0.  1.
</event>
<event>
 5    1  0.8962782E-005  0.9118800E+02  0.7818608E-02  0.1130116E+00
         25   -1    0    0    0    0  0.00000000000E+00  0.00000000000E+00  0.99999998245E-14  0.12500000000E+03  0.12500000000E+03 0.  0.
        -11    1    3    3    0    0 -0.46377405938E+02  0.11609584078E+01 -0.22108547137E+02  0.51390655403E+02  0.51100000000E-03 0.  1.
         23    2    1    0    0    0 -0.19248307426E+02 -0.25075188294E+02 -0.15820145710E+02  0.89651175167E+02  0.82388068262E+02 0.  0.
         11    1    3    3    0    0  0.27129098512E+02 -0.26236146702E+02  0.62884014271E+01  0.38260519764E+02  0.51100000000E-03 0. -1.
         22    1    1    0    0    0  0.19248307426E+02  0.25075188294E+02  0.15820145710E+02  0.35348824833E+02  0.00000000000E+00 0.  1.
</event>
<event>
 5    1  0.8962782E-005  0.9118800E+02  0.7818608E-02  0.1130116E+00
         25   -1    0    0    0    0  0.00000000000E+00  0.00000000000E+00  0.99999998245E-14  0.12500000000E+03  0.12500000000E+03 0.  0.
        -11    1    3    3    0    0 -0.22438655262E+02  0.24767126685E+02 -0.14575902388E+02  0.36460399681E+02  0.51100000000E-03 0.  1.
         23    2    1    0    0    0  0.26819750560E+02  0.73434341826E+01  0.11564929094E+02  0.94884013703E+02  0.89977794070E+02 0.  0.
         11    1    3    3    0    0  0.49258405822E+02 -0.17423692503E+02  0.26140831482E+02  0.58423614022E+02  0.51100000000E-03 0. -1.
         22    1    1    0    0    0 -0.26819750560E+02 -0.73434341826E+01 -0.11564929094E+02  0.30115986297E+02  0.00000000000E+00 0. -1.
</event>
<event>
 5    1  0.8962782E-005  0.9118800E+02  0.7818608E-02  0.1130116E+00
         25   -1    0    0    0    0  0.00000000000E+00  0.00000000000E+00  0.99999998245E-14  0.12500000000E+03  0.12500000000E+03 0.  0.
        -11    1    3    3    0    0  0.38089387916E+02  0.11326383733E+02 -0.22856124554E+02  0.45842020790E+02  0.51100000000E-03 0. -1.
         23    2    1    0    0    0  0.20075017218E+02  0.11482560945E+02  0.21316936714E+02  0.93547379871E+02  0.88101333518E+02 0.  0.
         11    1    3    3    0    0 -0.18014370698E+02  0.15617721225E+00  0.44173061268E+02  0.47705359080E+02  0.51100000000E-03 0.  1.
         22    1    1    0    0    0 -0.20075017218E+02 -0.11482560945E+02 -0.21316936714E+02  0.31452620129E+02  0.00000000000E+00 0. -1.
</event>
<event>
 5    1  0.8962782E-005  0.9118800E+02  0.7818608E-02  0.1130116E+00
         25   -1    0    0    0    0  0.00000000000E+00  0.00000000000E+00  0.99999998245E-14  0.12500000000E+03  0.12500000000E+03 0.  0.
        -11    1    3    3    0    0 -0.55906865029E+01 -0.45131460661E+01  0.40280554517E+02  0.40916345578E+02  0.51100000000E-03 0.  1.
         23    2    1    0    0    0  0.23271594219E+02  0.14467267842E+02 -0.42454886102E+01  0.97271078098E+02  0.93235023058E+02 0.  0.
         11    1    3    3    0    0  0.28862280721E+02  0.18980413908E+02 -0.44526043127E+02  0.56354732520E+02  0.51100000000E-03 0. -1.
         22    1    1    0    0    0 -0.23271594219E+02 -0.14467267842E+02  0.42454886102E+01  0.27728921902E+02  0.00000000000E+00 0. -1.
</event>
<event>
 5    1  0.8962782E-005  0.9118800E+02  0.7818608E-02  0.1130116E+00
         25   -1    0    0    0    0  0.00000000000E+00  0.00000000000E+00  0.99999998245E-14  0.12500000000E+03  0.12500000000E+03 0.  0.
        -11    1    3    3    0    0 -0.20367442417E+02 -0.50137226530E+02 -0.13508512373E+01  0.54133159838E+02  0.51100000000E-03 0. -1.
         23    2    1    0    0    0 -0.81593871787E+01 -0.88468607177E+01 -0.20477689729E+02  0.10124756180E+03  0.98422001863E+02 0.  0.
         11    1    3    3    0    0  0.12208055238E+02  0.41290365812E+02 -0.19126838491E+02  0.47114401965E+02  0.51100000000E-03 0.  1.
         22    1    1    0    0    0  0.81593871787E+01  0.88468607177E+01  0.20477689729E+02  0.23752438197E+02  0.00000000000E+00 0. -1.
</event>
<event>
 5    1  0.8962782E-005  0.9118800E+02  0.7818608E-02  0.1130116E+00
         25   -1    0    0    0    0  0.00000000000E+00  0.00000000000E+00  0.99999998245E-14  0.12500000000E+03  0.12500000000E+03 0.  0.
        -11    1    3    3    0    0  0.34560960193E+00  0.62768569450E+01 -0.32454667683E+02  0.33057886106E+02  0.51100000000E-03 0.  1.
         23    2    1    0    0    0 -0.10920368870E+02 -0.45382875160E+01  0.27527530841E+02  0.95039768626E+02  0.90193914187E+02 0.  0.
         11    1    3    3    0    0 -0.11265978471E+02 -0.10815144461E+02  0.59982198524E+02  0.61981882520E+02  0.51100000000E-03 0. -1.
         22    1    1    0    0    0  0.10920368870E+02  0.45382875160E+01 -0.27527530841E+02  0.29960231374E+02  0.00000000000E+00 0. -1.
</event>
<event>
 5    1  0.8962782E-005  0.9118800E+02  0.7818608E-02  0.1130116E+00
         25   -1    0    0    0    0  0.00000000000E+00  0.00000000000E+00  0.99999998245E-14  0.12500000000E+03  0.12500000000E+03 0.  0.
        -11    1    3    3    0    0 -0.16957806405E+02 -0.13717393995E+02 -0.49069410400E+02  0.53698613887E+02  0.51100000000E-03 0.  1.
         23    2    1    0    0    0 -0.87272550333E+01  0.17207668025E+02 -0.23030795667E+02  0.94955260555E+02  0.90076718073E+02 0.  0.
         11    1    3    3    0    0  0.82305513715E+01  0.30925062020E+02  0.26038614733E+02  0.41256646668E+02  0.51100000000E-03 0. -1.
         22    1    1    0    0    0  0.87272550333E+01 -0.17207668025E+02  0.23030795667E+02  0.30044739445E+02  0.00000000000E+00 0.  1.
</event>
<event>
 5    1  0.8962782E-005  0.9118800E+02  0.7818608E-02  0.1130116E+00
         25   -1    0    0    0    0  0.00000000000E+00  0.00000000000E+00  0.99999998245E-14  0.12500000000E+03  0.12500000000E+03 0.  0.
        -11    1    3    3    0    0  0.41676857821E+01 -0.33478094285E+02  0.13844585114E+02  0.36466764855E+02  0.51100000000E-03 0.  1.
         23    2    1    0    0    0  0.14408193276E+02  0.19922408440E+02  0.22676235493E+02  0.91552876841E+02  0.85224522352E+02 0.  0.
         11    1    3    3    0    0  0.10240507494E+02  0.53400502725E+02  0.88316503791E+01  0.55086111986E+02  0.51100000000E-03 0. -1.
         22    1    1    0    0    0 -0.14408193276E+02 -0.19922408440E+02 -0.22676235493E+02  0.33447123159E+02  0.00000000000E+00 0. -1.
</event>
<event>
 5    1  0.8962782E-005  0.9118800E+02  0.7818608E-02  0.1130116E+00
         25   -1    0    0    0    0  0.00000000000E+00  0.00000000000E+00  0.99999998245E-14  0.12500000000E+03  0.12500000000E+03 0.  0.
        -11    1    3    3    0    0  0.29515713462E+02 -0.23260690985E+02 -0.46310828798E+02  0.59640002939E+02  0.51100000000E-03 0. -1.
         23    2    1    0    0    0  0.17777690186E+02  0.21717519741E+01 -0.21084525741E+02  0.97335582408E+02  0.93321463780E+02 0.  0.
         11    1    3    3    0    0 -0.11738023276E+02  0.25432442959E+02  0.25226303057E+02  0.37695579469E+02  0.51100000000E-03 0.  1.
         22    1    1    0    0    0 -0.17777690186E+02 -0.21717519741E+01  0.21084525741E+02  0.27664417592E+02  0.00000000000E+00 0. -1.
</event>
<event>
 5    1  0.8962782E-005  0.9118800E+02  0.7818608E-02  0.1130116E+00
         25   -1    0    0    0    0  0.00000000000E+00  0.00000000000E+00  0.99999998245E-14  0.12500000000E+03  0.12500000000E+03 0.  0.
        -11    1    3    3    0    0 -0.91712933568E+01  0.30025105640E+02 -0.37963153223E+02  0.49262770866E+02  0.51100000000E-03 0.  1.
         23    2    1    0    0    0  0.22717324843E+02  0.14510043867E+02 -0.51924395079E+01  0.97548594771E+02  0.93606349639E+02 0.  0.
         11    1    3    3    0    0  0.31888618199E+02 -0.15515061773E+02  0.32770713715E+02  0.48285823905E+02  0.51100000000E-03 0. -1.
         22    1    1    0    0    0 -0.22717324843E+02 -0.14510043867E+02  0.51924395079E+01  0.27451405229E+02  0.00000000000E+00 0. -1.
</event>
<event>
 5    1  0.8962782E-005  0.9118800E+02  0.7818608E-02  0.1130116E+00
         25   -1    0    0    0    0  0.00000000000E+00  0.00000000000E+00  0.99999998245E-14  0.12500000000E+03  0.12500000000E+03 0.  0.
        -11    1    3    3    0    0 -0.42581869030E+01 -0.23338689167E+02 -0.26439910563E+02  0.35523167631E+02  0.51100000000E-03 0.  1.
         23    2    1    0    0    0  0.12183311380E+02  0.27353071419E+02  0.96872792488E-01  0.95056169641E+02  0.90216641537E+02 0.  0.
         11    1    3    3    0    0  0.16441498282E+02  0.50691760587E+02  0.26536783355E+02  0.59533002009E+02  0.51100000000E-03 0. -1.
         22    1    1    0    0    0 -0.12183311380E+02 -0.27353071419E+02 -0.96872792488E-01  0.29943830359E+02  0.00000000000E+00 0. -1.
</event>
<event>
 5    1  0.8962782E-005  0.9118800E+02  0.7818608E-02  0.1130116E+00
         25   -1    0    0    0    0  0.00000000000E+00  0.00000000000E+00  0.99999998245E-14  0.12500000000E+03  0.12500000000E+03 0.  0.
        -11    1    3    3    0    0  0.13349469868E+02  0.11380428729E+02 -0.54277351752E+02  0.57041681403E+02  0.51100000000E-03 0.  1.
         23    2    1    0    0    0 -0.81859610948E+01 -0.63861192306E+01 -0.26996523557E+02  0.96075879235E+02  0.91618610603E+02 0.  0.
         11    1    3    3    0    0 -0.21535430962E+02 -0.17766547960E+02  0.27280828195E+02  0.39034197832E+02  0.51100000000E-03 0. -1.
         22    1    1    0    0    0  0.81859610948E+01  0.63861192306E+01  0.26996523557E+02  0.28924120765E+02  0.00000000000E+00 0.  1.
</event>
<event>
 5    1  0.8962782E-005  0.9118800E+02  0.7818608E-02  0.1130116E+00
         25   -1    0    0    0    0  0.00000000000E+00  0.00000000000E+00  0.99999998245E-14  0.12500000000E+03  0.12500000000E+03 0.  0.
        -11    1    3    3    0    0  0.31905465135E+02  0.26917306061E+02  0.18359589261E+00  0.41743667529E+02  0.51100000000E-03 0. -1.
         23    2    1    0    0    0 -0.12258256426E+02  0.12206941134E+02 -0.24945721878E+02  0.94642738884E+02  0.89641980796E+02 0.  0.
         11    1    3    3    0    0 -0.44163721561E+02 -0.14710364927E+02 -0.25129317771E+02  0.52899071355E+02  0.51100000000E-03 0.  1.
         22    1    1    0    0    0  0.12258256426E+02 -0.12206941134E+02  0.24945721878E+02  0.30357261116E+02  0.00000000000E+00 0.  1.
</event>
<event>
 5    1  0.8962782E-005  0.9118800E+02  0.7818608E-02  0.1130116E+00
         25   -1    0    0    0    0  0.00000000000E+00  0.00000000000E+00  0.99999998245E-14  0.12500000000E+03  0.12500000000E+03 0.  0.
        -11    1    3    3    0    0  0.17590857180E+01  0.39566120581E+02  0.17466410083E+02  0.43285653072E+02  0.51100000000E-03 0. -1.
         23    2    1    0    0    0  0.17810618191E+02  0.62876901897E+01 -0.21091029076E+02  0.96687729237E+02  0.92449620385E+02 0.  0.
         11    1    3    3    0    0  0.16051532473E+02 -0.33278430391E+02 -0.38557439159E+02  0.53402076166E+02  0.51100000000E-03 0.  1.
         22    1    1    0    0    0 -0.17810618191E+02 -0.62876901897E+01  0.21091029076E+02  0.28312270763E+02  0.00000000000E+00 0.  1.
</event>
<event>
 5    1  0.8962782E-005  0.9118800E+02  0.7818608E-02  0.1130116E+00
         25   -1    0    0    0    0  0.00000000000E+00  0.00000000000E+00  0.99999998245E-14  0.12500000000E+03  0.12500000000E+03 0.  0.
        -11    1    3    3    0    0  0.33275927394E+02  0.23765453114E+02 -0.42712534027E+02  0.59130742164E+02  0.51100000000E-03 0. -1.
         23    2    1    0    0    0  0.20377787033E+02 -0.26600996291E+01 -0.20402175044E+02  0.96041770066E+02  0.91572061877E+02 0.  0.
         11    1    3    3    0    0 -0.12898140361E+02 -0.26425552743E+02  0.22310358983E+02  0.36911027902E+02  0.51100000000E-03 0.  1.
         22    1    1    0    0    0 -0.20377787033E+02  0.26600996291E+01  0.20402175044E+02  0.28958229934E+02  0.00000000000E+00 0. -1.
</event>
<event>
 5    1  0.8962782E-005  0.9118800E+02  0.7818608E-02  0.1130116E+00
         25   -1    0    0    0    0  0.00000000000E+00  0.00000000000E+00  0.99999998245E-14  0.12500000000E+03  0.12500000000E+03 0.  0.
        -11    1    3    3    0    0  0.10675000854E+01  0.47690571947E+01 -0.32959272626E+02  0.33319620575E+02  0.51100000000E-03 0.  1.
         23    2    1    0    0    0 -0.37027247578E+01 -0.16590878803E+02  0.24712970314E+02  0.95005028224E+02  0.90145754509E+02 0.  0.
         11    1    3    3    0    0 -0.47702248432E+01 -0.21359935998E+02  0.57672242940E+02  0.61685407649E+02  0.51100000000E-03 0. -1.
         22    1    1    0    0    0  0.37027247578E+01  0.16590878803E+02 -0.24712970314E+02  0.29994971776E+02  0.00000000000E+00 0. -1.
</event>
<event>
 5    1  0.8962782E-005  0.9118800E+02  0.7818608E-02  0.1130116E+00
         25   -1    0    0    0    0  0.00000000000E+00  0.00000000000E+00  0.99999998245E-14  0.12500000000E+03  0.12500000000E+03 0.  0.
        -11    1    3    3    0    0 -0.12616263748E+02  0.21337858359E+01  0.42232032641E+02  0.44127856669E+02  0.51100000000E-03 0.  1.
         23    2    1    0    0    0  0.21063848814E+02 -0.19253548915E+02  0.22622579711E+02  0.88583438033E+02  0.80751839040E+02 0.  0.
         11    1    3    3    0    0  0.33680112562E+02 -0.21387334751E+02 -0.19609452931E+02  0.44455581364E+02  0.51100000000E-03 0. -1.
         22    1    1    0    0    0 -0.21063848814E+02  0.19253548915E+02 -0.22622579711E+02  0.36416561967E+02  0.00000000000E+00 0.  1.
</event>
<event>
 5    1  0.8962782E-005  0.9118800E+02  0.7818608E-02  0.1130116E+00
         25   -1    0    0    0    0  0.00000000000E+00  0.00000000000E+00  0.99999998245E-14  0.12500000000E+03  0.12500000000E+03 0.  0.
        -11    1    3    3    0    0  0.43948144830E+02 -0.35761375206E+02  0.21948201786E+02  0.60762150657E+02  0.51100000000E-03 0. -1.
         23    2    1    0    0    0  0.26592876329E+02 -0.14050408194E+02  0.22304055560E+01  0.94840925895E+02  0.89917915200E+02 0.  0.
         11    1    3    3    0    0 -0.17355268500E+02  0.21710967012E+02 -0.19717796230E+02  0.34078775238E+02  0.51100000000E-03 0.  1.
         22    1    1    0    0    0 -0.26592876329E+02  0.14050408194E+02 -0.22304055560E+01  0.30159074105E+02  0.00000000000E+00 0. -1.
</event>
<event>
 5    1  0.8962782E-005  0.9118800E+02  0.7818608E-02  0.1130116E+00
         25   -1    0    0    0    0  0.00000000000E+00  0.00000000000E+00  0.99999998245E-14  0.12500000000E+03  0.12500000000E+03 0.  0.
        -11    1    3    3    0    0 -0.38216904012E+02 -0.14212992214E+02 -0.22801693835E+02  0.46716786511E+02  0.51100000000E-03 0.  1.
         23    2    1    0    0    0 -0.21103079268E+02  0.15506575983E+02  0.12541689923E+02  0.95964025082E+02  0.91465874896E+02 0.  0.
         11    1    3    3    0    0  0.17113824744E+02  0.29719568197E+02  0.35343383757E+02  0.49247238571E+02  0.51100000000E-03 0. -1.
         22    1    1    0    0    0  0.21103079268E+02 -0.15506575983E+02 -0.12541689923E+02  0.29035974918E+02  0.00000000000E+00 0.  1.
</event>
<event>
 5    1  0.8962782E-005  0.9118800E+02  0.7818608E-02  0.1130116E+00
         25   -1    0    0    0    0  0.00000000000E+00  0.00000000000E+00  0.99999998245E-14  0.12500000000E+03  0.12500000000E+03 0.  0.
        -11    1    3    3    0    0 -0.14626210114E+02  0.16520683564E+02 -0.32973741306E+02  0.39675264633E+02  0.51100000000E-03 0.  1.
         23    2    1    0    0    0  0.65123602339E+01  0.26345459938E+02  0.15703271825E+02  0.93645784316E+02  0.88240841332E+02 0.  0.
         11    1    3    3    0    0  0.21138570348E+02  0.98247763745E+01  0.48677013131E+02  0.53970519683E+02  0.51100000000E-03 0. -1.
         22    1    1    0    0    0 -0.65123602339E+01 -0.26345459938E+02 -0.15703271825E+02  0.31354215684E+02  0.00000000000E+00 0. -1.
</event>
<event>
 5    1  0.8962782E-005  0.9118800E+02  0.7818608E-02  0.1130116E+00
         25   -1    0    0    0    0  0.00000000000E+00  0.00000000000E+00  0.99999998245E-14  0.12500000000E+03  0.12500000000E+03 0.  0.
        -11    1    3    3    0    0 -0.24479970798E+02  0.21810846583E+02  0.13204422276E+01  0.32813496718E+02  0.51100000000E-03 0.  1.
         23    2    1    0    0    0  0.20091665539E+02 -0.19962619325E+02 -0.10044247512E+02  0.94948908464E+02  0.90067902806E+02 0.  0.
         11    1    3    3    0    0  0.44571636337E+02 -0.41773465908E+02 -0.11364689739E+02  0.62135411746E+02  0.51100000000E-03 0. -1.
         22    1    1    0    0    0 -0.20091665539E+02  0.19962619325E+02  0.10044247512E+02  0.30051091536E+02  0.00000000000E+00 0. -1.
</event>
<event>
 5    1  0.8962782E-005  0.9118800E+02  0.7818608E-02  0.1130116E+00
         25   -1    0    0    0    0  0.00000000000E+00  0.00000000000E+00  0.99999998245E-14  0.12500000000E+03  0.12500000000E+03 0.  0.
        -11    1    3    3    0    0 -0.20960811686E+02  0.28294895796E+02 -0.33303257775E+02  0.48467140759E+02  0.51100000000E-03 0. -1.
         23    2    1    0    0    0  0.12585517882E+02  0.27559614392E+02 -0.15517617985E+01  0.94662967012E+02  0.89670183189E+02 0.  0.
         11    1    3    3    0    0  0.33546329568E+02 -0.73528140400E+00  0.31751495977E+02  0.46195826253E+02  0.51100000000E-03 0.  1.
         22    1    1    0    0    0 -0.12585517882E+02 -0.27559614392E+02  0.15517617985E+01  0.30337032988E+02  0.00000000000E+00 0. -1.
</event>
<event>
 5    1  0.8962782E-005  0.9118800E+02  0.7818608E-02  0.1130116E+00
         25   -1    0    0    0    0  0.00000000000E+00  0.00000000000E+00  0.99999998245E-14  0.12500000000E+03  0.12500000000E+03 0.  0.
        -11    1    3    3    0    0  0.39573106783E+02 -0.17977859167E+02  0.27108086553E+02  0.51225799726E+02  0.51100000000E-03 0.  1.
         23    2    1    0    0    0  0.24439577616E+02  0.11174483623E+02 -0.55667205321E+01  0.97556413941E+02  0.93616790616E+02 0.  0.
         11    1    3    3    0    0 -0.15133529167E+02  0.29152342790E+02 -0.32674807085E+02  0.46330614215E+02  0.51100000000E-03 0. -1.
         22    1    1    0    0    0 -0.24439577616E+02 -0.11174483623E+02  0.55667205321E+01  0.27443586059E+02  0.00000000000E+00 0. -1.
</event>
<event>
 5    1  0.8962782E-005  0.9118800E+02  0.7818608E-02  0.1130116E+00
         25   -1    0    0    0    0  0.00000000000E+00  0.00000000000E+00  0.99999998245E-14  0.12500000000E+03  0.12500000000E+03 0.  0.
        -11    1    3    3    0    0 -0.11751881319E+02 -0.38924096398E+01  0.37124306953E+02  0.39134022721E+02  0.51100000000E-03 0. -1.
         23    2    1    0    0    0  0.21325304397E+02 -0.22100909396E+02 -0.28925865433E+01  0.94152214655E+02  0.88955346459E+02 0.  0.
         11    1    3    3    0    0  0.33077185716E+02 -0.18208499757E+02 -0.40016893496E+02  0.55018191934E+02  0.51100000000E-03 0.  1.
         22    1    1    0    0    0 -0.21325304397E+02  0.22100909396E+02  0.28925865433E+01  0.30847785345E+02  0.00000000000E+00 0.  1.
</event>
<event>
 5    1  0.8962782E-005  0.9118800E+02  0.7818608E-02  0.1130116E+00
         25   -1    0    0    0    0  0.00000000000E+00  0.00000000000E+00  0.99999998245E-14  0.12500000000E+03  0.12500000000E+03 0.  0.
        -11    1    3    3    0    0  0.25223911304E+02  0.87694412234E+00  0.26088809037E+02  0.36299320789E+02  0.51100000000E-03 0.  1.
         23    2    1    0    0    0 -0.10609542896E+02 -0.22974795583E+02 -0.14811791027E+02  0.95677776585E+02  0.91073838979E+02 0.  0.
         11    1    3    3    0    0 -0.35833454201E+02 -0.23851739705E+02 -0.40900600064E+02  0.59378455797E+02  0.51100000000E-03 0. -1.
         22    1    1    0    0    0  0.10609542896E+02  0.22974795583E+02  0.14811791027E+02  0.29322223415E+02  0.00000000000E+00 0. -1.
</event>
<event>
 5    1  0.8962782E-005  0.9118800E+02  0.7818608E-02  0.1130116E+00
         25   -1    0    0    0    0  0.00000000000E+00  0.00000000000E+00  0.99999998245E-14  0.12500000000E+03  0.12500000000E+03 0.  0.
        -11    1    3    3    0    0  0.94540188681E+01  0.90689067196E+01 -0.32599472632E+02  0.35133305538E+02  0.51100000000E-03 0.  1.
         23    2    1    0    0    0 -0.16855240711E+02 -0.24477823610E+02  0.82278310492E+01  0.94162357550E+02  0.88969598109E+02 0.  0.
         11    1    3    3    0    0 -0.26309259579E+02 -0.33546730329E+02  0.40827303681E+02  0.59029052013E+02  0.51100000000E-03 0. -1.
         22    1    1    0    0    0  0.16855240711E+02  0.24477823610E+02 -0.82278310492E+01  0.30837642450E+02  0.00000000000E+00 0. -1.
</event>
<event>
 5    1  0.8962782E-005  0.9118800E+02  0.7818608E-02  0.1130116E+00
         25   -1    0    0    0    0  0.00000000000E+00  0.00000000000E+00  0.99999998245E-14  0.12500000000E+03  0.12500000000E+03 0.  0.
        -11    1    3    3    0    0 -0.83965937393E+00 -0.31367679163E+02 -0.23842221367E+02  0.39409235515E+02  0.51100000000E-03 0.  1.
         23    2    1    0    0    0  0.19743046862E+02 -0.26875621132E+01  0.20716171927E+02  0.96256815263E+02  0.91865139284E+02 0.  0.
         11    1    3    3    0    0  0.20582706236E+02  0.28680117050E+02  0.44558393294E+02  0.56847579748E+02  0.51100000000E-03 0. -1.
         22    1    1    0    0    0 -0.19743046862E+02  0.26875621132E+01 -0.20716171927E+02  0.28743184737E+02  0.00000000000E+00 0. -1.
</event>
<event>
 5    1  0.8962782E-005  0.9118800E+02  0.7818608E-02  0.1130116E+00
         25   -1    0    0    0    0  0.00000000000E+00  0.00000000000E+00  0.99999998245E-14  0.12500000000E+03  0.12500000000E+03 0.  0.
        -11    1    3    3    0    0 -0.22130267669E+02  0.44110592831E+01  0.40662572561E+02  0.46504311614E+02  0.51100000000E-03 0. -1.
         23    2    1    0    0    0 -0.25917616499E+02  0.82247100124E+01 -0.89242980464E+01  0.96381617876E+02  0.92034800314E+02 0.  0.
         11    1    3    3    0    0 -0.37873488302E+01  0.38136507293E+01 -0.49586870608E+02  0.49877306262E+02  0.51100000000E-03 0.  1.
         22    1    1    0    0    0  0.25917616499E+02 -0.82247100124E+01  0.89242980464E+01  0.28618382124E+02  0.00000000000E+00 0. -1.
</event>
<event>
 5    1  0.8962782E-005  0.9118800E+02  0.7818608E-02  0.1130116E+00
         25   -1    0    0    0    0  0.00000000000E+00  0.00000000000E+00  0.99999998245E-14  0.12500000000E+03  0.12500000000E+03 0.  0.
        -11    1    3    3    0    0  0.94472914062E+01  0.19733858667E+02 -0.26794963177E+02  0.34592579330E+02  0.51100000000E-03 0. -1.
         23    2    1    0    0    0  0.62165434561E+01 -0.31176144337E+02  0.19573289127E+01  0.93149905421E+02  0.87535571942E+02 0.  0.
         11    1    3    3    0    0 -0.32307479501E+01 -0.50910003004E+02  0.28752292090E+02  0.58557326090E+02  0.51100000000E-03 0.  1.
         22    1    1    0    0    0 -0.62165434561E+01  0.31176144337E+02 -0.19573289127E+01  0.31850094579E+02  0.00000000000E+00 0.  1.
</event>
<event>
 5    1  0.8962782E-005  0.9118800E+02  0.7818608E-02  0.1130116E+00
         25   -1    0    0    0    0  0.00000000000E+00  0.00000000000E+00  0.99999998245E-14  0.12500000000E+03  0.12500000000E+03 0.  0.
        -11    1    3    3    0    0 -0.43047719743E+01 -0.32762787593E+02  0.11668277584E+02  0.35043972587E+02  0.51100000000E-03 0.  1.
         23    2    1    0    0    0  0.12004447590E+02  0.19673370893E+02 -0.16398431954E+02  0.96714723710E+02  0.92486112079E+02 0.  0.
         11    1    3    3    0    0  0.16309219565E+02  0.52436158486E+02 -0.28066709538E+02  0.61670751123E+02  0.51100000000E-03 0. -1.
         22    1    1    0    0    0 -0.12004447590E+02 -0.19673370893E+02  0.16398431954E+02  0.28285276290E+02  0.00000000000E+00 0. -1.
</event>
<event>
 5    1  0.8962782E-005  0.9118800E+02  0.7818608E-02  0.1130116E+00
         25   -1    0    0    0    0  0.00000000000E+00  0.00000000000E+00  0.99999998245E-14  0.12500000000E+03  0.12500000000E+03 0.  0.
        -11    1    3    3    0    0  0.31031620740E+01 -0.17191790464E+02  0.48909019671E+02  0.51935339410E+02  0.51100000000E-03 0.  1.
         23    2    1    0    0    0  0.21791843518E+02  0.76376731904E+01  0.18544657324E+02  0.95383740767E+02  0.90669372954E+02 0.  0.
         11    1    3    3    0    0  0.18688681444E+02  0.24829463655E+02 -0.30364362347E+02  0.43448401357E+02  0.51100000000E-03 0. -1.
         22    1    1    0    0    0 -0.21791843518E+02 -0.76376731904E+01 -0.18544657324E+02  0.29616259233E+02  0.00000000000E+00 0.  1.
</event>
<event>
 5    1  0.8962782E-005  0.9118800E+02  0.7818608E-02  0.1130116E+00
         25   -1    0    0    0    0  0.00000000000E+00  0.00000000000E+00  0.99999998245E-14  0.12500000000E+03  0.12500000000E+03 0.  0.
        -11    1    3    3    0    0  0.48914435391E+02 -0.17360597414E+02 -0.19287049814E+02  0.55371496485E+02  0.51100000000E-03 0.  1.
         23    2    1    0    0    0  0.12549032248E+02  0.58478461590E+00 -0.25667991671E+02  0.96422631685E+02  0.92090487681E+02 0.  0.
         11    1    3    3    0    0 -0.36365403143E+02  0.17945382030E+02 -0.63809418563E+01  0.41051135200E+02  0.51100000000E-03 0. -1.
         22    1    1    0    0    0 -0.12549032248E+02 -0.58478461590E+00  0.25667991671E+02  0.28577368315E+02  0.00000000000E+00 0.  1.
</event>
<event>
 5    1  0.8962782E-005  0.9118800E+02  0.7818608E-02  0.1130116E+00
         25   -1    0    0    0    0  0.00000000000E+00  0.00000000000E+00  0.99999998245E-14  0.12500000000E+03  0.12500000000E+03 0.  0.
        -11    1    3    3    0    0 -0.29163194146E+02  0.38578944872E+02  0.38746608609E+02  0.61968754701E+02  0.51100000000E-03 0. -1.
         23    2    1    0    0    0 -0.18309114525E+02  0.16169642855E+02  0.15256226420E+02  0.96200113380E+02  0.91787953159E+02 0.  0.
         11    1    3    3    0    0  0.10854079621E+02 -0.22409302017E+02 -0.23490382190E+02  0.34231358679E+02  0.51100000000E-03 0.  1.
         22    1    1    0    0    0  0.18309114525E+02 -0.16169642855E+02 -0.15256226420E+02  0.28799886620E+02  0.00000000000E+00 0. -1.
</event>
<event>
 5    1  0.8962782E-005  0.9118800E+02  0.7818608E-02  0.1130116E+00
         25   -1    0    0    0    0  0.00000000000E+00  0.00000000000E+00  0.99999998245E-14  0.12500000000E+03  0.12500000000E+03 0.  0.
        -11    1    3    3    0    0 -0.37670826625E+01  0.32201336109E+02  0.28735640342E+02  0.43322672876E+02  0.51100000000E-03 0. -1.
         23    2    1    0    0    0  0.24469260875E+02  0.14754885850E+02 -0.10358805746E+02  0.94606641504E+02  0.89591631171E+02 0.  0.
         11    1    3    3    0    0  0.28236343537E+02 -0.17446450259E+02 -0.39094446088E+02  0.51283968628E+02  0.51100000000E-03 0.  1.
         22    1    1    0    0    0 -0.24469260875E+02 -0.14754885850E+02  0.10358805746E+02  0.30393358496E+02  0.00000000000E+00 0.  1.
</event>
<event>
 5    1  0.8962782E-005  0.9118800E+02  0.7818608E-02  0.1130116E+00
         25   -1    0    0    0    0  0.00000000000E+00  0.00000000000E+00  0.99999998245E-14  0.12500000000E+03  0.12500000000E+03 0.  0.
        -11    1    3    3    0    0 -0.21001842077E+02  0.35886056107E+02  0.46357029589E+02  0.62272470532E+02  0.51100000000E-03 0.  1.
         23    2    1    0    0    0 -0.12746805255E+02  0.14373086988E+02  0.21549111215E+02  0.96130797241E+02  0.91693507460E+02 0.  0.
         11    1    3    3    0    0  0.82550368215E+01 -0.21512969118E+02 -0.24807918375E+02  0.33858326709E+02  0.51100000000E-03 0. -1.
         22    1    1    0    0    0  0.12746805255E+02 -0.14373086988E+02 -0.21549111215E+02  0.28869202759E+02  0.00000000000E+00 0.  1.
</event>
<event>
 5    1  0.8962782E-005  0.9118800E+02  0.7818608E-02  0.1130116E+00
         25   -1    0    0    0    0  0.00000000000E+00  0.00000000000E+00  0.99999998245E-14  0.12500000000E+03  0.12500000000E+03 0.  0.
        -11    1    3    3    0    0 -0.55027827106E+01  0.32570719412E+02 -0.41880168199E+01  0.33296724550E+02  0.51100000000E-03 0.  1.
         23    2    1    0    0    0 -0.30058221810E+01 -0.29401549227E+02 -0.24537417781E+01  0.95343518201E+02  0.90613903736E+02 0.  0.
         11    1    3    3    0    0  0.24969605297E+01 -0.61972268640E+02  0.17342750418E+01  0.62046793652E+02  0.51100000000E-03 0. -1.
         22    1    1    0    0    0  0.30058221810E+01  0.29401549227E+02  0.24537417781E+01  0.29656481799E+02  0.00000000000E+00 0. -1.
</event>
<event>
 5    1  0.8962782E-005  0.9118800E+02  0.7818608E-02  0.1130116E+00
         25   -1    0    0    0    0  0.00000000000E+00  0.00000000000E+00  0.99999998245E-14  0.12500000000E+03  0.12500000000E+03 0.  0.
        -11    1    3    3    0    0 -0.45972945821E+02  0.46525421959E+01 -0.10628839295E+02  0.47414450555E+02  0.51100000000E-03 0. -1.
         23    2    1    0    0    0 -0.18119182753E+02 -0.90818273490E+01 -0.33405166747E+02  0.85927125303E+02  0.76529610778E+02 0.  0.
         11    1    3    3    0    0  0.27853763068E+02 -0.13734369545E+02 -0.22776327452E+02  0.38512674749E+02  0.51100000000E-03 0.  1.
         22    1    1    0    0    0  0.18119182753E+02  0.90818273490E+01  0.33405166747E+02  0.39072874697E+02  0.00000000000E+00 0.  1.
</event>
<event>
 5    1  0.8962782E-005  0.9118800E+02  0.7818608E-02  0.1130116E+00
         25   -1    0    0    0    0  0.00000000000E+00  0.00000000000E+00  0.99999998245E-14  0.12500000000E+03  0.12500000000E+03 0.  0.
        -11    1    3    3    0    0  0.26956766091E+02 -0.41598325121E+02 -0.12750713901E+02  0.51182698211E+02  0.51100000000E-03 0. -1.
         23    2    1    0    0    0  0.21390185583E+02  0.14278187246E+01 -0.20596684749E+02  0.95271190265E+02  0.90514073858E+02 0.  0.
         11    1    3    3    0    0 -0.55665805078E+01  0.43026143846E+02 -0.78459708477E+01  0.44088492054E+02  0.51100000000E-03 0.  1.
         22    1    1    0    0    0 -0.21390185583E+02 -0.14278187246E+01  0.20596684749E+02  0.29728809735E+02  0.00000000000E+00 0.  1.
</event>
<event>
 5    1  0.8962782E-005  0.9118800E+02  0.7818608E-02  0.1130116E+00
         25   -1    0    0    0    0  0.00000000000E+00  0.00000000000E+00  0.99999998245E-14  0.12500000000E+03  0.12500000000E+03 0.  0.
        -11    1    3    3    0    0  0.53260908497E+02  0.23869298369E+02 -0.40657791822E+01  0.58506395712E+02  0.51100000000E-03 0.  1.
         23    2    1    0    0    0  0.20437171747E+02  0.17377960618E+02  0.11986540805E+02  0.95617204613E+02  0.90990665199E+02 0.  0.
         11    1    3    3    0    0 -0.32823736751E+02 -0.64913377512E+01  0.16052319988E+02  0.37110808901E+02  0.51100000000E-03 0. -1.
         22    1    1    0    0    0 -0.20437171747E+02 -0.17377960618E+02 -0.11986540805E+02  0.29382795387E+02  0.00000000000E+00 0.  1.
</event>
<event>
 5    1  0.8962782E-005  0.9118800E+02  0.7818608E-02  0.1130116E+00
         25   -1    0    0    0    0  0.00000000000E+00  0.00000000000E+00  0.99999998245E-14  0.12500000000E+03  0.12500000000E+03 0.  0.
        -11    1    3    3    0    0 -0.40880896228E+02 -0.20849389759E+02  0.10924933124E+02  0.47173073822E+02  0.51100000000E-03 0.  1.
         23    2    1    0    0    0 -0.66959093258E+01 -0.15605661378E+02 -0.23523774709E+02  0.95987246851E+02  0.91497604956E+02 0.  0.
         11    1    3    3    0    0  0.34184986902E+02  0.52437283819E+01 -0.34448707833E+02  0.48814173029E+02  0.51100000000E-03 0. -1.
         22    1    1    0    0    0  0.66959093258E+01  0.15605661378E+02  0.23523774709E+02  0.29012753149E+02  0.00000000000E+00 0. -1.
</event>
<event>
 5    1  0.8962782E-005  0.9118800E+02  0.7818608E-02  0.1130116E+00
         25   -1    0    0    0    0  0.00000000000E+00  0.00000000000E+00  0.99999998245E-14  0.12500000000E+03  0.12500000000E+03 0.  0.
        -11    1    3    3    0    0  0.37670608552E+02  0.40587885530E+01 -0.46967715451E+02  0.60344965060E+02  0.51100000000E-03 0.  1.
         23    2    1    0    0    0  0.23650732654E+02  0.38109307683E+01 -0.11615093575E+02  0.98376875706E+02  0.94705960354E+02 0.  0.
         11    1    3    3    0    0 -0.14019875898E+02 -0.24785778471E+00  0.35352621875E+02  0.38031910646E+02  0.51100000000E-03 0. -1.
         22    1    1    0    0    0 -0.23650732654E+02 -0.38109307683E+01  0.11615093575E+02  0.26623124294E+02  0.00000000000E+00 0.  1.
</event>
<event>
 5    1  0.8962782E-005  0.9118800E+02  0.7818608E-02  0.1130116E+00
         25   -1    0    0    0    0  0.00000000000E+00  0.00000000000E+00  0.99999998245E-14  0.12500000000E+03  0.12500000000E+03 0.  0.
        -11    1    3    3    0    0  0.38019475728E+02  0.96169379462E+01 -0.46694489062E+02  0.60978203804E+02  0.51100000000E-03 0.  1.
         23    2    1    0    0    0  0.25007238822E+02  0.73690191359E+01 -0.15952678136E+02  0.94436093570E+02  0.89353362514E+02 0.  0.
         11    1    3    3    0    0 -0.13012236906E+02 -0.22479188102E+01  0.30741810927E+02  0.33457889766E+02  0.51100000000E-03 0. -1.
         22    1    1    0    0    0 -0.25007238822E+02 -0.73690191359E+01  0.15952678136E+02  0.30563906430E+02  0.00000000000E+00 0.  1.
</event>
<event>
 5    1  0.8962782E-005  0.9118800E+02  0.7818608E-02  0.1130116E+00
         25   -1    0    0    0    0  0.00000000000E+00  0.00000000000E+00  0.99999998245E-14  0.12500000000E+03  0.12500000000E+03 0.  0.
        -11    1    3    3    0    0  0.44155968678E+01 -0.34816482921E+02  0.17498500976E+01  0.35138966324E+02  0.51100000000E-03 0.  1.
         23    2    1    0    0    0  0.30261246257E+01  0.25833371006E+02  0.11460603728E+02  0.96577017651E+02  0.92299807219E+02 0.  0.
         11    1    3    3    0    0 -0.13894722421E+01  0.60649853927E+02  0.97107536309E+01  0.61438051327E+02  0.51100000000E-03 0. -1.
         22    1    1    0    0    0 -0.30261246257E+01 -0.25833371006E+02 -0.11460603728E+02  0.28422982349E+02  0.00000000000E+00 0. -1.
</event>
<event>
 5    1  0.8962782E-005  0.9118800E+02  0.7818608E-02  0.1130116E+00
         25   -1    0    0    0    0  0.00000000000E+00  0.00000000000E+00  0.99999998245E-14  0.12500000000E+03  0.12500000000E+03 0.  0.
        -11    1    3    3    0    0  0.34853856784E+01  0.59435717985E+01  0.36564536252E+02  0.37208053841E+02  0.51100000000E-03 0.  1.
         23    2    1    0    0    0  0.26762070112E+02  0.28431602583E+01 -0.15229766213E+02  0.94076906108E+02  0.88849459914E+02 0.  0.
         11    1    3    3    0    0  0.23276684434E+02 -0.31004115402E+01 -0.51794302465E+02  0.56868852266E+02  0.51100000000E-03 0. -1.
         22    1    1    0    0    0 -0.26762070112E+02 -0.28431602583E+01  0.15229766213E+02  0.30923093892E+02  0.00000000000E+00 0. -1.
</event>
<event>
 5    1  0.8962782E-005  0.9118800E+02  0.7818608E-02  0.1130116E+00
         25   -1    0    0    0    0  0.00000000000E+00  0.00000000000E+00  0.99999998245E-14  0.12500000000E+03  0.12500000000E+03 0.  0.
        -11    1    3    3    0    0  0.94753017638E+01  0.47581057289E+02 -0.37267695626E+02  0.61176952309E+02  0.51100000000E-03 0. -1.
         23    2    1    0    0    0  0.87340290856E+01  0.25729322887E+02 -0.10188172994E+02  0.95981382024E+02  0.91489592337E+02 0.  0.
         11    1    3    3    0    0 -0.74127267823E+00 -0.21851734403E+02  0.27079522632E+02  0.34804429715E+02  0.51100000000E-03 0.  1.
         22    1    1    0    0    0 -0.87340290856E+01 -0.25729322887E+02  0.10188172994E+02  0.29018617976E+02  0.00000000000E+00 0. -1.
</event>
<event>
 5    1  0.8962782E-005  0.9118800E+02  0.7818608E-02  0.1130116E+00
         25   -1    0    0    0    0  0.00000000000E+00  0.00000000000E+00  0.99999998245E-14  0.12500000000E+03  0.12500000000E+03 0.  0.
        -11    1    3    3    0    0  0.16174428010E+02 -0.46596755382E+02  0.38320141420E+02  0.62460411240E+02  0.51100000000E-03 0.  1.
         23    2    1    0    0    0  0.87457560858E+01 -0.21437742950E+02  0.19197927943E+02  0.94923006972E+02  0.90031948457E+02 0.  0.
         11    1    3    3    0    0 -0.74286719242E+01  0.25159012432E+02 -0.19122213477E+02  0.32462595732E+02  0.51100000000E-03 0. -1.
         22    1    1    0    0    0 -0.87457560858E+01  0.21437742950E+02 -0.19197927943E+02  0.30076993028E+02  0.00000000000E+00 0.  1.
</event>
<event>
 5    1  0.8962782E-005  0.9118800E+02  0.7818608E-02  0.1130116E+00
         25   -1    0    0    0    0  0.00000000000E+00  0.00000000000E+00  0.99999998245E-14  0.12500000000E+03  0.12500000000E+03 0.  0.
        -11    1    3    3    0    0 -0.28205210265E+02 -0.22239412312E+02  0.17563650034E+02  0.39982585570E+02  0.51100000000E-03 0.  1.
         23    2    1    0    0    0  0.23213372586E+02 -0.16092287160E+02 -0.47277083630E+01  0.96361326860E+02  0.92007237297E+02 0.  0.
         11    1    3    3    0    0  0.51418582850E+02  0.61471251520E+01 -0.22291358397E+02  0.56378741290E+02  0.51100000000E-03 0. -1.
         22    1    1    0    0    0 -0.23213372586E+02  0.16092287160E+02  0.47277083630E+01  0.28638673140E+02  0.00000000000E+00 0. -1.
</event>
<event>
 5    1  0.8962782E-005  0.9118800E+02  0.7818608E-02  0.1130116E+00
         25   -1    0    0    0    0  0.00000000000E+00  0.00000000000E+00  0.99999998245E-14  0.12500000000E+03  0.12500000000E+03 0.  0.
        -11    1    3    3    0    0  0.54938150673E+02 -0.20904811678E+02  0.80970867922E+01  0.59336113501E+02  0.51100000000E-03 0. -1.
         23    2    1    0    0    0  0.22803357600E+02 -0.14627643490E+02 -0.92284569111E+01  0.96379631574E+02  0.92032102516E+02 0.  0.
         11    1    3    3    0    0 -0.32134793073E+02  0.62771681876E+01 -0.17325543703E+02  0.37043518072E+02  0.51100000000E-03 0.  1.
         22    1    1    0    0    0 -0.22803357600E+02  0.14627643490E+02  0.92284569111E+01  0.28620368426E+02  0.00000000000E+00 0. -1.
</event>
<event>
 5    1  0.8962782E-005  0.9118800E+02  0.7818608E-02  0.1130116E+00
         25   -1    0    0    0    0  0.00000000000E+00  0.00000000000E+00  0.99999998245E-14  0.12500000000E+03  0.12500000000E+03 0.  0.
        -11    1    3    3    0    0  0.50678227722E+02 -0.20342530214E+02 -0.22298107973E+02  0.58985650119E+02  0.51100000000E-03 0. -1.
         23    2    1    0    0    0  0.14326257591E+02 -0.15517731262E+02  0.31851711483E+01  0.10364146645E+03  0.10141679650E+03 0.  0.
         11    1    3    3    0    0 -0.36351970131E+02  0.48247989520E+01  0.25483279121E+02  0.44655816333E+02  0.51100000000E-03 0.  1.
         22    1    1    0    0    0 -0.14326257591E+02  0.15517731262E+02 -0.31851711483E+01  0.21358533548E+02  0.00000000000E+00 0. -1.
</event>
<event>
 5    1  0.8962782E-005  0.9118800E+02  0.7818608E-02  0.1130116E+00
         25   -1    0    0    0    0  0.00000000000E+00  0.00000000000E+00  0.99999998245E-14  0.12500000000E+03  0.12500000000E+03 0.  0.
        -11    1    3    3    0    0 -0.14030349107E+01 -0.27382283714E+02 -0.54614695170E+02  0.61110742895E+02  0.51100000000E-03 0. -1.
         23    2    1    0    0    0  0.14335197946E+01 -0.20687307062E+02 -0.21059870857E+02  0.95444326890E+02  0.90752860685E+02 0.  0.
         11    1    3    3    0    0  0.28365547053E+01  0.66949766513E+01  0.33554824314E+02  0.34333583995E+02  0.51100000000E-03 0.  1.
         22    1    1    0    0    0 -0.14335197946E+01  0.20687307062E+02  0.21059870857E+02  0.29555673110E+02  0.00000000000E+00 0. -1.
</event>
<event>
 5    1  0.8962782E-005  0.9118800E+02  0.7818608E-02  0.1130116E+00
         25   -1    0    0    0    0  0.00000000000E+00  0.00000000000E+00  0.99999998245E-14  0.12500000000E+03  0.12500000000E+03 0.  0.
        -11    1    3    3    0    0  0.51039404561E+01 -0.61717703485E+02 -0.36389136557E+01  0.62035206331E+02  0.51100000000E-03 0. -1.
         23    2    1    0    0    0  0.78506494242E+01 -0.29801772376E+02 -0.13087012705E+01  0.94153751733E+02  0.88957506334E+02 0.  0.
         11    1    3    3    0    0  0.27467089680E+01  0.31915931109E+02  0.23302123852E+01  0.32118545402E+02  0.51100000000E-03 0.  1.
         22    1    1    0    0    0 -0.78506494242E+01  0.29801772376E+02  0.13087012705E+01  0.30846248267E+02  0.00000000000E+00 0. -1.
</event>
<event>
 5    1  0.8962782E-005  0.9118800E+02  0.7818608E-02  0.1130116E+00
         25   -1    0    0    0    0  0.00000000000E+00  0.00000000000E+00  0.99999998245E-14  0.12500000000E+03  0.12500000000E+03 0.  0.
        -11    1    3    3    0    0  0.31896628347E+02  0.14312950338E+02  0.12422023750E+02  0.37102050100E+02  0.51100000000E-03 0. -1.
         23    2    1    0    0    0 -0.19955836089E+02  0.14794638304E+02 -0.15222231081E+02  0.95865260673E+02  0.91330800764E+02 0.  0.
         11    1    3    3    0    0 -0.51852464436E+02  0.48168796610E+00 -0.27644254831E+02  0.58763210573E+02  0.51100000000E-03 0.  1.
         22    1    1    0    0    0  0.19955836089E+02 -0.14794638304E+02  0.15222231081E+02  0.29134739327E+02  0.00000000000E+00 0.  1.
</event>
<event>
 5    1  0.8962782E-005  0.9118800E+02  0.7818608E-02  0.1130116E+00
         25   -1    0    0    0    0  0.00000000000E+00  0.00000000000E+00  0.99999998245E-14  0.12500000000E+03  0.12500000000E+03 0.  0.
        -11    1    3    3    0    0  0.43974099136E+02 -0.82712540102E+01 -0.56272150405E+01  0.45097678290E+02  0.51100000000E-03 0.  1.
         23    2    1    0    0    0  0.87854776104E+01  0.27811880406E+02 -0.43196541485E+01  0.95515347712E+02  0.90850629761E+02 0.  0.
         11    1    3    3    0    0 -0.35188621526E+02  0.36083134417E+02  0.13075608920E+01  0.50417669422E+02  0.51100000000E-03 0. -1.
         22    1    1    0    0    0 -0.87854776104E+01 -0.27811880406E+02  0.43196541485E+01  0.29484652288E+02  0.00000000000E+00 0.  1.
</event>
<event>
 5    1  0.8962782E-005  0.9118800E+02  0.7818608E-02  0.1130116E+00
         25   -1    0    0    0    0  0.00000000000E+00  0.00000000000E+00  0.99999998245E-14  0.12500000000E+03  0.12500000000E+03 0.  0.
        -11    1    3    3    0    0 -0.56545475479E+02 -0.14986338467E+02  0.21362172992E+02  0.62276187849E+02  0.51100000000E-03 0.  1.
         23    2    1    0    0    0 -0.25740119586E+02 -0.10601182531E+02  0.10910807671E+02  0.95100425565E+02  0.90277939671E+02 0.  0.
         11    1    3    3    0    0  0.30805355893E+02  0.43851559356E+01 -0.10451365321E+02  0.32824237716E+02  0.51100000000E-03 0. -1.
         22    1    1    0    0    0  0.25740119586E+02  0.10601182531E+02 -0.10910807671E+02  0.29899574435E+02  0.00000000000E+00 0.  1.
</event>
<event>
 5    1  0.8962782E-005  0.9118800E+02  0.7818608E-02  0.1130116E+00
         25   -1    0    0    0    0  0.00000000000E+00  0.00000000000E+00  0.99999998245E-14  0.12500000000E+03  0.12500000000E+03 0.  0.
        -11    1    3    3    0    0  0.17193215364E+02 -0.43331274033E+02  0.76447757625E+01  0.47240327694E+02  0.51100000000E-03 0.  1.
         23    2    1    0    0    0  0.13460217463E+02  0.34945696187E+01  0.24235206565E+02  0.97058369622E+02  0.92949407773E+02 0.  0.
         11    1    3    3    0    0 -0.37329979014E+01  0.46825843652E+02  0.16590430802E+02  0.49818041928E+02  0.51100000000E-03 0. -1.
         22    1    1    0    0    0 -0.13460217463E+02 -0.34945696187E+01 -0.24235206565E+02  0.27941630378E+02  0.00000000000E+00 0. -1.
</event>
<event>
 5    1  0.8962782E-005  0.9118800E+02  0.7818608E-02  0.1130116E+00
         25   -1    0    0    0    0  0.00000000000E+00  0.00000000000E+00  0.99999998245E-14  0.12500000000E+03  0.12500000000E+03 0.  0.
        -11    1    3    3    0    0 -0.17205885639E+02 -0.46834359839E+02  0.65494260169E+01  0.50322904761E+02  0.51100000000E-03 0. -1.
         23    2    1    0    0    0 -0.27994275785E+02 -0.33783168709E+01 -0.45113009889E+01  0.96444013969E+02  0.92119506578E+02 0.  0.
         11    1    3    3    0    0 -0.10788390146E+02  0.43456042968E+02 -0.11060727006E+02  0.46121109208E+02  0.51100000000E-03 0.  1.
         22    1    1    0    0    0  0.27994275785E+02  0.33783168709E+01  0.45113009889E+01  0.28555986031E+02  0.00000000000E+00 0. -1.
</event>
<event>
 5    1  0.8962782E-005  0.9118800E+02  0.7818608E-02  0.1130116E+00
         25   -1    0    0    0    0  0.00000000000E+00  0.00000000000E+00  0.99999998245E-14  0.12500000000E+03  0.12500000000E+03 0.  0.
        -11    1    3    3    0    0 -0.30315790066E+02  0.32517345775E+02 -0.27405267009E+01  0.44541389633E+02  0.51100000000E-03 0.  1.
         23    2    1    0    0    0 -0.16953970100E+02 -0.19035357812E+02  0.67361633645E+01  0.98634153796E+02  0.95044928581E+02 0.  0.
         11    1    3    3    0    0  0.13361819967E+02 -0.51552703587E+02  0.94766900655E+01  0.54092764163E+02  0.51100000000E-03 0. -1.
         22    1    1    0    0    0  0.16953970100E+02  0.19035357812E+02 -0.67361633645E+01  0.26365846204E+02  0.00000000000E+00 0.  1.
</event>
<event>
 5    1  0.8962782E-005  0.9118800E+02  0.7818608E-02  0.1130116E+00
         25   -1    0    0    0    0  0.00000000000E+00  0.00000000000E+00  0.99999998245E-14  0.12500000000E+03  0.12500000000E+03 0.  0.
        -11    1    3    3    0    0  0.56719481085E+02  0.47298147580E+01 -0.25545401186E+02  0.62386202034E+02  0.51100000000E-03 0.  1.
         23    2    1    0    0    0  0.25011901578E+02  0.18250034593E+01 -0.14154945724E+02  0.96202632991E+02  0.91791384388E+02 0.  0.
         11    1    3    3    0    0 -0.31707579506E+02 -0.29048112986E+01  0.11390455463E+02  0.33816430958E+02  0.51100000000E-03 0. -1.
         22    1    1    0    0    0 -0.25011901578E+02 -0.18250034593E+01  0.14154945724E+02  0.28797367009E+02  0.00000000000E+00 0.  1.
</event>
<event>
 5    1  0.8962782E-005  0.9118800E+02  0.7818608E-02  0.1130116E+00
         25   -1    0    0    0    0  0.00000000000E+00  0.00000000000E+00  0.99999998245E-14  0.12500000000E+03  0.12500000000E+03 0.  0.
        -11    1    3    3    0    0 -0.31161340480E+02 -0.24042190643E+02 -0.10785741273E+02  0.40809169148E+02  0.51100000000E-03 0.  1.
         23    2    1    0    0    0  0.14881771384E+02  0.36097162495E+01 -0.24378499893E+02  0.96210966881E+02  0.91802732640E+02 0.  0.
         11    1    3    3    0    0  0.46043111864E+02  0.27651906893E+02 -0.13592758620E+02  0.55401797733E+02  0.51100000000E-03 0. -1.
         22    1    1    0    0    0 -0.14881771384E+02 -0.36097162495E+01  0.24378499893E+02  0.28789033119E+02  0.00000000000E+00 0.  1.
</event>
<event>
 5    1  0.8962782E-005  0.9118800E+02  0.7818608E-02  0.1130116E+00
         25   -1    0    0    0    0  0.00000000000E+00  0.00000000000E+00  0.99999998245E-14  0.12500000000E+03  0.12500000000E+03 0.  0.
        -11    1    3    3    0    0  0.49784590109E+02  0.22395580426E+02 -0.78093683040E+00  0.54595579469E+02  0.51100000000E-03 0. -1.
         23    2    1    0    0    0  0.22067831094E+02 -0.48025338916E+01 -0.17054118792E+02  0.96699885712E+02  0.92466055544E+02 0.  0.
         11    1    3    3    0    0 -0.27716759015E+02 -0.27198114318E+02 -0.16273181962E+02  0.42104306243E+02  0.51100000000E-03 0.  1.
         22    1    1    0    0    0 -0.22067831094E+02  0.48025338916E+01  0.17054118792E+02  0.28300114288E+02  0.00000000000E+00 0. -1.
</event>
<event>
 5    1  0.8962782E-005  0.9118800E+02  0.7818608E-02  0.1130116E+00
         25   -1    0    0    0    0  0.00000000000E+00  0.00000000000E+00  0.99999998245E-14  0.12500000000E+03  0.12500000000E+03 0.  0.
        -11    1    3    3    0    0  0.12096778576E+02  0.43051188445E+02 -0.67608074673E+01  0.45226600539E+02  0.51100000000E-03 0.  1.
         23    2    1    0    0    0 -0.13623185382E+02  0.12846448066E+02  0.23377490736E+02  0.95047880192E+02  0.90205155329E+02 0.  0.
         11    1    3    3    0    0 -0.25719963959E+02 -0.30204740379E+02  0.30138298204E+02  0.49821279653E+02  0.51100000000E-03 0. -1.
         22    1    1    0    0    0  0.13623185382E+02 -0.12846448066E+02 -0.23377490736E+02  0.29952119808E+02  0.00000000000E+00 0.  1.
</event>
<event>
 5    1  0.8962782E-005  0.9118800E+02  0.7818608E-02  0.1130116E+00
         25   -1    0    0    0    0  0.00000000000E+00  0.00000000000E+00  0.99999998245E-14  0.12500000000E+03  0.12500000000E+03 0.  0.
        -11    1    3    3    0    0  0.56823325851E+02 -0.17518793146E+02 -0.56653073873E+01  0.59731852325E+02  0.51100000000E-03 0.  1.
         23    2    1    0    0    0  0.28133948975E+02  0.48539770598E+01 -0.78239253992E+00  0.96439672335E+02  0.92113615084E+02 0.  0.
         11    1    3    3    0    0 -0.28689376876E+02  0.22372770206E+02  0.48829148474E+01  0.36707820010E+02  0.51100000000E-03 0. -1.
         22    1    1    0    0    0 -0.28133948975E+02 -0.48539770598E+01  0.78239253992E+00  0.28560327665E+02  0.00000000000E+00 0.  1.
</event>
<event>
 5    1  0.8962782E-005  0.9118800E+02  0.7818608E-02  0.1130116E+00
         25   -1    0    0    0    0  0.00000000000E+00  0.00000000000E+00  0.99999998245E-14  0.12500000000E+03  0.12500000000E+03 0.  0.
        -11    1    3    3    0    0 -0.37067846963E+02 -0.25057000961E+02  0.56651818157E+01  0.45099588256E+02  0.51100000000E-03 0.  1.
         23    2    1    0    0    0  0.85457958997E+01 -0.10889554891E+02  0.24836352586E+02  0.96566613936E+02  0.92285716576E+02 0.  0.
         11    1    3    3    0    0  0.45613642862E+02  0.14167446070E+02  0.19171170770E+02  0.51467025680E+02  0.51100000000E-03 0. -1.
         22    1    1    0    0    0 -0.85457958997E+01  0.10889554891E+02 -0.24836352586E+02  0.28433386064E+02  0.00000000000E+00 0. -1.
</event>
<event>
 5    1  0.8962782E-005  0.9118800E+02  0.7818608E-02  0.1130116E+00
         25   -1    0    0    0    0  0.00000000000E+00  0.00000000000E+00  0.99999998245E-14  0.12500000000E+03  0.12500000000E+03 0.  0.
        -11    1    3    3    0    0  0.32927378305E+02 -0.33445479581E+02  0.61417469479E+01  0.47334273019E+02  0.51100000000E-03 0. -1.
         23    2    1    0    0    0  0.91347411604E+01 -0.31683203403E+01  0.30570846044E+02  0.92936650554E+02  0.87230514377E+02 0.  0.
         11    1    3    3    0    0 -0.23792637144E+02  0.30277159240E+02  0.24429099096E+02  0.45602377535E+02  0.51100000000E-03 0.  1.
         22    1    1    0    0    0 -0.91347411604E+01  0.31683203403E+01 -0.30570846044E+02  0.32063349446E+02  0.00000000000E+00 0. -1.
</event>
<event>
 5    1  0.8962782E-005  0.9118800E+02  0.7818608E-02  0.1130116E+00
         25   -1    0    0    0    0  0.00000000000E+00  0.00000000000E+00  0.99999998245E-14  0.12500000000E+03  0.12500000000E+03 0.  0.
        -11    1    3    3    0    0  0.76848694680E+01  0.16472068547E+02  0.40610577434E+02  0.44492755149E+02  0.51100000000E-03 0.  1.
         23    2    1    0    0    0  0.23788486562E+02  0.23218072073E+02 -0.31521744566E+01  0.91609774372E+02  0.85307933939E+02 0.  0.
         11    1    3    3    0    0  0.16103617094E+02  0.67460035268E+01 -0.43762751891E+02  0.47117019223E+02  0.51100000000E-03 0. -1.
         22    1    1    0    0    0 -0.23788486562E+02 -0.23218072073E+02  0.31521744566E+01  0.33390225628E+02  0.00000000000E+00 0.  1.
</event>
<event>
 5    1  0.8962782E-005  0.9118800E+02  0.7818608E-02  0.1130116E+00
         25   -1    0    0    0    0  0.00000000000E+00  0.00000000000E+00  0.99999998245E-14  0.12500000000E+03  0.12500000000E+03 0.  0.
        -11    1    3    3    0    0  0.48944283333E+02 -0.13779543962E+02  0.21830244912E+01  0.50893853253E+02  0.51100000000E-03 0.  1.
         23    2    1    0    0    0  0.24181307071E+02 -0.33188042558E+02  0.87025377719E+01  0.83024817521E+02  0.71632425480E+02 0.  0.
         11    1    3    3    0    0 -0.24762976261E+02 -0.19408498597E+02  0.65195132807E+01  0.32130964268E+02  0.51100000000E-03 0. -1.
         22    1    1    0    0    0 -0.24181307071E+02  0.33188042558E+02 -0.87025377719E+01  0.41975182479E+02  0.00000000000E+00 0.  1.
</event>
<event>
 5    1  0.8962782E-005  0.9118800E+02  0.7818608E-02  0.1130116E+00
         25   -1    0    0    0    0  0.00000000000E+00  0.00000000000E+00  0.99999998245E-14  0.12500000000E+03  0.12500000000E+03 0.  0.
        -11    1    3    3    0    0 -0.54550237705E+01 -0.18828391718E+02  0.47173173874E+02  0.51083989201E+02  0.51100000000E-03 0. -1.
         23    2    1    0    0    0  0.22488371097E+02  0.12086512336E+01  0.18592213265E+02  0.95796266223E+02  0.91236322569E+02 0.  0.
         11    1    3    3    0    0  0.27943394868E+02  0.20037042951E+02 -0.28580960609E+02  0.44712277023E+02  0.51100000000E-03 0.  1.
         22    1    1    0    0    0 -0.22488371097E+02 -0.12086512336E+01 -0.18592213265E+02  0.29203733777E+02  0.00000000000E+00 0. -1.
</event>
<event>
 5    1  0.8962782E-005  0.9118800E+02  0.7818608E-02  0.1130116E+00
         25   -1    0    0    0    0  0.00000000000E+00  0.00000000000E+00  0.99999998245E-14  0.12500000000E+03  0.12500000000E+03 0.  0.
        -11    1    3    3    0    0 -0.32076794316E+02  0.43206241660E+02  0.23053014319E+02  0.58541792947E+02  0.51100000000E-03 0. -1.
         23    2    1    0    0    0 -0.25588943278E+01  0.29671991730E+02  0.12677770572E+02  0.92631791831E+02  0.86792557042E+02 0.  0.
         11    1    3    3    0    0  0.29517899988E+02 -0.13534249930E+02 -0.10375243748E+02  0.34089998885E+02  0.51100000000E-03 0.  1.
         22    1    1    0    0    0  0.25588943278E+01 -0.29671991730E+02 -0.12677770572E+02  0.32368208169E+02  0.00000000000E+00 0. -1.
</event>
<event>
 5    1  0.8962782E-005  0.9118800E+02  0.7818608E-02  0.1130116E+00
         25   -1    0    0    0    0  0.00000000000E+00  0.00000000000E+00  0.99999998245E-14  0.12500000000E+03  0.12500000000E+03 0.  0.
        -11    1    3    3    0    0  0.14979285605E+02 -0.50823881217E+02  0.16151656025E+02  0.55392435330E+02  0.51100000000E-03 0. -1.
         23    2    1    0    0    0  0.17571933689E+02 -0.20367519994E+02 -0.10672756323E+02  0.96060123500E+02  0.91597111718E+02 0.  0.
         11    1    3    3    0    0  0.25926480846E+01  0.30456361223E+02 -0.26824412348E+02  0.40667688170E+02  0.51100000000E-03 0.  1.
         22    1    1    0    0    0 -0.17571933689E+02  0.20367519994E+02  0.10672756323E+02  0.28939876500E+02  0.00000000000E+00 0. -1.
</event>
<event>
 5    1  0.8962782E-005  0.9118800E+02  0.7818608E-02  0.1130116E+00
         25   -1    0    0    0    0  0.00000000000E+00  0.00000000000E+00  0.99999998245E-14  0.12500000000E+03  0.12500000000E+03 0.  0.
        -11    1    3    3    0    0 -0.42662627071E+02 -0.11017282830E+02 -0.98442876939E+01  0.45148535635E+02  0.51100000000E-03 0. -1.
         23    2    1    0    0    0 -0.14128888171E+02  0.14475947877E+02  0.22133906650E+02  0.95015197658E+02  0.90159854782E+02 0.  0.
         11    1    3    3    0    0  0.28533738899E+02  0.25493230707E+02  0.31978194344E+02  0.49866662022E+02  0.51100000000E-03 0.  1.
         22    1    1    0    0    0  0.14128888171E+02 -0.14475947877E+02 -0.22133906650E+02  0.29984802342E+02  0.00000000000E+00 0.  1.
</event>
<event>
 5    1  0.8962782E-005  0.9118800E+02  0.7818608E-02  0.1130116E+00
         25   -1    0    0    0    0  0.00000000000E+00  0.00000000000E+00  0.99999998245E-14  0.12500000000E+03  0.12500000000E+03 0.  0.
        -11    1    3    3    0    0 -0.27640432964E+02 -0.67315069495E+01 -0.36432685913E+02  0.46223882608E+02  0.51100000000E-03 0. -1.
         23    2    1    0    0    0 -0.37046578151E+01 -0.28437673170E+02  0.17801189158E+01  0.96266838528E+02  0.91878776831E+02 0.  0.
         11    1    3    3    0    0  0.23935775149E+02 -0.21706166220E+02  0.38212804829E+02  0.50042955919E+02  0.51100000000E-03 0.  1.
         22    1    1    0    0    0  0.37046578151E+01  0.28437673170E+02 -0.17801189158E+01  0.28733161472E+02  0.00000000000E+00 0.  1.
</event>
<event>
 5    1  0.8962782E-005  0.9118800E+02  0.7818608E-02  0.1130116E+00
         25   -1    0    0    0    0  0.00000000000E+00  0.00000000000E+00  0.99999998245E-14  0.12500000000E+03  0.12500000000E+03 0.  0.
        -11    1    3    3    0    0  0.40202132775E+01 -0.63992192500E+01 -0.41135461229E+02  0.41823896191E+02  0.51100000000E-03 0.  1.
         23    2    1    0    0    0  0.21304143173E+02 -0.19599634161E+02  0.74959726467E+01  0.95096793123E+02  0.90272910005E+02 0.  0.
         11    1    3    3    0    0  0.17283929896E+02 -0.13200414911E+02  0.48631433876E+02  0.53272896932E+02  0.51100000000E-03 0. -1.
         22    1    1    0    0    0 -0.21304143173E+02  0.19599634161E+02 -0.74959726467E+01  0.29903206877E+02  0.00000000000E+00 0. -1.
</event>
<event>
 5    1  0.8962782E-005  0.9118800E+02  0.7818608E-02  0.1130116E+00
         25   -1    0    0    0    0  0.00000000000E+00  0.00000000000E+00  0.99999998245E-14  0.12500000000E+03  0.12500000000E+03 0.  0.
        -11    1    3    3    0    0  0.21463855018E+02 -0.50713556216E+02  0.53105593242E+01  0.55324171001E+02  0.51100000000E-03 0.  1.
         23    2    1    0    0    0  0.12669410837E+02 -0.19202788170E+02 -0.18245518715E+02  0.95637438844E+02  0.91018458079E+02 0.  0.
         11    1    3    3    0    0 -0.87944441810E+01  0.31510768047E+02 -0.23556078039E+02  0.40313267843E+02  0.51100000000E-03 0. -1.
         22    1    1    0    0    0 -0.12669410837E+02  0.19202788170E+02  0.18245518715E+02  0.29362561156E+02  0.00000000000E+00 0.  1.
</event>
<event>
 5    1  0.8962782E-005  0.9118800E+02  0.7818608E-02  0.1130116E+00
         25   -1    0    0    0    0  0.00000000000E+00  0.00000000000E+00  0.99999998245E-14  0.12500000000E+03  0.12500000000E+03 0.  0.
        -11    1    3    3    0    0  0.11475483734E+01 -0.34857065985E+02  0.18584443294E+01  0.34925431020E+02  0.51100000000E-03 0.  1.
         23    2    1    0    0    0 -0.10896591419E+02  0.25565689899E+02 -0.44344679003E+01  0.96857421757E+02  0.92678775560E+02 0.  0.
         11    1    3    3    0    0 -0.12044139792E+02  0.60422755885E+02 -0.62929122297E+01  0.61931990737E+02  0.51100000000E-03 0. -1.
         22    1    1    0    0    0  0.10896591419E+02 -0.25565689899E+02  0.44344679003E+01  0.28142578243E+02  0.00000000000E+00 0. -1.
</event>
<event>
 5    1  0.8962782E-005  0.9118800E+02  0.7818608E-02  0.1130116E+00
         25   -1    0    0    0    0  0.00000000000E+00  0.00000000000E+00  0.99999998245E-14  0.12500000000E+03  0.12500000000E+03 0.  0.
        -11    1    3    3    0    0  0.60080956824E+01 -0.15129095383E+02  0.33950092746E+02  0.37650969955E+02  0.51100000000E-03 0.  1.
         23    2    1    0    0    0  0.12565991593E+02  0.29437545147E+02  0.18988919122E+01  0.92936328976E+02  0.87230053560E+02 0.  0.
         11    1    3    3    0    0  0.65578959109E+01  0.44566640530E+02 -0.32051200834E+02  0.55285359021E+02  0.51100000000E-03 0. -1.
         22    1    1    0    0    0 -0.12565991593E+02 -0.29437545147E+02 -0.18988919122E+01  0.32063671024E+02  0.00000000000E+00 0. -1.
</event>
<event>
 5    1  0.8962782E-005  0.9118800E+02  0.7818608E-02  0.1130116E+00
         25   -1    0    0    0    0  0.00000000000E+00  0.00000000000E+00  0.99999998245E-14  0.12500000000E+03  0.12500000000E+03 0.  0.
        -11    1    3    3    0    0  0.28879744707E+02  0.26147497785E+02 -0.42137474749E+02  0.57387264034E+02  0.51100000000E-03 0.  1.
         23    2    1    0    0    0  0.25241434529E+02 -0.47160691309E+00 -0.14708999744E+02  0.95781733392E+02  0.91216409422E+02 0.  0.
         11    1    3    3    0    0 -0.36383101788E+01 -0.26619104698E+02  0.27428475005E+02  0.38394469358E+02  0.51100000000E-03 0. -1.
         22    1    1    0    0    0 -0.25241434529E+02  0.47160691309E+00  0.14708999744E+02  0.29218266608E+02  0.00000000000E+00 0.  1.
</event>
<event>
 5    1  0.8962782E-005  0.9118800E+02  0.7818608E-02  0.1130116E+00
         25   -1    0    0    0    0  0.00000000000E+00  0.00000000000E+00  0.99999998245E-14  0.12500000000E+03  0.12500000000E+03 0.  0.
        -11    1    3    3    0    0  0.27372947868E+02  0.51281189250E+02  0.11171223096E+02  0.59193199539E+02  0.51100000000E-03 0.  1.
         23    2    1    0    0    0  0.25163337087E+02  0.16821372600E+02  0.38907145199E+01  0.94482959368E+02  0.89418900921E+02 0.  0.
         11    1    3    3    0    0 -0.22096107810E+01 -0.34459816650E+02 -0.72805085765E+01  0.35289759829E+02  0.51100000000E-03 0. -1.
         22    1    1    0    0    0 -0.25163337087E+02 -0.16821372600E+02 -0.38907145199E+01  0.30517040632E+02  0.00000000000E+00 0.  1.
</event>
<event>
 5    1  0.8962782E-005  0.9118800E+02  0.7818608E-02  0.1130116E+00
         25   -1    0    0    0    0  0.00000000000E+00  0.00000000000E+00  0.99999998245E-14  0.12500000000E+03  0.12500000000E+03 0.  0.
        -11    1    3    3    0    0 -0.25673658501E+02  0.50508979922E+02  0.17645562652E+02  0.59343573158E+02  0.51100000000E-03 0. -1.
         23    2    1    0    0    0 -0.15257988415E+02  0.15455225754E+02  0.19294545523E+02  0.95949187611E+02  0.91445595316E+02 0.  0.
         11    1    3    3    0    0  0.10415670087E+02 -0.35053754168E+02  0.16489828703E+01  0.36605614452E+02  0.51100000000E-03 0.  1.
         22    1    1    0    0    0  0.15257988415E+02 -0.15455225754E+02 -0.19294545523E+02  0.29050812389E+02  0.00000000000E+00 0. -1.
</event>
<event>
 5    1  0.8962782E-005  0.9118800E+02  0.7818608E-02  0.1130116E+00
         25   -1    0    0    0    0  0.00000000000E+00  0.00000000000E+00  0.99999998245E-14  0.12500000000E+03  0.12500000000E+03 0.  0.
        -11    1    3    3    0    0 -0.15903276367E+02  0.18002155465E+02  0.51465988630E+02  0.56795596542E+02  0.51100000000E-03 0. -1.
         23    2    1    0    0    0 -0.77272865531E+01 -0.10432602440E+02  0.26429682752E+02  0.95553807012E+02  0.90903529925E+02 0.  0.
         11    1    3    3    0    0  0.81759898137E+01 -0.28434757905E+02 -0.25036305878E+02  0.38758210470E+02  0.51100000000E-03 0.  1.
         22    1    1    0    0    0  0.77272865531E+01  0.10432602440E+02 -0.26429682752E+02  0.29446192988E+02  0.00000000000E+00 0. -1.
</event>
<event>
 5    1  0.8962782E-005  0.9118800E+02  0.7818608E-02  0.1130116E+00
         25   -1    0    0    0    0  0.00000000000E+00  0.00000000000E+00  0.99999998245E-14  0.12500000000E+03  0.12500000000E+03 0.  0.
        -11    1    3    3    0    0  0.76001710424E+01  0.41230358873E+02  0.57704087183E+00  0.41928964560E+02  0.51100000000E-03 0.  1.
         23    2    1    0    0    0 -0.28773421509E+02  0.23332373960E+01 -0.57729843019E+01  0.95560551468E+02  0.90912803648E+02 0.  0.
         11    1    3    3    0    0 -0.36373592552E+02 -0.38897121477E+02 -0.63500251737E+01  0.53631586908E+02  0.51100000000E-03 0. -1.
         22    1    1    0    0    0  0.28773421509E+02 -0.23332373960E+01  0.57729843019E+01  0.29439448532E+02  0.00000000000E+00 0.  1.
</event>
<event>
 5    1  0.8962782E-005  0.9118800E+02  0.7818608E-02  0.1130116E+00
         25   -1    0    0    0    0  0.00000000000E+00  0.00000000000E+00  0.99999998245E-14  0.12500000000E+03  0.12500000000E+03 0.  0.
        -11    1    3    3    0    0 -0.95366962333E+01  0.47485810191E+02 -0.17465372369E+02  0.51486794199E+02  0.51100000000E-03 0. -1.
         23    2    1    0    0    0  0.54266328205E+01  0.56211093209E+01 -0.26945362201E+02  0.96944737430E+02  0.92796467376E+02 0.  0.
         11    1    3    3    0    0  0.14963329054E+02 -0.41864700870E+02 -0.94799898312E+01  0.45457943231E+02  0.51100000000E-03 0.  1.
         22    1    1    0    0    0 -0.54266328205E+01 -0.56211093209E+01  0.26945362201E+02  0.28055262570E+02  0.00000000000E+00 0. -1.
</event>
<event>
 5    1  0.8962782E-005  0.9118800E+02  0.7818608E-02  0.1130116E+00
         25   -1    0    0    0    0  0.00000000000E+00  0.00000000000E+00  0.99999998245E-14  0.12500000000E+03  0.12500000000E+03 0.  0.
        -11    1    3    3    0    0  0.17198002963E+02 -0.11917195522E+02  0.25534504502E+02  0.33012145878E+02  0.51100000000E-03 0. -1.
         23    2    1    0    0    0 -0.20650041211E+02  0.18834324508E+02 -0.12032952018E+02  0.94570607697E+02  0.89541341983E+02 0.  0.
         11    1    3    3    0    0 -0.37848044173E+02  0.30751520030E+02 -0.37567456520E+02  0.61558461819E+02  0.51100000000E-03 0.  1.
         22    1    1    0    0    0  0.20650041211E+02 -0.18834324508E+02  0.12032952018E+02  0.30429392303E+02  0.00000000000E+00 0.  1.
</event>
<event>
 5    1  0.8962782E-005  0.9118800E+02  0.7818608E-02  0.1130116E+00
         25   -1    0    0    0    0  0.00000000000E+00  0.00000000000E+00  0.99999998245E-14  0.12500000000E+03  0.12500000000E+03 0.  0.
        -11    1    3    3    0    0 -0.29818123978E+02  0.27301524506E+02 -0.38687227426E+02  0.55957084664E+02  0.51100000000E-03 0.  1.
         23    2    1    0    0    0 -0.15403750434E+02 -0.79561371636E+01 -0.20455099526E+02  0.98186071854E+02  0.94453787449E+02 0.  0.
         11    1    3    3    0    0  0.14414373545E+02 -0.35257661670E+02  0.18232127899E+02  0.42228987190E+02  0.51100000000E-03 0. -1.
         22    1    1    0    0    0  0.15403750434E+02  0.79561371636E+01  0.20455099526E+02  0.26813928146E+02  0.00000000000E+00 0. -1.
</event>
<event>
 5    1  0.8962782E-005  0.9118800E+02  0.7818608E-02  0.1130116E+00
         25   -1    0    0    0    0  0.00000000000E+00  0.00000000000E+00  0.99999998245E-14  0.12500000000E+03  0.12500000000E+03 0.  0.
        -11    1    3    3    0    0  0.21067586149E+02 -0.31021142261E+02  0.45309600765E+02  0.58814236159E+02  0.51100000000E-03 0.  1.
         23    2    1    0    0    0 -0.53628241943E+01 -0.17998438135E+02  0.17535573746E+02  0.99305642541E+02  0.95923983629E+02 0.  0.
         11    1    3    3    0    0 -0.26430410343E+02  0.13022704126E+02 -0.27774027019E+02  0.40491406382E+02  0.51100000000E-03 0. -1.
         22    1    1    0    0    0  0.53628241943E+01  0.17998438135E+02 -0.17535573746E+02  0.25694357459E+02  0.00000000000E+00 0.  1.
</event>
<event>
 5    1  0.8962782E-005  0.9118800E+02  0.7818608E-02  0.1130116E+00
         25   -1    0    0    0    0  0.00000000000E+00  0.00000000000E+00  0.99999998245E-14  0.12500000000E+03  0.12500000000E+03 0.  0.
        -11    1    3    3    0    0  0.29558565267E+02 -0.24256283725E+02  0.24008479727E+02  0.45149564559E+02  0.51100000000E-03 0.  1.
         23    2    1    0    0    0  0.20619169460E+02  0.19480880708E+02 -0.15527890796E+01  0.96591092659E+02  0.92318866786E+02 0.  0.
         11    1    3    3    0    0 -0.89393958074E+01  0.43737164433E+02 -0.25561268806E+02  0.51441528100E+02  0.51100000000E-03 0. -1.
         22    1    1    0    0    0 -0.20619169460E+02 -0.19480880708E+02  0.15527890796E+01  0.28408907341E+02  0.00000000000E+00 0. -1.
</event>
<event>
 5    1  0.8962782E-005  0.9118800E+02  0.7818608E-02  0.1130116E+00
         25   -1    0    0    0    0  0.00000000000E+00  0.00000000000E+00  0.99999998245E-14  0.12500000000E+03  0.12500000000E+03 0.  0.
        -11    1    3    3    0    0  0.34642026013E+01 -0.31047021461E+02 -0.13968707916E+02  0.34220506167E+02  0.51100000000E-03 0.  1.
         23    2    1    0    0    0 -0.13489894865E+02  0.17064139279E+02  0.19954468562E+02  0.95481481602E+02  0.90804021941E+02 0.  0.
         11    1    3    3    0    0 -0.16954097466E+02  0.48111160740E+02  0.33923176478E+02  0.61260975435E+02  0.51100000000E-03 0. -1.
         22    1    1    0    0    0  0.13489894865E+02 -0.17064139279E+02 -0.19954468562E+02  0.29518518398E+02  0.00000000000E+00 0. -1.
</event>
<event>
 5    1  0.8962782E-005  0.9118800E+02  0.7818608E-02  0.1130116E+00
         25   -1    0    0    0    0  0.00000000000E+00  0.00000000000E+00  0.99999998245E-14  0.12500000000E+03  0.12500000000E+03 0.  0.
        -11    1    3    3    0    0  0.96227675785E+01 -0.50657809461E+02  0.92595786103E+01  0.52388463535E+02  0.51100000000E-03 0.  1.
         23    2    1    0    0    0 -0.14857338293E+01 -0.21642143846E+02 -0.20312497229E+02  0.95281532023E+02  0.90528354706E+02 0.  0.
         11    1    3    3    0    0 -0.11108501408E+02  0.29015665615E+02 -0.29572075839E+02  0.42893068488E+02  0.51100000000E-03 0. -1.
         22    1    1    0    0    0  0.14857338293E+01  0.21642143846E+02  0.20312497229E+02  0.29718467977E+02  0.00000000000E+00 0.  1.
</event>
<event>
 5    1  0.8962782E-005  0.9118800E+02  0.7818608E-02  0.1130116E+00
         25   -1    0    0    0    0  0.00000000000E+00  0.00000000000E+00  0.99999998245E-14  0.12500000000E+03  0.12500000000E+03 0.  0.
        -11    1    3    3    0    0 -0.20920740074E+02 -0.33114096727E+02 -0.12021583042E+02  0.40972420313E+02  0.51100000000E-03 0.  1.
         23    2    1    0    0    0  0.10601336978E+02 -0.96220359936E+01  0.25780100611E+02  0.95511264695E+02  0.90845011826E+02 0.  0.
         11    1    3    3    0    0  0.31522077052E+02  0.23492060733E+02  0.37801683653E+02  0.54538844381E+02  0.51100000000E-03 0. -1.
         22    1    1    0    0    0 -0.10601336978E+02  0.96220359936E+01 -0.25780100611E+02  0.29488735305E+02  0.00000000000E+00 0. -1.
</event>
<event>
 5    1  0.8962782E-005  0.9118800E+02  0.7818608E-02  0.1130116E+00
         25   -1    0    0    0    0  0.00000000000E+00  0.00000000000E+00  0.99999998245E-14  0.12500000000E+03  0.12500000000E+03 0.  0.
        -11    1    3    3    0    0  0.28436337419E+02  0.35102678228E+02  0.40271570411E+02  0.60519605817E+02  0.51100000000E-03 0. -1.
         23    2    1    0    0    0  0.17657573997E+02  0.21080765221E+02  0.96961152012E+01  0.95841755338E+02  0.91298624494E+02 0.  0.
         11    1    3    3    0    0 -0.10778763423E+02 -0.14021913007E+02 -0.30575455209E+02  0.35322149522E+02  0.51100000000E-03 0.  1.
         22    1    1    0    0    0 -0.17657573997E+02 -0.21080765221E+02 -0.96961152012E+01  0.29158244662E+02  0.00000000000E+00 0. -1.
</event>
<event>
 5    1  0.8962782E-005  0.9118800E+02  0.7818608E-02  0.1130116E+00
         25   -1    0    0    0    0  0.00000000000E+00  0.00000000000E+00  0.99999998245E-14  0.12500000000E+03  0.12500000000E+03 0.  0.
        -11    1    3    3    0    0 -0.24577288003E+02 -0.35947376168E+02  0.13283283663E+02  0.45526943276E+02  0.51100000000E-03 0.  1.
         23    2    1    0    0    0  0.63459928761E+01  0.24858137823E+01  0.27342862413E+02  0.96820521284E+02  0.92628992875E+02 0.  0.
         11    1    3    3    0    0  0.30923280879E+02  0.38433189950E+02  0.14059578750E+02  0.51293578009E+02  0.51100000000E-03 0. -1.
         22    1    1    0    0    0 -0.63459928761E+01 -0.24858137823E+01 -0.27342862413E+02  0.28179478716E+02  0.00000000000E+00 0. -1.
</event>
<event>
 5    1  0.8962782E-005  0.9118800E+02  0.7818608E-02  0.1130116E+00
         25   -1    0    0    0    0  0.00000000000E+00  0.00000000000E+00  0.99999998245E-14  0.12500000000E+03  0.12500000000E+03 0.  0.
        -11    1    3    3    0    0  0.29081883762E+02  0.27191570937E+02  0.64570541630E+01  0.40333993627E+02  0.51100000000E-03 0.  1.
         23    2    1    0    0    0  0.11991722539E+02 -0.23115224914E+02 -0.11659517014E+02  0.96468274337E+02  0.92152420393E+02 0.  0.
         11    1    3    3    0    0 -0.17090161223E+02 -0.50306795851E+02 -0.18116571176E+02  0.56134280710E+02  0.51100000000E-03 0. -1.
         22    1    1    0    0    0 -0.11991722539E+02  0.23115224914E+02  0.11659517014E+02  0.28531725663E+02  0.00000000000E+00 0. -1.
</event>
<event>
 5    1  0.8962782E-005  0.9118800E+02  0.7818608E-02  0.1130116E+00
         25   -1    0    0    0    0  0.00000000000E+00  0.00000000000E+00  0.99999998245E-14  0.12500000000E+03  0.12500000000E+03 0.  0.
        -11    1    3    3    0    0 -0.35632391084E+02  0.33017263618E+02  0.89373862386E+01  0.49393156046E+02  0.51100000000E-03 0.  1.
         23    2    1    0    0    0 -0.24333349770E+02 -0.82424203157E+01 -0.11558193907E+02  0.96828360891E+02  0.92639571582E+02 0.  0.
         11    1    3    3    0    0  0.11299041314E+02 -0.41259683934E+02 -0.20495580146E+02  0.47435204845E+02  0.51100000000E-03 0. -1.
         22    1    1    0    0    0  0.24333349770E+02  0.82424203157E+01  0.11558193907E+02  0.28171639109E+02  0.00000000000E+00 0.  1.
</event>
<event>
 5    1  0.8962782E-005  0.9118800E+02  0.7818608E-02  0.1130116E+00
         25   -1    0    0    0    0  0.00000000000E+00  0.00000000000E+00  0.99999998245E-14  0.12500000000E+03  0.12500000000E+03 0.  0.
        -11    1    3    3    0    0  0.24996044267E+02  0.97298054223E+00  0.51029329971E+02  0.56830814157E+02  0.51100000000E-03 0.  1.
         23    2    1    0    0    0  0.14861560880E+02 -0.17091068741E+02  0.16949854451E+02  0.96710988204E+02  0.92481063203E+02 0.  0.
         11    1    3    3    0    0 -0.10134483388E+02 -0.18064049283E+02 -0.34079475521E+02  0.39880174047E+02  0.51100000000E-03 0. -1.
         22    1    1    0    0    0 -0.14861560880E+02  0.17091068741E+02 -0.16949854451E+02  0.28289011796E+02  0.00000000000E+00 0.  1.
</event>
<event>
 5    1  0.8962782E-005  0.9118800E+02  0.7818608E-02  0.1130116E+00
         25   -1    0    0    0    0  0.00000000000E+00  0.00000000000E+00  0.99999998245E-14  0.12500000000E+03  0.12500000000E+03 0.  0.
        -11    1    3    3    0    0 -0.57697484457E+01 -0.21631427800E+02  0.56711311354E+02  0.60970332962E+02  0.51100000000E-03 0. -1.
         23    2    1    0    0    0  0.16746267753E+01 -0.19244684206E+02  0.26315121311E+02  0.92355737799E+02  0.86394064899E+02 0.  0.
         11    1    3    3    0    0  0.74443752210E+01  0.23867435947E+01 -0.30396190042E+02  0.31385404837E+02  0.51100000000E-03 0.  1.
         22    1    1    0    0    0 -0.16746267753E+01  0.19244684206E+02 -0.26315121311E+02  0.32644262201E+02  0.00000000000E+00 0. -1.
</event>
<event>
 5    1  0.8962782E-005  0.9118800E+02  0.7818608E-02  0.1130116E+00
         25   -1    0    0    0    0  0.00000000000E+00  0.00000000000E+00  0.99999998245E-14  0.12500000000E+03  0.12500000000E+03 0.  0.
        -11    1    3    3    0    0 -0.58022334863E+01  0.43419867750E+02 -0.15851603014E+01  0.43834501962E+02  0.51100000000E-03 0.  1.
         23    2    1    0    0    0 -0.24350060312E+02  0.17093900236E+01  0.19152956359E+02  0.93972863672E+02  0.88702964539E+02 0.  0.
         11    1    3    3    0    0 -0.18547826825E+02 -0.41710477726E+02  0.20738116660E+02  0.50138361710E+02  0.51100000000E-03 0. -1.
         22    1    1    0    0    0  0.24350060312E+02 -0.17093900236E+01 -0.19152956359E+02  0.31027136328E+02  0.00000000000E+00 0. -1.
</event>
<event>
 5    1  0.8962782E-005  0.9118800E+02  0.7818608E-02  0.1130116E+00
         25   -1    0    0    0    0  0.00000000000E+00  0.00000000000E+00  0.99999998245E-14  0.12500000000E+03  0.12500000000E+03 0.  0.
        -11    1    3    3    0    0  0.43923661542E+02  0.15233767428E+01 -0.17345454392E+02  0.47249058279E+02  0.51100000000E-03 0. -1.
         23    2    1    0    0    0  0.14221860747E+02 -0.14819721700E+02  0.19048815987E+02  0.96986737697E+02  0.92853025929E+02 0.  0.
         11    1    3    3    0    0 -0.29701800795E+02 -0.16343098442E+02  0.36394270379E+02  0.49737679418E+02  0.51100000000E-03 0.  1.
         22    1    1    0    0    0 -0.14221860747E+02  0.14819721700E+02 -0.19048815987E+02  0.28013262303E+02  0.00000000000E+00 0. -1.
</event>
<event>
 5    1  0.8962782E-005  0.9118800E+02  0.7818608E-02  0.1130116E+00
         25   -1    0    0    0    0  0.00000000000E+00  0.00000000000E+00  0.99999998245E-14  0.12500000000E+03  0.12500000000E+03 0.  0.
        -11    1    3    3    0    0 -0.32637886575E+02 -0.38024295425E+02 -0.13287466430E+02  0.51842409734E+02  0.51100000000E-03 0.  1.
         23    2    1    0    0    0 -0.34334943142E+02 -0.31757971757E+02  0.10975744679E+02  0.76959141744E+02  0.60123085717E+02 0.  0.
         11    1    3    3    0    0 -0.16970565671E+01  0.62663236678E+01  0.24263211109E+02  0.25116732011E+02  0.51100000000E-03 0. -1.
         22    1    1    0    0    0  0.34334943142E+02  0.31757971757E+02 -0.10975744679E+02  0.48040858256E+02  0.00000000000E+00 0.  1.
</event>
<event>
 5    1  0.8962782E-005  0.9118800E+02  0.7818608E-02  0.1130116E+00
         25   -1    0    0    0    0  0.00000000000E+00  0.00000000000E+00  0.99999998245E-14  0.12500000000E+03  0.12500000000E+03 0.  0.
        -11    1    3    3    0    0  0.23171353820E+02  0.17676486484E+01 -0.29280710742E+02  0.37381763487E+02  0.51100000000E-03 0. -1.
         23    2    1    0    0    0 -0.24261012618E+02 -0.12743723664E+02  0.42692799321E+01  0.97265076578E+02  0.93226976485E+02 0.  0.
         11    1    3    3    0    0 -0.47432366438E+02 -0.14511372312E+02  0.33549990674E+02  0.59883313091E+02  0.51100000000E-03 0.  1.
         22    1    1    0    0    0  0.24261012618E+02  0.12743723664E+02 -0.42692799321E+01  0.27734923422E+02  0.00000000000E+00 0.  1.
</event>
<event>
 5    1  0.8962782E-005  0.9118800E+02  0.7818608E-02  0.1130116E+00
         25   -1    0    0    0    0  0.00000000000E+00  0.00000000000E+00  0.99999998245E-14  0.12500000000E+03  0.12500000000E+03 0.  0.
        -11    1    3    3    0    0  0.40142356954E+02 -0.17342896867E+02  0.32382370138E+02  0.54413259318E+02  0.51100000000E-03 0. -1.
         23    2    1    0    0    0  0.19933569535E+02 -0.20155020135E+02 -0.42414611370E+01  0.96337096734E+02  0.91974312629E+02 0.  0.
         11    1    3    3    0    0 -0.20208787420E+02 -0.28121232685E+01 -0.36623831275E+02  0.41923837417E+02  0.51100000000E-03 0.  1.
         22    1    1    0    0    0 -0.19933569535E+02  0.20155020135E+02  0.42414611370E+01  0.28662903266E+02  0.00000000000E+00 0. -1.
</event>
<event>
 5    1  0.8962782E-005  0.9118800E+02  0.7818608E-02  0.1130116E+00
         25   -1    0    0    0    0  0.00000000000E+00  0.00000000000E+00  0.99999998245E-14  0.12500000000E+03  0.12500000000E+03 0.  0.
        -11    1    3    3    0    0  0.10063313061E+02 -0.44227024578E+02  0.20806853618E+02  0.49902155570E+02  0.51100000000E-03 0.  1.
         23    2    1    0    0    0 -0.23300475798E+02 -0.14697876439E+02  0.93704489046E+01  0.95901115882E+02  0.91379860859E+02 0.  0.
         11    1    3    3    0    0 -0.33363788858E+02  0.29529148139E+02 -0.11436404713E+02  0.45998960312E+02  0.51100000000E-03 0. -1.
         22    1    1    0    0    0  0.23300475798E+02  0.14697876439E+02 -0.93704489046E+01  0.29098884118E+02  0.00000000000E+00 0. -1.
</event>
<event>
 5    1  0.8962782E-005  0.9118800E+02  0.7818608E-02  0.1130116E+00
         25   -1    0    0    0    0  0.00000000000E+00  0.00000000000E+00  0.99999998245E-14  0.12500000000E+03  0.12500000000E+03 0.  0.
        -11    1    3    3    0    0 -0.49661868386E+02  0.53329764745E+01 -0.33639743690E+02  0.60219383636E+02  0.51100000000E-03 0.  1.
         23    2    1    0    0    0 -0.16530510426E+02 -0.12190118939E+01 -0.24870198806E+02  0.95112367882E+02  0.90294473644E+02 0.  0.
         11    1    3    3    0    0  0.33131357960E+02 -0.65519883684E+01  0.87695448837E+01  0.34892984246E+02  0.51100000000E-03 0. -1.
         22    1    1    0    0    0  0.16530510426E+02  0.12190118939E+01  0.24870198806E+02  0.29887632118E+02  0.00000000000E+00 0.  1.
</event>
<event>
 5    1  0.8962782E-005  0.9118800E+02  0.7818608E-02  0.1130116E+00
         25   -1    0    0    0    0  0.00000000000E+00  0.00000000000E+00  0.99999998245E-14  0.12500000000E+03  0.12500000000E+03 0.  0.
        -11    1    3    3    0    0 -0.49022637608E+02  0.28223408541E+00 -0.97603755857E+01  0.49985633796E+02  0.51100000000E-03 0.  1.
         23    2    1    0    0    0 -0.18510595274E+02  0.23824689102E+02  0.98964272838E+01  0.93247878478E+02  0.87675364952E+02 0.  0.
         11    1    3    3    0    0  0.30512042335E+02  0.23542455016E+02  0.19656802869E+02  0.43262244682E+02  0.51100000000E-03 0. -1.
         22    1    1    0    0    0  0.18510595274E+02 -0.23824689102E+02 -0.98964272838E+01  0.31752121522E+02  0.00000000000E+00 0.  1.
</event>
<event>
 5    1  0.8962782E-005  0.9118800E+02  0.7818608E-02  0.1130116E+00
         25   -1    0    0    0    0  0.00000000000E+00  0.00000000000E+00  0.99999998245E-14  0.12500000000E+03  0.12500000000E+03 0.  0.
        -11    1    3    3    0    0 -0.46715562908E+02 -0.10767174183E+02 -0.15284328495E+02  0.50317855235E+02  0.51100000000E-03 0.  1.
         23    2    1    0    0    0 -0.88973394156E+01 -0.26737242692E+02 -0.18169915451E+02  0.91471077814E+02  0.85104462007E+02 0.  0.
         11    1    3    3    0    0  0.37818223492E+02 -0.15970068508E+02 -0.28855869569E+01  0.41153222579E+02  0.51100000000E-03 0. -1.
         22    1    1    0    0    0  0.88973394156E+01  0.26737242692E+02  0.18169915451E+02  0.33528922186E+02  0.00000000000E+00 0.  1.
</event>
<event>
 5    1  0.8962782E-005  0.9118800E+02  0.7818608E-02  0.1130116E+00
         25   -1    0    0    0    0  0.00000000000E+00  0.00000000000E+00  0.99999998245E-14  0.12500000000E+03  0.12500000000E+03 0.  0.
        -11    1    3    3    0    0  0.33282063547E+02  0.72125460042E+01 -0.16477012335E+02  0.37831316519E+02  0.51100000000E-03 0.  1.
         23    2    1    0    0    0  0.29752542841E+02  0.13035743577E+02  0.27565535476E+02  0.82397146079E+02  0.70528621990E+02 0.  0.
         11    1    3    3    0    0 -0.35295207063E+01  0.58231975729E+01  0.44042547812E+02  0.44565829560E+02  0.51100000000E-03 0. -1.
         22    1    1    0    0    0 -0.29752542841E+02 -0.13035743577E+02 -0.27565535476E+02  0.42602853921E+02  0.00000000000E+00 0.  1.
</event>
<event>
 5    1  0.8962782E-005  0.9118800E+02  0.7818608E-02  0.1130116E+00
         25   -1    0    0    0    0  0.00000000000E+00  0.00000000000E+00  0.99999998245E-14  0.12500000000E+03  0.12500000000E+03 0.  0.
        -11    1    3    3    0    0  0.47144146902E+02 -0.32545969614E+02  0.18787341418E+01  0.57317888722E+02  0.51100000000E-03 0.  1.
         23    2    1    0    0    0  0.18964756505E+02 -0.11148863101E+02 -0.16792263268E+02  0.97324392628E+02  0.93306474358E+02 0.  0.
         11    1    3    3    0    0 -0.28179390397E+02  0.21397106513E+02 -0.18670997410E+02  0.40006503907E+02  0.51100000000E-03 0. -1.
         22    1    1    0    0    0 -0.18964756505E+02  0.11148863101E+02  0.16792263268E+02  0.27675607372E+02  0.00000000000E+00 0.  1.
</event>
<event>
 5    1  0.8962782E-005  0.9118800E+02  0.7818608E-02  0.1130116E+00
         25   -1    0    0    0    0  0.00000000000E+00  0.00000000000E+00  0.99999998245E-14  0.12500000000E+03  0.12500000000E+03 0.  0.
        -11    1    3    3    0    0  0.39151026220E+02 -0.29646899557E+02  0.51866774581E+01  0.49382619724E+02  0.51100000000E-03 0. -1.
         23    2    1    0    0    0  0.58388108510E+01 -0.62594438092E+01  0.27777214647E+02  0.95933765251E+02  0.91424511553E+02 0.  0.
         11    1    3    3    0    0 -0.33312215369E+02  0.23387455748E+02  0.22590537189E+02  0.46551145527E+02  0.51100000000E-03 0.  1.
         22    1    1    0    0    0 -0.58388108510E+01  0.62594438092E+01 -0.27777214647E+02  0.29066234749E+02  0.00000000000E+00 0. -1.
</event>
<event>
 5    1  0.8962782E-005  0.9118800E+02  0.7818608E-02  0.1130116E+00
         25   -1    0    0    0    0  0.00000000000E+00  0.00000000000E+00  0.99999998245E-14  0.12500000000E+03  0.12500000000E+03 0.  0.
        -11    1    3    3    0    0 -0.45532941747E+01  0.12258882148E+02  0.56966881170E+02  0.58448594763E+02  0.51100000000E-03 0.  1.
         23    2    1    0    0    0  0.36276313694E+01 -0.90622194569E+01  0.28077845397E+02  0.95273766923E+02  0.90517632154E+02 0.  0.
         11    1    3    3    0    0  0.81809255441E+01 -0.21321101605E+02 -0.28889035773E+02  0.36825172159E+02  0.51100000000E-03 0. -1.
         22    1    1    0    0    0 -0.36276313694E+01  0.90622194569E+01 -0.28077845397E+02  0.29726233077E+02  0.00000000000E+00 0.  1.
</event>
<event>
 5    1  0.8962782E-005  0.9118800E+02  0.7818608E-02  0.1130116E+00
         25   -1    0    0    0    0  0.00000000000E+00  0.00000000000E+00  0.99999998245E-14  0.12500000000E+03  0.12500000000E+03 0.  0.
        -11    1    3    3    0    0 -0.78616040819E+01 -0.49659317643E+02 -0.33950232933E+02  0.60666885234E+02  0.51100000000E-03 0. -1.
         23    2    1    0    0    0 -0.46380811443E+01 -0.16215671050E+02 -0.23922031636E+02  0.95730162592E+02  0.91145711079E+02 0.  0.
         11    1    3    3    0    0  0.32235229377E+01  0.33443646593E+02  0.10028201297E+02  0.35063277358E+02  0.51100000000E-03 0.  1.
         22    1    1    0    0    0  0.46380811443E+01  0.16215671050E+02  0.23922031636E+02  0.29269837408E+02  0.00000000000E+00 0. -1.
</event>
<event>
 5    1  0.8962782E-005  0.9118800E+02  0.7818608E-02  0.1130116E+00
         25   -1    0    0    0    0  0.00000000000E+00  0.00000000000E+00  0.99999998245E-14  0.12500000000E+03  0.12500000000E+03 0.  0.
        -11    1    3    3    0    0 -0.31146087649E+01  0.32601912348E+02 -0.11569279888E+02  0.34733754676E+02  0.51100000000E-03 0.  1.
         23    2    1    0    0    0  0.16838853018E+02 -0.15099745527E+02  0.19568456450E+02  0.95092245592E+02  0.90266612864E+02 0.  0.
         11    1    3    3    0    0  0.19953461782E+02 -0.47701657875E+02  0.31137736337E+02  0.60358490916E+02  0.51100000000E-03 0. -1.
         22    1    1    0    0    0 -0.16838853018E+02  0.15099745527E+02 -0.19568456450E+02  0.29907754408E+02  0.00000000000E+00 0. -1.
</event>
<event>
 5    1  0.8962782E-005  0.9118800E+02  0.7818608E-02  0.1130116E+00
         25   -1    0    0    0    0  0.00000000000E+00  0.00000000000E+00  0.99999998245E-14  0.12500000000E+03  0.12500000000E+03 0.  0.
        -11    1    3    3    0    0 -0.25927792801E+02  0.36957306907E+02  0.21961608788E+02  0.50203637658E+02  0.51100000000E-03 0. -1.
         23    2    1    0    0    0 -0.16060943444E+02 -0.75085581909E+01  0.23240446077E+02  0.95769011575E+02  0.91198974193E+02 0.  0.
         11    1    3    3    0    0  0.98668493566E+01 -0.44465865098E+02  0.12788372891E+01  0.45565373917E+02  0.51100000000E-03 0.  1.
         22    1    1    0    0    0  0.16060943444E+02  0.75085581909E+01 -0.23240446077E+02  0.29230988425E+02  0.00000000000E+00 0. -1.
</event>
<event>
 5    1  0.8962782E-005  0.9118800E+02  0.7818608E-02  0.1130116E+00
         25   -1    0    0    0    0  0.00000000000E+00  0.00000000000E+00  0.99999998245E-14  0.12500000000E+03  0.12500000000E+03 0.  0.
        -11    1    3    3    0    0 -0.16163057644E+02 -0.43657348871E+02 -0.38635661144E+02  0.60497296263E+02  0.51100000000E-03 0.  1.
         23    2    1    0    0    0 -0.17379485192E+02 -0.15751619220E+02 -0.20895509505E+02  0.93586908286E+02  0.88157399414E+02 0.  0.
         11    1    3    3    0    0 -0.12164275477E+01  0.27905729652E+02  0.17740151639E+02  0.33089612022E+02  0.51100000000E-03 0. -1.
         22    1    1    0    0    0  0.17379485192E+02  0.15751619220E+02  0.20895509505E+02  0.31413091714E+02  0.00000000000E+00 0.  1.
</event>
<event>
 5    1  0.8962782E-005  0.9118800E+02  0.7818608E-02  0.1130116E+00
         25   -1    0    0    0    0  0.00000000000E+00  0.00000000000E+00  0.99999998245E-14  0.12500000000E+03  0.12500000000E+03 0.  0.
        -11    1    3    3    0    0  0.23750775258E+02 -0.30500155063E+02  0.45512703911E+02  0.59714026843E+02  0.51100000000E-03 0.  1.
         23    2    1    0    0    0  0.17471504233E+02 -0.27324873957E+02  0.18429158754E+02  0.87696701362E+02  0.79367344296E+02 0.  0.
         11    1    3    3    0    0 -0.62792710259E+01  0.31752811060E+01 -0.27083545157E+02  0.27982674519E+02  0.51100000000E-03 0. -1.
         22    1    1    0    0    0 -0.17471504233E+02  0.27324873957E+02 -0.18429158754E+02  0.37303298638E+02  0.00000000000E+00 0.  1.
</event>
<event>
 5    1  0.8962782E-005  0.9118800E+02  0.7818608E-02  0.1130116E+00
         25   -1    0    0    0    0  0.00000000000E+00  0.00000000000E+00  0.99999998245E-14  0.12500000000E+03  0.12500000000E+03 0.  0.
        -11    1    3    3    0    0 -0.10348092915E+02 -0.47586758065E+02 -0.80628834325E+01  0.49361854296E+02  0.51100000000E-03 0. -1.
         23    2    1    0    0    0 -0.34562075189E+01 -0.51388840112E+01 -0.27685027738E+02  0.96630751505E+02  0.92372549366E+02 0.  0.
         11    1    3    3    0    0  0.68918853961E+01  0.42447874053E+02 -0.19622144305E+02  0.47268897209E+02  0.51100000000E-03 0.  1.
         22    1    1    0    0    0  0.34562075189E+01  0.51388840112E+01  0.27685027738E+02  0.28369248495E+02  0.00000000000E+00 0.  1.
</event>
<event>
 5    1  0.8962782E-005  0.9118800E+02  0.7818608E-02  0.1130116E+00
         25   -1    0    0    0    0  0.00000000000E+00  0.00000000000E+00  0.99999998245E-14  0.12500000000E+03  0.12500000000E+03 0.  0.
        -11    1    3    3    0    0  0.80436708433E+01  0.26942029622E+02  0.33819480955E+02  0.43981028786E+02  0.51100000000E-03 0.  1.
         23    2    1    0    0    0  0.16961801284E+02  0.21923344308E+02 -0.14739043696E+02  0.93606128982E+02  0.88184648581E+02 0.  0.
         11    1    3    3    0    0  0.89181304410E+01 -0.50186853137E+01 -0.48558524651E+02  0.49625100195E+02  0.51100000000E-03 0. -1.
         22    1    1    0    0    0 -0.16961801284E+02 -0.21923344308E+02  0.14739043696E+02  0.31393871018E+02  0.00000000000E+00 0. -1.
</event>
<event>
 5    1  0.8962782E-005  0.9118800E+02  0.7818608E-02  0.1130116E+00
         25   -1    0    0    0    0  0.00000000000E+00  0.00000000000E+00  0.99999998245E-14  0.12500000000E+03  0.12500000000E+03 0.  0.
        -11    1    3    3    0    0 -0.37158224637E+02 -0.12811277902E+02  0.33192618677E+02  0.51445237239E+02  0.51100000000E-03 0.  1.
         23    2    1    0    0    0 -0.29317388564E+02  0.22387895383E+01 -0.67404316463E+01  0.94834541780E+02  0.89909039841E+02 0.  0.
         11    1    3    3    0    0  0.78408360734E+01  0.15050067440E+02 -0.39933050323E+02  0.43389304542E+02  0.51100000000E-03 0. -1.
         22    1    1    0    0    0  0.29317388564E+02 -0.22387895383E+01  0.67404316463E+01  0.30165458220E+02  0.00000000000E+00 0.  1.
</event>
<event>
 5    1  0.8962782E-005  0.9118800E+02  0.7818608E-02  0.1130116E+00
         25   -1    0    0    0    0  0.00000000000E+00  0.00000000000E+00  0.99999998245E-14  0.12500000000E+03  0.12500000000E+03 0.  0.
        -11    1    3    3    0    0  0.29396239031E+02 -0.20065146679E+02 -0.18181929359E+01  0.35637828304E+02  0.51100000000E-03 0.  1.
         23    2    1    0    0    0 -0.17425584421E+02  0.15156297494E+02 -0.17188738171E+02  0.96210816857E+02  0.91802528365E+02 0.  0.
         11    1    3    3    0    0 -0.46821823453E+02  0.35221444173E+02 -0.15370545235E+02  0.60572988552E+02  0.51100000000E-03 0. -1.
         22    1    1    0    0    0  0.17425584421E+02 -0.15156297494E+02  0.17188738171E+02  0.28789183143E+02  0.00000000000E+00 0. -1.
</event>
<event>
 5    1  0.8962782E-005  0.9118800E+02  0.7818608E-02  0.1130116E+00
         25   -1    0    0    0    0  0.00000000000E+00  0.00000000000E+00  0.99999998245E-14  0.12500000000E+03  0.12500000000E+03 0.  0.
        -11    1    3    3    0    0  0.21149095184E+02  0.14418351519E+02  0.52101510763E+02  0.58049466075E+02  0.51100000000E-03 0.  1.
         23    2    1    0    0    0 -0.66973203602E+01  0.81262954370E+01  0.26833947224E+02  0.96173770605E+02  0.91752071645E+02 0.  0.
         11    1    3    3    0    0 -0.27846415544E+02 -0.62920560816E+01 -0.25267563539E+02  0.38124304529E+02  0.51100000000E-03 0. -1.
         22    1    1    0    0    0  0.66973203602E+01 -0.81262954370E+01 -0.26833947224E+02  0.28826229395E+02  0.00000000000E+00 0.  1.
</event>
<event>
 5    1  0.8962782E-005  0.9118800E+02  0.7818608E-02  0.1130116E+00
         25   -1    0    0    0    0  0.00000000000E+00  0.00000000000E+00  0.99999998245E-14  0.12500000000E+03  0.12500000000E+03 0.  0.
        -11    1    3    3    0    0  0.32316483742E+02 -0.18835602420E+02 -0.10442396772E+01  0.37419586806E+02  0.51100000000E-03 0.  1.
         23    2    1    0    0    0 -0.15202735259E+02  0.29626636493E+01 -0.25521423123E+02  0.95146297156E+02  0.90341431741E+02 0.  0.
         11    1    3    3    0    0 -0.47519219002E+02  0.21798266069E+02 -0.24477183446E+02  0.57726710350E+02  0.51100000000E-03 0. -1.
         22    1    1    0    0    0  0.15202735259E+02 -0.29626636493E+01  0.25521423123E+02  0.29853702844E+02  0.00000000000E+00 0. -1.
</event>
<event>
 5    1  0.8962782E-005  0.9118800E+02  0.7818608E-02  0.1130116E+00
         25   -1    0    0    0    0  0.00000000000E+00  0.00000000000E+00  0.99999998245E-14  0.12500000000E+03  0.12500000000E+03 0.  0.
        -11    1    3    3    0    0 -0.36721067564E+02 -0.33638970225E+02 -0.35784613205E+02  0.61323369634E+02  0.51100000000E-03 0. -1.
         23    2    1    0    0    0 -0.12862746975E+02 -0.15741431361E+02 -0.24385366569E+02  0.93252732027E+02  0.87682284452E+02 0.  0.
         11    1    3    3    0    0  0.23858320589E+02  0.17897538863E+02  0.11399246635E+02  0.31929362393E+02  0.51100000000E-03 0.  1.
         22    1    1    0    0    0  0.12862746975E+02  0.15741431361E+02  0.24385366569E+02  0.31747267973E+02  0.00000000000E+00 0. -1.
</event>
<event>
 5    1  0.8962782E-005  0.9118800E+02  0.7818608E-02  0.1130116E+00
         25   -1    0    0    0    0  0.00000000000E+00  0.00000000000E+00  0.99999998245E-14  0.12500000000E+03  0.12500000000E+03 0.  0.
        -11    1    3    3    0    0  0.19749341343E+01 -0.60269526099E+02 -0.83179368818E+01  0.60872852860E+02  0.51100000000E-03 0. -1.
         23    2    1    0    0    0 -0.89353715183E+01 -0.29006140763E+02 -0.19975462490E+01  0.94583109016E+02  0.89558792164E+02 0.  0.
         11    1    3    3    0    0 -0.10910305653E+02  0.31263385336E+02  0.63203906328E+01  0.33710256156E+02  0.51100000000E-03 0.  1.
         22    1    1    0    0    0  0.89353715183E+01  0.29006140763E+02  0.19975462490E+01  0.30416890984E+02  0.00000000000E+00 0. -1.
</event>
<event>
 5    1  0.8962782E-005  0.9118800E+02  0.7818608E-02  0.1130116E+00
         25   -1    0    0    0    0  0.00000000000E+00  0.00000000000E+00  0.99999998245E-14  0.12500000000E+03  0.12500000000E+03 0.  0.
        -11    1    3    3    0    0 -0.34002534394E+02  0.40334372200E+02  0.26675110623E+02  0.59115103426E+02  0.51100000000E-03 0. -1.
         23    2    1    0    0    0 -0.28651924919E+02  0.14903759095E+02  0.22976716294E+02  0.85364355331E+02  0.75604820169E+02 0.  0.
         11    1    3    3    0    0  0.53506094758E+01 -0.25430613106E+02 -0.36983943295E+01  0.26249251905E+02  0.51100000000E-03 0.  1.
         22    1    1    0    0    0  0.28651924919E+02 -0.14903759095E+02 -0.22976716294E+02  0.39635644669E+02  0.00000000000E+00 0. -1.
</event>
<event>
 5    1  0.8962782E-005  0.9118800E+02  0.7818608E-02  0.1130116E+00
         25   -1    0    0    0    0  0.00000000000E+00  0.00000000000E+00  0.99999998245E-14  0.12500000000E+03  0.12500000000E+03 0.  0.
        -11    1    3    3    0    0  0.30541142897E+02  0.46812567928E+02  0.22426929010E+02  0.60225784101E+02  0.51100000000E-03 0.  1.
         23    2    1    0    0    0  0.23195482098E+02  0.15535110611E+02  0.54792561396E+01  0.96550179275E+02  0.92263453321E+02 0.  0.
         11    1    3    3    0    0 -0.73456607992E+01 -0.31277457317E+02 -0.16947672870E+02  0.36324395174E+02  0.51100000000E-03 0. -1.
         22    1    1    0    0    0 -0.23195482098E+02 -0.15535110611E+02 -0.54792561396E+01  0.28449820725E+02  0.00000000000E+00 0.  1.
</event>
<event>
 5    1  0.8962782E-005  0.9118800E+02  0.7818608E-02  0.1130116E+00
         25   -1    0    0    0    0  0.00000000000E+00  0.00000000000E+00  0.99999998245E-14  0.12500000000E+03  0.12500000000E+03 0.  0.
        -11    1    3    3    0    0 -0.41562268116E+02 -0.27432496209E+02  0.98384503844E+01  0.50761787651E+02  0.51100000000E-03 0.  1.
         23    2    1    0    0    0  0.38039489443E+01 -0.23580820245E+02  0.15325246462E+02  0.96620636192E+02  0.92358860149E+02 0.  0.
         11    1    3    3    0    0  0.45366217061E+02  0.38516759641E+01  0.54867960773E+01  0.45858848542E+02  0.51100000000E-03 0. -1.
         22    1    1    0    0    0 -0.38039489443E+01  0.23580820245E+02 -0.15325246462E+02  0.28379363808E+02  0.00000000000E+00 0. -1.
</event>
<event>
 5    1  0.8962782E-005  0.9118800E+02  0.7818608E-02  0.1130116E+00
         25   -1    0    0    0    0  0.00000000000E+00  0.00000000000E+00  0.99999998245E-14  0.12500000000E+03  0.12500000000E+03 0.  0.
        -11    1    3    3    0    0 -0.20193243433E+02 -0.51789399218E+01 -0.43589224882E+02  0.48317792014E+02  0.51100000000E-03 0.  1.
         23    2    1    0    0    0 -0.17166347796E+02 -0.25230524144E+02 -0.22044505478E+01  0.94403881824E+02  0.89308288842E+02 0.  0.
         11    1    3    3    0    0  0.30268956369E+01 -0.20051584222E+02  0.41384774334E+02  0.46086089810E+02  0.51100000000E-03 0. -1.
         22    1    1    0    0    0  0.17166347796E+02  0.25230524144E+02  0.22044505478E+01  0.30596118176E+02  0.00000000000E+00 0. -1.
</event>
<event>
 5    1  0.8962782E-005  0.9118800E+02  0.7818608E-02  0.1130116E+00
         25   -1    0    0    0    0  0.00000000000E+00  0.00000000000E+00  0.99999998245E-14  0.12500000000E+03  0.12500000000E+03 0.  0.
        -11    1    3    3    0    0  0.97416104374E+01 -0.21017915168E+02 -0.42170535814E+02  0.48114507407E+02  0.51100000000E-03 0.  1.
         23    2    1    0    0    0 -0.25064568099E+02 -0.34829649201E+01 -0.17250840869E+02  0.94373946886E+02  0.89266380690E+02 0.  0.
         11    1    3    3    0    0 -0.34806178537E+02  0.17534950248E+02  0.24919694945E+02  0.46259439479E+02  0.51100000000E-03 0. -1.
         22    1    1    0    0    0  0.25064568099E+02  0.34829649201E+01  0.17250840869E+02  0.30626053114E+02  0.00000000000E+00 0.  1.
</event>
<event>
 5    1  0.8962782E-005  0.9118800E+02  0.7818608E-02  0.1130116E+00
         25   -1    0    0    0    0  0.00000000000E+00  0.00000000000E+00  0.99999998245E-14  0.12500000000E+03  0.12500000000E+03 0.  0.
        -11    1    3    3    0    0 -0.81515723968E+01  0.22747383875E+02 -0.23684807823E+02  0.33835805408E+02  0.51100000000E-03 0.  1.
         23    2    1    0    0    0  0.17706315166E+02  0.26343854241E+02  0.21948495811E+02  0.86409214553E+02  0.77313023730E+02 0.  0.
         11    1    3    3    0    0  0.25857887563E+02  0.35964703660E+01  0.45633303634E+02  0.52573409145E+02  0.51100000000E-03 0. -1.
         22    1    1    0    0    0 -0.17706315166E+02 -0.26343854241E+02 -0.21948495811E+02  0.38590785447E+02  0.00000000000E+00 0. -1.
</event>
<event>
 5    1  0.8962782E-005  0.9118800E+02  0.7818608E-02  0.1130116E+00
         25   -1    0    0    0    0  0.00000000000E+00  0.00000000000E+00  0.99999998245E-14  0.12500000000E+03  0.12500000000E+03 0.  0.
        -11    1    3    3    0    0 -0.87163798784E+01 -0.22506058277E+02 -0.37047661220E+02  0.44215688839E+02  0.51100000000E-03 0. -1.
         23    2    1    0    0    0  0.18901525514E+02  0.15731882390E+02 -0.13767809750E+02  0.96816452040E+02  0.92623501392E+02 0.  0.
         11    1    3    3    0    0  0.27617905392E+02  0.38237940667E+02  0.23279851470E+02  0.52600763202E+02  0.51100000000E-03 0.  1.
         22    1    1    0    0    0 -0.18901525514E+02 -0.15731882390E+02  0.13767809750E+02  0.28183547960E+02  0.00000000000E+00 0. -1.
</event>
<event>
 5    1  0.8962782E-005  0.9118800E+02  0.7818608E-02  0.1130116E+00
         25   -1    0    0    0    0  0.00000000000E+00  0.00000000000E+00  0.99999998245E-14  0.12500000000E+03  0.12500000000E+03 0.  0.
        -11    1    3    3    0    0  0.29647293042E+02  0.29623884465E+02 -0.28293689297E+02  0.50567473437E+02  0.51100000000E-03 0. -1.
         23    2    1    0    0    0  0.25331273339E+02 -0.11253681156E+02 -0.10476312706E+02  0.95367722388E+02  0.90647286761E+02 0.  0.
         11    1    3    3    0    0 -0.43160197035E+01 -0.40877565622E+02  0.17817376590E+02  0.44800248951E+02  0.51100000000E-03 0.  1.
         22    1    1    0    0    0 -0.25331273339E+02  0.11253681156E+02  0.10476312706E+02  0.29632277612E+02  0.00000000000E+00 0. -1.
</event>
<event>
 5    1  0.8962782E-005  0.9118800E+02  0.7818608E-02  0.1130116E+00
         25   -1    0    0    0    0  0.00000000000E+00  0.00000000000E+00  0.99999998245E-14  0.12500000000E+03  0.12500000000E+03 0.  0.
        -11    1    3    3    0    0 -0.19528055371E+02 -0.11330767674E+02 -0.39197454988E+02  0.45234629660E+02  0.51100000000E-03 0. -1.
         23    2    1    0    0    0  0.23373218658E+02  0.41643102869E+01 -0.15614400169E+02  0.96584188852E+02  0.92309518539E+02 0.  0.
         11    1    3    3    0    0  0.42901274029E+02  0.15495077961E+02  0.23583054819E+02  0.51349559192E+02  0.51100000000E-03 0.  1.
         22    1    1    0    0    0 -0.23373218658E+02 -0.41643102869E+01  0.15614400169E+02  0.28415811148E+02  0.00000000000E+00 0.  1.
</event>
<event>
 5    1  0.8962782E-005  0.9118800E+02  0.7818608E-02  0.1130116E+00
         25   -1    0    0    0    0  0.00000000000E+00  0.00000000000E+00  0.99999998245E-14  0.12500000000E+03  0.12500000000E+03 0.  0.
        -11    1    3    3    0    0 -0.12963179735E+02  0.21166952698E+02 -0.54969019216E+02  0.60313157679E+02  0.51100000000E-03 0. -1.
         23    2    1    0    0    0  0.46989202489E+01  0.54116739822E+01 -0.27543300478E+02  0.96539510405E+02  0.92248997833E+02 0.  0.
         11    1    3    3    0    0  0.17662099984E+02 -0.15755278716E+02  0.27425718738E+02  0.36226352726E+02  0.51100000000E-03 0.  1.
         22    1    1    0    0    0 -0.46989202489E+01 -0.54116739822E+01  0.27543300478E+02  0.28460489595E+02  0.00000000000E+00 0. -1.
</event>
<event>
 5    1  0.8962782E-005  0.9118800E+02  0.7818608E-02  0.1130116E+00
         25   -1    0    0    0    0  0.00000000000E+00  0.00000000000E+00  0.99999998245E-14  0.12500000000E+03  0.12500000000E+03 0.  0.
        -11    1    3    3    0    0  0.52855222201E+02 -0.47590408896E+01 -0.53120884348E+01  0.53334241046E+02  0.51100000000E-03 0.  1.
         23    2    1    0    0    0  0.17940592917E+02 -0.18140766325E+02  0.14503931628E+02  0.95651809089E+02  0.91038191284E+02 0.  0.
         11    1    3    3    0    0 -0.34914629285E+02 -0.13381725435E+02  0.19816020063E+02  0.42317568043E+02  0.51100000000E-03 0. -1.
         22    1    1    0    0    0 -0.17940592917E+02  0.18140766325E+02 -0.14503931628E+02  0.29348190911E+02  0.00000000000E+00 0.  1.
</event>
<event>
 5    1  0.8962782E-005  0.9118800E+02  0.7818608E-02  0.1130116E+00
         25   -1    0    0    0    0  0.00000000000E+00  0.00000000000E+00  0.99999998245E-14  0.12500000000E+03  0.12500000000E+03 0.  0.
        -11    1    3    3    0    0 -0.22900667237E+02 -0.31730962199E+00  0.26900799712E+02  0.35329792962E+02  0.51100000000E-03 0.  1.
         23    2    1    0    0    0  0.88848990721E+01  0.23080985009E+02 -0.17474035124E+02  0.94717741101E+02  0.89746505644E+02 0.  0.
         11    1    3    3    0    0  0.31785566309E+02  0.23398294631E+02 -0.44374834836E+02  0.59387948140E+02  0.51100000000E-03 0. -1.
         22    1    1    0    0    0 -0.88848990721E+01 -0.23080985009E+02  0.17474035124E+02  0.30282258899E+02  0.00000000000E+00 0. -1.
</event>
<event>
 5    1  0.8962782E-005  0.9118800E+02  0.7818608E-02  0.1130116E+00
         25   -1    0    0    0    0  0.00000000000E+00  0.00000000000E+00  0.99999998245E-14  0.12500000000E+03  0.12500000000E+03 0.  0.
        -11    1    3    3    0    0 -0.17923018106E+02  0.25824984873E+02 -0.34755205470E+02  0.46862444764E+02  0.51100000000E-03 0.  1.
         23    2    1    0    0    0 -0.69218729192E+01  0.26819513579E+02  0.11933696467E+02  0.94840229698E+02  0.89916947370E+02 0.  0.
         11    1    3    3    0    0  0.11001145187E+02  0.99452870585E+00  0.46688901937E+02  0.47977784933E+02  0.51100000000E-03 0. -1.
         22    1    1    0    0    0  0.69218729192E+01 -0.26819513579E+02 -0.11933696467E+02  0.30159770302E+02  0.00000000000E+00 0. -1.
</event>
<event>
 5    1  0.8962782E-005  0.9118800E+02  0.7818608E-02  0.1130116E+00
         25   -1    0    0    0    0  0.00000000000E+00  0.00000000000E+00  0.99999998245E-14  0.12500000000E+03  0.12500000000E+03 0.  0.
        -11    1    3    3    0    0 -0.54954379395E+02 -0.11900747055E+02 -0.26147875969E+02  0.62010668543E+02  0.51100000000E-03 0.  1.
         23    2    1    0    0    0 -0.23897406844E+02 -0.10674296341E+02 -0.10624931180E+02  0.96752596247E+02  0.92537284711E+02 0.  0.
         11    1    3    3    0    0  0.31056972552E+02  0.12264507138E+01  0.15522944789E+02  0.34741927704E+02  0.51100000000E-03 0. -1.
         22    1    1    0    0    0  0.23897406844E+02  0.10674296341E+02  0.10624931180E+02  0.28247403753E+02  0.00000000000E+00 0.  1.
</event>
<event>
 5    1  0.8962782E-005  0.9118800E+02  0.7818608E-02  0.1130116E+00
         25   -1    0    0    0    0  0.00000000000E+00  0.00000000000E+00  0.99999998245E-14  0.12500000000E+03  0.12500000000E+03 0.  0.
        -11    1    3    3    0    0  0.51307773542E+02  0.99913059909E+01  0.30010607424E+02  0.60273961040E+02  0.51100000000E-03 0. -1.
         23    2    1    0    0    0  0.15852780301E+02  0.62472448089E+01  0.22613748297E+02  0.96685333782E+02  0.92446381463E+02 0.  0.
         11    1    3    3    0    0 -0.35454993240E+02 -0.37440611820E+01 -0.73968591271E+01  0.36411372743E+02  0.51100000000E-03 0.  1.
         22    1    1    0    0    0 -0.15852780301E+02 -0.62472448089E+01 -0.22613748297E+02  0.28314666218E+02  0.00000000000E+00 0. -1.
</event>
<event>
 5    1  0.8962782E-005  0.9118800E+02  0.7818608E-02  0.1130116E+00
         25   -1    0    0    0    0  0.00000000000E+00  0.00000000000E+00  0.99999998245E-14  0.12500000000E+03  0.12500000000E+03 0.  0.
        -11    1    3    3    0    0  0.13815932203E+02 -0.49673837603E+02 -0.98102475198E+01  0.52484388931E+02  0.51100000000E-03 0.  1.
         23    2    1    0    0    0  0.13194116936E+02 -0.10842201614E+02  0.17951403785E+02  0.10022317705E+03  0.97112276582E+02 0.  0.
         11    1    3    3    0    0 -0.62181526646E+00  0.38831635989E+02  0.27761651305E+02  0.47738788121E+02  0.51100000000E-03 0. -1.
         22    1    1    0    0    0 -0.13194116936E+02  0.10842201614E+02 -0.17951403785E+02  0.24776822948E+02  0.00000000000E+00 0.  1.
</event>
<event>
 5    1  0.8962782E-005  0.9118800E+02  0.7818608E-02  0.1130116E+00
         25   -1    0    0    0    0  0.00000000000E+00  0.00000000000E+00  0.99999998245E-14  0.12500000000E+03  0.12500000000E+03 0.  0.
        -11    1    3    3    0    0 -0.29174527911E+02 -0.15978880427E+02 -0.28199143335E+02  0.43608134375E+02  0.51100000000E-03 0.  1.
         23    2    1    0    0    0 -0.40276672387E+01 -0.21380011448E+02  0.18184099015E+02  0.96645309914E+02  0.92392247934E+02 0.  0.
         11    1    3    3    0    0  0.25146860672E+02 -0.54011310209E+01  0.46383242350E+02  0.53037175539E+02  0.51100000000E-03 0. -1.
         22    1    1    0    0    0  0.40276672387E+01  0.21380011448E+02 -0.18184099015E+02  0.28354690086E+02  0.00000000000E+00 0.  1.
</event>
<event>
 5    1  0.8962782E-005  0.9118800E+02  0.7818608E-02  0.1130116E+00
         25   -1    0    0    0    0  0.00000000000E+00  0.00000000000E+00  0.99999998245E-14  0.12500000000E+03  0.12500000000E+03 0.  0.
        -11    1    3    3    0    0 -0.32218927475E+02 -0.17802209242E+02 -0.32624830867E+02  0.49186965051E+02  0.51100000000E-03 0.  1.
         23    2    1    0    0    0  0.12540504631E+02 -0.10597812727E+02 -0.24897194897E+02  0.95176381763E+02  0.90383048414E+02 0.  0.
         11    1    3    3    0    0  0.44759432106E+02  0.72043965141E+01  0.77276359694E+01  0.45989416712E+02  0.51100000000E-03 0. -1.
         22    1    1    0    0    0 -0.12540504631E+02  0.10597812727E+02  0.24897194897E+02  0.29823618237E+02  0.00000000000E+00 0. -1.
</event>
<event>
 5    1  0.8962782E-005  0.9118800E+02  0.7818608E-02  0.1130116E+00
         25   -1    0    0    0    0  0.00000000000E+00  0.00000000000E+00  0.99999998245E-14  0.12500000000E+03  0.12500000000E+03 0.  0.
        -11    1    3    3    0    0  0.34258609461E+02  0.42904661006E+02  0.13268730505E+02  0.56484701183E+02  0.51100000000E-03 0. -1.
         23    2    1    0    0    0  0.17385937688E+02  0.14413975376E+02 -0.13169549322E+02  0.98856730411E+02  0.95337204714E+02 0.  0.
         11    1    3    3    0    0 -0.16872671773E+02 -0.28490685629E+02 -0.26438279828E+02  0.42372029228E+02  0.51100000000E-03 0.  1.
         22    1    1    0    0    0 -0.17385937688E+02 -0.14413975376E+02  0.13169549322E+02  0.26143269589E+02  0.00000000000E+00 0. -1.
</event>
<event>
 5    1  0.8962782E-005  0.9118800E+02  0.7818608E-02  0.1130116E+00
         25   -1    0    0    0    0  0.00000000000E+00  0.00000000000E+00  0.99999998245E-14  0.12500000000E+03  0.12500000000E+03 0.  0.
        -11    1    3    3    0    0 -0.23655639967E+02 -0.29954909819E+02 -0.53672257270E+01  0.38544688827E+02  0.51100000000E-03 0.  1.
         23    2    1    0    0    0  0.28122074288E+02 -0.94252403567E+01  0.41514560756E+01  0.95051363878E+02  0.90209982648E+02 0.  0.
         11    1    3    3    0    0  0.51777714255E+02  0.20529669463E+02  0.95186818026E+01  0.56506675050E+02  0.51100000000E-03 0. -1.
         22    1    1    0    0    0 -0.28122074288E+02  0.94252403567E+01 -0.41514560756E+01  0.29948636122E+02  0.00000000000E+00 0. -1.
</event>
<event>
 5    1  0.8962782E-005  0.9118800E+02  0.7818608E-02  0.1130116E+00
         25   -1    0    0    0    0  0.00000000000E+00  0.00000000000E+00  0.99999998245E-14  0.12500000000E+03  0.12500000000E+03 0.  0.
        -11    1    3    3    0    0  0.34529488622E+02  0.23773802187E+01 -0.72738374227E+01  0.35367304567E+02  0.51100000000E-03 0. -1.
         23    2    1    0    0    0 -0.25228302342E+02  0.67056119541E+01  0.88896106878E+01  0.97423603409E+02  0.93439289661E+02 0.  0.
         11    1    3    3    0    0 -0.59757790965E+02  0.43282317354E+01  0.16163448111E+02  0.62056298842E+02  0.51100000000E-03 0.  1.
         22    1    1    0    0    0  0.25228302342E+02 -0.67056119541E+01 -0.88896106878E+01  0.27576396591E+02  0.00000000000E+00 0.  1.
</event>
<event>
 5    1  0.8962782E-005  0.9118800E+02  0.7818608E-02  0.1130116E+00
         25   -1    0    0    0    0  0.00000000000E+00  0.00000000000E+00  0.99999998245E-14  0.12500000000E+03  0.12500000000E+03 0.  0.
        -11    1    3    3    0    0 -0.14263948180E+02 -0.26013683899E+02 -0.30224501387E+02  0.42352006470E+02  0.51100000000E-03 0.  1.
         23    2    1    0    0    0  0.22157982097E+02 -0.18694434119E+02  0.72463244983E+01  0.95117442272E+02  0.90301498149E+02 0.  0.
         11    1    3    3    0    0  0.36421930278E+02  0.73192497806E+01  0.37470825886E+02  0.52765435801E+02  0.51100000000E-03 0. -1.
         22    1    1    0    0    0 -0.22157982097E+02  0.18694434119E+02 -0.72463244983E+01  0.29882557728E+02  0.00000000000E+00 0. -1.
</event>
<event>
 5    1  0.8962782E-005  0.9118800E+02  0.7818608E-02  0.1130116E+00
         25   -1    0    0    0    0  0.00000000000E+00  0.00000000000E+00  0.99999998245E-14  0.12500000000E+03  0.12500000000E+03 0.  0.
        -11    1    3    3    0    0 -0.34112042667E+02 -0.23867609367E+02 -0.41006175305E+02  0.58436295615E+02  0.51100000000E-03 0.  1.
         23    2    1    0    0    0 -0.39771419358E+01 -0.62415076694E+01 -0.28555109994E+02  0.95501383375E+02  0.90831414411E+02 0.  0.
         11    1    3    3    0    0  0.30134900731E+02  0.17626101697E+02  0.12451065310E+02  0.37065087761E+02  0.51100000000E-03 0. -1.
         22    1    1    0    0    0  0.39771419358E+01  0.62415076694E+01  0.28555109994E+02  0.29498616625E+02  0.00000000000E+00 0.  1.
</event>
<event>
 5    1  0.8962782E-005  0.9118800E+02  0.7818608E-02  0.1130116E+00
         25   -1    0    0    0    0  0.00000000000E+00  0.00000000000E+00  0.99999998245E-14  0.12500000000E+03  0.12500000000E+03 0.  0.
        -11    1    3    3    0    0  0.18422830776E+02  0.11287837631E+02  0.47396144465E+02  0.52088487045E+02  0.51100000000E-03 0.  1.
         23    2    1    0    0    0  0.24651434923E+02 -0.11305747115E+02  0.10255505829E+02  0.96005370129E+02  0.91522360831E+02 0.  0.
         11    1    3    3    0    0  0.62286041464E+01 -0.22593584745E+02 -0.37140638636E+02  0.43916883084E+02  0.51100000000E-03 0. -1.
         22    1    1    0    0    0 -0.24651434923E+02  0.11305747115E+02 -0.10255505829E+02  0.28994629871E+02  0.00000000000E+00 0.  1.
</event>
<event>
 5    1  0.8962782E-005  0.9118800E+02  0.7818608E-02  0.1130116E+00
         25   -1    0    0    0    0  0.00000000000E+00  0.00000000000E+00  0.99999998245E-14  0.12500000000E+03  0.12500000000E+03 0.  0.
        -11    1    3    3    0    0 -0.33821328042E+02  0.34962397359E+02 -0.37963734573E+02  0.61704915547E+02  0.51100000000E-03 0. -1.
         23    2    1    0    0    0 -0.10304489869E+02  0.15769353087E+02 -0.22119815817E+02  0.95945890824E+02  0.91441088719E+02 0.  0.
         11    1    3    3    0    0  0.23516838174E+02 -0.19193044272E+02  0.15843918756E+02  0.34240975277E+02  0.51100000000E-03 0.  1.
         22    1    1    0    0    0  0.10304489869E+02 -0.15769353087E+02  0.22119815817E+02  0.29054109176E+02  0.00000000000E+00 0. -1.
</event>
<event>
 5    1  0.8962782E-005  0.9118800E+02  0.7818608E-02  0.1130116E+00
         25   -1    0    0    0    0  0.00000000000E+00  0.00000000000E+00  0.99999998245E-14  0.12500000000E+03  0.12500000000E+03 0.  0.
        -11    1    3    3    0    0  0.11280865747E+02 -0.23045509527E+02  0.50854900351E+02  0.56961165115E+02  0.51100000000E-03 0. -1.
         23    2    1    0    0    0  0.46044808948E+01 -0.25357890132E+02  0.11792028776E+02  0.96657879774E+02  0.92409252478E+02 0.  0.
         11    1    3    3    0    0 -0.66763848519E+01 -0.23123806048E+01 -0.39062871575E+02  0.39696714659E+02  0.51100000000E-03 0.  1.
         22    1    1    0    0    0 -0.46044808948E+01  0.25357890132E+02 -0.11792028776E+02  0.28342120226E+02  0.00000000000E+00 0. -1.
</event>
<event>
 5    1  0.8962782E-005  0.9118800E+02  0.7818608E-02  0.1130116E+00
         25   -1    0    0    0    0  0.00000000000E+00  0.00000000000E+00  0.99999998245E-14  0.12500000000E+03  0.12500000000E+03 0.  0.
        -11    1    3    3    0    0 -0.21039097838E+02  0.31317774238E+02 -0.25747705381E+02  0.45677028732E+02  0.51100000000E-03 0.  1.
         23    2    1    0    0    0 -0.13363410165E+02 -0.17144015026E+02 -0.20668744494E+02  0.95005084074E+02  0.90145831953E+02 0.  0.
         11    1    3    3    0    0  0.76756876729E+01 -0.48461789264E+02  0.50789608868E+01  0.49328055342E+02  0.51100000000E-03 0. -1.
         22    1    1    0    0    0  0.13363410165E+02  0.17144015026E+02  0.20668744494E+02  0.29994915926E+02  0.00000000000E+00 0.  1.
</event>
<event>
 5    1  0.8962782E-005  0.9118800E+02  0.7818608E-02  0.1130116E+00
         25   -1    0    0    0    0  0.00000000000E+00  0.00000000000E+00  0.99999998245E-14  0.12500000000E+03  0.12500000000E+03 0.  0.
        -11    1    3    3    0    0 -0.51592550923E+02  0.35572638439E+01  0.18189419847E+02  0.54820620495E+02  0.51100000000E-03 0.  1.
         23    2    1    0    0    0 -0.26984022590E+02 -0.16194705183E+02 -0.38274401708E+01  0.93297393650E+02  0.87745931031E+02 0.  0.
         11    1    3    3    0    0  0.24608528333E+02 -0.19751969027E+02 -0.22016860017E+02  0.38476773155E+02  0.51100000000E-03 0. -1.
         22    1    1    0    0    0  0.26984022590E+02  0.16194705183E+02  0.38274401708E+01  0.31702606350E+02  0.00000000000E+00 0. -1.
</event>
<event>
 5    1  0.8962782E-005  0.9118800E+02  0.7818608E-02  0.1130116E+00
         25   -1    0    0    0    0  0.00000000000E+00  0.00000000000E+00  0.99999998245E-14  0.12500000000E+03  0.12500000000E+03 0.  0.
        -11    1    3    3    0    0  0.29096231722E+02  0.26760382584E+02 -0.55912548054E+01  0.39924565208E+02  0.51100000000E-03 0.  1.
         23    2    1    0    0    0  0.19184281700E+01 -0.20321971099E+02 -0.20268179227E+02  0.96234361381E+02  0.91834581423E+02 0.  0.
         11    1    3    3    0    0 -0.27177803552E+02 -0.47082353683E+02 -0.14676924422E+02  0.56309796173E+02  0.51100000000E-03 0. -1.
         22    1    1    0    0    0 -0.19184281700E+01  0.20321971099E+02  0.20268179227E+02  0.28765638619E+02  0.00000000000E+00 0. -1.
</event>
<event>
 5    1  0.8962782E-005  0.9118800E+02  0.7818608E-02  0.1130116E+00
         25   -1    0    0    0    0  0.00000000000E+00  0.00000000000E+00  0.99999998245E-14  0.12500000000E+03  0.12500000000E+03 0.  0.
        -11    1    3    3    0    0  0.16287104905E+02  0.31893161644E+02  0.32994757570E+02  0.48693917209E+02  0.51100000000E-03 0.  1.
         23    2    1    0    0    0  0.29526437740E+02 -0.83881905298E+00  0.24856775792E+01  0.95357248170E+02  0.90632841965E+02 0.  0.
         11    1    3    3    0    0  0.13239332835E+02 -0.32731980696E+02 -0.30509079991E+02  0.46663330961E+02  0.51100000000E-03 0. -1.
         22    1    1    0    0    0 -0.29526437740E+02  0.83881905298E+00 -0.24856775792E+01  0.29642751830E+02  0.00000000000E+00 0.  1.
</event>
<event>
 5    1  0.8962782E-005  0.9118800E+02  0.7818608E-02  0.1130116E+00
         25   -1    0    0    0    0  0.00000000000E+00  0.00000000000E+00  0.99999998245E-14  0.12500000000E+03  0.12500000000E+03 0.  0.
        -11    1    3    3    0    0 -0.24630691750E+02 -0.22176194237E+02 -0.23999099227E+02  0.40919571489E+02  0.51100000000E-03 0. -1.
         23    2    1    0    0    0  0.23739755059E+01  0.11552074118E+02  0.19487626177E+02  0.10222163855E+03  0.99651440725E+02 0.  0.
         11    1    3    3    0    0  0.27004667256E+02  0.33728268354E+02  0.43486725404E+02  0.61302067065E+02  0.51100000000E-03 0.  1.
         22    1    1    0    0    0 -0.23739755059E+01 -0.11552074118E+02 -0.19487626177E+02  0.22778361446E+02  0.00000000000E+00 0.  1.
</event>
<event>
 5    1  0.8962782E-005  0.9118800E+02  0.7818608E-02  0.1130116E+00
         25   -1    0    0    0    0  0.00000000000E+00  0.00000000000E+00  0.99999998245E-14  0.12500000000E+03  0.12500000000E+03 0.  0.
        -11    1    3    3    0    0 -0.25345913220E+02 -0.33814538800E+02 -0.18713376146E+02  0.46217191588E+02  0.51100000000E-03 0. -1.
         23    2    1    0    0    0  0.20157058631E+02 -0.20391289156E+02 -0.31076245324E+01  0.96159594033E+02  0.91732755918E+02 0.  0.
         11    1    3    3    0    0  0.45502971851E+02  0.13423249644E+02  0.15605751613E+02  0.49942402445E+02  0.51100000000E-03 0.  1.
         22    1    1    0    0    0 -0.20157058631E+02  0.20391289156E+02  0.31076245324E+01  0.28840405967E+02  0.00000000000E+00 0.  1.
</event>
<event>
 5    1  0.8962782E-005  0.9118800E+02  0.7818608E-02  0.1130116E+00
         25   -1    0    0    0    0  0.00000000000E+00  0.00000000000E+00  0.99999998245E-14  0.12500000000E+03  0.12500000000E+03 0.  0.
        -11    1    3    3    0    0  0.42599925199E+02  0.42567312024E+02  0.96728924292E+01  0.60994217170E+02  0.51100000000E-03 0.  1.
         23    2    1    0    0    0  0.24462221887E+02  0.15701169612E+02 -0.29549671818E+01  0.95782559012E+02  0.91217540818E+02 0.  0.
         11    1    3    3    0    0 -0.18137703312E+02 -0.26866142412E+02 -0.12627859611E+02  0.34788341842E+02  0.51100000000E-03 0. -1.
         22    1    1    0    0    0 -0.24462221887E+02 -0.15701169612E+02  0.29549671818E+01  0.29217440988E+02  0.00000000000E+00 0.  1.
</event>
<event>
 5    1  0.8962782E-005  0.9118800E+02  0.7818608E-02  0.1130116E+00
         25   -1    0    0    0    0  0.00000000000E+00  0.00000000000E+00  0.99999998245E-14  0.12500000000E+03  0.12500000000E+03 0.  0.
        -11    1    3    3    0    0 -0.75759550233E+01  0.41459673383E+02 -0.90754000294E+01  0.43112208218E+02  0.51100000000E-03 0.  1.
         23    2    1    0    0    0 -0.70553353526E+01  0.98699535699E+01  0.29575433657E+02  0.93032829084E+02  0.87368228041E+02 0.  0.
         11    1    3    3    0    0  0.52061967073E+00 -0.31589719813E+02  0.38650833686E+02  0.49920620865E+02  0.51100000000E-03 0. -1.
         22    1    1    0    0    0  0.70553353526E+01 -0.98699535699E+01 -0.29575433657E+02  0.31967170916E+02  0.00000000000E+00 0.  1.
</event>
<event>
 5    1  0.8962782E-005  0.9118800E+02  0.7818608E-02  0.1130116E+00
         25   -1    0    0    0    0  0.00000000000E+00  0.00000000000E+00  0.99999998245E-14  0.12500000000E+03  0.12500000000E+03 0.  0.
        -11    1    3    3    0    0 -0.10687283419E+02  0.26011420063E+02  0.29797832053E+02  0.40972219807E+02  0.51100000000E-03 0.  1.
         23    2    1    0    0    0  0.21670487111E+02  0.13570419847E+02 -0.13216393774E+02  0.96217377277E+02  0.91811460718E+02 0.  0.
         11    1    3    3    0    0  0.32357770530E+02 -0.12441000216E+02 -0.43014225827E+02  0.55245157470E+02  0.51100000000E-03 0. -1.
         22    1    1    0    0    0 -0.21670487111E+02 -0.13570419847E+02  0.13216393774E+02  0.28782622723E+02  0.00000000000E+00 0. -1.
</event>
<event>
 5    1  0.8962782E-005  0.9118800E+02  0.7818608E-02  0.1130116E+00
         25   -1    0    0    0    0  0.00000000000E+00  0.00000000000E+00  0.99999998245E-14  0.12500000000E+03  0.12500000000E+03 0.  0.
        -11    1    3    3    0    0  0.26936393576E+02  0.17709091807E+02 -0.20699392857E+02  0.38309869439E+02  0.51100000000E-03 0. -1.
         23    2    1    0    0    0  0.18547923379E+02  0.84620309921E+01  0.28998632864E+02  0.89552120822E+02  0.82237644699E+02 0.  0.
         11    1    3    3    0    0 -0.83884701966E+01 -0.92470608153E+01  0.49698025722E+02  0.51242251384E+02  0.51100000000E-03 0.  1.
         22    1    1    0    0    0 -0.18547923379E+02 -0.84620309921E+01 -0.28998632864E+02  0.35447879178E+02  0.00000000000E+00 0.  1.
</event>
<event>
 5    1  0.8962782E-005  0.9118800E+02  0.7818608E-02  0.1130116E+00
         25   -1    0    0    0    0  0.00000000000E+00  0.00000000000E+00  0.99999998245E-14  0.12500000000E+03  0.12500000000E+03 0.  0.
        -11    1    3    3    0    0 -0.26560653089E+02 -0.41113193999E+02  0.38441907688E+02  0.62237796235E+02  0.51100000000E-03 0. -1.
         23    2    1    0    0    0 -0.93292308027E+01 -0.18270392990E+02  0.20427927647E+02  0.96049317187E+02  0.91582363459E+02 0.  0.
         11    1    3    3    0    0  0.17231422286E+02  0.22842801008E+02 -0.18013980041E+02  0.33811520952E+02  0.51100000000E-03 0.  1.
         22    1    1    0    0    0  0.93292308027E+01  0.18270392990E+02 -0.20427927647E+02  0.28950682813E+02  0.00000000000E+00 0. -1.
</event>
<event>
 5    1  0.8962782E-005  0.9118800E+02  0.7818608E-02  0.1130116E+00
         25   -1    0    0    0    0  0.00000000000E+00  0.00000000000E+00  0.99999998245E-14  0.12500000000E+03  0.12500000000E+03 0.  0.
        -11    1    3    3    0    0 -0.13417807090E+02 -0.25086361917E+02  0.43343315698E+02  0.51845984582E+02  0.51100000000E-03 0. -1.
         23    2    1    0    0    0  0.94428387212E+01 -0.27068524999E+02  0.59465506954E+01  0.95721446178E+02  0.91133756339E+02 0.  0.
         11    1    3    3    0    0  0.22860645811E+02 -0.19821630823E+01 -0.37396765003E+02  0.43875461596E+02  0.51100000000E-03 0.  1.
         22    1    1    0    0    0 -0.94428387212E+01  0.27068524999E+02 -0.59465506954E+01  0.29278553822E+02  0.00000000000E+00 0. -1.
</event>
<event>
 5    1  0.8962782E-005  0.9118800E+02  0.7818608E-02  0.1130116E+00
         25   -1    0    0    0    0  0.00000000000E+00  0.00000000000E+00  0.99999998245E-14  0.12500000000E+03  0.12500000000E+03 0.  0.
        -11    1    3    3    0    0 -0.17458009504E+02 -0.15482145334E+02  0.27467923289E+02  0.36041167158E+02  0.51100000000E-03 0.  1.
         23    2    1    0    0    0 -0.10367449853E+02  0.26134107457E+02 -0.12550606655E+02  0.94210499900E+02  0.89037211181E+02 0.  0.
         11    1    3    3    0    0  0.70905596516E+01  0.41616252791E+02 -0.40018529944E+02  0.58169332742E+02  0.51100000000E-03 0. -1.
         22    1    1    0    0    0  0.10367449853E+02 -0.26134107457E+02  0.12550606655E+02  0.30789500100E+02  0.00000000000E+00 0. -1.
</event>
<event>
 5    1  0.8962782E-005  0.9118800E+02  0.7818608E-02  0.1130116E+00
         25   -1    0    0    0    0  0.00000000000E+00  0.00000000000E+00  0.99999998245E-14  0.12500000000E+03  0.12500000000E+03 0.  0.
        -11    1    3    3    0    0  0.19311459438E+01  0.36373371802E+02 -0.30779754728E+01  0.36554417437E+02  0.51100000000E-03 0.  1.
         23    2    1    0    0    0  0.34193308065E+02  0.92575667914E+01 -0.22579208719E+02  0.82991601724E+02  0.71574439788E+02 0.  0.
         11    1    3    3    0    0  0.32262162121E+02 -0.27115805010E+02 -0.19501233246E+02  0.46437184287E+02  0.51100000000E-03 0. -1.
         22    1    1    0    0    0 -0.34193308065E+02 -0.92575667914E+01  0.22579208719E+02  0.42008398276E+02  0.00000000000E+00 0. -1.
</event>
<event>
 5    1  0.8962782E-005  0.9118800E+02  0.7818608E-02  0.1130116E+00
         25   -1    0    0    0    0  0.00000000000E+00  0.00000000000E+00  0.99999998245E-14  0.12500000000E+03  0.12500000000E+03 0.  0.
        -11    1    3    3    0    0 -0.28098091162E+02  0.19944444543E+02  0.21351180654E+01  0.34523069454E+02  0.51100000000E-03 0. -1.
         23    2    1    0    0    0  0.12540889784E+02 -0.25603053722E+02  0.66287241548E+01  0.95730045090E+02  0.91145549933E+02 0.  0.
         11    1    3    3    0    0  0.40638980947E+02 -0.45547498265E+02  0.44936060895E+01  0.61206975637E+02  0.51100000000E-03 0.  1.
         22    1    1    0    0    0 -0.12540889784E+02  0.25603053722E+02 -0.66287241548E+01  0.29269954910E+02  0.00000000000E+00 0.  1.
</event>
<event>
 5    1  0.8962782E-005  0.9118800E+02  0.7818608E-02  0.1130116E+00
         25   -1    0    0    0    0  0.00000000000E+00  0.00000000000E+00  0.99999998245E-14  0.12500000000E+03  0.12500000000E+03 0.  0.
        -11    1    3    3    0    0  0.87556886401E+01  0.55000902940E+02 -0.80297141853E+00  0.55699247492E+02  0.51100000000E-03 0.  1.
         23    2    1    0    0    0 -0.13565100192E+02  0.28209383497E+02  0.98902879623E+01  0.92173196066E+02  0.86129547872E+02 0.  0.
         11    1    3    3    0    0 -0.22320788832E+02 -0.26791519443E+02  0.10693259381E+02  0.36473948574E+02  0.51100000000E-03 0. -1.
         22    1    1    0    0    0  0.13565100192E+02 -0.28209383497E+02 -0.98902879623E+01  0.32826803934E+02  0.00000000000E+00 0. -1.
</event>
<event>
 5    1  0.8962782E-005  0.9118800E+02  0.7818608E-02  0.1130116E+00
         25   -1    0    0    0    0  0.00000000000E+00  0.00000000000E+00  0.99999998245E-14  0.12500000000E+03  0.12500000000E+03 0.  0.
        -11    1    3    3    0    0  0.99540353285E+01 -0.27245189962E+01  0.35515357033E+02  0.36984407640E+02  0.51100000000E-03 0.  1.
         23    2    1    0    0    0 -0.13450712771E+02 -0.20543916413E+02 -0.15563214472E+02  0.95927885864E+02  0.91416472618E+02 0.  0.
         11    1    3    3    0    0 -0.23404748099E+02 -0.17819397417E+02 -0.51078571505E+02  0.58943478224E+02  0.51100000000E-03 0. -1.
         22    1    1    0    0    0  0.13450712771E+02  0.20543916413E+02  0.15563214472E+02  0.29072114136E+02  0.00000000000E+00 0. -1.
</event>
<event>
 5    1  0.8962782E-005  0.9118800E+02  0.7818608E-02  0.1130116E+00
         25   -1    0    0    0    0  0.00000000000E+00  0.00000000000E+00  0.99999998245E-14  0.12500000000E+03  0.12500000000E+03 0.  0.
        -11    1    3    3    0    0  0.77588558353E+01  0.34922860770E+02  0.14632987888E+02  0.38651395615E+02  0.51100000000E-03 0. -1.
         23    2    1    0    0    0  0.20115265694E+02 -0.42557159055E+01 -0.22849135414E+02  0.94262107734E+02  0.89109634347E+02 0.  0.
         11    1    3    3    0    0  0.12356409859E+02 -0.39178576675E+02 -0.37482123301E+02  0.55610712119E+02  0.51100000000E-03 0.  1.
         22    1    1    0    0    0 -0.20115265694E+02  0.42557159055E+01  0.22849135414E+02  0.30737892266E+02  0.00000000000E+00 0.  1.
</event>
<event>
 5    1  0.8962782E-005  0.9118800E+02  0.7818608E-02  0.1130116E+00
         25   -1    0    0    0    0  0.00000000000E+00  0.00000000000E+00  0.99999998245E-14  0.12500000000E+03  0.12500000000E+03 0.  0.
        -11    1    3    3    0    0  0.19485873075E+02 -0.51738003892E+02 -0.84176311083E+01  0.55922954231E+02  0.51100000000E-03 0. -1.
         23    2    1    0    0    0  0.15619241484E+01 -0.25606644017E+02  0.14961378911E+02  0.95301806725E+02  0.90556345340E+02 0.  0.
         11    1    3    3    0    0 -0.17923948926E+02  0.26131359875E+02  0.23379010019E+02  0.39378852494E+02  0.51100000000E-03 0.  1.
         22    1    1    0    0    0 -0.15619241484E+01  0.25606644017E+02 -0.14961378911E+02  0.29698193275E+02  0.00000000000E+00 0. -1.
</event>
<event>
 5    1  0.8962782E-005  0.9118800E+02  0.7818608E-02  0.1130116E+00
         25   -1    0    0    0    0  0.00000000000E+00  0.00000000000E+00  0.99999998245E-14  0.12500000000E+03  0.12500000000E+03 0.  0.
        -11    1    3    3    0    0 -0.25291403534E+02 -0.23167975233E+02 -0.30396225342E+02  0.45829473971E+02  0.51100000000E-03 0. -1.
         23    2    1    0    0    0 -0.26779460660E+02 -0.22735759640E+00  0.13220803903E+02  0.95133951374E+02  0.90324348010E+02 0.  0.
         11    1    3    3    0    0 -0.14880571257E+01  0.22940617637E+02  0.43617029245E+02  0.49304477403E+02  0.51100000000E-03 0.  1.
         22    1    1    0    0    0  0.26779460660E+02  0.22735759640E+00 -0.13220803903E+02  0.29866048626E+02  0.00000000000E+00 0.  1.
</event>
<event>
 5    1  0.8962782E-005  0.9118800E+02  0.7818608E-02  0.1130116E+00
         25   -1    0    0    0    0  0.00000000000E+00  0.00000000000E+00  0.99999998245E-14  0.12500000000E+03  0.12500000000E+03 0.  0.
        -11    1    3    3    0    0  0.11804207872E+02 -0.40228457696E+02 -0.44135582067E+01  0.42156228821E+02  0.51100000000E-03 0.  1.
         23    2    1    0    0    0 -0.26474954368E+02 -0.72989947153E+01  0.11685515475E+02  0.95154568112E+02  0.90352875041E+02 0.  0.
         11    1    3    3    0    0 -0.38279162239E+02  0.32929462981E+02  0.16099073682E+02  0.52998339291E+02  0.51100000000E-03 0. -1.
         22    1    1    0    0    0  0.26474954368E+02  0.72989947153E+01 -0.11685515475E+02  0.29845431888E+02  0.00000000000E+00 0. -1.
</event>
<event>
 5    1  0.8962782E-005  0.9118800E+02  0.7818608E-02  0.1130116E+00
         25   -1    0    0    0    0  0.00000000000E+00  0.00000000000E+00  0.99999998245E-14  0.12500000000E+03  0.12500000000E+03 0.  0.
        -11    1    3    3    0    0  0.46381579168E+02 -0.76564572848E+01 -0.18196236724E+02  0.50408087202E+02  0.51100000000E-03 0. -1.
         23    2    1    0    0    0  0.20098114365E+02 -0.89722244055E+01  0.18966772903E+02  0.95945336240E+02  0.91440330599E+02 0.  0.
         11    1    3    3    0    0 -0.26283464802E+02 -0.13157671208E+01  0.37163009627E+02  0.45537249038E+02  0.51100000000E-03 0.  1.
         22    1    1    0    0    0 -0.20098114365E+02  0.89722244055E+01 -0.18966772903E+02  0.29054663760E+02  0.00000000000E+00 0. -1.
</event>
<event>
 5    1  0.8962782E-005  0.9118800E+02  0.7818608E-02  0.1130116E+00
         25   -1    0    0    0    0  0.00000000000E+00  0.00000000000E+00  0.99999998245E-14  0.12500000000E+03  0.12500000000E+03 0.  0.
        -11    1    3    3    0    0  0.12095131001E+02  0.77453825161E+01 -0.35832051070E+02  0.38603355144E+02  0.51100000000E-03 0. -1.
         23    2    1    0    0    0 -0.81184680693E+01  0.24297356179E+02  0.14681695420E+02  0.95473347269E+02  0.90792823600E+02 0.  0.
         11    1    3    3    0    0 -0.20213599071E+02  0.16551973663E+02  0.50513746490E+02  0.56869992125E+02  0.51100000000E-03 0.  1.
         22    1    1    0    0    0  0.81184680693E+01 -0.24297356179E+02 -0.14681695420E+02  0.29526652731E+02  0.00000000000E+00 0.  1.
</event>
<event>
 5    1  0.8962782E-005  0.9118800E+02  0.7818608E-02  0.1130116E+00
         25   -1    0    0    0    0  0.00000000000E+00  0.00000000000E+00  0.99999998245E-14  0.12500000000E+03  0.12500000000E+03 0.  0.
        -11    1    3    3    0    0 -0.96154098428E+01  0.53966690990E+02  0.19467302242E+02  0.58170746082E+02  0.51100000000E-03 0. -1.
         23    2    1    0    0    0 -0.19722058730E+02  0.19963194239E+02  0.49280818751E+01  0.96508339540E+02  0.92206750756E+02 0.  0.
         11    1    3    3    0    0 -0.10106648887E+02 -0.34003496751E+02 -0.14539220367E+02  0.38337593458E+02  0.51100000000E-03 0.  1.
         22    1    1    0    0    0  0.19722058730E+02 -0.19963194239E+02 -0.49280818751E+01  0.28491660460E+02  0.00000000000E+00 0. -1.
</event>
<event>
 5    1  0.8962782E-005  0.9118800E+02  0.7818608E-02  0.1130116E+00
         25   -1    0    0    0    0  0.00000000000E+00  0.00000000000E+00  0.99999998245E-14  0.12500000000E+03  0.12500000000E+03 0.  0.
        -11    1    3    3    0    0 -0.20025176967E+02  0.89847741038E+01  0.26343666140E+02  0.34288811939E+02  0.51100000000E-03 0. -1.
         23    2    1    0    0    0  0.12924407096E+02  0.12280850670E+02 -0.24338639531E+02  0.94829998903E+02  0.89902723684E+02 0.  0.
         11    1    3    3    0    0  0.32949584063E+02  0.32960765661E+01 -0.50682305671E+02  0.60541186964E+02  0.51100000000E-03 0.  1.
         22    1    1    0    0    0 -0.12924407096E+02 -0.12280850670E+02  0.24338639531E+02  0.30170001097E+02  0.00000000000E+00 0.  1.
</event>
<event>
 5    1  0.8962782E-005  0.9118800E+02  0.7818608E-02  0.1130116E+00
         25   -1    0    0    0    0  0.00000000000E+00  0.00000000000E+00  0.99999998245E-14  0.12500000000E+03  0.12500000000E+03 0.  0.
        -11    1    3    3    0    0  0.40743041485E+01 -0.44967245427E+02  0.43093929358E+02  0.62415862273E+02  0.51100000000E-03 0.  1.
         23    2    1    0    0    0  0.40160487841E+01 -0.20134134132E+02  0.20426272762E+02  0.96038911899E+02  0.91568160267E+02 0.  0.
         11    1    3    3    0    0 -0.58255364477E-01  0.24833111295E+02 -0.22667656596E+02  0.33623049625E+02  0.51100000000E-03 0. -1.
         22    1    1    0    0    0 -0.40160487841E+01  0.20134134132E+02 -0.20426272762E+02  0.28961088101E+02  0.00000000000E+00 0.  1.
</event>
<event>
 5    1  0.8962782E-005  0.9118800E+02  0.7818608E-02  0.1130116E+00
         25   -1    0    0    0    0  0.00000000000E+00  0.00000000000E+00  0.99999998245E-14  0.12500000000E+03  0.12500000000E+03 0.  0.
        -11    1    3    3    0    0  0.11364962611E+02 -0.44057601865E+02  0.37170763235E+02  0.58752874797E+02  0.51100000000E-03 0.  1.
         23    2    1    0    0    0 -0.97828487278E+01 -0.22607107755E+02  0.14937687061E+02  0.96191668826E+02  0.91776452353E+02 0.  0.
         11    1    3    3    0    0 -0.21147811339E+02  0.21450494109E+02 -0.22233076174E+02  0.37438794029E+02  0.51100000000E-03 0. -1.
         22    1    1    0    0    0  0.97828487278E+01  0.22607107755E+02 -0.14937687061E+02  0.28808331174E+02  0.00000000000E+00 0.  1.
</event>
<event>
 5    1  0.8962782E-005  0.9118800E+02  0.7818608E-02  0.1130116E+00
         25   -1    0    0    0    0  0.00000000000E+00  0.00000000000E+00  0.99999998245E-14  0.12500000000E+03  0.12500000000E+03 0.  0.
        -11    1    3    3    0    0 -0.83387571103E+00  0.25361517047E+02 -0.38923949993E+02  0.46464779984E+02  0.51100000000E-03 0.  1.
         23    2    1    0    0    0  0.24600398133E+02  0.15574692389E+02  0.22020500152E+01  0.95800690838E+02  0.91242384391E+02 0.  0.
         11    1    3    3    0    0  0.25434273844E+02 -0.97868246580E+01  0.41126000008E+02  0.49335910854E+02  0.51100000000E-03 0. -1.
         22    1    1    0    0    0 -0.24600398133E+02 -0.15574692389E+02 -0.22020500152E+01  0.29199309162E+02  0.00000000000E+00 0. -1.
</event>
<event>
 5    1  0.8962782E-005  0.9118800E+02  0.7818608E-02  0.1130116E+00
         25   -1    0    0    0    0  0.00000000000E+00  0.00000000000E+00  0.99999998245E-14  0.12500000000E+03  0.12500000000E+03 0.  0.
        -11    1    3    3    0    0  0.49989900852E+02  0.28584060611E+02  0.40756072351E+01  0.57729102563E+02  0.51100000000E-03 0.  1.
         23    2    1    0    0    0  0.31190253264E+02 -0.10241139406E+01  0.73035152391E+01  0.92949695120E+02  0.87249205040E+02 0.  0.
         11    1    3    3    0    0 -0.18799647588E+02 -0.29608174552E+02  0.32279080040E+01  0.35220592557E+02  0.51100000000E-03 0. -1.
         22    1    1    0    0    0 -0.31190253264E+02  0.10241139406E+01 -0.73035152391E+01  0.32050304880E+02  0.00000000000E+00 0.  1.
</event>
<event>
 5    1  0.8962782E-005  0.9118800E+02  0.7818608E-02  0.1130116E+00
         25   -1    0    0    0    0  0.00000000000E+00  0.00000000000E+00  0.99999998245E-14  0.12500000000E+03  0.12500000000E+03 0.  0.
        -11    1    3    3    0    0 -0.21951754669E+02  0.50961550762E+02 -0.12709307949E+02  0.56925264145E+02  0.51100000000E-03 0.  1.
         23    2    1    0    0    0 -0.15491974756E+02  0.22527549200E+02  0.11996986991E+02  0.95143351634E+02  0.90337356107E+02 0.  0.
         11    1    3    3    0    0  0.64597799125E+01 -0.28434001562E+02  0.24706294941E+02  0.38218087489E+02  0.51100000000E-03 0. -1.
         22    1    1    0    0    0  0.15491974756E+02 -0.22527549200E+02 -0.11996986991E+02  0.29856648366E+02  0.00000000000E+00 0.  1.
</event>
<event>
 5    1  0.8962782E-005  0.9118800E+02  0.7818608E-02  0.1130116E+00
         25   -1    0    0    0    0  0.00000000000E+00  0.00000000000E+00  0.99999998245E-14  0.12500000000E+03  0.12500000000E+03 0.  0.
        -11    1    3    3    0    0  0.48123573123E+02  0.91707754105E+01 -0.20839777790E+01  0.49033910464E+02  0.51100000000E-03 0.  1.
         23    2    1    0    0    0  0.69038351610E+01  0.61788902926E+01  0.24927502106E+02  0.98406354398E+02  0.94744860544E+02 0.  0.
         11    1    3    3    0    0 -0.41219737962E+02 -0.29918851179E+01  0.27011479885E+02  0.49372443934E+02  0.51100000000E-03 0. -1.
         22    1    1    0    0    0 -0.69038351610E+01 -0.61788902926E+01 -0.24927502106E+02  0.26593645602E+02  0.00000000000E+00 0.  1.
</event>
<event>
 5    1  0.8962782E-005  0.9118800E+02  0.7818608E-02  0.1130116E+00
         25   -1    0    0    0    0  0.00000000000E+00  0.00000000000E+00  0.99999998245E-14  0.12500000000E+03  0.12500000000E+03 0.  0.
        -11    1    3    3    0    0 -0.20103389774E+02  0.23785766539E+02 -0.23777676877E+02  0.39182737119E+02  0.51100000000E-03 0.  1.
         23    2    1    0    0    0  0.26024973394E+02 -0.64739269271E+01 -0.12127969004E+02  0.95567049041E+02  0.90921737006E+02 0.  0.
         11    1    3    3    0    0  0.46128363167E+02 -0.30259693466E+02  0.11649707873E+02  0.56384311922E+02  0.51100000000E-03 0. -1.
         22    1    1    0    0    0 -0.26024973394E+02  0.64739269271E+01  0.12127969004E+02  0.29432950959E+02  0.00000000000E+00 0. -1.
</event>
<event>
 5    1  0.8962782E-005  0.9118800E+02  0.7818608E-02  0.1130116E+00
         25   -1    0    0    0    0  0.00000000000E+00  0.00000000000E+00  0.99999998245E-14  0.12500000000E+03  0.12500000000E+03 0.  0.
        -11    1    3    3    0    0  0.91943820128E+01 -0.18802180013E+02 -0.35408615545E+02  0.41131845192E+02  0.51100000000E-03 0.  1.
         23    2    1    0    0    0 -0.18844743241E+01  0.27387631171E+02 -0.63247138988E+01  0.96828461338E+02  0.92639707116E+02 0.  0.
         11    1    3    3    0    0 -0.11078856337E+02  0.46189811184E+02  0.29083901646E+02  0.55696616147E+02  0.51100000000E-03 0. -1.
         22    1    1    0    0    0  0.18844743241E+01 -0.27387631171E+02  0.63247138988E+01  0.28171538662E+02  0.00000000000E+00 0. -1.
</event>
<event>
 5    1  0.8962782E-005  0.9118800E+02  0.7818608E-02  0.1130116E+00
         25   -1    0    0    0    0  0.00000000000E+00  0.00000000000E+00  0.99999998245E-14  0.12500000000E+03  0.12500000000E+03 0.  0.
        -11    1    3    3    0    0  0.16121342334E+02  0.30215859855E+02  0.17972987813E+01  0.34294695634E+02  0.51100000000E-03 0.  1.
         23    2    1    0    0    0 -0.37290178349E+01 -0.27452392421E+02 -0.82218799552E+01  0.96101233008E+02  0.91653195536E+02 0.  0.
         11    1    3    3    0    0 -0.19850360169E+02 -0.57668252276E+02 -0.10019178737E+02  0.61806537375E+02  0.51100000000E-03 0. -1.
         22    1    1    0    0    0  0.37290178349E+01  0.27452392421E+02  0.82218799552E+01  0.28898766992E+02  0.00000000000E+00 0. -1.
</event>
<event>
 5    1  0.8962782E-005  0.9118800E+02  0.7818608E-02  0.1130116E+00
         25   -1    0    0    0    0  0.00000000000E+00  0.00000000000E+00  0.99999998245E-14  0.12500000000E+03  0.12500000000E+03 0.  0.
        -11    1    3    3    0    0 -0.21058555873E+02 -0.24686206166E+02  0.31677594675E+02  0.45346902375E+02  0.51100000000E-03 0. -1.
         23    2    1    0    0    0 -0.29954744152E+02  0.61273399257E+01  0.36066226816E+02  0.77717828851E+02  0.61680282204E+02 0.  0.
         11    1    3    3    0    0 -0.88961882787E+01  0.30813546091E+02  0.43886321416E+01  0.32370926477E+02  0.51100000000E-03 0.  1.
         22    1    1    0    0    0  0.29954744152E+02 -0.61273399257E+01 -0.36066226816E+02  0.47282171149E+02  0.00000000000E+00 0. -1.
</event>
<event>
 5    1  0.8962782E-005  0.9118800E+02  0.7818608E-02  0.1130116E+00
         25   -1    0    0    0    0  0.00000000000E+00  0.00000000000E+00  0.99999998245E-14  0.12500000000E+03  0.12500000000E+03 0.  0.
        -11    1    3    3    0    0  0.17144059966E+02 -0.17341395478E+02 -0.20196793816E+02  0.31663121608E+02  0.51100000000E-03 0. -1.
         23    2    1    0    0    0  0.40543806180E+01 -0.54188239545E+00  0.34447287304E+02  0.90310704226E+02  0.83382708378E+02 0.  0.
         11    1    3    3    0    0 -0.13089679348E+02  0.16799513083E+02  0.54644081120E+02  0.58647582618E+02  0.51100000000E-03 0.  1.
         22    1    1    0    0    0 -0.40543806180E+01  0.54188239545E+00 -0.34447287304E+02  0.34689295774E+02  0.00000000000E+00 0.  1.
</event>
<event>
 5    1  0.8962782E-005  0.9118800E+02  0.7818608E-02  0.1130116E+00
         25   -1    0    0    0    0  0.00000000000E+00  0.00000000000E+00  0.99999998245E-14  0.12500000000E+03  0.12500000000E+03 0.  0.
        -11    1    3    3    0    0  0.40438219782E+02 -0.21468261753E+02 -0.12907077537E+01  0.45801766435E+02  0.51100000000E-03 0.  1.
         23    2    1    0    0    0  0.54560043921E+00 -0.22685630706E+02  0.23134769406E+02  0.92593934582E+02  0.86738017303E+02 0.  0.
         11    1    3    3    0    0 -0.39892619343E+02 -0.12173689538E+01  0.24425477160E+02  0.46792168147E+02  0.51100000000E-03 0. -1.
         22    1    1    0    0    0 -0.54560043921E+00  0.22685630706E+02 -0.23134769406E+02  0.32406065418E+02  0.00000000000E+00 0.  1.
</event>
<event>
 5    1  0.8962782E-005  0.9118800E+02  0.7818608E-02  0.1130116E+00
         25   -1    0    0    0    0  0.00000000000E+00  0.00000000000E+00  0.99999998245E-14  0.12500000000E+03  0.12500000000E+03 0.  0.
        -11    1    3    3    0    0  0.12656415970E+02 -0.78285072638E+01 -0.57702578128E+02  0.59590753595E+02  0.51100000000E-03 0.  1.
         23    2    1    0    0    0 -0.79329392960E+00 -0.15144341663E+02 -0.23966925582E+02  0.96638160823E+02  0.92382575227E+02 0.  0.
         11    1    3    3    0    0 -0.13449709900E+02 -0.73158343996E+01  0.33735652546E+02  0.37047407228E+02  0.51100000000E-03 0. -1.
         22    1    1    0    0    0  0.79329392960E+00  0.15144341663E+02  0.23966925582E+02  0.28361839177E+02  0.00000000000E+00 0.  1.
</event>
<event>
 5    1  0.8962782E-005  0.9118800E+02  0.7818608E-02  0.1130116E+00
         25   -1    0    0    0    0  0.00000000000E+00  0.00000000000E+00  0.99999998245E-14  0.12500000000E+03  0.12500000000E+03 0.  0.
        -11    1    3    3    0    0 -0.17312010914E+02  0.45579687003E+01 -0.47217290885E+02  0.50497062878E+02  0.51100000000E-03 0. -1.
         23    2    1    0    0    0  0.98971894215E+01  0.22781621300E+02 -0.18942225962E+02  0.93762769779E+02  0.88406404999E+02 0.  0.
         11    1    3    3    0    0  0.27209200335E+02  0.18223652600E+02  0.28275064923E+02  0.43265706901E+02  0.51100000000E-03 0.  1.
         22    1    1    0    0    0 -0.98971894215E+01 -0.22781621300E+02  0.18942225962E+02  0.31237230221E+02  0.00000000000E+00 0.  1.
</event>
<event>
 5    1  0.8962782E-005  0.9118800E+02  0.7818608E-02  0.1130116E+00
         25   -1    0    0    0    0  0.00000000000E+00  0.00000000000E+00  0.99999998245E-14  0.12500000000E+03  0.12500000000E+03 0.  0.
        -11    1    3    3    0    0  0.38745286691E+01 -0.46700968466E+02  0.26260923339E+01  0.46934942093E+02  0.51100000000E-03 0.  1.
         23    2    1    0    0    0 -0.22615932890E+02 -0.80699541399E+01  0.16590657205E+02  0.95813453668E+02  0.91259867504E+02 0.  0.
         11    1    3    3    0    0 -0.26490461559E+02  0.38631014326E+02  0.13964564871E+02  0.48878511575E+02  0.51100000000E-03 0. -1.
         22    1    1    0    0    0  0.22615932890E+02  0.80699541399E+01 -0.16590657205E+02  0.29186546332E+02  0.00000000000E+00 0.  1.
</event>
<event>
 5    1  0.8962782E-005  0.9118800E+02  0.7818608E-02  0.1130116E+00
         25   -1    0    0    0    0  0.00000000000E+00  0.00000000000E+00  0.99999998245E-14  0.12500000000E+03  0.12500000000E+03 0.  0.
        -11    1    3    3    0    0  0.74437578452E+01 -0.43579772575E+02  0.15824527455E+02  0.46957659417E+02  0.51100000000E-03 0.  1.
         23    2    1    0    0    0  0.27530697019E+02  0.82148289432E+00  0.80282153573E+01  0.96310866965E+02  0.91938657491E+02 0.  0.
         11    1    3    3    0    0  0.20086939174E+02  0.44401255469E+02 -0.77963120978E+01  0.49353207547E+02  0.51100000000E-03 0. -1.
         22    1    1    0    0    0 -0.27530697019E+02 -0.82148289432E+00 -0.80282153573E+01  0.28689133035E+02  0.00000000000E+00 0. -1.
</event>
<event>
 5    1  0.8962782E-005  0.9118800E+02  0.7818608E-02  0.1130116E+00
         25   -1    0    0    0    0  0.00000000000E+00  0.00000000000E+00  0.99999998245E-14  0.12500000000E+03  0.12500000000E+03 0.  0.
        -11    1    3    3    0    0 -0.13442711212E+02 -0.41232858115E+02 -0.27422392173E+01  0.43455436360E+02  0.51100000000E-03 0.  1.
         23    2    1    0    0    0  0.96615730769E+01  0.34013192778E+01 -0.24668485056E+02  0.98289531600E+02  0.94590606828E+02 0.  0.
         11    1    3    3    0    0  0.23104284289E+02  0.44634177392E+02 -0.21926245839E+02  0.54834095241E+02  0.51100000000E-03 0. -1.
         22    1    1    0    0    0 -0.96615730769E+01 -0.34013192778E+01  0.24668485056E+02  0.26710468400E+02  0.00000000000E+00 0. -1.
</event>
<event>
 5    1  0.8962782E-005  0.9118800E+02  0.7818608E-02  0.1130116E+00
         25   -1    0    0    0    0  0.00000000000E+00  0.00000000000E+00  0.99999998245E-14  0.12500000000E+03  0.12500000000E+03 0.  0.
        -11    1    3    3    0    0  0.37937601555E+02  0.27364645065E+02 -0.27292070081E+02  0.54156647799E+02  0.51100000000E-03 0. -1.
         23    2    1    0    0    0  0.21900468726E+01  0.32281882811E+01 -0.27434154056E+02  0.97289887881E+02  0.93260237884E+02 0.  0.
         11    1    3    3    0    0 -0.35747554682E+02 -0.24136456784E+02 -0.14208397531E+00  0.43133240082E+02  0.51100000000E-03 0.  1.
         22    1    1    0    0    0 -0.21900468726E+01 -0.32281882811E+01  0.27434154056E+02  0.27710112119E+02  0.00000000000E+00 0. -1.
</event>
<event>
 5    1  0.8962782E-005  0.9118800E+02  0.7818608E-02  0.1130116E+00
         25   -1    0    0    0    0  0.00000000000E+00  0.00000000000E+00  0.99999998245E-14  0.12500000000E+03  0.12500000000E+03 0.  0.
        -11    1    3    3    0    0 -0.15524897695E+02  0.24328003151E+02  0.37169060723E+00  0.28861953155E+02  0.51100000000E-03 0.  1.
         23    2    1    0    0    0  0.36294742491E+02 -0.25467136693E+00  0.10744834394E+02  0.87147329603E+02  0.78497340088E+02 0.  0.
         11    1    3    3    0    0  0.51819640186E+02 -0.24582674518E+02  0.10373143786E+02  0.58285376448E+02  0.51100000000E-03 0. -1.
         22    1    1    0    0    0 -0.36294742491E+02  0.25467136693E+00 -0.10744834394E+02  0.37852670397E+02  0.00000000000E+00 0. -1.
</event>
<event>
 5    1  0.8962782E-005  0.9118800E+02  0.7818608E-02  0.1130116E+00
         25   -1    0    0    0    0  0.00000000000E+00  0.00000000000E+00  0.99999998245E-14  0.12500000000E+03  0.12500000000E+03 0.  0.
        -11    1    3    3    0    0  0.50845638132E+02 -0.21745915308E+02 -0.18965211836E+01  0.55333177592E+02  0.51100000000E-03 0.  1.
         23    2    1    0    0    0  0.24921474343E+02  0.56835095493E+01  0.13497820840E+02  0.96093714669E+02  0.91642941175E+02 0.  0.
         11    1    3    3    0    0 -0.25924163789E+02  0.27429424857E+02  0.15394342024E+02  0.40760537076E+02  0.51100000000E-03 0. -1.
         22    1    1    0    0    0 -0.24921474343E+02 -0.56835095493E+01 -0.13497820840E+02  0.28906285331E+02  0.00000000000E+00 0.  1.
</event>
<event>
 5    1  0.8962782E-005  0.9118800E+02  0.7818608E-02  0.1130116E+00
         25   -1    0    0    0    0  0.00000000000E+00  0.00000000000E+00  0.99999998245E-14  0.12500000000E+03  0.12500000000E+03 0.  0.
        -11    1    3    3    0    0 -0.35798974637E+01 -0.38531723953E+02  0.22196670622E+02  0.44611675642E+02  0.51100000000E-03 0.  1.
         23    2    1    0    0    0 -0.12119152909E+02 -0.16752715943E+02 -0.22118310327E+02  0.94722169655E+02  0.89752673574E+02 0.  0.
         11    1    3    3    0    0 -0.85392554450E+01  0.21779008010E+02 -0.44314980949E+02  0.50110494013E+02  0.51100000000E-03 0. -1.
         22    1    1    0    0    0  0.12119152909E+02  0.16752715943E+02  0.22118310327E+02  0.30277830345E+02  0.00000000000E+00 0.  1.
</event>
<event>
 5    1  0.8962782E-005  0.9118800E+02  0.7818608E-02  0.1130116E+00
         25   -1    0    0    0    0  0.00000000000E+00  0.00000000000E+00  0.99999998245E-14  0.12500000000E+03  0.12500000000E+03 0.  0.
        -11    1    3    3    0    0  0.23626321687E+02  0.86256925336E+01 -0.39074941491E+02  0.46469954819E+02  0.51100000000E-03 0.  1.
         23    2    1    0    0    0 -0.13325433933E+02  0.24168152393E+02 -0.11634459327E+02  0.95049583919E+02  0.90207516204E+02 0.  0.
         11    1    3    3    0    0 -0.36951755619E+02  0.15542459860E+02  0.27440482164E+02  0.48579629100E+02  0.51100000000E-03 0. -1.
         22    1    1    0    0    0  0.13325433933E+02 -0.24168152393E+02  0.11634459327E+02  0.29950416081E+02  0.00000000000E+00 0. -1.
</event>
